/*--------------------------------*- C++ -*----------------------------------*\
  =========                 |
  \\      /  F ield         | OpenFOAM: The Open Source CFD Toolbox
   \\    /   O peration     | Website:  https://openfoam.org
    \\  /    A nd           | Version:  10
     \\/     M anipulation  |
\*---------------------------------------------------------------------------*/
FoamFile
{
    format      ascii;
    class       volScalarField;
    location    "2.2";
    object      alphat;
}
// * * * * * * * * * * * * * * * * * * * * * * * * * * * * * * * * * * * * * //

dimensions      [1 -1 -1 0 0 0 0];

internalField   nonuniform List<scalar> 
2500
(
5.3985605149949e-14
8.5766349918024e-13
3.28534300728216e-12
4.95884532092551e-12
5.81775755114095e-12
6.17685589198707e-12
6.30431102295087e-12
6.34386020763614e-12
6.35483232505963e-12
6.3576005091398e-12
6.3582426616343e-12
6.35837907569565e-12
6.35840315717469e-12
6.35840391839102e-12
6.35840130185437e-12
6.3583984520374e-12
6.35839584572191e-12
6.35839356916388e-12
6.35839156990629e-12
6.3583897790766e-12
6.3583881769474e-12
6.35838674594435e-12
6.3583854722628e-12
6.35838433592072e-12
6.35838335286249e-12
6.35838252679675e-12
6.35838184189168e-12
6.35838131998195e-12
6.35838098689143e-12
6.35838088206616e-12
6.35838097337967e-12
6.35838120695456e-12
6.35838165806613e-12
6.35838227052712e-12
6.35838309013814e-12
6.35838390651083e-12
6.35838341264655e-12
6.3583739326914e-12
6.35832134740301e-12
6.35808543254187e-12
6.35711104115453e-12
6.35334942500732e-12
6.3398326885625e-12
6.29510060868626e-12
6.16073639144861e-12
5.80140584841802e-12
4.96754229250277e-12
3.34793720886414e-12
9.08211137646134e-13
6.05675044694574e-14
4.48412433828921e-12
2.11486870946793e-10
8.43983189952982e-10
1.2889227883178e-09
1.52442777971077e-09
1.62597212025944e-09
1.66305952104658e-09
1.67486883024263e-09
1.67822144920227e-09
1.67908485050743e-09
1.67928893408723e-09
1.67933320186454e-09
1.67934140164145e-09
1.6793419186542e-09
1.67934125869669e-09
1.67934049467751e-09
1.67933979023244e-09
1.67933916919703e-09
1.67933862110853e-09
1.67933813240544e-09
1.67933769674304e-09
1.67933730928848e-09
1.67933696541907e-09
1.67933665761247e-09
1.6793363903947e-09
1.67933616700706e-09
1.67933598164618e-09
1.67933584094903e-09
1.67933575288293e-09
1.67933572420371e-09
1.67933574917384e-09
1.67933581061151e-09
1.6793359289683e-09
1.67933609527389e-09
1.67933631643754e-09
1.67933652167232e-09
1.67933626972892e-09
1.67933306822023e-09
1.67931615496137e-09
1.67924181218576e-09
1.67893917829141e-09
1.67778840454636e-09
1.67372276749247e-09
1.66052324095826e-09
1.62172570526724e-09
1.52047529623862e-09
1.29180059484468e-09
8.60151801281083e-10
2.23623931185472e-10
5.03911391081627e-12
1.50329430751025e-11
3.65484941262911e-09
1.13452555097091e-06
1.72512429899966e-06
2.03907669778754e-06
2.17676104380453e-06
2.22814728247647e-06
2.24488442565811e-06
2.24974217077141e-06
2.25101981390406e-06
2.25132804856901e-06
2.25139647152589e-06
2.25140976655949e-06
2.25141107537832e-06
2.25141037664305e-06
2.25140947051786e-06
2.2514086183035e-06
2.25140786196472e-06
2.25140719239168e-06
2.25140659474276e-06
2.25140606075171e-06
2.25140558408698e-06
2.2514051604962e-06
2.25140478365817e-06
2.25140445416888e-06
2.25140417566175e-06
2.25140394633279e-06
2.25140376920388e-06
2.25140365373571e-06
2.25140361269893e-06
2.25140363352942e-06
2.2514036996459e-06
2.25140383145657e-06
2.25140402417553e-06
2.25140427590638e-06
2.25140448004931e-06
2.25140394771345e-06
2.25139896053209e-06
2.25137385969581e-06
2.25126520929777e-06
2.25082751127603e-06
2.2491807255648e-06
2.24343132960355e-06
2.22501336489935e-06
2.17166786527557e-06
2.03452584924974e-06
1.7286556687165e-06
1.15337154934297e-06
3.833112392845e-09
1.64546853453003e-11
2.55065879177554e-11
6.28511689529262e-09
1.93246600758096e-06
2.90792678964042e-06
3.42240200690222e-06
3.64838444347708e-06
3.73329402185239e-06
3.76121103247473e-06
3.76940154995593e-06
3.77158098195931e-06
3.77211337422389e-06
3.77223331546661e-06
3.77225730666671e-06
3.77226024479894e-06
3.77225928888496e-06
3.77225797798391e-06
3.77225672076771e-06
3.77225559644039e-06
3.77225459709383e-06
3.77225370216229e-06
3.77225289871666e-06
3.77225217875583e-06
3.77225153674882e-06
3.77225096576305e-06
3.77225046435426e-06
3.77225003614594e-06
3.77224968120244e-06
3.77224940183313e-06
3.77224921061114e-06
3.77224912436636e-06
3.77224912974165e-06
3.772249217858e-06
3.77224938056672e-06
3.7722496417073e-06
3.77224998188602e-06
3.77225026312103e-06
3.77224933502173e-06
3.77224121136862e-06
3.77220113373001e-06
3.7720269292587e-06
3.7713213358207e-06
3.76865217266691e-06
3.75928841167409e-06
3.72917349230653e-06
3.64168133864775e-06
3.41614752943885e-06
2.9112098788804e-06
1.95408175433072e-06
6.49528957694963e-09
2.7167964057683e-11
3.43533868555802e-11
8.51773998629441e-09
2.59427262914666e-06
3.87484333536595e-06
4.54723564559858e-06
4.84322160744478e-06
4.95509559053319e-06
4.99217773789738e-06
5.00316059788097e-06
5.00611365215123e-06
5.006843292159e-06
5.00700988378472e-06
5.00704408736221e-06
5.00704896553997e-06
5.00704814418701e-06
5.00704668374086e-06
5.0070452398328e-06
5.00704393594593e-06
5.00704277087858e-06
5.00704172375182e-06
5.0070407788901e-06
5.0070399267817e-06
5.00703916280323e-06
5.00703848061018e-06
5.00703787903931e-06
5.00703735953423e-06
5.00703692275161e-06
5.0070365719548e-06
5.00703631922385e-06
5.00703618205352e-06
5.00703615213081e-06
5.00703620631949e-06
5.00703636269386e-06
5.00703662200892e-06
5.00703695934998e-06
5.00703720409711e-06
5.0070358057942e-06
5.00702530094713e-06
5.0069741870326e-06
5.00675122533117e-06
5.00584364332074e-06
5.00239264799513e-06
4.99022962663131e-06
4.95096019980445e-06
4.83653082409279e-06
4.54087410668059e-06
3.87726192481924e-06
2.61360764644813e-06
8.71423850735034e-09
3.59641196862468e-11
4.11966867857637e-11
1.02732157654089e-08
3.11056426472702e-06
4.62286422183695e-06
5.41524518426233e-06
5.76495299475963e-06
5.89784399154053e-06
5.94220664830137e-06
5.9554551104564e-06
5.95905026157653e-06
5.95994764019465e-06
5.9601549988351e-06
5.96019857638893e-06
5.96020553979083e-06
5.9602051009031e-06
5.96020368568322e-06
5.96020222471443e-06
5.96020088776352e-06
5.96019968372724e-06
5.96019859491906e-06
5.96019760673195e-06
5.96019671003593e-06
5.96019589989274e-06
5.96019517180138e-06
5.96019452540727e-06
5.96019396027335e-06
5.96019347746384e-06
5.9601930801437e-06
5.96019277841925e-06
5.96019258690616e-06
5.96019249898061e-06
5.96019251048365e-06
5.9601926217174e-06
5.96019282431823e-06
5.9601930913629e-06
5.9601932012229e-06
5.96019132383962e-06
5.96017900594173e-06
5.96011987234654e-06
5.95986143750244e-06
5.95880534256386e-06
5.95477287867742e-06
5.94050681974105e-06
5.89430507951831e-06
5.75936935725153e-06
5.41018927267239e-06
4.62535264271297e-06
3.12705298809822e-06
1.04453797455639e-08
4.268056349138e-11
4.61424197812888e-11
1.15672335062438e-08
3.49207773816762e-06
5.17356855536615e-06
6.05403590717371e-06
6.44366784280587e-06
6.59243521085186e-06
6.64240285346449e-06
6.65743195174683e-06
6.66154293656256e-06
6.66257824418389e-06
6.66282003197525e-06
6.6628718734326e-06
6.6628808479229e-06
6.66288091593979e-06
6.66287967012513e-06
6.66287830185109e-06
6.66287702719279e-06
6.66287586747356e-06
6.66287481025922e-06
6.66287384385377e-06
6.66287296032391e-06
6.66287215564644e-06
6.66287142666018e-06
6.66287077302886e-06
6.66287019402028e-06
6.66286969088687e-06
6.66286926604506e-06
6.66286892697639e-06
6.66286868379694e-06
6.66286853923799e-06
6.66286848962834e-06
6.66286853249687e-06
6.66286865859091e-06
6.66286881615732e-06
6.66286874535598e-06
6.66286641845785e-06
6.66285274255911e-06
6.66278792038232e-06
6.66250443126275e-06
6.66134253392564e-06
6.65689170135388e-06
6.64109934943734e-06
6.58983368174456e-06
6.43986050366672e-06
6.05138538822785e-06
5.17762253844816e-06
3.50725997844317e-06
1.17217032054559e-08
4.75240539074748e-11
4.95147614508457e-11
1.24681656736917e-08
3.7602681363476e-06
5.56063068601165e-06
6.50356013518346e-06
6.92190206319618e-06
7.08228285167572e-06
7.13642946054243e-06
7.15281356211715e-06
7.15732557438416e-06
7.15847055621969e-06
7.15874042522425e-06
7.158799230228e-06
7.15881002014014e-06
7.15881065101978e-06
7.15880963431887e-06
7.15880841499095e-06
7.15880725256725e-06
7.15880618163941e-06
7.15880519581929e-06
7.1588042869446e-06
7.15880344888619e-06
7.15880267893142e-06
7.15880197485786e-06
7.15880133660162e-06
7.15880076359388e-06
7.15880025700398e-06
7.1587998184119e-06
7.15879945301124e-06
7.15879916751741e-06
7.15879896671113e-06
7.15879884713457e-06
7.15879881881443e-06
7.15879885495339e-06
7.15879890749869e-06
7.15879863876681e-06
7.15879591414495e-06
7.15878126497514e-06
7.15871252940741e-06
7.1584119274503e-06
7.15717726154243e-06
7.1524361702084e-06
7.13557681995834e-06
7.08075143530851e-06
6.92017542107888e-06
6.50397944520823e-06
5.56757045404566e-06
3.77614161415885e-06
1.2616622822218e-08
5.08484792264849e-11
5.16988599152176e-11
1.30639916325957e-08
3.94022730241744e-06
5.82100499031414e-06
6.8067040261944e-06
7.24501097124311e-06
7.41361233929917e-06
7.47077468263327e-06
7.48815672223418e-06
7.49297038906856e-06
7.49419970177966e-06
7.49449168771884e-06
7.49455612807945e-06
7.49456848125577e-06
7.49456966105693e-06
7.49456887783435e-06
7.49456782390914e-06
7.49456679052085e-06
7.4945658245647e-06
7.49456492557485e-06
7.4945640888759e-06
7.49456331028336e-06
7.4945625883887e-06
7.49456192180303e-06
7.49456131083172e-06
7.49456075511979e-06
7.49456025577128e-06
7.49455981372757e-06
7.49455943245458e-06
7.49455911603787e-06
7.49455886831932e-06
7.49455868945015e-06
7.49455858608775e-06
7.4945585324083e-06
7.49455847375085e-06
7.4945580018507e-06
7.49455499734499e-06
7.49453967606514e-06
7.49446833599075e-06
7.49415645417314e-06
7.49287356900628e-06
7.48793865773375e-06
7.47036196952987e-06
7.41313170459176e-06
7.24537391169353e-06
6.81039451830062e-06
5.83159126381651e-06
3.95832763936125e-06
1.32163258433265e-08
5.3031992799411e-11
5.30496955378653e-11
1.34401322152743e-08
4.05586574095521e-06
5.98906979038764e-06
7.00305530304628e-06
7.45478825094602e-06
7.62902017879038e-06
7.68828890824345e-06
7.7063823212041e-06
7.7114155739115e-06
7.7127076137659e-06
7.71301643349053e-06
7.71308525890058e-06
7.71309890750202e-06
7.71310058955454e-06
7.71309999037015e-06
7.71309909091185e-06
7.71309818092529e-06
7.71309731687522e-06
7.71309650339822e-06
7.71309573885334e-06
7.71309502086832e-06
7.71309434916196e-06
7.71309372304187e-06
7.71309314321048e-06
7.71309260951773e-06
7.71309212303926e-06
7.71309168428049e-06
7.7130912955554e-06
7.71309095916574e-06
7.71309067808865e-06
7.71309045328893e-06
7.71309028667996e-06
7.71309015988575e-06
7.71308999881897e-06
7.71308938190658e-06
7.71308617374296e-06
7.71307038604456e-06
7.71299736941964e-06
7.71267831924952e-06
7.71136467283664e-06
7.70630526406377e-06
7.68826494486752e-06
7.6294733922911e-06
7.45704157433874e-06
7.00983079136032e-06
6.00344197280117e-06
4.07695750521445e-06
1.36020358246298e-08
5.44104025140326e-11
5.3851306130518e-11
1.36678030409753e-08
4.12725310566631e-06
6.09344194346841e-06
7.12551291107323e-06
7.58598258861189e-06
7.76394835452244e-06
7.82464186342885e-06
7.84322639029315e-06
7.84841443389022e-06
7.84975164268543e-06
7.85007285614237e-06
7.85014497225541e-06
7.85015962518782e-06
7.85016169636473e-06
7.8501612883969e-06
7.85016052139011e-06
7.8501597179024e-06
7.85015894279059e-06
7.85015820480977e-06
7.85015750474606e-06
7.85015684170484e-06
7.85015621631428e-06
7.85015562844903e-06
7.85015507914609e-06
7.85015456843077e-06
7.85015409737137e-06
7.85015366620518e-06
7.85015327652933e-06
7.85015292951096e-06
7.85015262728599e-06
7.85015237056634e-06
7.85015215914648e-06
7.85015197648509e-06
7.85015174145458e-06
7.85015102229243e-06
7.8501476674721e-06
7.85013157049141e-06
7.85005751104131e-06
7.84973406860216e-06
7.84840152320715e-06
7.84326514742459e-06
7.82493653934784e-06
7.76517001598703e-06
7.5898120244783e-06
7.13493633396548e-06
6.11126060017348e-06
4.15141147881571e-06
1.38410457168522e-08
5.52499304499948e-11
5.43096204853133e-11
1.38004628002042e-08
4.16972530192114e-06
6.15597721247647e-06
7.19924205177024e-06
7.66521960061274e-06
7.84558519034172e-06
7.90721296289563e-06
7.92612619195411e-06
7.93142001165764e-06
7.93278874284354e-06
7.93311879461003e-06
7.93319330749035e-06
7.93320869807037e-06
7.93321107535108e-06
7.93321082501807e-06
7.93321016396152e-06
7.93320944638203e-06
7.93320874383873e-06
7.93320806818239e-06
7.93320742201196e-06
7.93320680554557e-06
7.93320622008996e-06
7.93320566594925e-06
7.93320514441526e-06
7.93320465564835e-06
7.9332042007196e-06
7.93320377970577e-06
7.93320339377274e-06
7.93320304338757e-06
7.93320273000391e-06
7.93320245380967e-06
7.93320221353196e-06
7.93320199288589e-06
7.93320170779167e-06
7.93320092033069e-06
7.93319746702125e-06
7.93318117376117e-06
7.93310648802748e-06
7.93278044900855e-06
7.931436709214e-06
7.92625447652021e-06
7.90775314801394e-06
7.84740001812731e-06
7.67027658185692e-06
7.21076939468149e-06
6.17663879838074e-06
4.19658182422973e-06
1.3984230813881e-08
5.57449115311978e-11
5.45630182329941e-11
1.38751457802069e-08
4.19415246121893e-06
6.19222595572506e-06
7.2422092044046e-06
7.71155582863076e-06
7.89341847662589e-06
7.95564094313741e-06
7.97476774018609e-06
7.98013172278392e-06
7.98152180360533e-06
7.98185797018477e-06
7.98193418124836e-06
7.9819501022371e-06
7.98195270428694e-06
7.98195257169674e-06
7.98195199119565e-06
7.981951340193e-06
7.98195069473001e-06
7.98195006879664e-06
7.98194946626062e-06
7.98194888812813e-06
7.98194833617598e-06
7.98194781101183e-06
7.9819473141036e-06
7.981946845708e-06
7.98194640690027e-06
7.98194599766069e-06
7.98194561889937e-06
7.98194527066259e-06
7.98194495391253e-06
7.9819446683654e-06
7.98194441213691e-06
7.98194416879508e-06
7.98194385286479e-06
7.9819430230137e-06
7.98193950811251e-06
7.98192309627553e-06
7.98184804799833e-06
7.98152052676086e-06
7.98017038429014e-06
7.97496177291563e-06
7.95636053926166e-06
7.89566662714971e-06
7.71751439676033e-06
7.25530246723823e-06
6.21505531055027e-06
4.22314554497481e-06
1.40674162991657e-08
5.60282685839312e-11
5.46989379803964e-11
1.39158984779831e-08
4.20777202133949e-06
6.21260743965796e-06
7.26650810813486e-06
7.73785771798241e-06
7.9206282703326e-06
7.98321877975099e-06
8.00248048663502e-06
8.00788971307718e-06
8.00929384869708e-06
8.00963412641688e-06
8.00971150742614e-06
8.00972780230585e-06
8.00973056461646e-06
8.00973051512588e-06
8.00972999467339e-06
8.00972939439641e-06
8.00972879320596e-06
8.00972820649262e-06
8.00972763898007e-06
8.00972709220289e-06
8.00972656824237e-06
8.00972606790237e-06
8.00972559276157e-06
8.00972514314083e-06
8.00972472011536e-06
8.00972432360775e-06
8.00972395437416e-06
8.00972361221125e-06
8.00972329775435e-06
8.00972301037512e-06
8.00972274780916e-06
8.00972249342601e-06
8.00972216105435e-06
8.0097213075794e-06
8.00971775744157e-06
8.00970127818902e-06
8.00962602831394e-06
8.00929768957109e-06
8.00794400481592e-06
8.00272071205063e-06
7.98406356040037e-06
7.92317803757798e-06
7.74444532316669e-06
7.2807030181444e-06
6.23698567322627e-06
4.23832691406005e-06
1.41144115557331e-08
5.61861788798408e-11
5.47698643818771e-11
1.39375141705822e-08
4.21515285498159e-06
6.22375099773151e-06
7.27987508595716e-06
7.75238420574446e-06
7.93569097036111e-06
7.99850330461679e-06
8.01784800265e-06
8.02328563736233e-06
8.02469878145663e-06
8.0250417502712e-06
8.02511991537893e-06
8.0251364666626e-06
8.02513934144851e-06
8.02513935517306e-06
8.02513888045466e-06
8.02513831937963e-06
8.02513775307778e-06
8.02513719786795e-06
8.02513665905894e-06
8.02513613853792e-06
8.02513563855945e-06
8.0251351600379e-06
8.02513470461215e-06
8.02513427264344e-06
8.02513386520111e-06
8.02513348217173e-06
8.02513312421583e-06
8.0251327909802e-06
8.02513248289137e-06
8.02513219909266e-06
8.02513193707395e-06
8.02513168005077e-06
8.02513134150812e-06
8.02513047748397e-06
8.02512691005434e-06
8.02511039587954e-06
8.02503503937371e-06
8.02470626532075e-06
8.02335068182438e-06
8.01811946559013e-06
7.9994319547597e-06
7.93844189590404e-06
7.75939124419279e-06
7.29480787225871e-06
6.24917662862211e-06
4.24677852248726e-06
1.41402913116885e-08
5.62720423961528e-11
5.48059535554527e-11
1.39486854093086e-08
4.21904961549606e-06
6.22968882845883e-06
7.28704365690533e-06
7.76020756681065e-06
7.94382329098788e-06
8.00676605503026e-06
8.02616055310221e-06
8.03161558542958e-06
8.03303436130507e-06
8.03337904906184e-06
8.03345772703367e-06
8.03347445045306e-06
8.03347740662694e-06
8.03347747049106e-06
8.03347703185112e-06
8.0334765021107e-06
8.03347596422143e-06
8.03347543513962e-06
8.03347492062642e-06
8.03347442281764e-06
8.03347394404344e-06
8.03347348526061e-06
8.03347304812851e-06
8.03347263302897e-06
8.03347224102051e-06
8.03347187197243e-06
8.03347152647216e-06
8.03347120408068e-06
8.03347090508405e-06
8.0334706284798e-06
8.03347037159825e-06
8.03347011755138e-06
8.0334697796728e-06
8.03346891365691e-06
8.03346534043026e-06
8.03344881104597e-06
8.03337340199421e-06
8.03304440483186e-06
8.03168783400087e-06
8.02645246154701e-06
8.0077489215327e-06
7.94670338181972e-06
7.76748325844241e-06
7.30244979075667e-06
6.25578997759516e-06
4.25137139884389e-06
1.41542121057847e-08
5.63176851657474e-11
5.48238900423229e-11
1.39543215782663e-08
4.22105783367994e-06
6.23277839351865e-06
7.2907988834121e-06
7.76432417567105e-06
7.94811388922564e-06
8.01113160199435e-06
8.03055530024033e-06
8.03602074258431e-06
8.03744295937755e-06
8.0377887217915e-06
8.03786772953918e-06
8.03788456849606e-06
8.0378875854627e-06
8.03788769041299e-06
8.03788728176592e-06
8.03788677850146e-06
8.03788626500735e-06
8.03788575868255e-06
8.03788526573532e-06
8.03788478851072e-06
8.03788432933052e-06
8.03788388913616e-06
8.03788346957364e-06
8.03788307103476e-06
8.03788269456327e-06
8.03788234001838e-06
8.03788200793031e-06
8.03788169779981e-06
8.03788140981836e-06
8.0378811428843e-06
8.03788089422009e-06
8.03788064686853e-06
8.03788031410206e-06
8.03787945151975e-06
8.0378758795442e-06
8.03785934644511e-06
8.03778391468532e-06
8.03745480855953e-06
8.03609773962755e-06
8.03086024334994e-06
8.01214845037588e-06
7.95107418639153e-06
7.7717659163551e-06
7.30649732404808e-06
6.25929764568689e-06
4.25381222825352e-06
1.41615388678599e-08
5.63414415730046e-11
5.48326058526383e-11
1.39571010623026e-08
4.22206959522731e-06
6.23435066135841e-06
7.29272359896399e-06
7.7664441905888e-06
7.95032984979559e-06
8.0133897298188e-06
8.03283018828277e-06
8.03830172778259e-06
8.0397260037759e-06
8.040072426157e-06
8.04015164401108e-06
8.04016856163147e-06
8.04017162562833e-06
8.04017176548068e-06
8.04017138299361e-06
8.04017090322229e-06
8.04017041160211e-06
8.04016992582251e-06
8.0401694526525e-06
8.04016899465887e-06
8.04016855408102e-06
8.04016813178282e-06
8.04016772937046e-06
8.0401673472357e-06
8.04016698641221e-06
8.04016664675347e-06
8.04016632873666e-06
8.04016603180771e-06
8.04016575608435e-06
8.0401655003959e-06
8.04016526188057e-06
8.04016502352655e-06
8.04016469856718e-06
8.04016384258609e-06
8.04016027580924e-06
8.04014374521327e-06
8.04006830650786e-06
8.03973915087278e-06
8.03838183855693e-06
8.03314328233504e-06
8.0144273320994e-06
7.95333851454359e-06
7.77398537688971e-06
7.3085965771212e-06
6.26111954087031e-06
4.25508262829242e-06
1.41653168912744e-08
5.63535614072982e-11
5.48367449052504e-11
1.39584410368163e-08
4.22256828485981e-06
6.23513405216441e-06
7.29369003204432e-06
7.76751419235317e-06
7.95145177179995e-06
8.01453492775787e-06
8.03398482198526e-06
8.03945986430888e-06
8.04088535065825e-06
8.04123217319099e-06
8.04131152512681e-06
8.0413284980646e-06
8.04133160017388e-06
8.04133177092658e-06
8.04133141231428e-06
8.04133095434638e-06
8.04133048314061e-06
8.04133001653648e-06
8.0413295620746e-06
8.04132912258153e-06
8.04132870013329e-06
8.04132829546316e-06
8.0413279101117e-06
8.0413275444653e-06
8.04132719955764e-06
8.0413268752471e-06
8.0413265719443e-06
8.04132628903683e-06
8.04132602657425e-06
8.0413257833297e-06
8.04132555636916e-06
8.04132532862164e-06
8.04132501326203e-06
8.04132416584084e-06
8.04132060649327e-06
8.04130408170141e-06
8.04122864420986e-06
8.04089946928514e-06
8.03954204269366e-06
8.03430296844792e-06
8.01558496048697e-06
7.95448889668332e-06
7.77511332850201e-06
7.30966420469623e-06
6.26204737020181e-06
4.25573087296569e-06
1.4167226799375e-08
5.63596231155648e-11
5.48386581686596e-11
1.39590710406105e-08
4.22280857876811e-06
6.23551626447195e-06
7.29416571497326e-06
7.76804391468806e-06
7.95200913917034e-06
8.01510493273489e-06
8.03456004987172e-06
8.04003707086722e-06
8.04146325819574e-06
8.04181032166941e-06
8.04188976026957e-06
8.04190677387825e-06
8.0419099081044e-06
8.04191010682201e-06
8.04190977034172e-06
8.04190933289209e-06
8.04190888095853e-06
8.0419084324031e-06
8.04190799577043e-06
8.04190757416101e-06
8.04190716941893e-06
8.04190678210498e-06
8.04190641368078e-06
8.04190606452723e-06
8.04190573569806e-06
8.04190542708023e-06
8.04190513898647e-06
8.04190487072483e-06
8.04190462227691e-06
8.04190439236376e-06
8.04190417798745e-06
8.04190396200395e-06
8.04190365749069e-06
8.04190281990762e-06
8.04189926930704e-06
8.0418827521081e-06
8.04180732002789e-06
8.04147814085145e-06
8.04012066384489e-06
8.03488134091912e-06
8.01616232562206e-06
7.95506269443891e-06
7.77567605710834e-06
7.3101971030556e-06
6.26251095431948e-06
4.25605524138173e-06
1.41681729309261e-08
5.63625919496001e-11
5.48395082952753e-11
1.39593574115484e-08
4.22292129560943e-06
6.23569852219671e-06
7.29439506887632e-06
7.76830111803051e-06
7.95228088132525e-06
8.01538344857374e-06
8.03484141758898e-06
8.04031954116426e-06
8.04174613021882e-06
8.04209333891636e-06
8.04217283514661e-06
8.04218988064623e-06
8.04219304294382e-06
8.04219326729316e-06
8.04219295141301e-06
8.04219253336244e-06
8.04219209979926e-06
8.04219166851741e-06
8.04219124916178e-06
8.04219084502937e-06
8.04219045770205e-06
8.04219008756977e-06
8.04218973601949e-06
8.04218940343552e-06
8.04218909091741e-06
8.04218879842568e-06
8.04218852612584e-06
8.04218827320869e-06
8.04218803958153e-06
8.04218782392202e-06
8.04218762319022e-06
8.04218742014917e-06
8.04218712773938e-06
8.04218630127333e-06
8.04218276070793e-06
8.04216625260824e-06
8.04209082858492e-06
8.04176165295324e-06
8.04040415690796e-06
8.03516471687438e-06
8.01644520942651e-06
7.95534382547277e-06
7.77595175457213e-06
7.31045817999745e-06
6.26273810429879e-06
4.25621419802181e-06
1.41686309148537e-08
5.63640100404745e-11
5.48398662340063e-11
1.39594803209597e-08
4.22297209107803e-06
6.2357828833097e-06
7.29450297152837e-06
7.76842328663349e-06
7.95241065073904e-06
8.01551682365113e-06
8.03497633691988e-06
8.04045506936774e-06
8.04188188736753e-06
8.04222918432974e-06
8.04230872041265e-06
8.04232579282092e-06
8.04232898024085e-06
8.04232922797415e-06
8.04232893094085e-06
8.04232853095424e-06
8.04232811483877e-06
8.04232770032563e-06
8.04232729792982e-06
8.04232691093754e-06
8.04232654070427e-06
8.04232618751982e-06
8.04232585271824e-06
8.04232553669289e-06
8.04232524062426e-06
8.04232496459123e-06
8.04232470855132e-06
8.0423244715549e-06
8.04232425342998e-06
8.04232405282981e-06
8.04232386674603e-06
8.04232367781525e-06
8.04232339880477e-06
8.04232258485682e-06
8.0423190558233e-06
8.04230255848737e-06
8.04222714470047e-06
8.04189797718816e-06
8.04054047796763e-06
8.03530098502035e-06
8.01658123544098e-06
7.95547898093178e-06
7.77608422560852e-06
7.310583479081e-06
6.26284691834192e-06
4.25629009757938e-06
1.41688457625145e-08
5.6364665641579e-11
5.48399783355623e-11
1.39595277927892e-08
4.2229931870001e-06
6.23581996510193e-06
7.29455178833891e-06
7.76847945810723e-06
7.9524708267785e-06
8.015578927695e-06
8.0350392778278e-06
8.0405183460143e-06
8.04194529480958e-06
8.04229264647213e-06
8.04237221147841e-06
8.04238930809872e-06
8.04239251850633e-06
8.04239278784737e-06
8.04239250824003e-06
8.04239212530695e-06
8.04239172624767e-06
8.04239132883541e-06
8.0423909439155e-06
8.04239057444011e-06
8.04239022159004e-06
8.04238988565537e-06
8.04238956794939e-06
8.04238926888315e-06
8.04238898970947e-06
8.04238873061431e-06
8.04238849134332e-06
8.04238827084126e-06
8.04238806887486e-06
8.04238788410163e-06
8.04238771380312e-06
8.04238754038921e-06
8.04238727639037e-06
8.04238647678908e-06
8.0423829613413e-06
8.04236647702963e-06
8.04229107602511e-06
8.04196192039095e-06
8.04060442743463e-06
8.03536491485092e-06
8.01664504693489e-06
7.95554235144365e-06
7.77614624054099e-06
7.31064191618876e-06
6.26289731414423e-06
4.25632484076422e-06
1.41689413855872e-08
5.63649498627599e-11
5.48399320951906e-11
1.395953475529e-08
4.22299998917883e-06
6.23583391374066e-06
7.29457178553702e-06
7.76850342684586e-06
7.95249696980648e-06
8.01560612160399e-06
8.03506693075877e-06
8.04054618520407e-06
8.041973209146e-06
8.04232059508395e-06
8.04240018083858e-06
8.04241729726341e-06
8.04242052751645e-06
8.04242081680325e-06
8.04242055351822e-06
8.04242018695884e-06
8.04241980495522e-06
8.0424194254398e-06
8.04241905934275e-06
8.04241870874463e-06
8.04241837444692e-06
8.04241805680091e-06
8.04241775713335e-06
8.04241747586457e-06
8.04241721424433e-06
8.04241697243416e-06
8.04241675012692e-06
8.0424165462603e-06
8.04241636055949e-06
8.04241619173334e-06
8.04241603818364e-06
8.04241588178169e-06
8.04241563459986e-06
8.04241485148148e-06
8.04241135211498e-06
8.04239488363165e-06
8.04231949852182e-06
8.04199035880304e-06
8.04063287974454e-06
8.03539336856804e-06
8.01667345064772e-06
7.9555705348112e-06
7.77617372449907e-06
7.31066757050032e-06
6.26291894564536e-06
4.25633926669524e-06
1.41689802880054e-08
5.63650426808842e-11
5.48398550673135e-11
1.39595182250297e-08
4.22299945420424e-06
6.23583591130309e-06
7.29457686980999e-06
7.76851073780535e-06
7.95250556326971e-06
8.01561535066474e-06
8.03507644267713e-06
8.04055581750472e-06
8.04198289683183e-06
8.04233031429769e-06
8.0424099221908e-06
8.04242705692204e-06
8.04243030955116e-06
8.04243062358571e-06
8.04243038137886e-06
8.04243003567937e-06
8.04242967502485e-06
8.04242931748617e-06
8.04242897329382e-06
8.04242864413034e-06
8.04242833051208e-06
8.04242803292348e-06
8.0424277527326e-06
8.0424274903606e-06
8.04242724696506e-06
8.04242702257437e-06
8.04242681701859e-06
8.04242662927858e-06
8.04242645900169e-06
8.04242630489617e-06
8.04242616643423e-06
8.04242602457347e-06
8.04242579120845e-06
8.04242502113515e-06
8.0424215339697e-06
8.04240507689521e-06
8.04232970271751e-06
8.04200057404123e-06
8.04064310618672e-06
8.03540360179267e-06
8.01668366406457e-06
7.95558063034724e-06
7.77618342991923e-06
7.31067631822547e-06
6.26292582238288e-06
4.25634349996083e-06
1.41689857373036e-08
5.63650143940901e-11
5.48397566871165e-11
1.39594941177434e-08
4.22299398118773e-06
6.23583045851969e-06
7.29457250345203e-06
7.76850756989801e-06
7.95250318934518e-06
8.01561338959749e-06
8.03507467159802e-06
8.04055413335975e-06
8.04198125930254e-06
8.04232870828262e-06
8.04240833911082e-06
8.0424254893604e-06
8.04242876639999e-06
8.04242910855447e-06
8.04242889044819e-06
8.04242856863111e-06
8.04242823197402e-06
8.04242789853649e-06
8.04242757666018e-06
8.04242726853969e-06
8.04242697520215e-06
8.04242669735573e-06
8.04242643643484e-06
8.04242619286619e-06
8.04242596770226e-06
8.04242576086472e-06
8.04242557233907e-06
8.04242540113057e-06
8.04242524677436e-06
8.04242510778302e-06
8.04242498270145e-06
8.04242485267872e-06
8.04242462999632e-06
8.0424238694602e-06
8.04242039062575e-06
8.04240394066566e-06
8.04232857289015e-06
8.04199945166945e-06
8.04064199562272e-06
8.03540251047547e-06
8.0166825948626e-06
7.95557955590809e-06
7.7761822539694e-06
7.31067489808634e-06
6.26292415753081e-06
4.25634196254404e-06
1.41689723243422e-08
5.63649696049093e-11
5.48396168056881e-11
1.39594549981531e-08
4.22298292362052e-06
6.23581678365287e-06
7.29455850015367e-06
7.76849395463896e-06
7.95248997512875e-06
8.01560041530131e-06
8.0350618150908e-06
8.04054133381633e-06
8.04196849297293e-06
8.04231596620151e-06
8.04239561456842e-06
8.042412775982e-06
8.04241607434013e-06
8.04241644149213e-06
8.04241624354218e-06
8.0424159431162e-06
8.04241562815317e-06
8.04241531658569e-06
8.042415015197e-06
8.04241472632205e-06
8.04241445182007e-06
8.04241419255644e-06
8.04241395002401e-06
8.04241372466906e-06
8.04241351748977e-06
8.04241332835108e-06
8.04241315732165e-06
8.04241300337765e-06
8.0424128658997e-06
8.04241274314216e-06
8.04241263217839e-06
8.04241251523296e-06
8.04241230479989e-06
8.04241155581502e-06
8.04240808786071e-06
8.04239164817113e-06
8.04231629119265e-06
8.04198718556606e-06
8.04062976007332e-06
8.03539034032899e-06
8.01667055878452e-06
7.9555677725976e-06
7.77617091967099e-06
7.31066436815158e-06
6.2629151074607e-06
4.25633556795012e-06
1.41689507277224e-08
5.63649002381381e-11
5.48393897659079e-11
1.39593869297298e-08
4.22296188098433e-06
6.23578899408206e-06
7.29452832304196e-06
7.76846322142996e-06
7.95245924665515e-06
8.01556977520839e-06
8.035031237645e-06
8.04051079312181e-06
8.04193797730529e-06
8.04228547089916e-06
8.04236513529662e-06
8.04238230810624e-06
8.04238562858623e-06
8.042386019492e-06
8.04238583591581e-06
8.04238555483534e-06
8.04238525966671e-06
8.04238496807458e-06
8.0423846860876e-06
8.04238441596663e-06
8.04238415982558e-06
8.04238391863892e-06
8.04238369395625e-06
8.04238348627207e-06
8.04238329657944e-06
8.04238312472289e-06
8.04238297076053e-06
8.04238283355121e-06
8.04238271225235e-06
8.0423826049129e-06
8.04238250817692e-06
8.04238240461195e-06
8.04238220694304e-06
8.04238147038483e-06
8.04237801467881e-06
8.04236158732794e-06
8.04228624521501e-06
8.04195716582012e-06
8.04059980050755e-06
8.03536052545257e-06
8.01664107624177e-06
7.95553899929201e-06
7.77614354666492e-06
7.31063956523926e-06
6.26289469918372e-06
4.25632215929874e-06
1.41689134611998e-08
5.63647916371256e-11
5.48389748699922e-11
1.39592598940051e-08
4.22292082007341e-06
6.23573309122182e-06