/*--------------------------------*- C++ -*----------------------------------*\
  =========                 |
  \\      /  F ield         | OpenFOAM: The Open Source CFD Toolbox
   \\    /   O peration     | Website:  https://openfoam.org
    \\  /    A nd           | Version:  10
     \\/     M anipulation  |
\*---------------------------------------------------------------------------*/
FoamFile
{
    format      ascii;
    class       volScalarField;
    location    "2.2";
    object      h;
}
// * * * * * * * * * * * * * * * * * * * * * * * * * * * * * * * * * * * * * //

dimensions      [0 2 -2 0 0 0 0];

internalField   nonuniform List<scalar> 
2500
(
7143.75455468652
7087.14476857813
7059.41811445765
7051.19279228669
7049.00343681208
7048.42947887008
7048.28304214447
7048.24590665968
7048.23540753429
7048.23240389895
7048.23001044743
7048.22853649988
7048.22765096633
7048.22652955864
7048.22548362345
7048.22431848194
7048.22371527174
7048.22296518016
7048.2221142356
7048.22150558861
7048.22089113506
7048.22019657156
7048.21956515622
7048.21940357486
7048.21921818926
7048.21881866577
7048.21874507243
7048.21863614797
7048.21844899041
7048.21861131119
7048.21878670724
7048.21887816422
7048.2192283447
7048.21971983805
7048.22017172054
7048.22059951024
7048.22107804351
7048.22148632561
7048.22234826363
7048.22324560203
7048.22471006104
7048.22827218601
7048.24008332175
7048.28384996106
7048.44980799981
7049.05458508699
7051.2646952698
7059.47177458899
7087.605038908
7143.68831014338
4867.30732541109
4742.57935982717
4663.82124725839
4636.10325244792
4627.29789494709
4624.64140330575
4623.89174699659
4623.69575364941
4623.64787750867
4623.63692760301
4623.63394098855
4623.63298975157
4623.63269537423
4623.6323264826
4623.63197962261
4623.631601857
4623.6313897498
4623.6311286329
4623.63083325782
4623.63058074683
4623.63020144616
4623.62964967806
4623.62909316672
4623.62903856781
4623.62902684252
4623.62875365004
4623.62880844701
4623.62879913554
4623.62860812689
4623.62884844381
4623.6289256447
4623.62870441405
4623.62918195488
4623.62988310523
4623.63017352198
4623.63031577278
4623.63045570255
4623.63058752364
4623.6309808841
4623.63189316153
4623.63556675803
4623.65071208597
4623.71108961587
4623.94031625381
4624.75776126999
4627.49353460271
4636.26168112108
4663.78780206444
4744.03723679604
4869.75157878854
3298.24197019749
3183.03940453861
3109.09908680404
3082.15699640525
3073.52209043844
3070.89366888238
3070.141903914
3069.9424490919
3069.89341971876
3069.8822863915
3069.87951978092
3069.87885973071
3069.87897400398
3069.87893419505
3069.87891682607
3069.87895574569
3069.87899053624
3069.8789603602
3069.87890004293
3069.8788430689
3069.87868140535
3069.87841068147
3069.87809329313
3069.87800468848
3069.8780571693
3069.87798826462
3069.87798482659
3069.87803347364
3069.87802930212
3069.87813638551
3069.87812749189
3069.87794061919
3069.87824740926
3069.8787607183
3069.87884650523
3069.87879836879
3069.87879504026
3069.87877705042
3069.87893768224
3069.8794970836
3069.88281686028
3069.89754230612
3069.95641278465
3070.18014475925
3070.97695561825
3073.64564486883
3082.22269308199
3109.10853664027
3184.788156093
3304.46003307289
2456.9593049079
2384.64405134612
2344.36189679582
2329.68593238666
2325.1598297597
2323.82637857139
2323.45048777782
2323.35072695662
2323.32604551118
2323.32045095698
2323.31905945324
2323.31879852468
2323.31897749243
2323.3190247984
2323.31905770312
2323.31908519218
2323.31910022371
2323.3191129903
2323.31911601448
2323.31913688121
2323.31912336159
2323.3190250951
2323.31887159687
2323.31881344449
2323.31886540401
2323.31885919863
2323.3188478746
2323.31889687963
2323.31893340515
2323.31897204183
2323.31896036805
2323.31886445576
2323.31900829368
2323.31925966964
2323.31928034976
2323.31924022753
2323.31922665089
2323.31919519392
2323.31920644573
2323.3193199344
2323.32071766314
2323.32749008045
2323.35496166916
2323.46093388074
2323.84662482698
2325.18167905065
2329.6781455029
2344.43775328902
2385.92711140906
2463.09483987349
2080.2705015207
2044.5101460608
2027.44302485701
2021.15867026162
2019.26073699393
2018.71409035957
2018.56144376935
2018.52075889468
2018.51058565297
2018.5082735542
2018.50769565043
2018.50760335564
2018.50770733667
2018.50775400419
2018.50778098335
2018.50779489748
2018.50781566558
2018.50784014194
2018.50784955338
2018.50785214421
2018.50785368151
2018.50783231462
2018.50776898568
2018.50774890268
2018.5077723308
2018.50777264748
2018.50777484205
2018.50780270254
2018.5078267695
2018.50784064767
2018.50783512144
2018.50779786821
2018.50785335962
2018.50794864722
2018.50794923298
2018.50792908789
2018.50791883424
2018.50789421032
2018.50787879959
2018.50789432849
2018.50837600642
2018.51094062063
2018.52151447568
2018.56257575067
2018.71408822361
2019.25162605718
2021.1266853528
2027.46587917056
2045.1818477954
2084.29000887825
1933.15649188955
1918.20118107798
1912.05106103533
1909.74866746346
1909.05820101885
1908.86207093982
1908.80765059707
1908.79307476695
1908.78939069217
1908.78854924142
1908.78833955182
1908.7883113666
1908.7883570179
1908.78838189485
1908.78839612549
1908.78840323815
1908.78841404627
1908.78842634445
1908.78843249607
1908.78843321193
1908.78843674859
1908.78842871231
1908.78841104581
1908.7884127352
1908.78841781579
1908.78841711884
1908.78841954912
1908.78843104812
1908.78844147494
1908.78844753354
1908.78844536532
1908.78843275484
1908.78845132456
1908.78847968635
1908.78847872034
1908.78847234598
1908.78846543212
1908.78845182306
1908.78843909874
1908.78843743902
1908.78858866103
1908.7894576382
1908.79308457787
1908.80718443008
1908.85956588346
1909.0485371024
1909.72368401032
1912.04452066333
1918.48015651581
1935.21117183593
1881.56832612479
1876.05458461653
1874.07318647874
1873.31901289762
1873.09229377514
1873.02833405164
1873.01066513935
1873.00591404313
1873.00470189259
1873.00441959155
1873.00435500407
1873.00435211462
1873.00436568237
1873.00437592537
1873.00438215849
1873.00438597664
1873.00439016675
1873.00439412601
1873.00439687944
1873.00439733055
1873.00439913441
1873.00439658493
1873.00439264957
1873.00439462093
1873.00439581448
1873.00439672443
1873.00439807769
1873.0044010188
1873.00440457032
1873.0044073661
1873.00440668056
1873.00440285889
1873.00440831815
1873.00441562984
1873.00441502728
1873.00441289326
1873.00440962992
1873.00440362854
1873.00439716306
1873.00439481779
1873.00444013155
1873.00471245064
1873.00585960083
1873.01030879322
1873.02686311631
1873.08718880983
1873.30593570253
1874.06383395032
1876.15193836954
1882.4523609328
1864.98943624738
1863.14827169454
1862.55927935971
1862.33235728779
1862.26358089564
1862.24420664142
1862.23887044694
1862.23743213467
1862.23706242402
1862.23697528104
1862.23695718105
1862.2369574678
1862.23696161095
1862.23696527667
1862.23696781639
1862.23696937508
1862.23697058453
1862.23697176772
1862.23697277974
1862.23697299089
1862.23697368817
1862.23697306731
1862.23697236026
1862.23697346899
1862.23697398351
1862.23697433098
1862.23697460029
1862.23697520711
1862.236976354
1862.23697747497
1862.23697734261
1862.23697632445
1862.23697772009
1862.23697932331
1862.23697896214
1862.23697824528
1862.23697702612
1862.23697477525
1862.23697219595
1862.23697098166
1862.2369842215
1862.23706463459
1862.23740517641
1862.23872084477
1862.2436063842
1862.26149605175
1862.32687081589
1862.55389779689
1863.17770764096
1865.32378005629
1860.03266749478
1859.46525329556
1859.30031532115
1859.23644199845
1859.21686771428
1859.21133921806
1859.20981917171
1859.20940911836
1859.20930315611
1859.20927811545
1859.2092733387
1859.20927363429
1859.20927488014
1859.20927606418
1859.20927695045
1859.20927747328
1859.2092778236
1859.20927816925
1859.20927854113
1859.20927863657
1859.20927870398
1859.2092786563
1859.2092787129
1859.2092790369
1859.20927918192
1859.20927930008
1859.20927941245
1859.20927954768
1859.20927985068
1859.20928021513
1859.20928020261
1859.20927995121
1859.20928025447
1859.2092805368
1859.20928036914
1859.20928013207
1859.20927974178
1859.20927902013
1859.20927817428
1859.20927775494
1859.20928148016
1859.20930399218
1859.20939991483
1859.20976883445
1859.21113315642
1859.21613357105
1859.23445252982
1859.2980067395
1859.47306382936
1860.14695517948
1858.63813016952
1858.47451622167
1858.43040458119
1858.41336589873
1858.40808174291
1858.40658096268
1858.40616853614
1858.40605732169
1858.40602849828
1858.40602170549
1858.40602049713
1858.406020618
1858.4060209778
1858.40602132967
1858.40602160307
1858.40602176132
1858.40602186432
1858.40602196193
1858.40602206007
1858.4060221267
1858.40602214972
1858.40602214319
1858.40602219858
1858.40602228891
1858.4060223233
1858.40602235653
1858.4060224039
1858.40602243973
1858.40602251061
1858.40602260953
1858.40602260828
1858.40602254477
1858.40602260189
1858.40602263825
1858.40602257343
1858.40602250083
1858.40602238714
1858.40602218089
1858.40602194181
1858.40602182123
1858.40602282158
1858.40602884321
1858.40605466087
1858.40615349457
1858.4065171262
1858.4078474514
1858.41271522956
1858.42955932057
1858.47632588007
1858.67412336667
1858.26565314545
1858.22105229624
1858.20968527005
1858.20533665168
1858.20397260612
1858.20358224137
1858.20347488483
1858.20344596752
1858.20343846626
1858.20343670588
1858.20343640866
1858.2034364474
1858.20343654567
1858.20343664274
1858.20343671952
1858.20343676375
1858.20343679328
1858.20343681982
1858.20343685193
1858.20343687972
1858.20343688828
1858.20343689239
1858.20343690485
1858.20343692438
1858.20343693117
1858.20343693935
1858.20343695576
1858.20343696645
1858.20343698126
1858.20343700398
1858.20343700313
1858.2034369867
1858.20343699564
1858.20343699721
1858.20343697571
1858.20343695554
1858.20343692493
1858.2034368711
1858.20343681003
1858.20343677902
1858.20343703727
1858.20343858603
1858.20344525766
1858.20347068337
1858.20356372307
1858.20390288158
1858.20513942371
1858.20940530615
1858.22140562281
1858.27624331092
1858.17053505785
1858.15894861187
1858.15611045082
1858.1550410501
1858.15470225488
1858.15460443695
1858.15457748105
1858.15457022945
1858.1545683493
1858.15456790839
1858.15456783493
1858.15456784525
1858.15456787007
1858.15456789457
1858.15456791411
1858.15456792526
1858.15456793309
1858.15456793932
1858.15456794779
1858.15456795616
1858.15456795958
1858.15456796157
1858.15456796392
1858.1545679669
1858.15456796728
1858.15456796951
1858.1545679753
1858.15456797835
1858.15456798109
1858.15456798567
1858.15456798519
1858.15456798069
1858.15456798192
1858.15456798134
1858.15456797492
1858.15456796997
1858.15456796257
1858.15456794987
1858.1545679359
1858.1545679292
1858.15456799438
1858.15456837988
1858.15457004196
1858.15457634698
1858.15459929445
1858.15468255929
1858.15498463262
1858.15602398919
1858.1589994445
1858.17347678891
1858.14717948907
1858.14429279417
1858.14360365212
1858.14334887409
1858.14326751007
1858.14324379574
1858.14323723899
1858.14323547595
1858.14323501863
1858.14323491052
1858.14323489102
1858.14323489212
1858.14323489734
1858.14323490221
1858.14323490618
1858.14323490803
1858.14323490906
1858.14323491011
1858.14323491201
1858.14323491389
1858.14323491434
1858.14323491457
1858.14323491488
1858.14323491563
1858.14323491548
1858.14323491553
1858.14323491697
1858.14323491768
1858.1432349181
1858.14323491894
1858.14323491879
1858.14323491771
1858.143234918
1858.14323491784
1858.14323491628
1858.14323491549
1858.14323491431
1858.1432349121
1858.14323490967
1858.14323490932
1858.14323492653
1858.14323502053
1858.14323542172
1858.14323693432
1858.14324240847
1858.14326216776
1858.14333345744
1858.14357833522
1858.14429420766
1858.14795726626
1858.14163952836
1858.1409462375
1858.14078304672
1858.14072396971
1858.14070499621
1858.14069941335
1858.14069786188
1858.14069744346
1858.14069733377
1858.14069730668
1858.1406973004
1858.14069729903
1858.14069729898
1858.140697299
1858.14069729895
1858.14069729855
1858.14069729809
1858.14069729755
1858.14069729728
1858.14069729719
1858.1406972969
1858.1406972966
1858.1406972963
1858.14069729613
1858.14069729579
1858.14069729553
1858.14069729559
1858.14069729563
1858.1406972957
1858.14069729583
1858.14069729582
1858.14069729572
1858.14069729598
1858.14069729621
1858.1406972962
1858.14069729656
1858.14069729691
1858.14069729716
1858.14069729754
1858.1406972987
1858.1406973041
1858.1406973275
1858.1406974227
1858.1406977759
1858.14069904363
1858.14070359152
1858.14071990986
1858.14077594978
1858.1409436413
1858.14183652402
1858.14036516202
1858.14020399588
1858.14016616206
1858.14015275355
1858.14014843686
1858.14014715499
1858.14014679542
1858.14014669682
1858.14014666953
1858.14014666145
1858.1401466583
1858.14014665646
1858.1401466551
1858.14014665391
1858.14014665282
1858.14014665179
1858.14014665083
1858.14014664992
1858.14014664916
1858.14014664852
1858.14014664793
1858.14014664739
1858.14014664691
1858.14014664651
1858.14014664613
1858.14014664582
1858.14014664564
1858.14014664552
1858.14014664547
1858.14014664551
1858.14014664559
1858.14014664571
1858.140146646
1858.14014664638
1858.1401466468
1858.14014664743
1858.14014664818
1858.14014664904
1858.1401466501
1858.14014665154
1858.14014665413
1858.14014666101
1858.14014668436
1858.14014676608
1858.14014705317
1858.14014807305
1858.14015171391
1858.1401642439
1858.14020265454
1858.14041320438
1858.14007995037
1858.14004357929
1858.14003489719
1858.1400318764
1858.14003090879
1858.1400306191
1858.14003053581
1858.14003051133
1858.14003050309
1858.14003049938
1858.14003049696
1858.140030495
1858.14003049332
1858.14003049181
1858.14003049045
1858.14003048922
1858.14003048811
1858.1400304871
1858.1400304862
1858.14003048541
1858.1400304847
1858.14003048408
1858.14003048354
1858.14003048307
1858.14003048267
1858.14003048235
1858.14003048212
1858.14003048196
1858.14003048189
1858.14003048191
1858.14003048201
1858.1400304822
1858.14003048252
1858.14003048295
1858.14003048349
1858.1400304842
1858.14003048505
1858.14003048608
1858.1400304873
1858.14003048879
1858.14003049073
1858.14003049383
1858.14003050078
1858.14003052077
1858.14003058586
1858.14003081119
1858.14003161239
1858.14003439206
1858.14004309155
1858.14009127339
1858.14001767339
1858.14000970275
1858.14000764521
1858.14000693385
1858.14000671284
1858.1400066464
1858.14000662567
1858.14000661802
1858.14000661412
1858.1400066114
1858.14000660914
1858.14000660715
1858.14000660538
1858.14000660377
1858.14000660233
1858.14000660103
1858.14000659985
1858.14000659879
1858.14000659784
1858.140006597
1858.14000659625
1858.14000659559
1858.14000659501
1858.14000659452
1858.14000659411
1858.14000659377
1858.14000659353
1858.14000659336
1858.14000659329
1858.1400065933
1858.14000659342
1858.14000659363
1858.14000659396
1858.14000659441
1858.14000659499
1858.14000659573
1858.14000659662
1858.14000659769
1858.14000659896
1858.14000660046
1858.14000660224
1858.14000660448
1858.14000660775
1858.14000661402
1858.14000663013
1858.14000668119
1858.14000686284
1858.14000751153
1858.1400095437
1858.14002025439
1858.14000437459
1858.14000269586
1858.14000211154
1858.14000190326
1858.14000184515
1858.1400018279
1858.14000182111
1858.14000181725
1858.14000181435
1858.14000181187
1858.14000180966
1858.14000180765
1858.14000180584
1858.1400018042
1858.14000180271
1858.14000180137
1858.14000180016
1858.14000179907
1858.14000179809
1858.14000179722
1858.14000179644
1858.14000179576
1858.14000179516
1858.14000179465
1858.14000179423
1858.14000179389
1858.14000179363
1858.14000179346
1858.14000179339
1858.1400017934
1858.14000179352
1858.14000179375
1858.14000179409
1858.14000179455
1858.14000179515
1858.1400017959
1858.14000179682
1858.14000179791
1858.14000179919
1858.14000180069
1858.14000180242
1858.14000180444
1858.14000180687
1858.1400018101
1858.14000181558
1858.14000182923
1858.1400018788
1858.14000207207
1858.14000264059
1858.14000493752
1858.14000159134
1858.1400012733
1858.14000101018
1858.1400009096
1858.14000088645
1858.14000087993
1858.14000087625
1858.14000087328
1858.14000087064
1858.14000086824
1858.14000086604
1858.14000086403
1858.14000086219
1858.14000086053
1858.14000085901
1858.14000085765
1858.14000085641
1858.14000085529
1858.14000085429
1858.1400008534
1858.1400008526
1858.1400008519
1858.14000085129
1858.14000085077
1858.14000085034
1858.14000084999
1858.14000084973
1858.14000084956
1858.14000084948
1858.1400008495
1858.14000084962
1858.14000084985
1858.1400008502
1858.14000085068
1858.14000085129
1858.14000085205
1858.14000085298
1858.14000085408
1858.14000085537
1858.14000085686
1858.14000085857
1858.14000086052
1858.14000086271
1858.14000086524
1858.14000086837
1858.14000087407
1858.14000089595
1858.14000099373
1858.14000124722
1858.14000170095
1858.14000101923
1858.14000098913
1858.14000079489
1858.14000071712
1858.14000070144
1858.14000069731
1858.14000069438
1858.14000069167
1858.14000068912
1858.14000068675
1858.14000068456
1858.14000068255
1858.1400006807
1858.14000067902
1858.14000067748
1858.1400006761
1858.14000067484
1858.14000067371
1858.14000067269
1858.14000067177
1858.14000067096
1858.14000067025
1858.14000066963
1858.1400006691
1858.14000066866
1858.1400006683
1858.14000066804
1858.14000066787
1858.14000066779
1858.14000066781
1858.14000066793
1858.14000066817
1858.14000066852
1858.140000669
1858.14000066963
1858.1400006704
1858.14000067133
1858.14000067244
1858.14000067373
1858.14000067522
1858.14000067691
1858.14000067881
1858.14000068092
1858.14000068322
1858.14000068578
1858.14000068973
1858.1400007058
1858.14000078379
1858.14000097054
1858.14000102936
1858.14000090336
1858.14000093305
1858.14000075347
1858.14000068055
1858.14000066654
1858.140000663
1858.14000066031
1858.1400006577
1858.14000065521
1858.14000065286
1858.14000065068
1858.14000064867
1858.14000064681
1858.14000064512
1858.14000064357
1858.14000064216
1858.14000064089
1858.14000063974
1858.14000063871
1858.14000063778
1858.14000063696
1858.14000063624
1858.14000063561
1858.14000063507
1858.14000063462
1858.14000063426
1858.14000063399
1858.14000063382
1858.14000063374
1858.14000063376
1858.14000063389
1858.14000063413
1858.14000063449
1858.14000063498
1858.14000063561
1858.14000063639
1858.14000063733
1858.14000063844
1858.14000063973
1858.14000064122
1858.14000064289
1858.14000064476
1858.1400006468
1858.14000064901
1858.14000065137
1858.14000065486
1858.14000066965
1858.14000074348
1858.14000091616
1858.14000089203
1858.14000088006
1858.14000092197
1858.14000074557
1858.14000067377
1858.14000066019
1858.14000065685
1858.14000065426
1858.14000065172
1858.14000064927
1858.14000064694
1858.14000064477
1858.14000064276
1858.1400006409
1858.14000063919
1858.14000063763
1858.14000063622
1858.14000063493
1858.14000063377
1858.14000063272
1858.14000063179
1858.14000063096
1858.14000063023
1858.14000062959
1858.14000062904
1858.14000062859
1858.14000062823
1858.14000062796
1858.14000062779
1858.14000062771
1858.14000062773
1858.14000062786
1858.14000062811
1858.14000062847
1858.14000062896
1858.1400006296
1858.14000063038
1858.14000063133
1858.14000063245
1858.14000063374
1858.14000063521
1858.14000063687
1858.14000063871
1858.14000064072
1858.14000064285
1858.14000064511
1858.14000064843
1858.14000066287
1858.14000073575
1858.14000090538
1858.14000086411
1858.14000087528
1858.14000091967
1858.14000074405
1858.14000067255
1858.14000065913
1858.14000065588
1858.14000065336
1858.14000065086
1858.14000064844
1858.14000064613
1858.14000064397
1858.14000064195
1858.14000064009
1858.14000063838
1858.14000063681
1858.14000063539
1858.1400006341
1858.14000063293
1858.14000063187
1858.14000063093
1858.14000063009
1858.14000062936
1858.14000062872
1858.14000062817
1858.14000062771
1858.14000062735
1858.14000062708
1858.1400006269
1858.14000062683
1858.14000062685
1858.14000062698
1858.14000062723
1858.1400006276
1858.1400006281
1858.14000062874
1858.14000062953
1858.14000063048
1858.14000063159
1858.14000063289
1858.14000063436
1858.14000063601
1858.14000063782
1858.14000063979
1858.14000064188
1858.14000064407
1858.1400006473
1858.1400006616
1858.1400007342
1858.14000090309
1858.14000085832
1858.1400008742
1858.14000091909
1858.1400007437
1858.14000067232
1858.14000065897
1858.14000065578
1858.14000065331
1858.14000065083
1858.14000064843
1858.14000064614
1858.14000064398
1858.14000064197
1858.1400006401
1858.14000063839
1858.14000063682
1858.14000063539
1858.14000063409
1858.14000063292
1858.14000063186
1858.14000063091
1858.14000063007
1858.14000062934
1858.14000062869
1858.14000062814
1858.14000062769
1858.14000062732
1858.14000062705
1858.14000062688
1858.1400006268
1858.14000062683
1858.14000062696
1858.14000062721
1858.14000062758
1858.14000062808
1858.14000062873
1858.14000062952
1858.14000063047
1858.14000063159
1858.14000063288
1858.14000063435
1858.14000063599
1858.14000063779
1858.14000063974
1858.1400006418
1858.14000064395
1858.14000064712
1858.14000066135
1858.14000073384
1858.14000090249
1858.140000857
1858.14000087386
1858.14000091886
1858.14000074357
1858.14000067224
1858.14000065892
1858.14000065576
1858.1400006533
1858.14000065085
1858.14000064846
1858.14000064617
1858.14000064402
1858.140000642
1858.14000064014
1858.14000063842
1858.14000063685
1858.14000063542
1858.14000063412
1858.14000063295
1858.14000063189
1858.14000063095
1858.1400006301
1858.14000062937
1858.14000062872
1858.14000062817
1858.14000062772
1858.14000062735
1858.14000062709
1858.14000062691
1858.14000062684
1858.14000062686
1858.140000627
1858.14000062725
1858.14000062763
1858.14000062813
1858.14000062878
1858.14000062957
1858.14000063052
1858.14000063164
1858.14000063294
1858.1400006344
1858.14000063604
1858.14000063783
1858.14000063977
1858.14000064181
1858.14000064394
1858.14000064708
1858.14000066128
1858.14000073372
1858.14000090228
1858.14000085665
1858.14000087371
1858.14000091872
1858.14000074346
1858.14000067214
1858.14000065883
1858.14000065567
1858.14000065321
1858.14000065076
1858.14000064836
1858.14000064608
1858.14000064393
1858.14000064192
1858.14000064005
1858.14000063834
1858.14000063677
1858.14000063535
1858.14000063405
1858.14000063288
1858.14000063182
1858.14000063088
1858.14000063004
1858.1400006293
1858.14000062866
1858.14000062812
1858.14000062766
1858.1400006273
1858.14000062704
1858.14000062686
1858.14000062679
1858.14000062682
1858.14000062696
1858.14000062721
1858.14000062759
1858.14000062809
1858.14000062874
1858.14000062953
1858.14000063049
1858.14000063161
1858.1400006329
1858.14000063436
1858.140000636
1858.1400006378
1858.14000063973
1858.14000064177
1858.1400006439
1858.14000064704
1858.14000066124
1858.14000073367
1858.14000090223
1858.14000085658
1858.14000087364
1858.14000091862
1858.14000074335
1858.14000067201
1858.14000065867
1858.14000065548
1858.140000653
1858.14000065054
1858.14000064813
1858.14000064585
1858.14000064369
1858.14000064168
1858.14000063982
1858.14000063812
1858.14000063655
1858.14000063513
1858.14000063384
1858.14000063267
1858.14000063163
1858.14000063069
1858.14000062985
1858.14000062912
1858.14000062849
1858.14000062794
1858.14000062749
1858.14000062714
1858.14000062687
1858.1400006267
1858.14000062663
1858.14000062667
1858.1400006268
1858.14000062706
1858.14000062744
1858.14000062794
1858.14000062859
1858.14000062938
1858.14000063034
1858.14000063146
1858.14000063275
1858.14000063422
1858.14000063586
1858.14000063766
1858.14000063961
1858.14000064166
1858.14000064381
1858.14000064698
1858.1400006612
1858.14000073368
1858.14000090229
1858.14000085665
1858.14000087362
1858.14000091856
1858.14000074323
1858.14000067183
1858.14000065843
1858.14000065519
1858.14000065268
1858.14000065018
1858.14000064776
1858.14000064546
1858.1400006433
1858.1400006413
1858.14000063944
1858.14000063774
1858.14000063619
1858.14000063477
1858.14000063349
1858.14000063234
1858.1400006313
1858.14000063037
1858.14000062954
1858.14000062882
1858.14000062819
1858.14000062765
1858.14000062721
1858.14000062686
1858.1400006266
1858.14000062643
1858.14000062637
1858.1400006264
1858.14000062654
1858.14000062679
1858.14000062717
1858.14000062768
1858.14000062832
1858.14000062911
1858.14000063007
1858.14000063119
1858.14000063248
1858.14000063395
1858.1400006356
1858.14000063742
1858.14000063939
1858.14000064147
1858.14000064366
1858.14000064688
1858.14000066117
1858.14000073372
1858.14000090244
1858.14000085683
1858.14000087367
1858.14000091855
1858.1400007431
1858.14000067161
1858.14000065812
1858.1400006548
1858.14000065223
1858.14000064969
1858.14000064724
1858.14000064493
1858.14000064276
1858.14000064076
1858.14000063891
1858.14000063722
1858.14000063568
1858.14000063428
1858.14000063301
1858.14000063186
1858.14000063084
1858.14000062992
1858.14000062911
1858.14000062839
1858.14000062778
1858.14000062725
1858.14000062681
1858.14000062647
1858.14000062621
1858.14000062605
1858.14000062599
1858.14000062602
1858.14000062616
1858.14000062642
1858.14000062679
1858.14000062729
1858.14000062794
1858.14000062873
1858.14000062968
1858.1400006308
1858.14000063209
1858.14000063357
1858.14000063523
1858.14000063707
1858.14000063907
1858.1400006412
1858.14000064345
1858.14000064675
1858.14000066113
1858.1400007338
1858.1400009027
1858.14000085714
1858.14000087381
1858.1400009186
1858.14000074298
1858.14000067134
1858.14000065773
1858.14000065431
1858.14000065165
1858.14000064906
1858.14000064657
1858.14000064424
1858.14000064207
1858.14000064007
1858.14000063823
1858.14000063655
1858.14000063502
1858.14000063364
1858.14000063239
1858.14000063126
1858.14000063025
1858.14000062935
1858.14000062855
1858.14000062785
1858.14000062724
1858.14000062673
1858.1400006263
1858.14000062596
1858.14000062571
1858.14000062555
1858.14000062549
1858.14000062553
1858.14000062567
1858.14000062593
1858.1400006263
1858.1400006268
1858.14000062744
1858.14000062822
1858.14000062917
1858.14000063029
1858.14000063158
1858.14000063307
1858.14000063474
1858.14000063661
1858.14000063865
1858.14000064084
1858.14000064318
1858.14000064659
1858.1400006611
1858.14000073394
1858.14000090309
1858.14000085759
1858.14000087405
1858.14000091874
1858.14000074286
1858.14000067104
1858.14000065726
1858.14000065371
1858.14000065095
1858.14000064829
1858.14000064576
1858.1400006434
1858.14000064123
1858.14000063923
1858.1400006374
1858.14000063574
1858.14000063423
1858.14000063287
1858.14000063164
1858.14000063053
1858.14000062954
1858.14000062865
1858.14000062787
1858.14000062719
1858.14000062659
1858.14000062609
1858.14000062567
1858.14000062534
1858.1400006251
1858.14000062495
1858.14000062489
1858.14000062493
1858.14000062507
1858.14000062532
1858.14000062569
1858.14000062619
1858.14000062682
1858.14000062761
1858.14000062855
1858.14000062966
1858.14000063096
1858.14000063245
1858.14000063414
1858.14000063603
1858.14000063813
1858.1400006404
1858.14000064284
1858.14000064639
1858.14000066107
1858.14000073413
1858.14000090361
1858.14000085821
1858.14000087443
1858.14000091897
1858.14000074277
1858.1400006707
1858.14000065671
1858.140000653
1858.14000065012
1858.14000064737
1858.1400006448
1858.14000064241
1858.14000064023
1858.14000063824
1858.14000063642
1858.14000063478
1858.1400006333
1858.14000063196
1858.14000063075
1858.14000062967
1858.1400006287
1858.14000062784
1858.14000062708
1858.14000062641
1858.14000062583
1858.14000062534
1858.14000062494
1858.14000062462
1858.14000062438
1858.14000062424
1858.14000062418
1858.14000062423
1858.14000062437
1858.14000062462
1858.14000062498
1858.14000062547
1858.1400006261
1858.14000062687
1858.14000062781
1858.14000062892
1858.14000063021
1858.14000063171
1858.14000063342
1858.14000063535
1858.1400006375
1858.14000063986
1858.14000064242
1858.14000064614
1858.14000066104
1858.14000073438
1858.1400009043
1858.14000085902
1858.14000087498
1858.14000091935
1858.14000074271
1858.14000067032
1858.14000065608
1858.14000065217
1858.14000064915
1858.14000064631
1858.14000064368
1858.14000064127
1858.14000063908
1858.1400006371
1858.1400006353
1858.14000063369
1858.14000063223
1858.14000063092
1858.14000062974
1858.14000062869
1858.14000062775
1858.14000062691
1858.14000062617
1858.14000062552
1858.14000062496
1858.14000062449
1858.14000062409
1858.14000062379
1858.14000062356
1858.14000062342
1858.14000062337
1858.14000062342
1858.14000062356
1858.1400006238
1858.14000062416
1858.14000062465
1858.14000062526
1858.14000062603
1858.14000062695
1858.14000062805
1858.14000062934
1858.14000063084
1858.14000063257
1858.14000063454
1858.14000063676
1858.14000063922
1858.14000064193
1858.14000064585
1858.14000066101
1858.14000073471
1858.14000090518
1858.14000086005
1858.14000087576
1858.1400009199
1858.14000074269
1858.1400006699
1858.14000065536
1858.14000065121
1858.14000064804
1858.14000064509
1858.1400006424
1858.14000063997
1858.14000063778
1858.14000063581
1858.14000063404
1858.14000063245
1858.14000063103
1858.14000062975
1858.14000062861
1858.14000062758
1858.14000062667
1858.14000062586
1858.14000062515
1858.14000062452
1858.14000062398
1858.14000062352
1858.14000062315
1858.14000062285
1858.14000062264
1858.14000062251
1858.14000062246
1858.1400006225
1858.14000062264
1858.14000062289
1858.14000062324
1858.14000062371
1858.14000062432
1858.14000062507
1858.14000062598
1858.14000062707
1858.14000062836
1858.14000062986
1858.1400006316
1858.14000063361
1858.14000063589
1858.14000063846
1858.14000064135
1858.1400006455
1858.14000066098
1858.14000073513
1858.14000090629
1858.14000086136
1858.14000087682
1858.14000092069
1858.14000074273
1858.14000066943
1858.14000065453
1858.14000065012
1858.14000064677
1858.14000064372
1858.14000064097
1858.14000063851
1858.14000063633
1858.14000063438
1858.14000063264
1858.14000063109
1858.1400006297
1858.14000062846
1858.14000062735
1858.14000062636
1858.14000062549
1858.14000062471
1858.14000062402
1858.14000062342
1858.1400006229
1858.14000062246
1858.1400006221
1858.14000062182
1858.14000062162
1858.14000062149
1858.14000062145
1858.1400006215
1858.14000062163
1858.14000062187
1858.14000062221
1858.14000062268
1858.14000062327
1858.140000624
1858.1400006249
1858.14000062598