/*--------------------------------*- C++ -*----------------------------------*\
  =========                 |
  \\      /  F ield         | OpenFOAM: The Open Source CFD Toolbox
   \\    /   O peration     | Website:  https://openfoam.org
    \\  /    A nd           | Version:  10
     \\/     M anipulation  |
\*---------------------------------------------------------------------------*/
FoamFile
{
    format      ascii;
    class       volScalarField;
    location    "2.2";
    object      k;
}
// * * * * * * * * * * * * * * * * * * * * * * * * * * * * * * * * * * * * * //

dimensions      [0 2 -2 0 0 0 0];

internalField   nonuniform List<scalar> 
2500
(
6.07193844404586e-09
9.64638559868737e-08
3.6945620744045e-07
5.57626484463232e-07
6.54204124879493e-07
6.94582395025677e-07
7.08914053756872e-07
7.1336117674635e-07
7.14594937145715e-07
7.14906203795052e-07
7.14978401521673e-07
7.14993733858091e-07
7.14996437407085e-07
7.14996517352215e-07
7.14996217900357e-07
7.14995891550159e-07
7.14995595515884e-07
7.14995335766861e-07
7.14995106667444e-07
7.14994902286457e-07
7.14994719178558e-07
7.14994555075031e-07
7.1499440897735e-07
7.14994280326045e-07
7.14994168753503e-07
7.14994074001555e-07
7.1499399658605e-07
7.14993937359856e-07
7.14993899126532e-07
7.14993887984509e-07
7.14993899015326e-07
7.1499392585124e-07
7.14993978183794e-07
7.14994049284729e-07
7.14994143606048e-07
7.14994237556113e-07
7.14994184462778e-07
7.14993120482482e-07
7.14987211710044e-07
7.14960687731891e-07
7.14851125127887e-07
7.14428150066677e-07
7.12908253091777e-07
7.07878342129818e-07
6.9276983569911e-07
6.52365551946016e-07
5.58604671728876e-07
3.76495395340443e-07
1.02149345427419e-07
6.8122235899149e-09
1.24107516523451e-07
2.59935305935209e-06
1.03678988443534e-05
1.58308666271191e-05
1.87223125600374e-05
1.99690839940613e-05
2.04244655285535e-05
2.05694722036944e-05
2.06106400439647e-05
2.06212421972523e-05
2.06237481912723e-05
2.06242917253164e-05
2.06243923887417e-05
2.06243986881994e-05
2.06243905359953e-05
2.06243811015922e-05
2.0624372421305e-05
2.06243647587442e-05
2.06243579874146e-05
2.06243519512267e-05
2.06243465492456e-05
2.06243417159221e-05
2.06243374172349e-05
2.06243336295292e-05
2.06243303461208e-05
2.06243275655338e-05
2.06243252964562e-05
2.06243235672095e-05
2.06243224596913e-05
2.06243221400294e-05
2.06243224571232e-05
2.06243231816045e-05
2.06243246999131e-05
2.06243268374281e-05
2.0624329592956e-05
2.06243321327627e-05
2.06243290575455e-05
2.06242897569187e-05
2.06240820945012e-05
2.06231691968851e-05
2.06194529760509e-05
2.06053221014383e-05
2.0555399199689e-05
2.03933233276809e-05
1.99169476533319e-05
1.86737940240094e-05
1.58662290852185e-05
1.05665195829522e-05
2.74855417026392e-06
1.39470253625777e-07
4.1178886753278e-07
1.1115448715701e-05
4.96617535718066e-05
7.55006717702842e-05
8.92358149624893e-05
9.5259619587955e-05
9.75079043540866e-05
9.82402235959968e-05
9.84527754418325e-05
9.85086801592529e-05
9.85221672609429e-05
9.85251611424737e-05
9.85257430312153e-05
9.85258002812724e-05
9.85257696917689e-05
9.85257300631743e-05
9.85256927911274e-05
9.85256596724538e-05
9.85256303311752e-05
9.85256041396045e-05
9.85255806656305e-05
9.85255596293264e-05
9.85255408852429e-05
9.85255243361642e-05
9.85255099510505e-05
9.85254977179505e-05
9.8525487679623e-05
9.85254799595968e-05
9.85254749035613e-05
9.85254731772521e-05
9.85254740828362e-05
9.85254768543044e-05
9.85254828222248e-05
9.8525491590131e-05
9.85255026620587e-05
9.85255115642425e-05
9.85254882659951e-05
9.85252700061653e-05
9.85241716529694e-05
9.85194172803374e-05
9.85002649889148e-05
9.84282082626471e-05
9.81766425268739e-05
9.73707828514036e-05
9.50367837544241e-05
8.90367295619697e-05
7.56552562588942e-05
5.04867053760688e-05
1.16577324521985e-05
4.50752360094699e-07
6.94809995248217e-07
1.9014130628952e-05
8.41630656211824e-05
0.0001266341714863
0.000149034028194326
0.000158873394748328
0.000162570481949649
0.000163786051251792
0.000164142689451155
0.000164237589097863
0.000164260771181823
0.000164265993868884
0.000164267038786088
0.000164267166781277
0.000164267125190325
0.000164267068135183
0.000164267013404247
0.000164266964457638
0.000164266920942849
0.000164266881994352
0.000164266846992277
0.000164266815533385
0.000164266787408955
0.000164266762481025
0.000164266740702779
0.000164266722048817
0.000164266706579689
0.000164266694467211
0.000164266686179631
0.000164266682465713
0.00016426668268674
0.000164266686419131
0.000164266693660751
0.000164266705305789
0.000164266720141513
0.000164266732344309
0.000164266691914263
0.000164266338126589
0.000164264592914469
0.000164257007115171
0.000164226282804251
0.000164110058562025
0.000163702333207163
0.000162391060092002
0.000158581521057453
0.000148761688391066
0.000126777136651036
8.5104520820934e-05
1.96501252851959e-05
7.40096647070609e-07
9.33466851832775e-07
2.57103622715277e-05
0.000112749014452279
0.000168396547581578
0.000197615510193488
0.00021047781832958
0.000215339445086794
0.000216950909233111
0.000217428189555679
0.000217556520544143
0.000217588228526239
0.000217595468158953
0.000217596954733186
0.000217597166796598
0.00021759713114044
0.000217597067691608
0.000217597004971389
0.00021759694834159
0.000217596897722889
0.000217596852219827
0.000217596811159501
0.000217596774097006
0.000217596740803911
0.000217596711127494
0.00021759668501759
0.000217596662440764
0.000217596643461631
0.000217596628256348
0.000217596617307372
0.000217596611365762
0.00021759661005695
0.000217596612357694
0.000217596619233149
0.000217596630639698
0.000217596645300447
0.00021759665590735
0.000217596595124634
0.000217596138567514
0.00021759391722814
0.000217584227743775
0.000217544786588919
0.000217394816358148
0.000216866248953947
0.000215159730124561
0.000210187048736916
0.000197339036053428
0.000168501621126229
0.000113589345870703
2.63036001987878e-05
9.77260516616028e-07
1.11832436246057e-06
3.09832018105314e-05
0.000135083974963396
0.000200756287330474
0.000235165794308382
0.0002503520966166
0.000256123003410844
0.000258049495478606
0.000258624824072762
0.00025878094760958
0.000258819917299071
0.000258828922118647
0.000258830814618804
0.000258831117057274
0.000258831098021621
0.000258831036575016
0.000258830973148046
0.000258830915109305
0.000258830862832032
0.000258830815549384
0.000258830772641212
0.000258830733686309
0.000258830698473562
0.000258830666857299
0.000258830638794703
0.000258830614251047
0.000258830593287843
0.000258830576052744
0.000258830562967216
0.000258830554660308
0.000258830550837747
0.000258830551315121
0.000258830556177048
0.000258830565023591
0.000258830576618375
0.00025883058137793
0.000258830499837508
0.000258829964890196
0.000258827396900617
0.000258816173966027
0.00025877031167434
0.00025859519720256
0.000257975677798106
0.00025596931986843
0.000250109614251673
0.00023494621807156
0.000200864318214445
0.000135800032802883
3.15024930025841e-05
1.15862144413021e-06
1.25215242130906e-06
3.48761014391611e-05
0.000151613932819148
0.00022461732181801
0.000262843580956317
0.000279759822584206
0.000286218708612757
0.00028838810637344
0.000289040610871846
0.000289219093800048
0.000289264042831118
0.000289274540339595
0.000289276791125573
0.000289277180782987
0.000289277183747192
0.000289277129665149
0.000289277070267097
0.000289277014933048
0.000289276964586907
0.000289276918686726
0.000289276876731728
0.000289276838366523
0.00028927680342214
0.000289276771775336
0.000289276743398678
0.000289276718261331
0.000289276696419067
0.000289276677979
0.000289276663264075
0.000289276652710877
0.000289276646432757
0.000289276644270991
0.000289276646142138
0.000289276651630223
0.000289276658469573
0.000289276655391169
0.000289276554359433
0.00028927596059166
0.000289273146244392
0.00028926083821039
0.000289210393092977
0.000289017155235751
0.000288331513014843
0.000286105759319017
0.000279594519487771
0.000262728496421518
0.000224793311327033
0.000152273083697096
3.53418623327628e-05
1.28965296131953e-06
1.34351882040623e-06
3.75892630402758e-05
0.000163245363641341
0.000241404543049067
0.000282339960083964
0.000300501457706831
0.000307464079382429
0.000309814750294886
0.000310526034687422
0.000310721915088004
0.000310771622296578
0.000310783338154835
0.00031078589107187
0.000310786359502449
0.000310786386895298
0.000310786342759493
0.000310786289826298
0.00031078623936344
0.000310786192872352
0.00031078615007441
0.000310786110617917
0.000310786074233068
0.000310786040804642
0.000310786010240082
0.000310785982531647
0.000310785957655526
0.000310785935662669
0.00031078591662253
0.000310785900760999
0.00031078588836845
0.000310785879649902
0.000310785874456
0.000310785873228845
0.000310785874800537
0.000310785877080477
0.000310785865412091
0.000310785747124856
0.000310785111153594
0.000310782127121832
0.000310769077046955
0.000310715476361017
0.000310509650906089
0.000309777734419592
0.000307397595473879
0.000300426497542615
0.000282358159719294
0.000241705811479894
0.000163934476623566
3.80368419040319e-05
1.37971058378217e-06
1.40273541236628e-06
3.93846094775917e-05
0.000171054278942431
0.000252703032789989
0.000295494425808453
0.000314522310668961
0.000321841674095963
0.000324323219782609
0.000325077813191508
0.000325286785296977
0.00032534015252988
0.000325352828299391
0.00032535562580294
0.000325356162083925
0.000325356213302791
0.000325356179301575
0.000325356133548173
0.000325356088686317
0.000325356046751899
0.000325356007724047
0.000325355971400326
0.000325355937598895
0.00032535590625908
0.000325355877320943
0.000325355850796778
0.000325355826671506
0.000325355804993106
0.00032535578580251
0.000325355769250497
0.000325355755514205
0.000325355744759476
0.000325355736993177
0.000325355732506037
0.000325355730175749
0.000325355727628435
0.000325355707141229
0.000325355576707621
0.000325354911574353
0.000325351814538368
0.000325338275042475
0.000325282582104905
0.000325068346497918
0.000324305302930704
0.000321820808525351
0.000314538066280707
0.000295654636959069
0.000253162603576914
0.000171840053319773
3.98438604103255e-05
1.43890814680248e-06
1.43937412298569e-06
4.05183129922461e-05
0.000176073399420062
0.000259997698506126
0.000304016860908902
0.00032362750287366
0.000331191263917716
0.00033376423961734
0.000334549711364302
0.000334768215072922
0.000334824305144072
0.000334837711635025
0.000334840699485788
0.000334841291999185
0.00033484136502021
0.000334841339007849
0.000334841299959864
0.000334841260454814
0.000334841222943961
0.000334841187628521
0.000334841154437229
0.000334841123267136
0.00033484109410624
0.000334841066924425
0.000334841041751985
0.000334841018582533
0.0003348409974628
0.000334840978414674
0.000334840961538716
0.00033484094693484
0.000334840934732006
0.000334840924972188
0.000334840917738859
0.000334840912233972
0.00033484090524107
0.000334840878459025
0.00033484073918547
0.000334840053808618
0.000334836884007812
0.000334823033391356
0.00033476600533415
0.000334546366134977
0.000333763199288744
0.000331210938778961
0.00032372532405823
0.000304310998127591
0.000260621623024681
0.000176989034893476
4.10064084654745e-05
1.47629394117557e-06
1.46112032594398e-06
4.12046106568846e-05
0.000179172216122296
0.000264528352722422
0.000309332589542349
0.000329322486894393
0.000337048332043536
0.000339683157070166
0.000340489948068222
0.000340715171282352
0.00034077322215559
0.000340787166665348
0.000340790297367568
0.000340790933479621
0.000340791023392769
0.000340791005681271
0.000340790972383147
0.000340790937501305
0.000340790903851329
0.000340790871813274
0.000340790841421235
0.000340790812636411
0.000340790785486102
0.000340790759964868
0.000340790736117686
0.000340790713945687
0.000340790693495269
0.000340790674776704
0.000340790657859354
0.000340790642793898
0.000340790629672992
0.000340790618527567
0.000340790609348795
0.000340790601418515
0.000340790591214788
0.00034079055999401
0.000340790414354143
0.000340789715551943
0.000340786500484524
0.00034077245920916
0.000340714610782228
0.00034049163056857
0.00033969594950786
0.000337101366746212
0.000329488730203198
0.000309741678775543
0.000265301895443492
0.00018022097850788
4.17268890566105e-05
1.49906859937096e-06
1.47355467504421e-06
4.16045275453329e-05
0.000181015962008018
0.000267243055266039
0.000312533229214268
0.000332762229083019
0.000340592253314856
0.000343267635874046
0.000344088696267319
0.000344318511370071
0.000344377930676502
0.000344392258870686
0.000344395493620248
0.000344396161754694
0.000344396264956256
0.000344396254087924
0.000344396225389265
0.000344396194236827
0.000344396163737143
0.000344396134404674
0.000344396106352238
0.000344396079589313
0.000344396054172635
0.00034439603011541
0.000344396007473713
0.00034439598625452
0.000344395966504337
0.000344395948226482
0.000344395931471581
0.000344395916259916
0.000344395902654582
0.000344395890663743
0.000344395880232166
0.00034439587065288
0.000344395858275811
0.000344395824090074
0.000344395674174676
0.000344394966851871
0.000344391724597232
0.000344377570603187
0.000344319236221059
0.000344094265328374
0.000343291086345296
0.000340671038523591
0.000332981762528605
0.000313033653732371
0.000268140015148121
0.000182181856251079
4.21585366134907e-05
1.51249770961238e-06
1.48042982231187e-06
4.182967363773e-05
0.000182076386142073
0.000268816675767306
0.000314398508130141
0.000334773765720914
0.000342668780001522
0.000345369979325144
0.000346200311102764
0.000346433172108369
0.000346493518242742
0.000346508111892521
0.00034651142036342
0.000346512111523893
0.000346512224483091
0.000346512218726188
0.000346512193524586
0.000346512165262368
0.000346512137240637
0.000346512110066723
0.000346512083908532
0.00034651205880975
0.000346512034847513
0.000346512012048207
0.000346511990475556
0.000346511970140711
0.000346511951090354
0.000346511933323631
0.000346511916880054
0.000346511901761637
0.000346511888010153
0.000346511875613283
0.000346511864489239
0.000346511853924674
0.000346511840208948
0.000346511804182968
0.000346511651593754
0.000346510939123318
0.000346507681130056
0.000346493462790406
0.000346434850457134
0.000346208734420139
0.000345401218379502
0.000342766376599664
0.0003350324388233
0.000314966912318233
0.00026980774279459
0.000183335032738934
4.24093153325486e-05
1.52018570108086e-06
1.48411767481292e-06
4.19525325751736e-05
0.000182667642876479
0.000269701483568515
0.000315453380229123
0.000335915591980394
0.00034385002040933
0.000346567197278751
0.000347403385781848
0.000347638210918456
0.000347699167201007
0.000347713939323891
0.000347717298584525
0.000347718005976358
0.000347718125892793
0.000347718123743408
0.000347718101148633
0.000347718075088514
0.000347718048988736
0.000347718023517436
0.000347717998879678
0.000347717975142088
0.000347717952395018
0.00034771793067337
0.000347717910045681
0.000347717890525882
0.000347717872160656
0.000347717854946644
0.000347717838916675
0.000347717824061928
0.000347717810409985
0.000347717797933574
0.000347717786534396
0.000347717775490495
0.000347717761061007
0.000347717724009457
0.000347717569890534
0.000347716854493422
0.000347713587748291
0.000347699333918697
0.000347640567806163
0.000347413814414477
0.000346603870839894
0.000343960710784543
0.000336201572825586
0.000316069609107855
0.000270759790510425
0.000183994090722069
4.25509938470521e-05
1.52447020612894e-06
1.48604213897627e-06
4.20176995378059e-05
0.000182988066949565
0.000270185258596762
0.000316033680220998
0.000336546229444161
0.000344503936236642
0.000347230743072831
0.00034807053442007
0.000348306592825422
0.000348367940186133
0.000348382829135366
0.000348386222435409
0.000348386940958281
0.000348387065757502
0.000348387066352416
0.000348387045743052
0.000348387021384769
0.000348386996799574
0.000348386972695901
0.00034838694930422
0.000348386926706458
0.000348386905000493
0.000348386884226024
0.000348386864454199
0.000348386845700705
0.000348386828011967
0.000348386811383065
0.000348386795842676
0.000348386781375472
0.000348386767999972
0.000348386755678989
0.000348386744303559
0.000348386733145037
0.000348386718447642
0.000348386680938115
0.000348386526068499
0.000348385809155297
0.000348382537780959
0.000348368265053076
0.000348309416509956
0.000348082319135332
0.00034727105757491
0.000344623359293423
0.000336850418723882
0.000316681941787171
0.000271289035163837
0.000184360999293655
4.2629015790479e-05
1.52679995122367e-06
1.48702139269165e-06
4.2051379565261e-05
0.00018315724117371
0.000270443043612626
0.000316344896151693
0.000336885872023451
0.000344856991715533
0.000347589460887742
0.000348431414190332
0.00034866822787099
0.000348729819721174
0.000348744783293755
0.000348748198858405
0.000348748924854072
0.000348749053186521
0.0003487490559581
0.000348749036914978
0.000348749013916996
0.000348748990565248
0.000348748967595846
0.000348748945258893
0.000348748923647113
0.000348748902861665
0.000348748882944089
0.000348748863966424
0.00034874884594525
0.000348748828926522
0.000348748812904569
0.000348748797904899
0.000348748783908453
0.000348748770927655
0.000348748758918989
0.000348748747766562
0.000348748736737237
0.000348748722068658
0.00034874868447265
0.00034874852935135
0.000348747811777824
0.000348744538122196
0.000348730255708032
0.000348671364300107
0.000348444086485594
0.000347632129030328
0.000344982022096817
0.000337201724079903
0.000317013706695436
0.000271576145806027
0.00018456039333862
4.26709849847002e-05
1.52803841909329e-06
1.48750812127845e-06
4.20683729452934e-05
0.00018324443019917
0.000270577180004195
0.000316507932304685
0.000337064597429951
0.000345043270705893
0.000347778993674124
0.000348622214652059
0.000348859480262823
0.000348921221492845
0.000348936231719109
0.000348939661600149
0.000348940392611573
0.000348940523583172
0.000348940528138392
0.000348940510397326
0.000348940488548721
0.000348940466256019
0.000348940444274544
0.000348940422873813
0.000348940402155632
0.000348940382220797
0.00034894036311018
0.000348940344895242
0.000348940327592995
0.000348940311248753
0.000348940295856408
0.00034894028143898
0.000348940267974801
0.000348940255472186
0.000348940243883313
0.000348940233087607
0.000348940222348927
0.000348940207902261
0.000348940170455296
0.000348940015388285
0.000348939297653441
0.000348936023011843
0.000348921735866688
0.000348862822832515
0.000348635452808269
0.000347823137038829
0.000345171783007634
0.000337387658016954
0.000317189432491841
0.000271728432925066
0.000184666362933187
4.26930750578924e-05
1.52868305832065e-06
1.48774467055578e-06
4.20767542286934e-05
0.000183288361112776
0.000270645447581436
0.000316591502425376
0.00033715664681804
0.000345139485647531
0.000347877039304102
0.000348720987914591
0.000348958518225746
0.000349020348852537
0.00034903538772998
0.000349038826732325
0.000349039561158735
0.000349039694172025
0.000349039700242422
0.00034903968363702
0.000349039662808303
0.000349039641465194
0.000349039620375629
0.000349039599833466
0.000349039579950139
0.000349039560822868
0.000349039542489157
0.000349039525018738
0.000349039508428622
0.000349039492763686
0.000349039478017573
0.000349039464211
0.000349039451319919
0.000349039439349443
0.000349039428248755
0.000349039417893622
0.000349039407545532
0.000349039393437775
0.000349039356277364
0.000349039201436017
0.000349038483809786
0.000349035208866495
0.000349020919571369
0.00034896199596871
0.000348734579919803
0.000347922083638388
0.000345270097687095
0.000337484024549884
0.000317280579661284
0.000271807537369695
0.000184721521918255
4.27044666865896e-05
1.52901196906966e-06
1.48785704115855e-06
4.20807957958114e-05
0.00018331001857188
0.000270679468463997
0.000316633471629524
0.00033720311308096
0.00034518820623457
0.000347926770470254
0.000348771128744361
0.000349008811130863
0.00034907069430444
0.00034908575055396
0.000349089195377233
0.000349089932205127
0.00034909006687297
0.000349090074284823
0.000349090058715878
0.000349090038833696
0.00034909001837682
0.000349089998119702
0.000349089978389697
0.000349089959309515
0.000349089940969284
0.000349089923400841
0.000349089906671066
0.000349089890796739
0.000349089875822736
0.000349089861742913
0.000349089848575098
0.00034908983629271
0.000349089824897903
0.00034908981433742
0.000349089804483893
0.00034908979459624
0.000349089780905214
0.000349089744116389
0.000349089589597538
0.000349088872223224
0.000349085597332458
0.000349071307199256
0.000349012378632953
0.000348784940085209
0.000347972354436796
0.000345320053790618
0.000337533006544858
0.000317326941949412
0.00027184782866651
0.000184749671922027
4.27102264726936e-05
1.5291765079704e-06
1.48790902060324e-06
4.20826970003655e-05
0.000183320458565434
0.000270696073400335
0.000316654136406041
0.000337226124752985
0.000345212418396392
0.000347951531380465
0.000348796116429921
0.000349033884725341
0.000349095798332651
0.000349110865042598
0.000349114313628314
0.00034911505222186
0.000349115188283979
0.000349115196909852
0.000349115182301709
0.00034911516331027
0.000349115143690043
0.000349115124216456
0.000349115105260453
0.000349115086956637
0.000349115069385064
0.000349115052570084
0.000349115036575153
0.000349115021416809
0.0003491150071408
0.000349114993742223
0.000349114981234657
0.000349114969588066
0.000349114958801655
0.000349114948819905
0.000349114939512673
0.000349114930135708
0.000349114916915529
0.00034911488055378
0.000349114726414629
0.000349114009369887
0.000349110734713868
0.000349096444395415
0.000349037513637781
0.000348810064283946
0.000347997434867994
0.00034534497923383
0.000337557451099257
0.000317350090592286
0.000271867966167022
0.000184763761821594
4.27130807427627e-05
1.52925712955143e-06
1.4879321545137e-06
4.20835622481078e-05
0.000183325360187512
0.000270703997914811
0.000316664107554865
0.000337237305839331
0.000345224231005605
0.000347963638173643
0.000348808347067324
0.00034904616323878
0.000349108094288657
0.000349123167303766
0.000349126618391492
0.000349127358369533
0.000349127495650307
0.000349127505388914
0.00034912749167507
0.000349127473525789
0.000349127454703059
0.000349127435979355
0.000349127417773384
0.000349127400228278
0.000349127383412713
0.000349127367343622
0.000349127352081218
0.000349127337642189
0.000349127324074271
0.000349127311375754
0.000349127299553827
0.000349127288573363
0.000349127278430342
0.000349127269067362
0.000349127260352455
0.000349127251537334
0.000349127238842578
0.000349127202963424
0.000349127049259897
0.000349126332610119
0.000349123058303695
0.000349108768138453
0.000349049836551598
0.000348822382103479
0.000348009731285196
0.000345357199438791
0.000337569435066988
0.000317361438932584
0.000271877839596379
0.000184770670870515
4.27144633844603e-05
1.52929567562903e-06
1.48794193414601e-06
4.2083934705089e-05
0.000183327573680777
0.000270707672544457
0.00031666880626556
0.000337242624801552
0.000345229880298371
0.000347969444120371
0.000348814220091703
0.000349052062706393
0.000349114003698081
0.000349129080545639
0.000349132533363621
0.000349133274509868
0.00034913341288127
0.000349133423635031
0.000349133410739374
0.000349133393374289
0.000349133375309003
0.000349133357313264
0.000349133339843553
0.000349133323042535
0.000349133306969055
0.000349133291635701
0.000349133277100388
0.000349133263380197
0.000349133250526379
0.000349133238542362
0.000349133227426304
0.000349133217136983
0.000349133207666937
0.000349133198957703
0.000349133190878685
0.000349133182676107
0.000349133170563027
0.000349133135227292
0.000349132982024362
0.00034913226584181
0.000349128991979599
0.000349114702166159
0.000349055770438748
0.000348828313683141
0.000348015652316358
0.000345363082556409
0.000337575201293284
0.00031736689288851
0.00027188257582957
0.000184773974247824
4.27151130383535e-05
1.52931353346796e-06
1.48794504360522e-06
4.20840797388543e-05
0.000183328497858115
0.000270709294685496
0.000316670939943294
0.000337245078698179
0.000345232508405451
0.000347972156050917
0.00034881696839073
0.000349054825591369
0.000349116772263994
0.000349131851486909
0.000349135305560685
0.000349136047758072
0.000349136187127433
0.000349136198819239
0.000349136186680084
0.000349136170055332
0.000349136152730493
0.000349136135477139
0.000349136118766092
0.000349136102725516
0.000349136087406675
0.000349136072822166
0.000349136059029004
0.000349136046045038
0.000349136033924659
0.000349136022675942
0.00034913601228785
0.000349136002714575
0.000349135993945993
0.000349135985923828
0.000349135978530069
0.000349135971001097
0.000349135959539688
0.000349135924826754
0.000349135772213584
0.000349135056596389
0.000349131783288917
0.000349117493990457
0.000349058562532275
0.000348831104913812
0.000348018438372708
0.000345365849347846
0.000337577908881104
0.000317369444234151
0.000271884776011669
0.00018477549094579
4.2715403263453e-05
1.5293213148473e-06
1.48794385685413e-06
4.20841026483088e-05
0.000183328801515802
0.00027070991257063
0.000316671822504714
0.000337246134610459
0.000345233659072274
0.000347973352463547
0.000348818184768971
0.000349056050066344
0.000349118000004079
0.000349133080715663
0.00034913653569034
0.000349137278747528
0.000349137418978436
0.000349137431536137
0.000349137420105573
0.000349137404191641
0.000349137387607225
0.000349137371130812
0.000349137355236903
0.000349137340015827
0.00034913732550238
0.000349137311711815
0.000349137298701735
0.000349137286490388
0.000349137275132033
0.000349137264633687
0.000349137254982018
0.000349137246130913
0.000349137238068445
0.000349137230738564
0.000349137224071894
0.000349137217281432
0.000349137206550069
0.000349137172552674
0.0003491370206376
0.000349136305707495
0.000349133033089872
0.000349118744481657
0.000349059813624095
0.000348832356056322
0.000348019687307341
0.000345367088595842
0.000337579117411117
0.000317370572413852
0.000271885727478631
0.000184776125631627
4.2715522491631e-05
1.5293239029861e-06
1.48794183476121e-06
4.20840547336414e-05
0.000183328786653129
0.000270710011635879
0.000316672057666536
0.000337246467375582
0.000345234047877765
0.000347973768986569
0.000348818613609959
0.000349056484144237
0.000349118436489199
0.000349133518570177
0.000349136974506103
0.000349137718358056
0.000349137859560371
0.000349137873192432
0.000349137862676921
0.000349137847668564
0.000349137832010958
0.0003491378164886
0.00034913780154562
0.000349137787255064
0.000349137773639351
0.000349137760719517
0.000349137748554955
0.000349137737163951
0.000349137726596762
0.000349137716854624
0.000349137707930163
0.000349137699779139
0.000349137692386245
0.000349137685695407
0.000349137679683715
0.000349137673524503
0.000349137663392942
0.000349137629961843
0.000349137478576418
0.000349136764141541
0.000349133491998334
0.000349119203868822
0.000349060273494936
0.000348832816211203
0.000348020146565236
0.000345367542615286
0.000337579554139623
0.000317370966645186
0.000271886038412108
0.000184776317833685
4.27155408679911e-05
1.52932320524713e-06
1.48793923332646e-06
4.20839839763475e-05
0.000183328557420244
0.000270709787266822
0.000316671882557715
0.000337246345232307
0.000345233960567198
0.000347973699723941
0.000348818552633649
0.000349056426952783
0.000349118381324269
0.000349133464774048
0.000349136921705805
0.000349137666231488
0.000349137808493528
0.00034913782334634
0.00034913781387709
0.000349137799905521
0.000349137785289695
0.000349137770813618
0.000349137756839423
0.000349137743462385
0.000349137730727098
0.000349137718664309
0.000349137707336292
0.000349137696761575
0.000349137686985852
0.000349137678005726
0.000349137669820571
0.000349137662387205
0.00034913765568545
0.00034913764965074
0.000349137644219905
0.000349137638574594
0.000349137628906772
0.000349137595889685
0.000349137444865902
0.000349136730739823
0.00034913345887438
0.000349119171067855
0.000349060241203857
0.000348832784745267
0.000348020116022274
0.000345367511723957
0.000337579518486281
0.000317370919469366
0.000271885978538238
0.000184776259518975
4.2715502379897e-05
1.52932205975706e-06
1.48793550585956e-06
4.20838679611314e-05
0.000183328085750882
0.000270709205960747
0.000316671289090125
0.000337245769548702
0.00034523340265799
0.000347973152355132
0.00034881801041685
0.000349055887219766
0.000349117843035976
0.000349132927539136
0.000349136385232456
0.000349137130242838
0.000349137273430376
0.000349137289368391
0.000349137280774174
0.00034913726773124
0.000349137254057201
0.000349137240530549
0.000349137227445763
0.000349137214904212
0.000349137202986613
0.000349137191730538
0.000349137181200798
0.00034913717141677
0.000349137162421792
0.000349137154210002
0.000349137146784386
0.000349137140100499
0.000349137134131456
0.000349137128801477
0.000349137123983514
0.000349137118905902
0.000349137109769835
0.000349137077254194
0.000349136926702716
0.00034913621302245
0.000349132941625558
0.000349118654495331
0.000349059725955031
0.000348832272325312
0.000348019609385404
0.00034536701593922
0.000337579041838817
0.000317370476819193
0.000271885598057358
0.000184775990344536
4.27154392203472e-05
1.52932024741571e-06
1.48792941356883e-06
4.20836646732329e-05
0.000183327180609755
0.000270708011907219
0.000316669993485045
0.000337244450740759
0.000345232084419961
0.000347971838078869
0.000348816698898781
0.000349054577308015
0.000349116534213537
0.0003491316196015
0.000349135077990912
0.000349135823496066
0.000349135967643975
0.000349135984613198
0.000349135976642982
0.00034913596443988
0.000349135951625159
0.000349135938965679
0.000349135926723161
0.000349135914995758
0.000349135903875243
0.000349135893403923
0.000349135883649074
0.000349135874632166
0.000349135866396314
0.000349135858934771
0.000349135852250064
0.000349135846292656
0.000349135841025971
0.000349135836365313
0.000349135832164996
0.000349135827668244
0.000349135819086281
0.00034913578711009
0.000349135637090311
0.000349134923945644
0.000349131653193925
0.000349117367201795
0.000349058441271325
0.00034883099391246
0.000348018345362727
0.00034536578258493
0.000337577868919081
0.000317369414550609
0.000271884724494069
0.000184775416675876
4.2715328820398e-05
1.52931737055129e-06
1.48791822427177e-06
4.20832836153115e-05
0.000183325406435347
0.000270705597399664