/*--------------------------------*- C++ -*----------------------------------*\
  =========                 |
  \\      /  F ield         | OpenFOAM: The Open Source CFD Toolbox
   \\    /   O peration     | Website:  https://openfoam.org
    \\  /    A nd           | Version:  10
     \\/     M anipulation  |
\*---------------------------------------------------------------------------*/
FoamFile
{
    format      ascii;
    class       volScalarField;
    location    "2.2";
    object      nut;
}
// * * * * * * * * * * * * * * * * * * * * * * * * * * * * * * * * * * * * * //

dimensions      [0 2 -1 0 0 0 0];

internalField   nonuniform List<scalar> 
2500
(
4.72841448699262e-14
7.51059424267251e-13
2.87672805393734e-12
4.3419717875336e-12
5.09400013276449e-12
5.40841476074684e-12
5.52001100549224e-12
5.5546393243049e-12
5.56424624244918e-12
5.56666999029384e-12
5.56723221098973e-12
5.56735162739446e-12
5.56737269687406e-12
5.56737334301278e-12
5.56737103298591e-12
5.56736851653531e-12
5.5673662234997e-12
5.56736421652953e-12
5.56736245052982e-12
5.5673608714292e-12
5.56735945744798e-12
5.56735819184858e-12
5.56735706514588e-12
5.56735606723067e-12
5.56735520309747e-12
5.5673544725364e-12
5.56735387149491e-12
5.56735341252944e-12
5.56735311747196e-12
5.56735302863002e-12
5.5673531117636e-12
5.56735331793594e-12
5.56735371928162e-12
5.56735426447089e-12
5.56735499032026e-12
5.56735571289709e-12
5.56735528916204e-12
5.56734699599436e-12
5.56730096834411e-12
5.5670944192664e-12
5.56624127568733e-12
5.56294769595756e-12
5.5511127513035e-12
5.51194644496958e-12
5.39430098870703e-12
5.07968350908874e-12
4.34958788798823e-12
2.93153760684021e-12
7.95325391547746e-13
5.30489938736922e-14
3.89833085949607e-12
1.83783463109818e-10
7.332369851315e-10
1.11969022079421e-09
1.32423560873826e-09
1.41243252008469e-09
1.44464565552108e-09
1.4549030801635e-09
1.45781515968766e-09
1.45856511516274e-09
1.45874238144539e-09
1.45878083082404e-09
1.45878795228287e-09
1.45878839962286e-09
1.4587878246737e-09
1.45878715918139e-09
1.45878654623385e-09
1.45878600550641e-09
1.45878552798118e-09
1.45878510224773e-09
1.45878472198072e-09
1.45878438276291e-09
1.45878408138333e-09
1.45878381373816e-09
1.45878358155687e-09
1.45878338619506e-09
1.45878322543935e-09
1.45878310317403e-09
1.45878302575597e-09
1.45878300199457e-09
1.45878302405415e-09
1.45878307636029e-09
1.45878318146248e-09
1.45878332928904e-09
1.45878352279867e-09
1.45878370176079e-09
1.45878348357646e-09
1.45878070316428e-09
1.45876601306627e-09
1.45870143834915e-09
1.45843856798294e-09
1.4574390017326e-09
1.45390760668395e-09
1.44244270192866e-09
1.40874432755294e-09
1.32080302628754e-09
1.12219076260397e-09
7.47283893389465e-10
1.94331578517328e-10
4.38085332928429e-12
1.30016998894711e-11
3.15980533696886e-09
9.80616066685771e-07
1.49096154690224e-06
1.76224877213181e-06
1.88122455314054e-06
1.92562935279106e-06
1.94009279713809e-06
1.94429068315372e-06
1.94539478681589e-06
1.94566115410772e-06
1.94572028290761e-06
1.94573177358249e-06
1.9457329044418e-06
1.94573230046064e-06
1.9457315176093e-06
1.94573078132269e-06
1.94573012747663e-06
1.94572954842214e-06
1.94572903154801e-06
1.94572856901553e-06
1.94572815532467e-06
1.94572778720172e-06
1.94572746095528e-06
1.94572717653639e-06
1.94572693539709e-06
1.94572673718005e-06
1.94572658441084e-06
1.94572648459096e-06
1.94572644981241e-06
1.9457264677555e-06
1.94572652369148e-06
1.94572663957735e-06
1.94572680943026e-06
1.94572702753347e-06
1.94572720364872e-06
1.94572674356663e-06
1.94572243338744e-06
1.94570074156985e-06
1.945606846431e-06
1.94522859680966e-06
1.94380549278061e-06
1.93883707973055e-06
1.92292117353291e-06
1.87682338656265e-06
1.75831647122643e-06
1.49401390436135e-06
9.96905452199786e-07
3.31394200238401e-09
1.42316293900537e-11
2.19988531985582e-11
5.41947230253106e-09
1.66608649255929e-06
2.50696360771262e-06
2.95045550567439e-06
3.14526124741381e-06
3.21845753058284e-06
3.2425235995522e-06
3.24958434311888e-06
3.25146316149267e-06
3.25192211949282e-06
3.25202551748678e-06
3.25204620211726e-06
3.2520487355731e-06
3.25204791183393e-06
3.25204678200367e-06
3.25204569832066e-06
3.25204472917617e-06
3.25204386767209e-06
3.25204309637602e-06
3.25204240357904e-06
3.25204178184074e-06
3.25204122671095e-06
3.25204073383578e-06
3.25204030212925e-06
3.25203993290183e-06
3.25203962678063e-06
3.25203938646185e-06
3.25203922200013e-06
3.25203914806171e-06
3.25203915256658e-06
3.25203922749459e-06
3.25203936931214e-06
3.25203959714644e-06
3.25203989063347e-06
3.25204013265049e-06
3.25203933239218e-06
3.25203232868673e-06
3.25199777805351e-06
3.25184759837797e-06
3.25123932447923e-06
3.24893832372472e-06
3.24086616192032e-06
3.21490535005216e-06
3.13948273142012e-06
2.94506372876232e-06
2.50979393916275e-06
1.68472305418641e-06
5.6007218598204e-09
2.34322285883054e-11
2.95920505537693e-11
7.33632178556559e-09
2.23431819768807e-06
3.3371405985729e-06
3.91620198308689e-06
4.17110551348556e-06
4.26745206969525e-06
4.29938756087295e-06
4.30884612749114e-06
4.31138933807697e-06
4.31201771389054e-06
4.31216118540702e-06
4.31219064385799e-06
4.31219484572716e-06
4.31219413873747e-06
4.31219288115801e-06
4.31219163791964e-06
4.31219051532407e-06
4.31218951206786e-06
4.31218861028749e-06
4.31218779656529e-06
4.31218706239699e-06
4.31218640352826e-06
4.3121858157138e-06
4.31218529795562e-06
4.31218485054408e-06
4.31218447440219e-06
4.31218417268068e-06
4.31218395536186e-06
4.31218383742119e-06
4.31218381156752e-06
4.31218385769914e-06
4.31218399316247e-06
4.31218421785042e-06
4.31218450838212e-06
4.31218471887352e-06
4.31218351447136e-06
4.31217446708231e-06
4.31213044628875e-06
4.31193842635888e-06
4.3111568010927e-06
4.30818475490681e-06
4.29770980964342e-06
4.26389058377682e-06
4.16534324066509e-06
3.91072313585636e-06
3.33922321176011e-06
2.25097065856019e-06
7.50558250567778e-09
3.09799507866517e-11
3.54695654516012e-11
8.84460490520304e-09
2.67794925790655e-06
3.97988923593343e-06
4.66205053988149e-06
4.96311502360612e-06
5.07752151007898e-06
5.11571358246396e-06
5.12711927218885e-06
5.13021436448666e-06
5.13098692440067e-06
5.13116544133284e-06
5.13120295851612e-06
5.13120895380462e-06
5.13120857619632e-06
5.13120735793138e-06
5.13120610034363e-06
5.13120494954969e-06
5.13120391307885e-06
5.13120297571668e-06
5.13120212502842e-06
5.1312013529089e-06
5.13120065513981e-06
5.13120002833973e-06
5.13119947193161e-06
5.13119898538309e-06
5.131198569762e-06
5.13119822789429e-06
5.13119796830796e-06
5.13119780352973e-06
5.13119772779141e-06
5.13119773747481e-06
5.13119783354876e-06
5.13119800844879e-06
5.13119823833034e-06
5.13119833279821e-06
5.13119671641701e-06
5.13118611156424e-06
5.13113520255922e-06
5.13091271302409e-06
5.1300035114156e-06
5.12653193202671e-06
5.11425018062318e-06
5.07447481211032e-06
4.9583079637905e-06
4.65769769447409e-06
3.98203122242079e-06
2.69214468313828e-06
8.99283579334722e-09
3.67474056451058e-11
3.97209486164369e-11
9.95728189060873e-09
3.00602333039267e-06
4.45346009515746e-06
5.21137136840712e-06
5.54676904642989e-06
5.67482904395975e-06
5.71784156150525e-06
5.73077872468302e-06
5.73431749288512e-06
5.73520869398011e-06
5.73541682707387e-06
5.73546145292784e-06
5.7354691784387e-06
5.73546923709898e-06
5.73546816475504e-06
5.73546698700403e-06
5.73546588983395e-06
5.73546489158156e-06
5.73546398152253e-06
5.73546314965844e-06
5.73546238905162e-06
5.73546169629537e-06
5.73546106880735e-06
5.73546050617087e-06
5.7354600077651e-06
5.735459574682e-06
5.73545920902346e-06
5.73545891721109e-06
5.73545870792694e-06
5.73545858347027e-06
5.7354585406875e-06
5.73545857768784e-06
5.73545868636514e-06
5.735458821984e-06
5.73545876099317e-06
5.73545675791253e-06
5.73544498545621e-06
5.7353891858047e-06
5.73514515571478e-06
5.73414498465151e-06
5.73031367217382e-06
5.71671949199506e-06
5.67258961678871e-06
5.54349162631534e-06
5.20908968818065e-06
4.45694961116721e-06
3.01909229513442e-06
1.00902554353056e-08
4.09104258081691e-11
4.2621629822238e-11
1.07323610030207e-08
3.23676130713032e-06
4.78647267715947e-06
5.59812502284087e-06
5.95822439535112e-06
6.09627662007072e-06
6.14288482605076e-06
6.15698790035887e-06
6.16087174157538e-06
6.16185731690659e-06
6.16208961433208e-06
6.1621402324893e-06
6.16214952027983e-06
6.16215006337093e-06
6.16214918824013e-06
6.16214813868525e-06
6.16214713811176e-06
6.16214621629247e-06
6.16214536771573e-06
6.16214458538195e-06
6.1621438639784e-06
6.16214320119533e-06
6.16214259515863e-06
6.16214204576405e-06
6.16214155253071e-06
6.16214111646702e-06
6.16214073894152e-06
6.16214042442892e-06
6.16214017869816e-06
6.16214000583932e-06
6.16213990288354e-06
6.16213987852909e-06
6.16213990966435e-06
6.16213995488216e-06
6.16213972354478e-06
6.16213737822051e-06
6.16212476848169e-06
6.16206560233016e-06
6.16180685061195e-06
6.16074407705378e-06
6.15666304936295e-06
6.14215089062543e-06
6.09495840657801e-06
5.95673812686808e-06
5.59848591696153e-06
4.7924461944968e-06
3.25042481147283e-06
1.08601511668124e-08
4.37697244162915e-11
4.45009408960598e-11
1.12450995188979e-08
3.3916298429528e-06
5.01054597637116e-06
5.85900567203898e-06
6.23628696535887e-06
6.38141390648168e-06
6.43061751884233e-06
6.44557945199092e-06
6.44972291066927e-06
6.45078106586173e-06
6.45103239854888e-06
6.45108786688554e-06
6.4510985001437e-06
6.45109951569117e-06
6.45109884151924e-06
6.45109793433096e-06
6.45109704482016e-06
6.45109621335348e-06
6.45109543952347e-06
6.45109471931105e-06
6.45109404911247e-06
6.45109342772002e-06
6.45109285394173e-06
6.45109232803091e-06
6.45109184968529e-06
6.45109141985568e-06
6.45109103935303e-06
6.45109071116384e-06
6.4510904388026e-06
6.45109022556694e-06
6.45109007159002e-06
6.45108998261933e-06
6.45108993641426e-06
6.45108988591516e-06
6.45108947970828e-06
6.45108689350827e-06
6.45107370539415e-06
6.45101229798939e-06
6.45074383951711e-06
6.44963957073844e-06
6.44539174844181e-06
6.43026226742481e-06
6.38100018932053e-06
6.23659936905306e-06
5.8621823219033e-06
5.01965828878402e-06
3.40721004552448e-06
1.13762246186631e-08
4.56484819210863e-11
4.56634923407593e-11
1.15688324881681e-08
3.49115795372934e-06
5.15519713601244e-06
6.0280028905974e-06
6.41683993014716e-06
6.56681311342156e-06
6.6178297108306e-06
6.63340393317622e-06
6.63773639368654e-06
6.63884853964822e-06
6.63911436164386e-06
6.63917360432338e-06
6.63918535259563e-06
6.63918680044898e-06
6.63918628468504e-06
6.63918551045385e-06
6.63918472716013e-06
6.63918398340709e-06
6.63918328318502e-06
6.63918262508121e-06
6.63918200705402e-06
6.63918142886345e-06
6.63918088991294e-06
6.63918039080515e-06
6.63917993141215e-06
6.63917951266018e-06
6.63917913498375e-06
6.63917880037574e-06
6.6391785108173e-06
6.63917826886826e-06
6.63917807535996e-06
6.63917793194346e-06
6.63917782279823e-06
6.63917768415057e-06
6.63917715312619e-06
6.63917439163652e-06
6.63916080208998e-06
6.6390979517398e-06
6.63882332369781e-06
6.63769257949694e-06
6.63333760466793e-06
6.61780908363877e-06
6.5672032243324e-06
6.41877951623407e-06
6.03383500627867e-06
5.16756823338746e-06
3.50931305174189e-06
1.17081939650177e-08
4.68347512639154e-11
4.63534370261574e-11
1.17647945666117e-08
3.55260336538737e-06
5.24503380057233e-06
6.13340641340294e-06
6.52976351054195e-06
6.68295056741578e-06
6.73519353660866e-06
6.75119048394749e-06
6.75565618064442e-06
6.75680720583767e-06
6.75708369577472e-06
6.75714577093859e-06
6.75715838369256e-06
6.75716016648604e-06
6.75715981531278e-06
6.75715915509026e-06
6.7571584634661e-06
6.75715779626709e-06
6.75715716102912e-06
6.75715655842854e-06
6.75715598769566e-06
6.75715544937149e-06
6.75715494334812e-06
6.75715447051778e-06
6.75715403090258e-06
6.75715362542227e-06
6.75715325428082e-06
6.75715291885325e-06
6.75715262014431e-06
6.75715235999186e-06
6.75715213900893e-06
6.75715195701956e-06
6.75715179978484e-06
6.7571515974725e-06
6.75715097843621e-06
6.7571480907127e-06
6.75713423495813e-06
6.75707048702295e-06
6.75679207844078e-06
6.75564506733758e-06
6.75122384457668e-06
6.73544718365954e-06
6.68400213295488e-06
6.53305976193305e-06
6.14151778325104e-06
5.26037150877013e-06
3.57339809283899e-06
1.19139161679476e-08
4.75573286098604e-11
4.6747925290929e-11
1.18789815394069e-08
3.58916147497813e-06
5.29886133344592e-06
6.19686915312158e-06
6.59796719403081e-06
6.7532199201471e-06
6.8062670657455e-06
6.82254694694369e-06
6.82710369161747e-06
6.82828185008546e-06
6.82856594770763e-06
6.82863008591918e-06
6.82864333361244e-06
6.82864537988842e-06
6.82864516440129e-06
6.82864459537681e-06
6.82864397769919e-06
6.82864337296426e-06
6.82864279137273e-06
6.8286422351616e-06
6.82864170451873e-06
6.828641200569e-06
6.82864072357422e-06
6.82864027464628e-06
6.82863985392337e-06
6.8286394623275e-06
6.82863909992463e-06
6.82863876771841e-06
6.82863846611096e-06
6.82863819635341e-06
6.82863795860756e-06
6.82863775177802e-06
6.82863756184717e-06
6.82863731644187e-06
6.82863663861647e-06
6.82863366611754e-06
6.82861964141483e-06
6.82855535440518e-06
6.82827471081224e-06
6.82711806409589e-06
6.8226573698143e-06
6.80673203895819e-06
6.75478206353023e-06
6.6023200756573e-06
6.20679150752118e-06
5.31664614119138e-06
3.61227867894551e-06
1.20371629638194e-08
4.79833768245608e-11
4.6966039122941e-11
1.19432658678117e-08
3.61018749737091e-06
5.33006296601035e-06
6.23385376083547e-06
6.63785178576899e-06
6.79439312818941e-06
6.84795216598266e-06
6.86441587922298e-06
6.86903301773209e-06
6.87022955324303e-06
6.87051891428935e-06
6.87058451423952e-06
6.87059821849047e-06
6.87060045823994e-06
6.87060034410175e-06
6.87059984441661e-06
6.87059928404602e-06
6.87059872844377e-06
6.87059818965196e-06
6.87059767099979e-06
6.87059717335341e-06
6.87059669824225e-06
6.87059624618942e-06
6.87059581845846e-06
6.87059541527038e-06
6.87059503755077e-06
6.87059468528267e-06
6.87059435924949e-06
6.87059405949112e-06
6.8705937868358e-06
6.87059354103927e-06
6.8705933204797e-06
6.87059311101298e-06
6.87059283906498e-06
6.87059212475153e-06
6.87058909923648e-06
6.87057497246696e-06
6.87051037339288e-06
6.87022845395937e-06
6.86906629604724e-06
6.8645828959303e-06
6.84857157023974e-06
6.79632826142362e-06
6.64298072353345e-06
6.24512400737065e-06
5.34971371786434e-06
3.635143782951e-06
1.21087659610578e-08
4.82272782226278e-11
4.70830345483115e-11
1.19783445802393e-08
3.62191081223629e-06
5.34760674754751e-06
6.25476954163265e-06
6.66049167643514e-06
6.81781451521943e-06
6.87169035295974e-06
6.88827019236365e-06
6.89292627534419e-06
6.89413490877796e-06
6.89442780856203e-06
6.89449441556365e-06
6.89450844164776e-06
6.89451081934442e-06
6.89451077673564e-06
6.89451032873834e-06
6.89450981203071e-06
6.89450929453675e-06
6.89450878950418e-06
6.89450830099902e-06
6.89450783034221e-06
6.89450737932527e-06
6.89450694864018e-06
6.89450653964585e-06
6.89450615261848e-06
6.89450578848364e-06
6.89450544717471e-06
6.8945051293426e-06
6.89450483481232e-06
6.89450456413079e-06
6.89450431675717e-06
6.89450409074241e-06
6.89450387177158e-06
6.8945035856713e-06
6.89450285102309e-06
6.89449979517734e-06
6.89448561037839e-06
6.89442083777445e-06
6.89413821465512e-06
6.89297300764458e-06
6.88847697020622e-06
6.87241751191864e-06
6.82000927017046e-06
6.66616206855966e-06
6.26698804981596e-06
5.36859072340802e-06
3.64821145180681e-06
1.21492180631404e-08
4.83632022966697e-11
4.71440865218352e-11
1.19969508966567e-08
3.62826406472793e-06
5.35719886532297e-06
6.26627552480975e-06
6.67299573598951e-06
6.83078013187198e-06
6.88484691022803e-06
6.90149818601631e-06
6.90617872199393e-06
6.90739510964996e-06
6.90769032584566e-06
6.90775760777482e-06
6.90777185456337e-06
6.90777432907516e-06
6.90777434087993e-06
6.90777393224906e-06
6.90777344928518e-06
6.90777296182218e-06
6.90777248390679e-06
6.90777202010866e-06
6.90777157205226e-06
6.90777114167825e-06
6.90777072977373e-06
6.90777033774941e-06
6.90776996591629e-06
6.90776961519483e-06
6.90776928548745e-06
6.90776897736273e-06
6.90776869051669e-06
6.9077684253165e-06
6.9077681810248e-06
6.90776795548098e-06
6.90776773423759e-06
6.9077674428254e-06
6.90776669909665e-06
6.90776362836646e-06
6.90774941350713e-06
6.90768454911742e-06
6.90740155129139e-06
6.90623470988248e-06
6.90173185208928e-06
6.88564626128536e-06
6.83314803727378e-06
6.67902716250903e-06
6.27912917275962e-06
5.37908440662339e-06
3.65548639240102e-06
1.21714947476879e-08
4.84371116441377e-11
4.71751519191728e-11
1.2006566996627e-08
3.63161834844128e-06
5.36231007361952e-06
6.27244613401389e-06
6.67972997600666e-06
6.83778031760277e-06
6.89195936681893e-06
6.9086535092073e-06
6.91334902058176e-06
6.91457025591625e-06
6.91486695172736e-06
6.91493467511463e-06
6.91494907007235e-06
6.91495161464038e-06
6.9149516696037e-06
6.91495129202804e-06
6.91495083603599e-06
6.91495037302962e-06
6.91494991760437e-06
6.91494947471928e-06
6.91494904621281e-06
6.9149486340907e-06
6.9149482391766e-06
6.91494786289881e-06
6.91494750558607e-06
6.91494716814953e-06
6.91494685047672e-06
6.91494655307335e-06
6.91494627556152e-06
6.91494601818751e-06
6.91494578008847e-06
6.91494555896646e-06
6.91494534028486e-06
6.91494504944416e-06
6.91494430400082e-06
6.91494122828053e-06
6.91492700032887e-06
6.91486209070769e-06
6.91457890082989e-06
6.91341120952956e-06
6.90890477409867e-06
6.89280538554214e-06
6.84025940426508e-06
6.68599265043554e-06
6.28570722416966e-06
5.38477707918398e-06
3.65943987023028e-06
1.21834775778893e-08
4.84764004832656e-11
4.71905921201892e-11
1.20114186969993e-08
3.63334703875479e-06
5.36496959092853e-06
6.27567865138638e-06
6.68327356862291e-06
6.84147367811664e-06
6.89571724195064e-06
6.91243651926326e-06
6.91714099134287e-06
6.9183651885336e-06
6.91866280938101e-06
6.91873081663013e-06
6.91874531103917e-06
6.91874790793576e-06
6.9187479982648e-06
6.91874764650607e-06
6.91874721330369e-06
6.91874677129589e-06
6.91874633545914e-06
6.91874591113732e-06
6.91874550034903e-06
6.91874510509278e-06
6.91874472617899e-06
6.91874436502448e-06
6.91874402196657e-06
6.9187436979037e-06
6.91874339271471e-06
6.91874310685604e-06
6.91874283989799e-06
6.91874259200541e-06
6.91874236223006e-06
6.91874214818116e-06
6.91874193526256e-06
6.91874164882205e-06
6.91874090633407e-06
6.91873783169045e-06
6.91872360054071e-06
6.91865867137153e-06
6.91837538769493e-06
6.91720726761893e-06
6.91269900396803e-06
6.89659251117032e-06
6.84402180379527e-06
6.68967917272838e-06
6.28919134986086e-06
5.38779648627399e-06
3.66154093862118e-06
1.2189784488954e-08
4.8496850307344e-11
4.71980954758444e-11
1.20138114586665e-08
3.63421801245857e-06
5.36632306939684e-06
6.27733552595776e-06
6.68509855972588e-06
6.84338125967288e-06
6.89766112092293e-06
6.91439482525876e-06
6.91910454567614e-06
6.92033051538639e-06
6.92062870431869e-06
6.92069689242217e-06
6.92071145454263e-06
6.92071409192145e-06
6.92071421229313e-06
6.92071388305211e-06
6.92071347007191e-06
6.9207130468925e-06
6.92071262874039e-06
6.92071222144216e-06
6.92071182720724e-06
6.92071144796327e-06
6.92071108445387e-06
6.92071073806164e-06
6.92071040912381e-06
6.92071009853017e-06
6.92070980615464e-06
6.92070953240799e-06
6.92070927681333e-06
6.92070903947202e-06
6.92070881937644e-06
6.92070861406325e-06
6.92070840888932e-06
6.92070812916878e-06
6.92070739236274e-06
6.92070432219377e-06
6.92069009319811e-06
6.92062515804869e-06
6.92034183174943e-06
6.91917350214974e-06
6.9146643260308e-06
6.89855425443231e-06
6.84597101862536e-06
6.69158976347791e-06
6.29099846087134e-06
5.3893648362325e-06
3.66263454043633e-06
1.21930367643931e-08
4.85072837637738e-11
4.72016593115812e-11
1.20149651384008e-08
3.63464735089274e-06
5.3669975086967e-06
6.27816754277692e-06
6.68601973434673e-06
6.84434712913143e-06
6.89864702677549e-06
6.91538885348674e-06
6.92010158912682e-06
6.92132860069977e-06
6.92162713407639e-06
6.92169543759473e-06
6.92171004733105e-06
6.92171271751596e-06
6.92171286448573e-06
6.9217125557954e-06
6.92171216158291e-06
6.92171175597559e-06
6.92171135432911e-06
6.92171096313422e-06
6.92171058482398e-06
6.92171022118537e-06
6.92170987284961e-06
6.9217095411428e-06
6.92170922639757e-06
6.92170892950371e-06
6.92170865033935e-06
6.92170838925797e-06
6.92170814573246e-06
6.92170791980552e-06
6.92170771042114e-06
6.92170751505384e-06
6.92170731900951e-06
6.92170704755199e-06
6.92170631811387e-06
6.92170325433955e-06
6.92168903033937e-06
6.9216240962331e-06
6.92134075332327e-06
6.920172325332e-06
6.91566270321214e-06
6.89955086002399e-06
6.84696138568686e-06
6.69256081956154e-06
6.29191758288092e-06
5.39016360397068e-06
3.66319261155908e-06
1.21946810282259e-08
4.85125025877775e-11
4.72033072619323e-11
1.2015507698867e-08
3.63485427084492e-06
5.36732662682912e-06
6.27857713811471e-06
6.68647585432302e-06
6.84482704865284e-06
6.89913782557021e-06
6.9158841483716e-06
6.92059858729485e-06
6.92182620227572e-06
6.92212494305332e-06
6.92219332117119e-06
6.92220796591614e-06
6.92221066374638e-06
6.92221083478751e-06
6.92221054514776e-06
6.92221016859677e-06
6.92220977957836e-06
6.92220939346762e-06
6.92220901761954e-06
6.92220865470296e-06
6.92220830630521e-06
6.92220797290906e-06
6.92220765577265e-06
6.92220735522388e-06
6.92220707216982e-06
6.92220680651317e-06
6.92220655852317e-06
6.92220632760423e-06
6.92220611374057e-06
6.92220591583133e-06
6.92220573129601e-06
6.92220554537765e-06
6.92220528325617e-06
6.92220456228621e-06
6.92220150604077e-06
6.92218728857581e-06
6.92212235912577e-06
6.92183901254949e-06
6.92067054113569e-06
6.91616070485715e-06
6.90004799421962e-06
6.84745544800038e-06
6.69304535039537e-06
6.29237642768586e-06
5.39056276479962e-06
3.66347190072361e-06
1.219549570513e-08
4.85150591683592e-11
4.7204040099341e-11
1.20157544715374e-08
3.63495137667693e-06
5.36748363066908e-06
6.27877470157289e-06
6.68669739896251e-06
6.84506111143406e-06
6.89937772015398e-06
6.9161264981404e-06
6.9208418862357e-06
6.9220698470373e-06
6.92236871282583e-06
6.9224371405515e-06
6.92245181274759e-06
6.92245453474098e-06
6.92245472784516e-06
6.92245445593739e-06
6.92245409608453e-06
6.92245372287877e-06
6.92245335163658e-06
6.92245299066003e-06
6.92245264278706e-06
6.92245230937936e-06
6.9224519907726e-06
6.92245168816068e-06
6.92245140187443e-06
6.92245113286033e-06
6.92245088108445e-06
6.92245064668927e-06
6.9224504289783e-06
6.92245022787177e-06
6.92245004223149e-06
6.92244986944082e-06
6.92244969466276e-06
6.92244944295943e-06
6.92244873155847e-06
6.92244568395074e-06
6.92243147431761e-06
6.92236655180097e-06
6.92208320826924e-06
6.92091472044063e-06
6.91640478325643e-06
6.900291648624e-06
6.847697592478e-06
6.6932828143135e-06
6.29260129760345e-06
5.39075841094092e-06
3.66360880890156e-06
1.21958902007052e-08
4.85162809205747e-11
4.72043492776894e-11
1.20158605419267e-08
3.63499518263713e-06
5.3675563683401e-06
6.27886772380699e-06
6.68680271015989e-06
6.84517296877058e-06
6.89949268236584e-06
6.91624278997698e-06
6.92095870227749e-06
6.92218686017581e-06
6.92248580194666e-06
6.9225542639779e-06
6.92256895933654e-06
6.92257170295459e-06
6.92257191618701e-06
6.92257166050207e-06
6.92257131619811e-06
6.9225709580108e-06
6.92257060120259e-06
6.9225702548245e-06
6.9225699217052e-06
6.92256960301147e-06
6.92256929899283e-06
6.92256901079761e-06
6.92256873876443e-06
6.92256848390946e-06
6.92256824630063e-06
6.92256802590139e-06
6.92256782189439e-06
6.9225676341316e-06
6.92256746145382e-06
6.92256730127156e-06
6.92256713863905e-06
6.92256689846925e-06
6.9225661978433e-06
6.9225631601616e-06
6.92254895979305e-06
6.9224840460859e-06
6.92220070953635e-06
6.92103221894771e-06
6.91652223611404e-06
6.90040889269505e-06
6.84781408600394e-06
6.69339699365524e-06
6.29270929442683e-06
5.39085219741828e-06
3.66367422428715e-06
1.21960754126158e-08
4.85168463468017e-11
4.72044468475123e-11
1.20159016781357e-08
3.63501342420808e-06
5.36758840953266e-06
6.2789098868994e-06
6.68685121320734e-06
6.84522492242817e-06
6.89954629682511e-06
6.91629712516349e-06
6.92101332656453e-06
6.92224159707551e-06
6.92254058593762e-06
6.92260907286686e-06
6.9226237890669e-06
6.92262655247217e-06
6.92262678430392e-06
6.92262654361873e-06
6.92262621399395e-06
6.92262587048808e-06
6.92262552839977e-06
6.92262519706436e-06
6.92262487902302e-06
6.92262457529217e-06
6.92262428612155e-06
6.92262401264163e-06
6.92262375520626e-06
6.92262351489386e-06
6.92262329186454e-06
6.92262308589937e-06
6.9226228960901e-06
6.92262272223594e-06
6.92262256318137e-06
6.92262241658646e-06
6.92262226731022e-06
6.92262204006181e-06
6.92262135178484e-06
6.92261832579705e-06
6.92260413663885e-06
6.92253923393267e-06
6.92225590760075e-06
6.92108742237724e-06
6.91657742253808e-06
6.90046397689107e-06
6.84786878941745e-06
6.69345052670894e-06
6.29275973866899e-06
5.39089569940268e-06
3.66370421362588e-06
1.2196157999937e-08
4.85170921014531e-11
4.72044081218218e-11
1.20159079452501e-08
3.63501936219618e-06
5.36760053846975e-06
6.27892724302018e-06
6.68687199720279e-06
6.84524758159228e-06
6.89956986179204e-06
6.91632108562367e-06
6.92103744745793e-06
6.92226578268088e-06
6.92256480105311e-06
6.92263330584358e-06
6.92264803909117e-06
6.9226508195789e-06
6.92265106857941e-06
6.922650841944e-06
6.9226505264132e-06
6.92265019758832e-06
6.92264987090505e-06
6.92264955577175e-06
6.92264925397934e-06
6.92264896621775e-06
6.92264869278938e-06
6.92264843483631e-06
6.92264819272037e-06
6.92264796751734e-06
6.92264775936631e-06
6.92264756800292e-06
6.92264739251282e-06
6.92264723265946e-06
6.92264708733152e-06
6.92264695515332e-06
6.92264682052031e-06
6.92264660774729e-06
6.92264593365809e-06
6.9226429215123e-06
6.92262874597811e-06
6.92256385695187e-06
6.92228054431271e-06
6.9211120710251e-06
6.91660207229411e-06
6.90048858323733e-06
6.84789320489806e-06
6.69347433663916e-06
6.29278196456176e-06
5.39091444202557e-06
3.66371671454278e-06
1.219619176399e-08
4.85171731026665e-11
4.72043428952577e-11
1.2015893990569e-08
3.63501898460436e-06
5.36760238031409e-06
6.27893176258641e-06
6.68687844273095e-06
6.84525513466946e-06
6.89957796320971e-06
6.9163294308981e-06
6.92104589646126e-06
6.92227427938616e-06
6.92257332490358e-06
6.92264184875184e-06
6.92265659775745e-06
6.92265939750595e-06
6.9226596678086e-06
6.92265945931667e-06
6.92265916174144e-06
6.9226588512932e-06
6.9226585435268e-06
6.92265824724836e-06
6.92265796390618e-06
6.92265769394477e-06
6.92265743778114e-06
6.92265719659293e-06
6.92265697074268e-06
6.92265676122683e-06
6.92265656806985e-06
6.92265639112551e-06
6.92265622951658e-06
6.92265608293955e-06
6.92265595028254e-06
6.92265583109128e-06
6.92265570897473e-06
6.92265550809463e-06
6.92265484523404e-06
6.92265184359028e-06
6.92263767787594e-06
6.92257279825803e-06
6.92228949511722e-06
6.92112103144675e-06
6.91661103845078e-06
6.90049753197638e-06
6.84790205096949e-06
6.69348284338992e-06
6.29278963782217e-06
5.39092048423424e-06
3.66372044194917e-06
1.21961967326994e-08
4.8517149860754e-11
4.72042592893153e-11
1.20158735138323e-08
3.63501435650839e-06
5.3675978091458e-06
6.27892814736047e-06
6.68687586839538e-06
6.84525324738021e-06
6.8995764325335e-06
6.91632806413968e-06
6.92104460464067e-06
6.92227302771901e-06
6.92257210036984e-06
6.92264064396158e-06
6.92265540632535e-06
6.92265822708575e-06
6.92265852159322e-06
6.92265833384634e-06
6.92265805682835e-06
6.92265776703634e-06
6.92265748001544e-06
6.92265720294593e-06
6.92265693771686e-06
6.92265668521242e-06
6.92265644604219e-06
6.92265622144092e-06
6.92265601177593e-06
6.92265581795321e-06
6.92265563990536e-06
6.92265547761993e-06
6.92265533024071e-06
6.92265519736759e-06
6.92265507772028e-06
6.92265497004629e-06
6.9226548581194e-06
6.92265466643442e-06
6.92265401178296e-06
6.92265101731002e-06
6.92263685771901e-06
6.92257198361022e-06
6.92228868688025e-06
6.92112023334665e-06
6.91661025681459e-06
6.90049676900854e-06
6.84790128229396e-06
6.69348198381557e-06
6.29278855891969e-06
5.39091917412371e-06
3.66371920214208e-06
1.21961854653962e-08
4.85171124141283e-11
4.72041399604723e-11
1.20158401149966e-08
3.63500492141444e-06
5.36758616067801e-06
6.2789162369727e-06
6.68686430132259e-06
6.84524202912377e-06
6.89956542203161e-06
6.91631715540891e-06
6.92103374505023e-06
6.92226219674615e-06
6.92256129027628e-06
6.92262984896649e-06
6.92264462094033e-06
6.92264746005121e-06
6.92264777607581e-06
6.92264760567891e-06
6.92264734707373e-06
6.9226470759553e-06
6.92264680775944e-06
6.92264654832501e-06
6.92264629966187e-06
6.92264606337044e-06
6.92264584019566e-06
6.92264563142254e-06
6.92264543743528e-06
6.9226452590931e-06
6.92264509627978e-06
6.92264494905445e-06
6.92264481653588e-06
6.92264469819093e-06
6.92264459251704e-06
6.92264449699509e-06
6.92264439632459e-06
6.9226442151833e-06
6.92264357047461e-06
6.9226405853667e-06
6.92262643461571e-06
6.92256156979897e-06
6.92227828648521e-06
6.92110985922461e-06
6.91659993888614e-06
6.90048656611404e-06
6.84789129577381e-06
6.69347238026849e-06
6.29277963860438e-06
5.39091150706007e-06
3.66371378143644e-06
1.2196167153868e-08
4.85170538119181e-11
4.72039456085767e-11
1.20157817979545e-08
3.63498689150059e-06
5.36756236273602e-06
6.27889040469699e-06
6.68683799968011e-06
6.84521573516941e-06
6.89953920539154e-06
6.91629099307567e-06
6.92100761445906e-06
6.92223608772552e-06
6.92253519879241e-06
6.92260377128291e-06
6.92261855306655e-06
6.92262141121938e-06
6.92262174769055e-06
6.92262158966618e-06
6.92262134771302e-06
6.922621093633e-06
6.9226208426313e-06
6.92262059989723e-06
6.9226203673769e-06
6.92262014688995e-06
6.92261993927521e-06
6.92261974586655e-06
6.92261956708967e-06
6.92261940379939e-06
6.92261925586192e-06
6.9226191233273e-06
6.92261900521332e-06
6.92261890079471e-06
6.92261880839212e-06
6.92261872511689e-06
6.92261863596373e-06
6.92261846580926e-06
6.92261783179688e-06
6.92261485723167e-06
6.92260071710093e-06
6.9225358650783e-06
6.92225260433725e-06
6.92108422885088e-06
6.91657443295316e-06
6.90046134587524e-06
6.84786668482338e-06
6.69344897112813e-06
6.29275843257831e-06
5.3908940632246e-06
3.66370232326022e-06
1.21961353542012e-08
4.85169614381585e-11
4.72035895562759e-11
1.2015672723792e-08
3.63495163051202e-06
5.36751436579607e-06