/*--------------------------------*- C++ -*----------------------------------*\
  =========                 |
  \\      /  F ield         | OpenFOAM: The Open Source CFD Toolbox
   \\    /   O peration     | Website:  https://openfoam.org
    \\  /    A nd           | Version:  10
     \\/     M anipulation  |
\*---------------------------------------------------------------------------*/
FoamFile
{
    format      ascii;
    class       volScalarField;
    location    "2.2";
    object      omega;
}
// * * * * * * * * * * * * * * * * * * * * * * * * * * * * * * * * * * * * * //

dimensions      [0 0 -1 0 0 0 0];

internalField   nonuniform List<scalar> 
2500
(
128413.836408571
128437.048880634
128429.312925419
128427.016975157
128426.405149004
128426.244241994
128426.202964365
128426.192070647
128426.188563355
128426.187476818
128426.186375037
128426.185682242
128426.185264826
128426.184719506
128426.184219464
128426.183649707
128426.183371575
128426.183012068
128426.182599159
128426.182314801
128426.182042556
128426.181761017
128426.181509631
128426.181421103
128426.181314191
128426.181147365
128426.181106764
128426.18105593
128426.18099482
128426.181042888
128426.181106525
128426.181170826
128426.181312592
128426.181507363
128426.181705528
128426.181912499
128426.182150555
128426.182344465
128426.182772494
128426.183191286
128426.183796644
128426.185021627
128426.188591535
128426.201015769
128426.247839975
128426.416877898
128427.034034997
128429.324755023
128437.173656221
128413.813203217
31836.0654845737
14143.5633836047
14139.90163425
14138.6129244659
14138.2035315272
14138.0800215956
14138.0451673365
14138.036054871
14138.0338289119
14138.0333197887
14138.0331809084
14138.0331366612
14138.0331229542
14138.0331057825
14138.0330896362
14138.0330720526
14138.0330621714
14138.0330500117
14138.0330362591
14138.0330244998
14138.0330068456
14138.032981173
14138.0329552797
14138.0329527231
14138.0329521599
14138.0329394402
14138.032941971
14138.0329415216
14138.0329326244
14138.0329437827
14138.0329473574
14138.0329370579
14138.0329592479
14138.0329918355
14138.0330053278
14138.0330119322
14138.0330184308
14138.033024554
14138.0330428388
14138.0330852521
14138.0332560515
14138.0339602156
14138.0367673923
14138.047424978
14138.0854309658
14138.2126269781
14138.6202898355
14139.9000787044
14143.6311650134
31836.3211782219
31671.9252892656
3517.76376400575
50.6434222923254
50.6389128057337
50.6374675208541
50.6370275834044
50.6369017551358
50.6368683708918
50.6368601644165
50.6368583008727
50.6368578377283
50.6368577271762
50.6368577462296
50.6368577394943
50.6368577365158
50.6368577429593
50.6368577487121
50.6368577435913
50.6368577334261
50.6368577238208
50.6368576966935
50.6368576513127
50.6368575981221
50.6368575832257
50.6368575919449
50.6368575803486
50.6368575797115
50.6368575877942
50.6368575870385
50.6368576049069
50.6368576033663
50.6368575720391
50.6368576233435
50.6368577092182
50.63685772354
50.6368577154509
50.636857714867
50.6368577118351
50.6368577387071
50.6368578323315
50.6368583879878
50.6368608527007
50.6368707062886
50.6369081539145
50.6370415217819
50.6374881990761
50.6389237998655
50.6434238720072
3517.7840903106
31672.575763512
31583.9188969066
3508.48377250159
50.5154240173324
50.5129675982184
50.5122100325525
50.5119868433701
50.5119239277978
50.5119072300389
50.5119030988481
50.5119021623685
50.5119019293861
50.5119018856383
50.5119019155205
50.5119019233666
50.5119019288031
50.5119019333337
50.5119019357796
50.5119019378467
50.5119019382836
50.5119019417073
50.5119019393761
50.5119019228609
50.5119018971019
50.5119018873027
50.5119018959349
50.5119018948331
50.5119018928762
50.5119019010189
50.5119019070751
50.5119019134872
50.5119019114813
50.511901895379
50.5119019194089
50.5119019614421
50.5119019648665
50.5119019581188
50.5119019558195
50.5119019505334
50.5119019524024
50.5119019713909
50.51190220534
50.5119033388981
50.5119079370326
50.5119256743802
50.511990230225
50.512213687676
50.5129662928935
50.5154367119603
3508.49868588655
31584.560737854
31544.5139611615
3504.5303386383
50.4623802325668
50.4613283760328
50.4610107055101
50.4609192093287
50.4608936597082
50.4608868499077
50.4608851470587
50.4608847599881
50.4608846631846
50.4608846476628
50.4608846649945
50.4608846727343
50.4608846771794
50.4608846794381
50.4608846828444
50.4608846868718
50.4608846883779
50.4608846887429
50.460884688932
50.4608846852881
50.4608846746216
50.4608846711944
50.4608846750512
50.4608846750411
50.460884675347
50.4608846799506
50.4608846839216
50.4608846861897
50.4608846852128
50.4608846789286
50.4608846881712
50.4608847040787
50.4608847041396
50.4608847007355
50.4608846989921
50.4608846948494
50.4608846922552
50.4608846948469
50.4608847754693
50.4608852047365
50.4608869745768
50.4608938473227
50.4609192070698
50.4610091786043
50.4613230205151
50.4623840558451
3504.53814595866
31544.9344431205
31529.1249898885
3503.0622783732
50.4430674198046
50.4426820520268
50.4425664837087
50.4425336559495
50.4425245471506
50.442522107408
50.4425214906989
50.4425213497826
50.442521314611
50.4425213098206
50.44252131739
50.442521321483
50.4425213237947
50.4425213249154
50.442521326655
50.4425213286442
50.4425213296049
50.4425213296562
50.4425213301802
50.4425213287676
50.4425213257441
50.4425213259611
50.442521326747
50.4425213265673
50.4425213269126
50.4425213287778
50.4425213304656
50.4425213314248
50.4425213310098
50.4425213288502
50.4425213319128
50.4425213366183
50.4425213364192
50.4425213353196
50.4425213341349
50.4425213318352
50.44252132969
50.4425213294038
50.4425213547142
50.442521500169
50.4425221072527
50.4425244672719
50.4425332347591
50.4425648642462
50.4426778683905
50.4430663230844
3503.0655208771
31529.3399300018
31523.7290378032
3502.57247131415
50.4367119463917
50.4365857150603
50.4365477673982
50.4365370619262
50.4365341044778
50.4365333091742
50.4365331062112
50.4365330588858
50.4365330480024
50.436533047447
50.4365330496472
50.4365330512915
50.4365330522651
50.4365330528348
50.436533053467
50.4365330540607
50.4365330544529
50.4365330544601
50.4365330546941
50.4365330542
50.4365330534748
50.4365330537391
50.4365330538744
50.4365330539636
50.4365330541286
50.4365330545613
50.4365330550983
50.4365330555113
50.4365330553443
50.4365330546555
50.4365330555235
50.4365330567054
50.4365330565668
50.4365330561765
50.4365330556022
50.4365330545753
50.4365330534768
50.4365330530747
50.436533060657
50.4365331062428
50.4365332982638
50.4365340429798
50.4365368138226
50.4365469109978
50.4365835242556
50.4367103789773
3502.57360275562
31523.8215159815
31521.9954283693
3502.42253588899
50.434785933002
50.4347479514557
50.4347364397884
50.4347331969061
50.4347323036766
50.4347320628612
50.4347320009063
50.4347319862481
50.4347319831472
50.4347319831247
50.4347319837483
50.4347319842925
50.4347319846485
50.4347319848404
50.4347319849741
50.4347319851035
50.4347319852045
50.4347319851716
50.4347319852206
50.4347319850494
50.4347319848646
50.4347319849845
50.4347319850062
50.4347319850012
50.4347319849847
50.4347319850266
50.4347319851611
50.4347319852935
50.4347319852189
50.4347319849991
50.4347319851867
50.4347319854127
50.434731985314
50.4347319851604
50.4347319849277
50.4347319845277
50.4347319840787
50.4347319838646
50.4347319860768
50.4347319995396
50.4347320565497
50.4347322767812
50.4347330945321
50.434736088885
50.4347470311606
50.4347850302324
3502.42287789408
31522.0304030206
31521.4776164537
3502.37980654633
50.4342416074242
50.4342309164891
50.4342276401344
50.4342267147198
50.4342264602307
50.4342263915264
50.43422637372
50.4342263694585
50.4342263685894
50.4342263685697
50.4342263687094
50.434226368839
50.4342263689189
50.434226368938
50.4342263689283
50.4342263689178
50.4342263689119
50.4342263688599
50.4342263688035
50.4342263687284
50.4342263686715
50.4342263686601
50.4342263686199
50.4342263685764
50.4342263685336
50.4342263684965
50.4342263684895
50.4342263684951
50.4342263684403
50.4342263683485
50.4342263683529
50.4342263683574
50.4342263682907
50.4342263682167
50.4342263681219
50.434226367977
50.4342263678169
50.4342263677345
50.4342263683523
50.4342263721214
50.4342263881846
50.4342264499478
50.4342266783227
50.4342275153048
50.4342305815086
50.4342412189975
3502.37989719018
31521.48957089
31521.3324518524
3502.36837067923
50.4340971544917
50.4340943025963
50.4340934180894
50.4340931668274
50.4340930977328
50.4340930790511
50.4340930741591
50.4340930729542
50.4340930726841
50.4340930726366
50.4340930726291
50.4340930726203
50.4340930725983
50.4340930725569
50.4340930725063
50.4340930724547
50.4340930724032
50.4340930723466
50.4340930722829
50.4340930722148
50.4340930721576
50.4340930721072
50.4340930720484
50.4340930719907
50.4340930719369
50.4340930718829
50.4340930718368
50.4340930717978
50.4340930717446
50.4340930716839
50.4340930716467
50.4340930716096
50.4340930715594
50.4340930715123
50.434093071463
50.4340930714033
50.4340930713436
50.4340930713096
50.4340930714694
50.4340930724759
50.434093076802
50.434093093355
50.4340931542327
50.4340933769206
50.4340941916964
50.4340970109879
3502.36839157222
31521.3362158498
31521.2942056371
3502.36550443667
50.4340613612968
50.4340606334238
50.4340604050604
50.4340603396616
50.4340603216326
50.4340603167292
50.4340603154089
50.4340603150486
50.4340603149329
50.4340603148731
50.434060314823
50.4340603147725
50.4340603147183
50.4340603146585
50.434060314596
50.4340603145328
50.4340603144705
50.4340603144076
50.4340603143417
50.4340603142755
50.4340603142112
50.4340603141488
50.4340603140854
50.4340603140234
50.4340603139643
50.4340603139059
50.4340603138502
50.4340603137982
50.4340603137448
50.4340603136916
50.4340603136458
50.4340603136023
50.4340603135587
50.4340603135197
50.4340603134834
50.4340603134481
50.4340603134168
50.4340603133962
50.4340603134298
50.4340603136852
50.4340603148037
50.434060319066
50.4340603346488
50.4340603914331
50.4340605984157
50.4340613124071
3502.36550840182
31521.2953122045
31521.2849741192
3502.36486245185
50.4340535442533
50.4340533652439
50.4340533084895
50.4340532920609
50.4340532874928
50.434053286219
50.4340532858423
50.4340532857053
50.4340532856288
50.4340532855658
50.4340532855046
50.4340532854429
50.4340532853799
50.4340532853151
50.4340532852495
50.4340532851833
50.4340532851174
50.4340532850514
50.4340532849848
50.4340532849183
50.4340532848523
50.4340532847872
50.4340532847226
50.4340532846595
50.4340532845985
50.4340532845386
50.4340532844807
50.4340532844253
50.4340532843715
50.4340532843199
50.4340532842723
50.4340532842279
50.4340532841861
50.4340532841488
50.4340532841154
50.4340532840858
50.4340532840611
50.4340532840429
50.4340532840421
50.4340532841004
50.4340532843774
50.4340532854359
50.4340532892832
50.4340533032321
50.4340533538
50.4340535277476
3502.36486290068
31521.2852805764
31521.2832497246
3502.36477197289
50.4340526010541
50.4340525583923
50.4340525447304
50.4340525407093
50.4340525395588
50.4340525392068
50.4340525390709
50.4340525389917
50.4340525389261
50.434052538863
50.4340525387998
50.4340525387358
50.4340525386711
50.4340525386053
50.4340525385391
50.4340525384725
50.4340525384057
50.4340525383389
50.4340525382719
50.4340525382052
50.4340525381389
50.4340525380734
50.4340525380086
50.434052537945
50.434052537883
50.4340525378226
50.434052537764
50.4340525377076
50.4340525376535
50.434052537602
50.4340525375537
50.4340525375087
50.4340525374671
50.4340525374295
50.4340525373961
50.4340525373671
50.4340525373429
50.434052537324
50.4340525373132
50.4340525373203
50.4340525373835
50.4340525376367
50.4340525385559
50.4340525418713
50.4340525538066
50.4340525947788
3502.36477184699
31521.2833298065
31521.2833890322
3502.36481294609
50.4340532791016
50.4340532691945
50.4340532659788
50.4340532649963
50.4340532646866
50.4340532645625
50.4340532644873
50.4340532644239
50.4340532643623
50.4340532643003
50.4340532642374
50.4340532641736
50.434053264109
50.4340532640436
50.4340532639776
50.4340532639111
50.4340532638443
50.4340532637774
50.4340532637105
50.4340532636437
50.4340532635774
50.4340532635117
50.4340532634467
50.4340532633829
50.4340532633205
50.4340532632597
50.4340532632008
50.4340532631439
50.4340532630894
50.4340532630376
50.4340532629887
50.4340532629431
50.4340532629009
50.4340532628626
50.4340532628284
50.4340532627985
50.4340532627733
50.434053262753
50.4340532627382
50.4340532627311
50.4340532627404
50.4340532627966
50.4340532630087
50.4340532637742
50.4340532665051
50.4340532758715
3502.36481277326
31521.2834083552
31521.2839745658
3502.36488419031
50.4340543260008
50.4340543237371
50.4340543229773
50.4340543227181
50.4340543226107
50.4340543225427
50.4340543224837
50.4340543224256
50.4340543223663
50.4340543223058
50.4340543222439
50.4340543221809
50.4340543221169
50.4340543220521
50.4340543219866
50.4340543219204
50.4340543218539
50.4340543217871
50.4340543217203
50.4340543216535
50.4340543215872
50.4340543215214
50.4340543214563
50.4340543213924
50.4340543213297
50.4340543212686
50.4340543212093
50.434054321152
50.4340543210971
50.4340543210448
50.4340543209953
50.434054320949
50.434054320906
50.4340543208668
50.4340543208316
50.4340543208006
50.4340543207739
50.4340543207519
50.4340543207347
50.4340543207226
50.4340543207173
50.4340543207252
50.4340543207704
50.4340543209421
50.4340543215483
50.4340543236331
3502.36488403174
31521.2839783038
31521.2846635752
3502.36496219732
50.4340554541815
50.4340554536561
50.4340554534593
50.434055453369
50.4340554533104
50.4340554532574
50.4340554532038
50.4340554531484
50.434055453091
50.4340554530319
50.4340554529712
50.4340554529092
50.4340554528461
50.4340554527819
50.4340554527169
50.4340554526511
50.4340554525849
50.4340554525183
50.4340554524516
50.4340554523849
50.4340554523185
50.4340554522527
50.4340554521875
50.4340554521234
50.4340554520605
50.4340554519991
50.4340554519394
50.4340554518817
50.4340554518264
50.4340554517734
50.4340554517233
50.4340554516763
50.4340554516325
50.4340554515923
50.4340554515559
50.4340554515236
50.4340554514955
50.4340554514718
50.4340554514525
50.4340554514375
50.4340554514271
50.4340554514221
50.4340554514275
50.4340554514633
50.434055451592
50.4340554520454
3502.36496204828
31521.2846634679
31521.2853759056
3502.36504167513
50.434056599771
50.4340565996322
50.4340565995623
50.434056599512
50.4340565994663
50.4340565994184
50.4340565993677
50.4340565993143
50.4340565992587
50.434056599201
50.4340565991416
50.4340565990806
50.4340565990183
50.4340565989548
50.4340565988904
50.434056598825
50.4340565987591
50.4340565986927
50.4340565986261
50.4340565985595
50.4340565984931
50.4340565984271
50.4340565983619
50.4340565982976
50.4340565982345
50.4340565981728
50.4340565981127
50.4340565980547
50.4340565979988
50.4340565979453
50.4340565978945
50.4340565978467
50.434056597802
50.4340565977608
50.4340565977233
50.4340565976896
50.43405659766
50.4340565976346
50.4340565976133
50.434056597596
50.4340565975827
50.434056597573
50.4340565975678
50.4340565975718
50.434056597595
50.434056597692
3502.3650415296
31521.2853748805
31521.2860933594
3502.36512146526
50.4340577489956
50.4340577489412
50.4340577489002
50.4340577488606
50.4340577488194
50.4340577487743
50.4340577487258
50.4340577486744
50.4340577486204
50.4340577485642
50.4340577485059
50.434057748446
50.4340577483845
50.4340577483217
50.4340577482578
50.4340577481929
50.4340577481273
50.4340577480612
50.4340577479947
50.4340577479281
50.4340577478618
50.4340577477957
50.4340577477303
50.4340577476658
50.4340577476024
50.4340577475404
50.43405774748
50.4340577474215
50.434057747365
50.434057747311
50.4340577472595
50.4340577472109
50.4340577471653
50.4340577471231
50.4340577470844
50.4340577470494
50.4340577470183
50.4340577469911
50.4340577469679
50.4340577469485
50.4340577469328
50.4340577469204
50.4340577469111
50.4340577469064
50.434057746906
50.4340577469269
3502.36512132056
31521.2860921221
31521.2868119129
3502.36520132029
50.4340588989617
50.4340588989257
50.4340588988921
50.4340588988565
50.4340588988179
50.434058898775
50.4340588987285
50.4340588986789
50.4340588986265
50.4340588985716
50.4340588985147
50.4340588984557
50.4340588983951
50.434058898333
50.4340588982696
50.4340588982052
50.4340588981399
50.434058898074
50.4340588980076
50.4340588979412
50.4340588978747
50.4340588978086
50.4340588977431
50.4340588976784
50.4340588976147
50.4340588975524
50.4340588974916
50.4340588974326
50.4340588973756
50.4340588973209
50.4340588972688
50.4340588972193
50.4340588971729
50.4340588971296
50.4340588970897
50.4340588970533
50.4340588970207
50.4340588969918
50.4340588969667
50.4340588969453
50.4340588969274
50.4340588969127
50.4340588969009
50.4340588968928
50.4340588968863
50.4340588968912
3502.3652011755
31521.2868106225
31521.2875306977
3502.36528118855
50.4340600490763
50.4340600490444
50.4340600490135
50.4340600489804
50.4340600489438
50.4340600489029
50.4340600488584
50.4340600488105
50.4340600487597
50.4340600487062
50.4340600486504
50.4340600485925
50.4340600485328
50.4340600484713
50.4340600484085
50.4340600483445
50.4340600482795
50.4340600482138
50.4340600481476
50.4340600480812
50.4340600480148
50.4340600479486
50.4340600478829
50.434060047818
50.4340600477541
50.4340600476914
50.4340600476302
50.4340600475707
50.4340600475132
50.4340600474579
50.4340600474049
50.4340600473547
50.4340600473073
50.4340600472629
50.4340600472218
50.4340600471841
50.4340600471499
50.4340600471194
50.4340600470925
50.4340600470692
50.4340600470492
50.4340600470323
50.4340600470184
50.4340600470079
50.4340600469992
50.4340600470007
3502.36528104352
31521.2875293944
31521.2882495301
3502.36536105945
50.4340611992197
50.4340611991892
50.43406119916
50.4340611991289
50.4340611990942
50.4340611990552
50.4340611990124
50.4340611989662
50.434061198917
50.4340611988649
50.4340611988102
50.4340611987534
50.4340611986944
50.4340611986338
50.4340611985715
50.4340611985079
50.4340611984433
50.4340611983778
50.4340611983117
50.4340611982453
50.4340611981789
50.4340611981126
50.4340611980468
50.4340611979817
50.4340611979174
50.4340611978544
50.4340611977928
50.4340611977328
50.4340611976747
50.4340611976188
50.4340611975651
50.434061197514
50.4340611974657
50.4340611974202
50.434061197378
50.4340611973389
50.4340611973032
50.434061197271
50.4340611972423
50.434061197217
50.434061197195
50.4340611971761
50.4340611971603
50.4340611971478
50.4340611971376
50.4340611971381
3502.36536091398
31521.2882482196
31521.288968372
3502.36544093088
50.434062349369
50.4340623493392
50.4340623493114
50.4340623492821
50.4340623492492
50.434062349212
50.434062349171
50.4340623491265
50.4340623490787
50.434062349028
50.4340623489745
50.4340623489187
50.4340623488606
50.4340623488006
50.4340623487389
50.4340623486757
50.4340623486114
50.4340623485461
50.4340623484802
50.4340623484139
50.4340623483474
50.434062348281
50.4340623482151
50.4340623481497
50.4340623480852
50.4340623480218
50.4340623479598
50.4340623478993
50.4340623478407
50.4340623477841
50.4340623477297
50.4340623476777
50.4340623476284
50.4340623475819
50.4340623475384
50.434062347498
50.4340623474608
50.4340623474269
50.4340623473964
50.4340623473692
50.4340623473453
50.4340623473245
50.4340623473067
50.4340623472924
50.4340623472809
50.434062347281
3502.36544078502
31521.2889670595
31521.2896872159
3502.36552080241
50.4340634995191
50.4340634994899
50.4340634994635
50.434063499436
50.4340634994048
50.4340634993694
50.4340634993301
50.4340634992872
50.434063499241
50.4340634991915
50.4340634991393
50.4340634990844
50.4340634990271
50.4340634989678
50.4340634989067
50.4340634988439
50.43406349878
50.4340634987149
50.4340634986491
50.4340634985828
50.4340634985163
50.4340634984499
50.4340634983837
50.4340634983181
50.4340634982534
50.4340634981896
50.4340634981271
50.4340634980662
50.434063498007
50.4340634979497
50.4340634978945
50.4340634978417
50.4340634977914
50.4340634977439
50.4340634976991
50.4340634976574
50.4340634976187
50.4340634975832
50.434063497551
50.4340634975219
50.4340634974961
50.4340634974734
50.4340634974538
50.4340634974377
50.4340634974249
50.4340634974245
3502.36552065605
31521.289685898
31521.2904060601
3502.36560067395
50.4340646496695
50.4340646496409
50.4340646496159
50.4340646495901
50.4340646495607
50.4340646495269
50.4340646494894
50.434064649448
50.4340646494032
50.4340646493551
50.434064649304
50.43406464925
50.4340646491937
50.434064649135
50.4340646490744
50.4340646490122
50.4340646489485
50.4340646488837
50.434064648818
50.4340646487518
50.4340646486853
50.4340646486187
50.4340646485524
50.4340646484866
50.4340646484215
50.4340646483574
50.4340646482945
50.434064648233
50.4340646481732
50.4340646481152
50.4340646480594
50.4340646480057
50.4340646479544
50.4340646479058
50.4340646478598
50.4340646478168
50.4340646477766
50.4340646477395
50.4340646477055
50.4340646476747
50.4340646476469
50.4340646476223
50.4340646476009
50.4340646475831
50.434064647569
50.4340646475682
3502.36560052714
31521.2904047381
31521.2911249041
3502.36568054547
50.4340657998195
50.4340657997916
50.434065799768
50.4340657997439
50.4340657997161
50.4340657996841
50.4340657996482
50.4340657996085
50.4340657995651
50.4340657995183
50.4340657994683
50.4340657994154
50.4340657993598
50.4340657993018
50.4340657992418
50.43406579918
50.4340657991166
50.434065799052
50.4340657989865
50.4340657989203
50.4340657988537
50.4340657987871
50.4340657987206
50.4340657986546
50.4340657985892
50.4340657985247
50.4340657984614
50.4340657983994
50.434065798339
50.4340657982804
50.4340657982238
50.4340657981693
50.434065798117
50.4340657980673
50.4340657980201
50.4340657979757
50.4340657979341
50.4340657978954
50.4340657978597
50.434065797827
50.4340657977974
50.434065797771
50.4340657977478
50.4340657977282
50.4340657977128
50.4340657977115
3502.3656803982
31521.291123579
31521.2918437479
3502.36576041697
50.4340669499694
50.4340669499421
50.43406694992
50.4340669498976
50.4340669498715
50.4340669498412
50.4340669498069
50.4340669497688
50.4340669497268
50.4340669496813
50.4340669496324
50.4340669495804
50.4340669495257
50.4340669494684
50.4340669494089
50.4340669493475
50.4340669492845
50.4340669492201
50.4340669491547
50.4340669490886
50.434066949022
50.4340669489553
50.4340669488886
50.4340669488224
50.4340669487567
50.4340669486918
50.4340669486281
50.4340669485656
50.4340669485046
50.4340669484453
50.4340669483879
50.4340669483326
50.4340669482794
50.4340669482286
50.4340669481802
50.4340669481344
50.4340669480914
50.4340669480511
50.4340669480137
50.4340669479793
50.4340669479478
50.4340669479194
50.4340669478945
50.4340669478732
50.4340669478565
50.4340669478546
3502.36576026924
31521.2918424164
31521.2925625914
3502.36584028843
50.4340681001186
50.4340681000921
50.4340681000714
50.4340681000507
50.4340681000263
50.4340680999977
50.4340680999651
50.4340680999285
50.434068099888
50.4340680998438
50.434068099796
50.434068099745
50.4340680996911
50.4340680996345
50.4340680995755
50.4340680995145
50.4340680994519
50.4340680993877
50.4340680993225
50.4340680992564
50.4340680991898
50.4340680991229
50.4340680990561
50.4340680989896
50.4340680989236
50.4340680988584
50.4340680987942
50.4340680987313
50.4340680986697
50.4340680986097
50.4340680985516
50.4340680984954
50.4340680984413
50.4340680983894
50.4340680983398
50.4340680982927
50.4340680982482
50.4340680982064
50.4340680981673
50.434068098131
50.4340680980978
50.4340680980676
50.4340680980408
50.4340680980177
50.4340680979997
50.4340680979972
3502.3658401402
31521.2925612568
31521.2932814344
3502.36592015985
50.4340692502673
50.4340692502416
50.4340692502223
50.4340692502035
50.4340692501808
50.434069250154
50.4340692501231
50.434069250088
50.4340692500489
50.4340692500059
50.4340692499593
50.4340692499093
50.4340692498562
50.4340692498002
50.4340692497419
50.4340692496813
50.4340692496189
50.4340692495549
50.4340692494898
50.4340692494238
50.4340692493571
50.4340692492902
50.4340692492232
50.4340692491565
50.4340692490902
50.4340692490246
50.43406924896
50.4340692488965
50.4340692488344
50.4340692487738
50.434069248715
50.4340692486579
50.4340692486028
50.4340692485499
50.4340692484991
50.4340692484508
50.4340692484049
50.4340692483614
50.4340692483206
50.4340692482826
50.4340692482474
50.4340692482154
50.4340692481868
50.4340692481618
50.4340692481424
50.4340692481394
3502.36592001121
31521.2932800957
31521.2940002769
3502.3660000312
50.434070400415
50.4340704003901
50.4340704003724
50.4340704003555
50.4340704003345
50.4340704003095
50.4340704002803
50.4340704002469
50.4340704002092
50.4340704001675
50.434070400122
50.4340704000729
50.4340704000206
50.4340703999653
50.4340703999074
50.4340703998473
50.4340703997852
50.4340703997215
50.4340703996565
50.4340703995905
50.4340703995239
50.4340703994568
50.4340703993897
50.4340703993227
50.4340703992562
50.4340703991902
50.4340703991252
50.4340703990612
50.4340703989986
50.4340703989373
50.4340703988777
50.4340703988198
50.4340703987638
50.4340703987098
50.434070398658
50.4340703986083
50.4340703985609
50.4340703985159
50.4340703984734
50.4340703984336
50.4340703983966
50.4340703983626
50.4340703983322
50.4340703983053
50.4340703982844
50.4340703982807
3502.36599988212
31521.2939989352
31521.2947191187
3502.36607990248
50.4340715505618
50.4340715505378
50.4340715505217
50.4340715505067
50.4340715504878
50.4340715504646
50.4340715504371
50.4340715504052
50.434071550369
50.4340715503286
50.4340715502841
50.434071550236
50.4340715501845
50.4340715501299
50.4340715500726
50.4340715500128
50.434071549951
50.4340715498875
50.4340715498226
50.4340715497567
50.43407154969
50.4340715496229
50.4340715495556
50.4340715494884
50.4340715494216
50.4340715493553
50.4340715492899
50.4340715492254
50.4340715491622
50.4340715491004
50.43407154904
50.4340715489813
50.4340715489244
50.4340715488694
50.4340715488164
50.4340715487654
50.4340715487166
50.4340715486701
50.4340715486259
50.4340715485843
50.4340715485454
50.4340715485095
50.4340715484771
50.4340715484482
50.4340715484258
50.4340715484214
3502.36607975302
31521.2947177732
31521.2954379597
3502.36615977367
50.4340727007072
50.4340727006841
50.4340727006698
50.434072700657
50.43407270064
50.4340727006187
50.434072700593
50.4340727005627
50.434072700528
50.4340727004888
50.4340727004455
50.4340727003983
50.4340727003476
50.4340727002936
50.4340727002368
50.4340727001775
50.434072700116
50.4340727000527
50.434072699988
50.4340726999221
50.4340726998554
50.4340726997882
50.4340726997208
50.4340726996533
50.4340726995862
50.4340726995197
50.4340726994538
50.4340726993888
50.4340726993251
50.4340726992626
50.4340726992015
50.4340726991421
50.4340726990842
50.4340726990282
50.4340726989741
50.4340726989218
50.4340726988717
50.4340726988236
50.4340726987778
50.4340726987343
50.4340726986935
50.4340726986556
50.4340726986212
50.4340726985902
50.4340726985661
50.4340726985609
3502.36615962375
31521.2954366104
31521.2961567997
3502.36623964475
50.4340738508513
50.4340738508292
50.4340738508168
50.4340738508063
50.4340738507914
50.4340738507721
50.4340738507482
50.4340738507196
50.4340738506863
50.4340738506485
50.4340738506062
50.43407385056
50.43407385051
50.4340738504567
50.4340738504004
50.4340738503415
50.4340738502803
50.4340738502172
50.4340738501526
50.4340738500868
50.4340738500201
50.4340738499528
50.4340738498852
50.4340738498175
50.4340738497502
50.4340738496832
50.434073849617
50.4340738495517
50.4340738494873
50.4340738494242
50.4340738493625
50.4340738493022
50.4340738492436
50.4340738491865
50.4340738491313
50.4340738490778
50.4340738490263
50.4340738489767
50.4340738489292
50.4340738488839
50.4340738488411
50.4340738488011
50.4340738487646
50.4340738487312
50.4340738487054
50.4340738486993
3502.36623949441
31521.2961554447
31521.2968756387
3502.36631951571
50.4340750009936
50.4340750009725
50.4340750009623
50.4340750009544
50.4340750009417
50.4340750009244
50.4340750009024
50.4340750008755
50.4340750008437
50.4340750008071
50.434075000766
50.4340750007207
50.4340750006714
50.4340750006188
50.434075000563
50.4340750005044
50.4340750004436
50.4340750003807
50.4340750003162
50.4340750002505
50.4340750001837
50.4340750001163
50.4340750000486
50.4340749999808
50.4340749999131
50.4340749998459
50.4340749997793
50.4340749997135
50.4340749996487
50.434074999585
50.4340749995226
50.4340749994616
50.434074999402
50.4340749993441
50.4340749992877
50.4340749992331
50.4340749991801
50.434074999129
50.4340749990798
50.4340749990327
50.4340749989879
50.4340749989458
50.434074998907
50.4340749988711
50.4340749988433
50.4340749988363
3502.36631936503
31521.2968742813
31521.2975944763
3502.36639938652
50.4340761511341
50.4340761511141
50.4340761511063
50.4340761511012
50.4340761510909
50.4340761510758
50.4340761510558
50.4340761510306
50.4340761510002
50.4340761509649
50.4340761509249
50.4340761508804
50.434076150832
50.4340761507799
50.4340761507247
50.4340761506665
50.4340761506059
50.4340761505433
50.4340761504789
50.4340761504132
50.4340761503464
50.434076150279
50.4340761502111
50.4340761501431
50.4340761500752
50.4340761500076
50.4340761499407
50.4340761498745
50.4340761498092
50.4340761497449
50.4340761496819
50.4340761496201
50.4340761495598
50.4340761495009
50.4340761494435
50.4340761493876
50.4340761493334
50.4340761492808
50.4340761492299
50.4340761491809
50.4340761491341
50.4340761490897
50.4340761490485
50.4340761490099
50.4340761489797
50.4340761489718
3502.36639923555
31521.2975931168
31521.2983133125
3502.36647925716
50.4340773012723
50.4340773012536
50.4340773012485
50.4340773012465
50.4340773012387
50.434077301226
50.434077301208
50.4340773011845
50.4340773011556
50.4340773011216
50.4340773010826
50.4340773010391
50.4340773009914
50.43407730094
50.4340773008852
50.4340773008274
50.4340773007671
50.4340773007046
50.4340773006403
50.4340773005747
50.4340773005079
50.4340773004404
50.4340773003724
50.4340773003042
50.4340773002361
50.4340773001683
50.434077300101
50.4340773000343
50.4340772999686
50.4340772999038
50.4340772998401
50.4340772997777
50.4340772997165
50.4340772996567