/*--------------------------------*- C++ -*----------------------------------*\
  =========                 |
  \\      /  F ield         | OpenFOAM: The Open Source CFD Toolbox
   \\    /   O peration     | Website:  https://openfoam.org
    \\  /    A nd           | Version:  10
     \\/     M anipulation  |
\*---------------------------------------------------------------------------*/
FoamFile
{
    format      ascii;
    class       volScalarField;
    location    "2.2";
    object      p;
}
// * * * * * * * * * * * * * * * * * * * * * * * * * * * * * * * * * * * * * //

dimensions      [1 -1 -2 0 0 0 0];

internalField   nonuniform List<scalar> 
2500
(
100065.13937667
100065.139378931
100065.139380089
100065.139380742
100065.139381156
100065.139381326
100065.13938137
100065.13938134
100065.13938125
100065.139381113
100065.139380938
100065.139380728
100065.139380491
100065.139380228
100065.139379945
100065.139379645
100065.139379331
100065.139379005
100065.139378671
100065.13937833
100065.139377986
100065.139377639
100065.139377293
100065.139376948
100065.139376606
100065.139376269
100065.139375937
100065.139375612
100065.139375294
100065.139374984
100065.139374682
100065.139374389
100065.139374104
100065.139373828
100065.139373561
100065.1393733
100065.139373046
100065.139372797
100065.139372552
100065.139372307
100065.139372061
100065.139371809
100065.139371545
100065.139371257
100065.139370933
100065.139370523
100065.139369908
100065.139369097
100065.139367803
100065.139365441
100065.137136969
100065.137138982
100065.137140156
100065.137140707
100065.137141052
100065.137141176
100065.1371412
100065.137141163
100065.137141071
100065.137140934
100065.137140759
100065.13714055
100065.137140313
100065.137140051
100065.137139768
100065.137139468
100065.137139154
100065.137138829
100065.137138495
100065.137138155
100065.137137811
100065.137137465
100065.137137119
100065.137136775
100065.137136434
100065.137136097
100065.137135765
100065.13713544
100065.137135123
100065.137134813
100065.137134512
100065.137134219
100065.137133935
100065.137133659
100065.137133392
100065.137133132
100065.137132878
100065.137132629
100065.137132384
100065.13713214
100065.137131894
100065.137131642
100065.137131381
100065.137131102
100065.137130797
100065.137130432
100065.137129883
100065.137129172
100065.13712786
100065.137125709
100065.134871338
100065.134871997
100065.134872269
100065.134872463
100065.13487266
100065.134872725
100065.134872728
100065.134872684
100065.134872589
100065.134872452
100065.134872276
100065.134872068
100065.134871831
100065.13487157
100065.134871288
100065.134870988
100065.134870675
100065.134870351
100065.134870017
100065.134869678
100065.134869335
100065.13486899
100065.134868644
100065.134868301
100065.13486796
100065.134867624
100065.134867294
100065.134866969
100065.134866653
100065.134866344
100065.134866043
100065.134865751
100065.134865468
100065.134865193
100065.134864926
100065.134864667
100065.134864414
100065.134864166
100065.134863921
100065.134863677
100065.134863432
100065.134863183
100065.134862925
100065.134862654
100065.134862371
100065.134862068
100065.13486167
100065.134861314
100065.134860915
100065.134860094
100065.132597808
100065.132597704
100065.132597708
100065.132597757
100065.132597897
100065.132597942
100065.132597938
100065.13259789
100065.132597793
100065.132597655
100065.132597479
100065.13259727
100065.132597034
100065.132596773
100065.132596492
100065.132596193
100065.132595881
100065.132595557
100065.132595225
100065.132594887
100065.132594545
100065.132594201
100065.132593857
100065.132593515
100065.132593175
100065.13259284
100065.132592511
100065.132592188
100065.132591873
100065.132591565
100065.132591266
100065.132590975
100065.132590693
100065.132590419
100065.132590154
100065.132589896
100065.132589644
100065.132589397
100065.132589154
100065.132588912
100065.132588669
100065.132588422
100065.132588168
100065.132587901
100065.132587628
100065.132587348
100065.132587012
100065.132586804
100065.132586677
100065.13258665
100065.130319328
100065.130319076
100065.13031907
100065.130319058
100065.130319159
100065.130319185
100065.130319169
100065.130319114
100065.130319014
100065.130318873
100065.130318697
100065.130318488
100065.130318252
100065.130317991
100065.130317711
100065.130317414
100065.130317103
100065.13031678
100065.13031645
100065.130316113
100065.130315773
100065.130315431
100065.130315088
100065.130314748
100065.13031441
100065.130314077
100065.13031375
100065.130313429
100065.130313115
100065.130312809
100065.130312511
100065.130312223
100065.130311942
100065.130311671
100065.130311407
100065.130311151
100065.130310901
100065.130310657
100065.130310416
100065.130310177
100065.130309937
100065.130309694
100065.130309445
100065.130309187
100065.130308928
100065.130308671
100065.130308376
100065.130308237
100065.13030812
100065.13030827
100065.128038608
100065.128038392
100065.128038394
100065.128038356
100065.128038429
100065.128038436
100065.128038408
100065.128038345
100065.128038239
100065.128038096
100065.128037918
100065.128037709
100065.128037473
100065.128037213
100065.128036934
100065.128036638
100065.128036329
100065.128036008
100065.12803568
100065.128035345
100065.128035007
100065.128034667
100065.128034327
100065.128033989
100065.128033653
100065.128033323
100065.128032997
100065.128032679
100065.128032367
100065.128032064
100065.128031769
100065.128031482
100065.128031204
100065.128030935
100065.128030674
100065.128030421
100065.128030174
100065.128029932
100065.128029695
100065.128029459
100065.128029224
100065.128028986
100065.128028744
100065.128028497
100065.128028254
100065.128028018
100065.128027756
100065.12802765
100065.128027526
100065.128027658
100065.125757124
100065.125756965
100065.125756976
100065.125756933
100065.125756983
100065.125756975
100065.125756933
100065.125756861
100065.12575675
100065.125756604
100065.125756424
100065.125756214
100065.125755979
100065.12575572
100065.125755442
100065.125755148
100065.125754841
100065.125754522
100065.125754196
100065.125753864
100065.125753529
100065.125753191
100065.125752854
100065.125752518
100065.125752186
100065.125751858
100065.125751536
100065.12575122
100065.125750912
100065.125750611
100065.125750319
100065.125750035
100065.12574976
100065.125749494
100065.125749236
100065.125748986
100065.125748743
100065.125748505
100065.125748271
100065.12574804
100065.12574781
100065.125747578
100065.125747345
100065.12574711
100065.125746883
100065.125746666
100065.125746431
100065.125746339
100065.12574621
100065.125746292
100065.123475391
100065.123475277
100065.123475292
100065.123475248
100065.123475279
100065.123475257
100065.123475204
100065.123475123
100065.123475007
100065.123474857
100065.123474675
100065.123474466
100065.12347423
100065.123473973
100065.123473696
100065.123473404
100065.123473099
100065.123472784
100065.12347246
100065.123472131
100065.123471798
100065.123471464
100065.12347113
100065.123470798
100065.123470469
100065.123470145
100065.123469826
100065.123469513
100065.123469208
100065.123468911
100065.123468622
100065.123468342
100065.123468071
100065.123467808
100065.123467554
100065.123467307
100065.123467068
100065.123466834
100065.123466605
100065.12346638
100065.123466155
100065.123465931
100065.123465707
100065.123465484
100065.123465272
100065.123465072
100065.123464862
100065.123464776
100065.12346465
100065.123464694
100065.12119356
100065.121193475
100065.121193487
100065.121193444
100065.121193456
100065.121193424
100065.12119336
100065.121193271
100065.121193149
100065.121192996
100065.121192813
100065.121192602
100065.121192368
100065.121192111
100065.121191837
100065.121191547
100065.121191245
100065.121190932
100065.121190612
100065.121190286
100065.121189957
100065.121189626
100065.121189296
100065.121188968
100065.121188642
100065.121188322
100065.121188007
100065.121187698
100065.121187397
100065.121187104
100065.121186819
100065.121186543
100065.121186275
100065.121186017
100065.121185767
100065.121185525
100065.12118529
100065.121185061
100065.121184837
100065.121184617
100065.121184399
100065.121184183
100065.121183969
100065.121183758
100065.12118356
100065.121183374
100065.121183187
100065.121183107
100065.121182992
100065.121183013
100065.118911675
100065.118911609
100065.118911615
100065.118911573
100065.118911569
100065.118911527
100065.118911454
100065.118911357
100065.118911231
100065.118911074
100065.11891089
100065.118910679
100065.118910445
100065.11891019
100065.118909918
100065.11890963
100065.118909331
100065.118909022
100065.118908705
100065.118908383
100065.118908058
100065.118907731
100065.118907405
100065.118907081
100065.11890676
100065.118906443
100065.118906133
100065.118905828
100065.118905531
100065.118905243
100065.118904962
100065.11890469
100065.118904427
100065.118904173
100065.118903928
100065.118903691
100065.118903461
100065.118903238
100065.11890302
100065.118902806
100065.118902595
100065.118902387
100065.118902182
100065.118901983
100065.118901798
100065.118901624
100065.118901459
100065.118901384
100065.118901284
100065.118901292
100065.116629757
100065.116629703
100065.116629702
100065.11662966
100065.116629642
100065.116629592
100065.116629511
100065.116629408
100065.116629276
100065.116629117
100065.116628931
100065.11662872
100065.116628487
100065.116628234
100065.116627964
100065.116627679
100065.116627383
100065.116627077
100065.116626764
100065.116626447
100065.116626126
100065.116625804
100065.116625482
100065.116625162
100065.116624846
100065.116624534
100065.116624228
100065.116623929
100065.116623636
100065.116623352
100065.116623077
100065.11662281
100065.116622552
100065.116622303
100065.116622062
100065.11662183
100065.116621606
100065.116621389
100065.116621177
100065.11662097
100065.116620767
100065.116620567
100065.116620372
100065.116620184
100065.116620011
100065.116619849
100065.116619701
100065.11661963
100065.116619546
100065.116619548
100065.114347814
100065.114347768
100065.114347761
100065.114347719
100065.11434769
100065.114347631
100065.114347544
100065.114347435
100065.114347299
100065.114347137
100065.11434695
100065.114346739
100065.114346507
100065.114346256
100065.114345988
100065.114345707
100065.114345414
100065.114345113
100065.114344804
100065.114344491
100065.114344174
100065.114343857
100065.11434354
100065.114343226
100065.114342914
100065.114342608
100065.114342307
100065.114342012
100065.114341725
100065.114341446
100065.114341176
100065.114340914
100065.114340661
100065.114340418
100065.114340183
100065.114339957
100065.114339738
100065.114339527
100065.114339322
100065.114339122
100065.114338927
100065.114338736
100065.114338551
100065.114338374
100065.114338211
100065.11433806
100065.114337928
100065.11433786
100065.114337789
100065.114337788
100065.112065852
100065.112065813
100065.1120658
100065.112065758
100065.112065719
100065.112065654
100065.112065561
100065.112065446
100065.112065307
100065.112065143
100065.112064955
100065.112064744
100065.112064513
100065.112064264
100065.112063999
100065.112063721
100065.112063432
100065.112063135
100065.112062831
100065.112062522
100065.112062211
100065.112061899
100065.112061587
100065.112061278
100065.112060972
100065.112060671
100065.112060375
100065.112060086
100065.112059805
100065.112059531
100065.112059266
100065.11205901
100065.112058763
100065.112058526
100065.112058297
100065.112058076
100065.112057864
100065.112057659
100065.112057461
100065.112057269
100065.112057082
100065.1120569
100065.112056725
100065.112056558
100065.112056405
100065.112056264
100065.112056145
100065.112056081
100065.112056021
100065.112056018
100065.109783876
100065.109783842
100065.109783824
100065.109783781
100065.109783735
100065.109783663
100065.109783565
100065.109783446
100065.109783303
100065.109783137
100065.109782948
100065.109782738
100065.109782509
100065.109782262
100065.109782
100065.109781726
100065.109781441
100065.109781148
100065.109780849
100065.109780545
100065.109780239
100065.109779933
100065.109779627
100065.109779323
100065.109779023
100065.109778727
100065.109778438
100065.109778155
100065.109777879
100065.109777611
100065.109777352
100065.109777102
100065.109776861
100065.109776629
100065.109776407
100065.109776193
100065.109775987
100065.109775789
100065.109775599
100065.109775414
100065.109775236
100065.109775063
100065.109774897
100065.10977474
100065.109774597
100065.109774466
100065.109774357
100065.109774296
100065.109774245
100065.10977424
100065.107501887
100065.107501857
100065.107501835
100065.107501791
100065.107501738
100065.107501661
100065.107501559
100065.107501436
100065.10750129
100065.107501122
100065.107500933
100065.107500723
100065.107500496
100065.107500251
100065.107499993
100065.107499723
100065.107499442
100065.107499154
100065.10749886
100065.107498562
100065.107498261
100065.10749796
100065.10749766
100065.107497362
100065.107497068
100065.107496779
100065.107496495
100065.107496218
100065.107495949
100065.107495687
100065.107495434
100065.10749519
100065.107494956
100065.10749473
100065.107494514
100065.107494307
100065.107494108
100065.107493918
100065.107493734
100065.107493558
100065.107493388
100065.107493224
100065.107493068
100065.107492921
100065.107492787
100065.107492665
100065.107492566
100065.107492507
100065.107492463
100065.107492457
100065.105219887
100065.105219859
100065.105219834
100065.105219789
100065.10521973
100065.105219648
100065.105219542
100065.105219415
100065.105219267
100065.105219098
100065.105218909
100065.1052187
100065.105218474
100065.105218233
100065.105217978
100065.105217711
100065.105217436
100065.105217152
100065.105216864
100065.105216571
100065.105216276
100065.105215981
100065.105215687
100065.105215396
100065.105215108
100065.105214825
100065.105214548
100065.105214277
100065.105214014
100065.105213759
100065.105213513
100065.105213275
100065.105213047
100065.105212828
100065.105212619
100065.105212419
100065.105212227
100065.105212044
100065.105211869
100065.105211701
100065.105211539
100065.105211385
100065.105211238
100065.105211101
100065.105210976
100065.105210863
100065.105210772
100065.105210716
100065.105210677
100065.105210669
100065.102937877
100065.10293785
100065.102937822
100065.102937775
100065.102937712
100065.102937625
100065.102937515
100065.102937385
100065.102937235
100065.102937065
100065.102936876
100065.102936668
100065.102936445
100065.102936206
100065.102935955
100065.102935693
100065.102935422
100065.102935144
100065.10293486
100065.102934574
100065.102934285
100065.102933996
100065.102933709
100065.102933424
100065.102933142
100065.102932866
100065.102932595
100065.102932331
100065.102932075
100065.102931827
100065.102931587
100065.102931356
100065.102931135
100065.102930923
100065.102930721
100065.102930528
100065.102930344
100065.102930168
100065.102930001
100065.102929841
100065.102929689
100065.102929543
100065.102929406
100065.102929278
100065.102929163
100065.102929059
100065.102928975
100065.102928923
100065.102928887
100065.102928878
100065.100655856
100065.10065583
100065.1006558
100065.10065575
100065.100655683
100065.100655591
100065.100655478
100065.100655346
100065.100655194
100065.100655023
100065.100654834
100065.100654628
100065.100654407
100065.100654171
100065.100653924
100065.100653666
100065.1006534
100065.100653127
100065.10065285
100065.100652569
100065.100652287
100065.100652005
100065.100651724
100065.100651445
100065.100651171
100065.100650901
100065.100650637
100065.10065038
100065.100650131
100065.100649889
100065.100649657
100065.100649433
100065.100649219
100065.100649014
100065.100648819
100065.100648633
100065.100648457
100065.100648289
100065.10064813
100065.100647979
100065.100647835
100065.100647699
100065.100647572
100065.100647453
100065.100647347
100065.100647251
100065.100647175
100065.100647126
100065.100647094
100065.100647084
100065.098373825
100065.098373799
100065.098373767
100065.098373715
100065.098373644
100065.098373548
100065.098373432
100065.098373298
100065.098373144
100065.098372973
100065.098372784
100065.09837258
100065.098372361
100065.098372129
100065.098371885
100065.098371632
100065.098371371
100065.098371104
100065.098370833
100065.098370558
100065.098370282
100065.098370006
100065.098369732
100065.098369461
100065.098369193
100065.09836893
100065.098368674
100065.098368424
100065.098368182
100065.098367947
100065.098367722
100065.098367506
100065.098367299
100065.098367101
100065.098366914
100065.098366735
100065.098366567
100065.098366407
100065.098366256
100065.098366113
100065.098365979
100065.098365852
100065.098365734
100065.098365625
100065.098365528
100065.098365441
100065.098365372
100065.098365327
100065.098365298
100065.098365288
100065.096091786
100065.09609176
100065.096091725
100065.09609167
100065.096091595
100065.096091496
100065.096091377
100065.096091241
100065.096091086
100065.096090915
100065.096090727
100065.096090524
100065.096090308
100065.096090079
100065.09608984
100065.096089591
100065.096089336
100065.096089074
100065.096088809
100065.096088541
100065.096088271
100065.096088002
100065.096087735
100065.09608747
100065.09608721
100065.096086954
100065.096086705
100065.096086462
100065.096086227
100065.096086001
100065.096085782
100065.096085574
100065.096085374
100065.096085184
100065.096085004
100065.096084834
100065.096084673
100065.096084521
100065.096084378
100065.096084244
100065.096084119
100065.096084002
100065.096083893
100065.096083794
100065.096083705
100065.096083627
100065.096083565
100065.096083525
100065.096083499
100065.096083489
100065.09380974
100065.093809713
100065.093809675
100065.093809618
100065.093809539
100065.093809437
100065.093809316
100065.093809177
100065.093809021
100065.09380885
100065.093808663
100065.093808462
100065.093808248
100065.093808023
100065.093807788
100065.093807545
100065.093807294
100065.093807039
100065.093806779
100065.093806518
100065.093806255
100065.093805993
100065.093805733
100065.093805475
100065.093805222
100065.093804974
100065.093804732
100065.093804497
100065.093804269
100065.09380405
100065.093803839
100065.093803638
100065.093803446
100065.093803264
100065.093803091
100065.093802929
100065.093802776
100065.093802632
100065.093802498
100065.093802373
100065.093802256
100065.093802148
100065.093802049
100065.093801959
100065.09380188
100065.09380181
100065.093801756
100065.093801721
100065.093801698
100065.093801688
100065.091527688
100065.09152766
100065.09152762
100065.09152756
100065.091527478
100065.091527372
100065.091527248
100065.091527108
100065.091526951
100065.09152678
100065.091526594
100065.091526395
100065.091526184
100065.091525963
100065.091525732
100065.091525494
100065.091525249
100065.091524999
100065.091524746
100065.091524491
100065.091524235
100065.09152398
100065.091523727
100065.091523477
100065.091523231
100065.09152299
100065.091522756
100065.091522528
100065.091522308
100065.091522096
100065.091521893
100065.0915217
100065.091521515
100065.091521341
100065.091521176
100065.091521022
100065.091520877
100065.091520742
100065.091520616
100065.091520499
100065.091520392
100065.091520293
100065.091520203
100065.091520123
100065.091520053
100065.091519992
100065.091519945
100065.091519915
100065.091519895
100065.091519887
100065.089245633
100065.089245604
100065.089245561
100065.089245498
100065.089245413
100065.089245304
100065.089245178
100065.089245036
100065.089244879
100065.089244707
100065.089244523
100065.089244326
100065.089244118
100065.0892439
100065.089243674
100065.08924344
100065.089243201
100065.089242957
100065.089242711
100065.089242462
100065.089242213
100065.089241965
100065.089241719
100065.089241477
100065.089241238
100065.089241005
100065.089240778
100065.089240558
100065.089240346
100065.089240142
100065.089239946
100065.08923976
100065.089239584
100065.089239417
100065.08923926
100065.089239114
100065.089238977
100065.08923885
100065.089238733
100065.089238625
100065.089238527
100065.089238437
100065.089238357
100065.089238286
100065.089238225
100065.089238173
100065.089238134
100065.089238109
100065.089238094
100065.089238086
100065.086963578
100065.086963548
100065.086963501
100065.086963435
100065.086963347
100065.086963235
100065.086963107
100065.086962963
100065.086962805
100065.086962634
100065.086962451
100065.086962256
100065.086962051
100065.086961837
100065.086961615
100065.086961387
100065.086961153
100065.086960916
100065.086960675
100065.086960433
100065.086960192
100065.086959951
100065.086959712
100065.086959477
100065.086959246
100065.08695902
100065.086958801
100065.086958588
100065.086958384
100065.086958187
100065.086958
100065.086957821
100065.086957653
100065.086957494
100065.086957345
100065.086957207
100065.086957078
100065.086956959
100065.086956851
100065.086956752
100065.086956662
100065.086956582
100065.086956511
100065.08695645
100065.086956398
100065.086956355
100065.086956323
100065.086956305
100065.086956293
100065.086956287
100065.084681524
100065.084681493
100065.084681443
100065.084681375
100065.084681283
100065.084681168
100065.084681038
100065.084680893
100065.084680734
100065.084680563
100065.084680381
100065.084680189
100065.084679987
100065.084679777
100065.08467956
100065.084679336
100065.084679108
100065.084678876
100065.084678642
100065.084678407
100065.084678172
100065.084677938
100065.084677707
100065.084677479
100065.084677256
100065.084677038
100065.084676826
100065.084676621
100065.084676424
100065.084676236
100065.084676056
100065.084675886
100065.084675725
100065.084675574
100065.084675433
100065.084675302
100065.084675182
100065.084675072
100065.084674972
100065.084674881
100065.084674801
100065.08467473
100065.084674668
100065.084674616
100065.084674573
100065.084674539
100065.084674516
100065.084674503
100065.084674496
100065.084674492
100065.082399476
100065.082399442
100065.08239939
100065.082399318
100065.082399223
100065.082399106
100065.082398973
100065.082398827
100065.082398668
100065.082398497
100065.082398317
100065.082398126
100065.082397928
100065.082397721
100065.082397509
100065.08239729
100065.082397068
100065.082396842
100065.082396615
100065.082396386
100065.082396158
100065.082395931
100065.082395707
100065.082395487
100065.082395271
100065.08239506
100065.082394856
100065.082394659
100065.08239447
100065.082394289
100065.082394117
100065.082393954
100065.082393801
100065.082393658
100065.082393526
100065.082393403
100065.082393291
100065.082393189
100065.082393097
100065.082393016
100065.082392944
100065.082392882
100065.08239283
100065.082392787
100065.082392754
100065.082392728
100065.082392713
100065.082392707
100065.082392704
100065.082392702
100065.080117435
100065.0801174
100065.080117345
100065.08011727
100065.080117172
100065.080117052
100065.080116917
100065.080116769
100065.08011661
100065.08011644
100065.08011626
100065.080116072
100065.080115877
100065.080115674
100065.080115466
100065.080115253
100065.080115035
100065.080114816
100065.080114594
100065.080114373
100065.080114151
100065.080113932
100065.080113715
100065.080113502
100065.080113293
100065.080113091
100065.080112894
100065.080112705
100065.080112523
100065.08011235
100065.080112186
100065.080112031
100065.080111886
100065.08011175
100065.080111625
100065.080111511
100065.080111407
100065.080111313
100065.08011123
100065.080111157
100065.080111094
100065.080111042
100065.080110999
100065.080110965
100065.08011094
100065.080110924
100065.080110917
100065.080110917
100065.080110919
100065.080110919
100065.077835405
100065.077835369
100065.077835311
100065.077835233
100065.077835131
100065.077835008
100065.077834871
100065.077834722
100065.077834562
100065.077834393
100065.077834215
100065.077834029
100065.077833836
100065.077833637
100065.077833433
100065.077833225
100065.077833014
100065.0778328
100065.077832585
100065.07783237
100065.077832155
100065.077831943
100065.077831733
100065.077831527
100065.077831326
100065.077831131
100065.077830942
100065.07783076
100065.077830586
100065.07783042
100065.077830264
100065.077830117
100065.077829979
100065.077829852
100065.077829735
100065.077829628
100065.077829532
100065.077829446
100065.077829372
100065.077829307
100065.077829253
100065.07782921
100065.077829176
100065.077829152
100065.077829136
100065.077829129
100065.07782913
100065.077829136
100065.077829143
100065.077829146
100065.07555339
100065.075553352
100065.075553291
100065.07555321
100065.075553105
100065.075552979
100065.07555284
100065.07555269
100065.075552529
100065.07555236
100065.075552183
100065.075551999
100065.07555181
100065.075551615
100065.075551415
100065.075551212
100065.075551006
100065.075550798
100065.075550589
100065.07555038
100065.075550172
100065.075549966
100065.075549764
100065.075549565
100065.075549372
100065.075549184
100065.075549002
100065.075548828
100065.075548661
100065.075548503
100065.075548354
100065.075548215
100065.075548085
100065.075547965
100065.075547856
100065.075547757
100065.075547669
100065.075547591
100065.075547525
100065.075547469
100065.075547424
100065.075547389
100065.075547365
100065.07554735
100065.075547343
100065.075547345
100065.075547354
100065.075547367
100065.075547379
100065.075547384
100065.073271391
100065.073271352
100065.073271288
100065.073271204
100065.073271096
100065.073270967
100065.073270826
100065.073270674
100065.073270513
100065.073270344
100065.073270168
100065.073269987
100065.0732698
100065.073269608
100065.073269413
100065.073269215
100065.073269014
100065.073268811
100065.073268609
100065.073268406
100065.073268205
100065.073268006
100065.073267811
100065.073267619
100065.073267432
100065.073267252
100065.073267078
100065.073266911
100065.073266752
100065.073266601
100065.07326646
100065.073266328
100065.073266205
100065.073266093
100065.073265991
100065.0732659
100065.07326582
100065.07326575
100065.073265692
100065.073265645
100065.073265608
100065.073265582
100065.073265567
100065.073265561
100065.073265563
100065.073265574
100065.073265591
100065.073265611
100065.073265628
100065.073265635
100065.070989414
100065.070989373
100065.070989306
100065.070989219
100065.070989107
100065.070988975
100065.070988832
100065.070988678
100065.070988517
100065.070988348
100065.070988174
100065.070987994
100065.07098781
100065.070987622
100065.070987431
100065.070987237
100065.070987041
100065.070986845
100065.070986648
100065.070986451
100065.070986257
100065.070986065
100065.070985876
100065.070985691
100065.070985512
100065.070985338
100065.070985171
100065.070985011
100065.07098486
100065.070984716
100065.070984582
100065.070984457
100065.070984342
100065.070984238
100065.070984143
100065.07098406
100065.070983987
100065.070983926
100065.070983875
100065.070983836
100065.070983808
100065.070983791
100065.070983785
100065.070983788
100065.070983799
100065.070983819
100065.070983844
100065.070983871
100065.070983893
100065.070983903
100065.06870746
100065.068707418
100065.068707347
100065.068707257
100065.068707142
100065.068707007
100065.068706861
100065.068706706
100065.068706544
100065.068706375
100065.068706202
100065.068706024
100065.068705843
100065.068705658
100065.068705471
100065.068705282
100065.068705091
100065.0687049
100065.068704709
100065.068704518
100065.06870433
100065.068704144
100065.068703962
100065.068703784
100065.068703612
100065.068703445
100065.068703285
100065.068703132
100065.068702988
100065.068702852
100065.068702725
100065.068702607
100065.068702499
100065.068702402
100065.068702315
100065.068702239
100065.068702173
100065.06870212
100065.068702077
100065.068702046
100065.068702026
100065.068702018
100065.06870202
100065.068702033
100065.068702053
100065.068702082
100065.068702116
100065.068702148
100065.068702176
100065.068702188
100065.066425534
100065.066425491
100065.066425416
100065.066425323
100065.066425203
100065.066425065
100065.066424917
100065.06642476
100065.066424597
100065.066424428
100065.066424256
100065.06642408
100065.066423901
100065.06642372
100065.066423536
100065.066423352
100065.066423166
100065.06642298
100065.066422794
100065.06642261
100065.066422428
100065.066422248
100065.066422072
100065.066421901
100065.066421735
100065.066421575
100065.066421422
100065.066421276
100065.066421139
100065.066421009
100065.066420889
100065.066420779
100065.066420678
100065.066420588
100065.066420508
100065.066420439
100065.066420381
100065.066420334
100065.0664203
100065.066420277
100065.066420265
100065.066420265
100065.066420277
100065.066420298
100065.066420327
100065.066420365
100065.066420408
100065.066420447
100065.06642048
100065.066420495
100065.064143639
100065.064143594
100065.064143515
100065.064143419
100065.064143295
100065.064143152
100065.064143002
100065.064142843
100065.064142679
100065.064142511
100065.064142339
100065.064142165
100065.064141988
100065.06414181
100065.06414163
100065.06414145
100065.064141269
100065.064141088
100065.064140908
100065.064140729
100065.064140552
100065.064140379
100065.06414021
100065.064140045
100065.064139885
100065.064139732
100065.064139585
100065.064139446
100065.064139315
100065.064139192
100065.064139079
100065.064138975
100065.064138881
100065.064138798
100065.064138725
100065.064138663
100065.064138612
100065.064138573
100065.064138545
100065.06413853
100065.064138527
100065.064138535
100065.064138555
100065.064138585
100065.064138624
100065.064138671
100065.064138722
100065.064138768
100065.064138807
100065.064138824
100065.061861778
100065.061861731
100065.061861648
100065.061861548
100065.061861419
100065.061861273
100065.06186112
100065.061860959
100065.061860794
100065.061860625
100065.061860454
100065.061860281
100065.061860107
100065.061859932
100065.061859756
100065.061859579
100065.061859403
100065.061859226
100065.061859051
100065.061858878
100065.061858708
100065.06185854
100065.061858376
100065.061858218
100065.061858064
100065.061857917
100065.061857777
100065.061857644
100065.06185752
100065.061857404
100065.061857297
100065.061857199
100065.061857112
100065.061857035
100065.061856969
100065.061856913