/*--------------------------------*- C++ -*----------------------------------*\
  =========                 |
  \\      /  F ield         | OpenFOAM: The Open Source CFD Toolbox
   \\    /   O peration     | Website:  https://openfoam.org
    \\  /    A nd           | Version:  10
     \\/     M anipulation  |
\*---------------------------------------------------------------------------*/
FoamFile
{
    format      ascii;
    class       volScalarField;
    location    "2.2";
    object      p_rgh;
}
// * * * * * * * * * * * * * * * * * * * * * * * * * * * * * * * * * * * * * //

dimensions      [1 -1 -2 0 0 0 0];

internalField   nonuniform List<scalar> 
2500
(
65.2525001653994
65.2525233166816
65.2525347092451
65.2525383989705
65.2525396215206
65.2525400027807
65.2525401006569
65.2525400845334
65.2525399984006
65.2525398629514
65.2525396881392
65.2525394795375
65.2525392420357
65.2525389801594
65.2525386975467
65.2525383976899
65.252538083485
65.2525377580751
65.2525374240795
65.2525370837975
65.252536739572
65.2525363934401
65.2525360472209
65.2525357024133
65.2525353607343
65.2525350235228
65.2525346917246
65.2525343664456
65.2525340485299
65.2525337383995
65.2525334366219
65.2525331435172
65.2525328589545
65.2525325828465
65.2525323148293
65.2525320542481
65.2525318000553
65.2525315509993
65.252531305101
65.2525310602941
65.25253081345
65.2525305600138
65.2525302919094
65.2525299881381
65.2525296020758
65.2525289691839
65.2525275385124
65.2525236972288
65.2525120183418
65.2524889612832
65.2533634749125
65.253413142229
65.2534444275516
65.253455579601
65.2534592930751
65.2534604328685
65.253460743741
65.2534607816342
65.2534607078705
65.2534605752444
65.2534604009415
65.2534601925581
65.2534599552891
65.2534596935875
65.2534594111494
65.2534591114672
65.2534587975533
65.2534584724199
65.2534581386572
65.2534577987099
65.2534574548336
65.2534571091091
65.2534567633265
65.2534564189264
65.2534560776112
65.2534557408071
65.2534554093727
65.2534550845012
65.2534547669784
65.2534544571972
65.2534541558271
65.2534538632026
65.2534535789309
65.2534533030557
65.2534530354169
65.2534527752141
65.2534525213996
65.2534522726637
65.2534520271147
65.2534517824824
65.2534515350562
65.2534512779966
65.2534509938559
65.2534506264928
65.2534500089823
65.2534485975048
65.2534446950449
65.2534334565571
65.253401463764
65.2533512820519
65.2539687109966
65.254014704522
65.2540440922021
65.2540548981196
65.2540584975359
65.2540595977625
65.2540598971682
65.2540599314525
65.2540598561754
65.25405972304
65.2540595486789
65.2540593404556
65.254059103434
65.2540588420961
65.2540585601091
65.2540582608926
65.2540579475608
65.2540576230094
65.254057289887
65.2540569506091
65.2540566074167
65.2540562623617
65.254055917263
65.2540555736632
65.2540552331047
65.2540548969992
65.2540545663796
65.2540542422357
65.2540539254114
65.2540536164452
65.2540533158608
65.2540530239494
65.2540527404781
65.2540524653887
65.2540521985356
65.2540519391187
65.2540516860608
65.2540514380817
65.2540511933475
65.2540509496321
65.2540507032973
65.2540504477947
65.2540501669282
65.2540498074522
65.2540492112748
65.2540478567971
65.2540440796147
65.2540331331984
65.2540029346419
65.2539550211513
65.2543018804427
65.2543309334724
65.2543471851968
65.254353154698
65.2543551208946
65.2543557039899
65.2543558514735
65.25435584363
65.2543557568715
65.2543556205201
65.2543554451986
65.2543552368588
65.2543550001574
65.2543547393434
65.2543544580403
65.2543541596679
65.2543538472964
65.2543535237492
65.254353191689
65.2543528535462
65.2543525114597
65.2543521675543
65.2543518236198
65.2543514812714
65.2543511419499
65.2543508070667
65.2543504777277
65.2543501548498
65.2543498392624
65.2543495315767
65.2543492322584
65.2543489415548
65.2543486593931
65.2543483856862
65.2543481201428
65.2543478620209
65.2543476103165
65.2543473637488
65.2543471206154
65.2543468787335
65.2543466351053
65.2543463851325
65.254346119691
65.2543458106084
65.2543453820108
65.2543445633783
65.2543424126488
65.2543362510332
65.2543193887977
65.2542882493144
65.2544531153253
65.2544675859099
65.2544746081403
65.2544771842076
65.2544780670723
65.2544783173798
65.2544783647318
65.2544783268095
65.2544782306213
65.2544780909229
65.2544779143354
65.2544777057192
65.2544774693088
65.254477209106
65.2544769287051
65.2544766314386
65.2544763203186
65.2544759981829
65.2544756676216
65.2544753310503
65.2544749906228
65.2544746483909
65.2544743061444
65.2544739655423
65.2544736280252
65.2544732949318
65.2544729673828
65.2544726463238
65.2544723325409
65.2544720266887
65.2544717291748
65.2544714402757
65.2544711600058
65.2544708882342
65.2544706246117
65.2544703684689
65.2544701188308
65.2544698744605
65.2544696337136
65.2544693945674
65.2544691545045
65.2544689102942
65.25446865712
65.254468382409
65.254468060637
65.2544675821846
65.2544665153982
65.2544637660758
65.2544563530537
65.2544404028158
65.2545117793634
65.2545178389119
65.2545204217313
65.2545213508565
65.2545217136358
65.2545218028245
65.2545217969891
65.2545217400184
65.2545216363796
65.2545214933925
65.2545213153498
65.2545211063116
65.2545208701922
65.2545206107607
65.2545203314949
65.2545200356253
65.2545197261352
65.2545194058039
65.2545190772071
65.2545187426877
65.2545184043993
65.2545180643647
65.2545177243737
65.2545173860562
65.254517050882
65.2545167201315
65.2545163949253
65.2545160762238
65.2545157648128
65.2545154613326
65.2545151662052
65.2545148796926
65.254514601882
65.2545143325988
65.2545140715229
65.2545138179994
65.2545135711116
65.2545133296808
65.2545130921353
65.2545128566417
65.2545126210171
65.2545123828895
65.2545121398289
65.2545118869457
65.2545116215042
65.2545113066008
65.2545107608166
65.2545096809044
65.2545068559994
65.2544999664533
65.2545311296271
65.254533327141
65.2545341846417
65.2545344635291
65.25453461094
65.2545346296538
65.2545345955004
65.254534525433
65.2545344153623
65.2545342689991
65.2545340893121
65.2545338798227
65.254533644038
65.2545333855232
65.2545331076108
65.2545328134438
65.2545325059473
65.2545321878133
65.2545318615885
65.2545315295865
65.2545311939321
65.2545308565896
65.254530519378
65.2545301838545
65.2545298515033
65.2545295236196
65.2545292012946
65.254528885489
65.2545285769884
65.2545282764186
65.2545279842016
65.2545277006575
65.25452742583
65.2545271596027
65.2545269016555
65.2545266513625
65.2545264078799
65.2545261700725
65.2545259364997
65.2545257054589
65.2545254750876
65.254525243683
65.2545250100957
65.2545247731323
65.2545245387882
65.2545242961642
65.254523967451
65.2545235512807
65.2545225301583
65.2545199201268
65.2545357904746
65.2545364770485
65.2545367479179
65.2545368030114
65.2545368635328
65.2545368504507
65.2545367991988
65.2545367188577
65.2545366028789
65.2545364531106
65.2545362717356
65.2545360617514
65.2545358263887
65.2545355689508
65.2545352926245
65.2545350004657
65.2545346952975
65.2545343797537
65.2545340563229
65.2545337272604
65.2545333946764
65.2545330605208
65.2545327265252
65.2545323943195
65.2545320653007
65.2545317407785
65.2545314218441
65.2545311094291
65.2545308043336
65.254530507169
65.2545302184008
65.25452993832
65.2545296669996
65.2545294043666
65.2545291500719
65.2545289036061
65.2545286641252
65.2545284305816
65.2545282016363
65.254527975776
65.2545277514437
65.2545275273442
65.254527303201
65.2545270797855
65.2545268656831
65.2545266572561
65.2545264186774
65.2545262347121
65.2545258375612
65.2545249480609
65.2545354604663
65.2545356265327
65.2545357116323
65.2545356970077
65.2545357180934
65.2545356880873
65.2545356248011
65.2545355357142
65.2545354142057
65.2545352610759
65.254535078042
65.2545348676213
65.2545346327825
65.254534376596
65.2545341021032
65.2545338122436
65.2545335097238
65.2545331971342
65.2545328768756
65.2545325511746
65.2545322220976
65.2545318915509
65.2545315612515
65.2545312328002
65.254530907594
65.2545305868989
65.2545302717917
65.254529963262
65.2545296620228
65.2545293687726
65.2545290839189
65.2545288077818
65.2545285404776
65.2545282819192
65.25452803183
65.2545277897152
65.2545275547891
65.2545273260766
65.25452710237
65.2545268823305
65.2545266646048
65.2545264483633
65.2545262337953
65.2545260228071
65.2545258242753
65.2545256356389
65.2545254407451
65.2545253328572
65.2545251406409
65.254524863165
65.2545335493633
65.2545335567265
65.2545335825707
65.2545335480099
65.2545335466275
65.254533505271
65.254533432555
65.254533335843
65.2545332091831
65.254533052881
65.2545328682609
65.25453265752
65.2545324233506
65.2545321686339
65.254531896222
65.2545316089236
65.2545313093869
65.254531000086
65.2545306833781
65.2545303614315
65.254530036269
65.2545297097531
65.2545293835719
65.2545290593116
65.25452873834
65.2545284219086
65.2545281111088
65.2545278068719
65.2545275099837
65.25452722107
65.2545269405964
65.2545266688685
65.2545264060172
65.2545261520136
65.254525906581
65.2545256692829
65.2545254394063
65.2545252160635
65.254524998134
65.2545247844246
65.2545245738584
65.2545243658387
65.2545241609769
65.2545239617175
65.2545237764134
65.2545236021397
65.2545234342397
65.2545233516139
65.2545232307457
65.254523150099
65.2545311572321
65.2545311238209
65.2545311279537
65.2545310881542
65.2545310710557
65.2545310206769
65.2545309401758
65.2545308367407
65.2545307053515
65.2545305461244
65.2545303600782
65.2545301491773
65.2545299158519
65.2545296627941
65.2545293927105
65.2545291082643
65.2545288120018
65.2545285063388
65.2545281935163
65.2545278756879
65.2545275548036
65.2545272327116
65.254526911056
65.2545265913941
65.2545262750646
65.2545259633189
65.2545256572193
65.2545253577264
65.2545250655676
65.2545247814269
65.2545245057408
65.2545242388442
65.2545239808969
65.25452373187
65.2545234915451
65.2545232595148
65.2545230351388
65.2545228176168
65.2545226059301
65.254522399031
65.2545221960027
65.254521996525
65.2545218013838
65.2545216133294
65.2545214398124
65.2545212776895
65.2545211297111
65.2545210567332
65.2545209667442
65.2545209437085
65.2545286171953
65.2545285774977
65.254528571124
65.2545285299566
65.2545285007218
65.254528442485
65.2545283553482
65.2545282460051
65.2545281104103
65.2545279485348
65.2545277612808
65.2545275503944
65.2545273181167
65.2545270669507
65.2545267994283
65.2545265181107
65.2545262254134
65.2545259236795
65.2545256150916
65.2545253017306
65.2545249854884
65.2545246681693
65.2545243514032
65.2545240367326
65.2545237254235
65.2545234187564
65.2545231177646
65.2545228233794
65.254522536372
65.2545222573826
65.2545219868916
65.2545217252336
65.2545214725687
65.2545212289115
65.2545209940872
65.2545207677467
65.2545205492788
65.254520337985
65.2545201329485
65.2545199332526
65.2545197381114
65.2545195473795
65.2545193619735
65.2545191846439
65.2545190219389
65.2545188707882
65.2545187386859
65.2545186706702
65.2545185984491
65.2545185903873
65.2545260261832
65.254525988872
65.2545259758626
65.254525934055
65.254525895085
65.2545258298487
65.2545257369493
65.2545256224694
65.2545254831057
65.2545253189164
65.2545251307165
65.2545249200775
65.2545246890513
65.2545244399807
65.2545241752669
65.2545238973107
65.2545236084698
65.2545233109558
65.2545230069081
65.2545226983202
65.2545223870547
65.2545220748725
65.2545217633451
65.2545214539714
65.254521148061
65.2545208468073
65.2545205512724
65.2545202623733
65.2545199808665
65.2545197074069
65.2545194424602
65.2545191864047
65.2545189394004
65.2545187015057
65.2545184725459
65.2545182522445
65.254518040063
65.2545178353612
65.2545176373242
65.254517445137
65.254517258174
65.2545170763333
65.2545169006335
65.2545167336939
65.2545165810734
65.2545164401527
65.2545163210598
65.2545162564784
65.2545161964954
65.254516191344
65.2545234122226
65.2545233786077
65.2545233607671
65.2545233181736
65.254523271331
65.2545231997647
65.2545231018303
65.2545229828247
65.2545228401723
65.2545226740185
65.2545224851201
65.2545222749468
65.2545220454049
65.2545217986481
65.2545215369755
65.2545212626428
65.2545209779055
65.2545206849027
65.2545203856716
65.2545200821623
65.2545197761792
65.2545194694394
65.2545191634708
65.2545188597433
65.2545185595518
65.2545182640752
65.254517974332
65.2545176912536
65.2545174155821
65.2545171479869
65.2545168889337
65.2545166388154
65.2545163978066
65.25451616598
65.2545159432484
65.2545157293207
65.2545155237603
65.2545153259707
65.2545151352388
65.2545149508514
65.2545147722703
65.2545145994663
65.254514433429
65.2545142765593
65.2545141335577
65.2545140023285
65.2545138940332
65.2545138324349
65.2545137813722
65.2545137759153
65.2545207836811
65.2545207532385
65.2545207316289
65.2545206878858
65.2545206345821
65.254520557326
65.2545204549242
65.2545203319751
65.2545201864705
65.2545200186869
65.2545198293665
65.2545196198771
65.2545193920232
65.254519147813
65.2545188893855
65.2545186189236
65.2545183385228
65.2545180502784
65.2545177561406
65.2545174579864
65.2545171575621
65.2545168565412
65.254516556437
65.2545162586612
65.2545159644797
65.2545156750712
65.2545153914252
65.2545151144732
65.2545148449717
65.2545145835466
65.2545143306925
65.2545140868169
65.2545138521236
65.2545136266854
65.2545134104585
65.2545132032101
65.2545130045473
65.2545128139609
65.2545126307959
65.2545124544267
65.2545122844167
65.2545121207513
65.2545119643328
65.2545118173148
65.2545116836263
65.2545115616667
65.2545114625973
65.2545114038367
65.2545113593806
65.2545113528467
65.2545181431924
65.2545181150199
65.2545180902671
65.2545180450397
65.2545179862791
65.2545179038862
65.2545177974971
65.2545176710701
65.2545175231207
65.2545173540129
65.2545171645324
65.2545169559889
65.2545167300268
65.2545164885669
65.2545162336028
65.2545159672154
65.2545156913984
65.2545154081454
65.2545151193335
65.2545148267818
65.2545145321783
65.2545142371528
65.254513943175
65.2545136516128
65.2545133637323
65.2545130806539
65.2545128034108
65.2545125328761
65.2545122698066
65.2545120148425
65.2545117684786
65.2545115311368
65.254511303021
65.254511084262
65.2545108748163
65.2545106745238
65.2545104830206
65.2545102998702
65.2545101244905
65.2545099563577
65.2545097950351
65.2545096405811
65.2545094937523
65.2545093564404
65.2545092318906
65.2545091188949
65.2545090279891
65.2545089722262
65.2545089326886
65.2545089249907
65.2545154917461
65.2545154649997
65.2545154375111
65.2545153904357
65.2545153269748
65.2545152399398
65.2545151299419
65.2545150004735
65.2545148504141
65.2545146803022
65.2545144909236
65.2545142835152
65.2545140596631
65.2545138211572
65.2545135698601
65.2545133077365
65.2545130366925
65.2545127586491
65.2545124753815
65.2545121886506
65.2545119001152
65.2545116113033
65.2545113236847
65.2545110385981
65.2545107572514
65.2545104807941
65.2545102101867
65.2545099463168
65.2545096899412
65.2545094417001
65.2545092020882
65.2545089715277
65.2545087502513
65.254508538419
65.2545083360164
65.254508142898
65.2545079587726
65.2545077832765
65.2545076158858
65.2545074561203
65.2545073036163
65.2545071584027
65.254507021149
65.2545068934414
65.2545067779283
65.254506673693
65.254506590325
65.2545065378072
65.2545065021404
65.2545064933947
65.2545128298952
65.2545128038619
65.2545127737685
65.2545127245685
65.2545126569021
65.2545125656325
65.2545124523604
65.2545123201999
65.2545121683652
65.2545119975111
65.2545118084672
65.2545116024266
65.2545113808737
65.254511145482
65.2545108980266
65.2545106403559
65.2545103742887
65.2545101016294
65.2545098241098
65.254509543418
65.2545092611253
65.25450897876
65.2545086977188
65.2545084193116
65.2545081447461
65.2545078750991
65.2545076113456
65.2545073543879
65.2545071049244
65.2545068636391
65.2545066309976
65.2545064074511
65.2545061932469
65.2545059885451
65.2545057933894
65.2545056076633
65.254505431134
65.2545052634523
65.2545051041961
65.254504952929
65.2545048093307
65.2545046734012
65.2545045457082
65.2545044275321
65.2545043210412
65.2545042254642
65.2545041493577
65.2545041004487
65.254504068027
65.2545040585537
65.2545101583964
65.2545101324795
65.2545100998541
65.2545100482675
65.2545099767449
65.2545098815899
65.2545097653201
65.254509630744
65.2545094774105
65.2545093060617
65.2545091175707
65.2545089130872
65.2545086939936
65.2545084618905
65.2545082184515
65.2545079653937
65.2545077044488
65.2545074373484
65.2545071657369
65.2545068912441
65.254506615398
65.2545063396537
65.2545060653647
65.2545057938405
65.2545055262308
65.2545052635978
65.2545050069166
65.2545047570457
65.2545045147272
65.2545042805723
65.2545040551195
65.2545038387761
65.2545036318334
65.2545034344803
65.254503246746
65.2545030685869
65.2545028997993
65.254502740092
65.2545025891013
65.2545024464343
65.2545023118
65.2545021851838
65.2545020670077
65.2545019583486
65.2545018608653
65.2545017739321
65.2545017049852
65.2545016601071
65.2545016307267
65.2545016208751
65.2545074781956
65.2545074519294
65.2545074166992
65.254507362537
65.2545072873472
65.2545071885979
65.2545070695633
65.254506932848
65.2545067782485
65.2545066066232
65.2545064188744
65.254506216108
65.2545059996482
65.2545057709794
65.2545055316732
65.2545052833739
65.2545050276967
65.2545047663007
65.2545045007428
65.2545042326092
65.2545039633405
65.2545036943775
65.2545034270152
65.2545031625341
65.2545029020403
65.2545026465959
65.254502397147
65.254502154552
65.254501919524
65.2545016927033
65.2545014745992
65.2545012656483
65.254501066127
65.2545008762681
65.25450069613
65.2545005256834
65.2545003647829
65.254500213181
65.2545000705431
65.2544999365491
65.2544998109224
65.2544996936194
65.2544995849603
65.2544994857744
65.2544993973279
65.2544993190531
65.2544992573385
65.2544992169278
65.2544991906325
65.2544991808099
65.254504790777
65.2545047638123
65.2545047259191
65.2545046690357
65.2545045903389
65.254504488199
65.2545043665741
65.2545042279235
65.2545040722616
65.2545039005636
65.254503713717
65.2545035128278
65.2545032991329
65.2545030740148
65.2545028389723
65.2545025955333
65.2545023452403
65.2545020896505
65.2545018302771
65.2545015685901
65.2545013060444
65.254501043979
65.2545007836743
65.2545005263673
65.2545002731349
65.2545000250248
65.2544997829536
65.2544995477656
65.2544993201736
65.2544991008035
65.2544988902082
65.2544986887806
65.2544984968408
65.2544983146072
65.2544981421815
65.2544979795639
65.2544978266524
65.2544976832432
65.2544975490455
65.254497423768
65.2544973071781
65.2544971992029
65.2544971000316
65.254497010319
65.2544969309092
65.2544968613365
65.2544968069997
65.2544967714639
65.2544967484573
65.2544967390713
65.2545020978723
65.2545020699181
65.2545020292455
65.2545019694953
65.2545018873934
65.2545017820521
65.2545016580116
65.2545015175856
65.2545013610506
65.2545011894108
65.2545010036119
65.2545008047164
65.2545005938882
65.2545003724372
65.2545001417457
65.2544999032689
65.2544996584475
65.2544994087657
65.2544991556497
65.2544989005401
65.2544986447901
65.2544983897387
65.2544981365936
65.2544978865626
65.2544976406934
65.2544974000339
65.2544971654424
65.2544969377777
65.2544967177528
65.2544965059788
65.2544963029795
65.2544961091917
65.2544959249208
65.2544957504433
65.254495585832
65.2544954311452
65.25449528631
65.2544951511518
65.2544950254378
65.2544949089352
65.254494801382
65.2544947027054
65.2544946130074
65.254494532739
65.2544944624242
65.2544944015972
65.2544943547982
65.2544943245448
65.2544943051034
65.2544942965469
65.2544994017226
65.2544993725896
65.254499329094
65.2544992664043
65.2544991809409
65.2544990725291
65.2544989462185
65.2544988041482
65.2544986468565
65.2544984754204
65.2544982907857
65.2544980939711
65.2544978860969
65.2544976684003
65.2544974421326
65.2544972086616
65.2544969693845
65.2544967256545
65.2544964788831
65.2544962304091
65.2544959815277
65.254495733534
65.2544954876212
65.2544952449389
65.2544950065203
65.254494773355
65.2544945463451
65.254494326291
65.2544941139058
65.2544939098007
65.2544937144849
65.2544935284241
65.2544933519239
65.2544931852462
65.2544930285367
65.2544928818388
65.2544927451236
65.2544926182745
65.254492501088
65.2544923933456
65.2544922948291
65.2544922054512
65.2544921251974
65.2544920543442
65.2544919931388
65.2544919411012
65.2544919020147
65.2544918773638
65.2544918617932
65.2544918544445
65.2544967046852
65.2544966742425
65.2544966278074
65.2544965621491
65.2544964733825
65.2544963619875
65.2544962334941
65.2544960898958
65.2544959319494
65.2544957608043
65.254495577421
65.2544953827746
65.2544951779273
65.2544949639996
65.2544947422139
65.2544945138216
65.2544942801032
65.2544940423977
65.2544938019855
65.2544935601763
65.2544933182216
65.2544930773438
65.2544928387069
65.2544926034025
65.2544923724781
65.2544921469089
65.2544919275097
65.254491715139
65.2544915104372
65.2544913140591
65.2544911264995
65.254490948224
65.2544907795382
65.2544906207331
65.2544904719543
65.2544903332891
65.2544902047375
65.2544900862122
65.254489977553
65.2544898785709
65.2544897890912
65.2544897089538
65.2544896381005
65.2544895766623
65.2544895245665
65.2544894813909
65.2544894501334
65.254489431376
65.2544894199527
65.254489414132
65.254494009554
65.2544939777144
65.2544939283689
65.2544938596839
65.254493767643
65.2544936533377
65.2544935227197
65.2544933776953
65.2544932191668
65.2544930483855
65.2544928663119
65.2544926738774
65.254492472086
65.2544922619854
65.2544920446817
65.254491821368
65.2544915932376
65.254491361542
65.2544911275181
65.2544908923883
65.2544906573603
65.2544904236129
65.2544901922665
65.2544899643835
65.254489740968
65.2544895229657
65.2544893112354
65.2544891065336
65.2544889095589
65.2544887209224
65.2544885411335
65.2544883706578
65.2544882098155
65.2544880588976
65.2544879180787
65.2544877874461
65.2544876670581
65.2544875568565
65.2544874567102
65.2544873664883
65.2544872859871
65.2544872150611
65.2544871535792
65.2544871015125
65.2544870585407
65.2544870242418
65.2544870009442
65.2544869882986
65.2544869812555
65.2544869772391
65.2544913191814
65.2544912858866
65.2544912335434
65.2544911618461
65.254491066531
65.2544909493736
65.2544908167038
65.2544906702678
65.2544905112154
65.2544903408416
65.2544901600922
65.2544899698987
65.2544897711632
65.2544895648753
65.254489352068
65.2544891338184
65.254488911276
65.2544886855903
65.2544884579256
65.2544882294605
65.2544880013447
65.2544877747132
65.2544875506428
65.2544873301667
65.25448711426
65.2544869038393
65.2544866997487
65.2544865027303
65.2544863134681
65.2544861325878
65.2544859605841
65.2544857978937
65.2544856448949
65.2544855018496
65.254485368976
65.2544852463761
65.2544851341372
65.2544850322301
65.2544849405676
65.2544848590478
65.254484787496
65.2544847257377
65.2544846735691
65.2544846308447
65.2544845969969
65.2544845716038
65.2544845563534
65.2544845499651
65.2544845475204
65.2544845455268
65.2544886365795
65.2544886018295
65.2544885465177
65.2544884717936
65.2544883732335
65.2544882532384
65.2544881185167
65.2544879707129
65.2544878111657
65.2544876411994
65.2544874617888
65.2544872738217
65.2544870781421
65.2544868756522
65.2544866673124
65.2544864541123
65.2544862370996
65.2544860173803
65.2544857960456
65.2544855742017
65.2544853529544
65.2544851334096
65.2544849165715
65.2544847034587
65.2544844950171
65.2544842921488
65.2544840956543
65.2544839062757
65.2544837247115
65.2544835515291
65.2544833872671
65.2544832323474
65.2544830871484
65.2544829519466
65.2544828269747
65.2544827123784
65.2544826082303
65.2544825145742
65.2544824313372
65.2544823584758
65.2544822958007
65.2544822431519
65.2544822002674
65.2544821668416
65.2544821420743
65.2544821256161
65.2544821184565
65.2544821184565
65.2544821207703
65.2544821209449
65.2544859648333
65.2544859286281
65.2544858703041
65.2544857925386
65.2544856907334
65.2544855678861
65.2544854311273
65.2544852819556
65.2544851218845
65.2544849523401
65.2544847742538
65.254484588484
65.2544843958167
65.2544841970957
65.2544839931506
65.2544837849418
65.2544835734152
65.2544833596039
65.2544831445266
65.2544829292601
65.2544827148231
65.2544825022633
65.2544822925993
65.2544820867915
65.2544818857568
65.2544816903537
65.2544815013971
65.2544813196291
65.2544811456755
65.254480980162
65.2544808235689
65.2544806763617
65.2544805388898
65.2544804114732
65.2544802943448
65.2544801876647
65.2544800915493
65.2544800060714
65.2544799312163
65.254479866926
65.2544798130693
65.2544797694718
65.2544797357841
65.2544797116134
65.2544796959264
65.2544796884176
65.2544796893926
65.2544796958682
65.2544797030569
65.2544797055307
65.2544833072607
65.2544832695858
65.2544832082203
65.2544831274281
65.2544830223342
65.2544828965765
65.2544827577512
65.2544826071971
65.2544824466022
65.2544822774216
65.2544821006159
65.2544819169998
65.254481727301
65.2544815322617
65.2544813326531
65.2544811293483
65.254480923235
65.2544807152299
65.2544805063226
65.2544802975171
65.2544800897886
65.2544798841409
65.2544796815491
65.25447948293
65.2544792892004
65.2544791012042
65.2544789196982
65.2544787454099
65.2544785789942
65.2544784210331
65.2544782720361
65.2544781324541
65.2544780026219
65.2544778829033
65.254477773502
65.2544776746508
65.2544775864808
65.2544775090937
65.2544774425041
65.2544773866975
65.2544773415866
65.2544773069385
65.254477282404
65.2544772674592
65.2544772608235
65.2544772622787
65.2544772714318
65.2544772844121
65.2544772965921
65.2544773014379
65.2544806669612
65.2544806278311
65.254480563337
65.2544804795034
65.254480371048
65.2544802423072
65.2544801013864
65.2544799493771
65.2544797882147
65.2544796193542
65.2544794437854
65.2544792622502
65.2544790754182
65.2544788839878
65.2544786886428
65.2544784901402
65.2544782893092
65.2544780870085
65.2544778841548
65.2544776817085
65.2544774805719
65.25447728172
65.2544770860841
65.2544768945518
65.2544767080108
65.254476527276
65.2544763530896
65.2544761861791
65.2544760271849
65.2544758766744
65.2544757351425
65.2544756030547
65.2544754807604
65.2544753686088
65.2544752668473
65.2544751757086
65.254475095353
65.2544750259403
65.2544749674998
65.2544749200897
65.2544748835935
65.2544748578366
65.2544748423679
65.2544748365617
65.2544748389482
65.2544748493965
65.254474866786
65.2544748862856
65.2544749035296
65.2544749107765
65.2544780472672
65.2544780066819
65.2544779389718
65.2544778520823
65.2544777401345
65.2544776082941
65.254477465176
65.2544773116824
65.2544771498651
65.2544769812521
65.2544768068183
65.2544766272767
65.2544764432532
65.2544762553152
65.2544760641031
65.2544758702861
65.2544756746211
65.2544754779083
65.2544752809772
65.2544750847301
65.25447489004
65.2544746978383
65.2544745090127
65.2544743244216
65.2544741449092
65.2544739712903
65.2544738042925
65.2544736446143
65.2544734928815
65.2544733496616
65.2544732154638
65.2544730907248
65.2544729758083
65.2544728710782
65.2544727767963
65.2544726932247
65.254472620567
65.2544725589687
65.2544725085609
65.2544724694017
65.2544724414183
65.2544724244217
65.2544724179461
65.2544724212494
65.2544724326144
65.2544724521285
65.2544724777836
65.254472503846
65.254472526256
65.2544725359039
65.2544754514383
65.2544754093688
65.2544753382826
65.2544752482499
65.2544751326204
65.2544749975059
65.2544748521323
65.2544746970379
65.2544745344785
65.2544743660401
65.254474192654
65.2544740150042
65.2544738336583
65.2544736491109
65.2544734618859
65.2544732726383
65.2544730819936
65.2544728906942
65.2544726995256
65.2544725093321
65.2544723209285
65.2544721352169
65.2544719530124
65.2544717752025
65.2544716025586
65.254471435881
65.2544712758972
65.2544711232767
65.2544709786307
65.2544708425412
65.254470715503
65.2544705979381
65.2544704902393
65.254470392756
65.2544703057938
65.2544702296145
65.2544701644656
65.2544701105362
65.254470068001
65.2544700369326
65.2544700173457
65.2544700090075
65.2544700114231
65.2544700237777
65.2544700440922
65.2544700727158
65.2544701067673
65.2544701394072
65.2544701670995
65.2544701791776
65.2544728828943
65.254472839355
65.2544727646164
65.2544726713531
65.254472551751
65.254472413144
65.2544722653838
65.2544721085869
65.254471945198
65.2544717768033
65.2544716043631
65.2544714285032
65.2544712496892
65.2544710683869
65.2544708850328
65.2544707001653
65.254470514381
65.2544703283347
65.2544701427687
65.254469958425
65.2544697761332
65.2544695967081
65.25446942095
65.2544692497031
65.2544690837385
65.2544689238275
65.2544687706541
65.2544686248875
65.2544684871391
65.2544683579617
65.2544682378502
65.2544681272557
65.254468026571
65.2544679361454
65.2544678562845
65.2544677873084
65.2544677294645
65.2544676830294
65.2544676481775
65.2544676250545
65.2544676136895
65.2544676138787
65.2544676250982
65.2544676464167
65.2544676756515
65.2544677135011
65.2544677561091
65.2544677953556
65.2544678285485
65.2544678430568
65.2544703450403
65.2544702999585
65.2544702212181
65.2544701245642
65.2544700005674
65.254469858206
65.2544697079284
65.2544695492979
65.2544693849632
65.2544692165102
65.2544690448849
65.2544688706694
65.2544686942711
65.2544685160683
65.2544683364249
65.254468155792
65.2544679746788
65.2544677936967
65.2544676135149
65.2544674348464
65.2544672584481
65.2544670850912
65.2544669155759
65.2544667506736
65.2544665911701
65.2544664377638
65.2544662911678
65.2544661520515
65.2544660209824
65.2544658984989
65.2544657851104
65.2544656812679
65.2544655873644
65.2544655037491
65.2544654307858
65.2544653687946
65.2544653180521
65.2544652788638
65.2544652514916
65.2544652361394
65.2544652328215
65.2544652414072
65.2544652612996
65.2544652915094
65.2544653296354
65.2544653768127
65.2544654282683
65.2544654741941
65.2544655131642
65.2544655301463
65.2544678415434
65.2544677948463
65.2544677115948
65.254467611303
65.2544674823439
65.254467335908
65.2544671829673
65.2544670223579
65.2544668569317
65.2544666882895
65.2544665173627
65.2544663446752
65.2544661705469
65.2544659952691
65.2544658191619
65.2544656425744
65.2544654659432
65.2544652898359
65.2544651148201
65.2544649415941
65.2544647708564
65.2544646033639
65.254464439844
65.2544642810535
65.2544641277491
65.2544639806292
65.2544638403779
65.2544637076207
65.254463582969
65.2544634669321
65.2544633600191
65.2544632626668
65.2544631752826
65.2544630982593
65.2544630319317
65.2544629766489
65.2544629327604