/*--------------------------------*- C++ -*----------------------------------*\
  =========                 |
  \\      /  F ield         | OpenFOAM: The Open Source CFD Toolbox
   \\    /   O peration     | Website:  https://openfoam.org
    \\  /    A nd           | Version:  10
     \\/     M anipulation  |
\*---------------------------------------------------------------------------*/
FoamFile
{
    format      ascii;
    class       surfaceScalarField;
    location    "2.2";
    object      phi;
}
// * * * * * * * * * * * * * * * * * * * * * * * * * * * * * * * * * * * * * //

dimensions      [1 0 -1 0 0 0 0];

internalField   nonuniform List<scalar> 
4900
(
-6.18019109175687e-12
6.655685466042e-12
-7.24845104700962e-12
1.77367396350797e-12
-5.13867494327962e-12
-1.35786872447334e-12
-3.62236884483111e-12
-7.67780862765327e-13
-2.59905763992325e-12
-2.86822997105425e-13
-1.97199512214702e-12
1.00590568252372e-13
-1.57039944666e-12
3.21536873402134e-13
-1.28976696308868e-12
4.40808959864779e-13
-1.07954063435554e-12
5.1109367944508e-13
-9.13630753113925e-13
5.56312664522615e-13
-7.78415749779434e-13
5.88669824672002e-13
-6.65850851650141e-13
6.13668104873043e-13
-5.70667629232937e-13
6.33903696854029e-13
-4.89156534017312e-13
6.50846080368949e-13
-4.18679649613494e-13
6.65363493243458e-13
-3.57144149599944e-13
6.77945660372495e-13
-3.0298370311863e-13
6.88964540766039e-13
-2.54881410185671e-13
6.98677217403008e-13
-2.11796824624329e-13
7.07252427567933e-13
-1.72798103431565e-13
7.14843286096313e-13
-1.371129612251e-13
7.21523095121795e-13
-1.04004181484439e-13
7.27385764929161e-13
-7.28630014830703e-14
7.32483943229269e-13
-4.30463495433499e-14
7.36846955117527e-13
-1.40037934947098e-14
7.40499500884485e-13
1.48731140502805e-14
7.43450560203524e-13
4.41353799433891e-14
7.45696947705501e-13
7.44292297605649e-14
7.47211907340149e-13
1.0635808414781e-13
7.47984644890992e-13
1.40613529050887e-13
7.4799563737687e-13
1.77933852185309e-13
7.47149825124861e-13
2.1921313531901e-13
7.45356951211646e-13
2.6537566792527e-13
7.42541896509543e-13
3.17576664671739e-13
7.38534657634833e-13
3.77175853839075e-13
7.33090574385707e-13
4.45851828149001e-13
7.25954378971542e-13
5.257076833897e-13
7.1668381675907e-13
6.19503350920135e-13
7.04712098447509e-13
7.30935480352751e-13
6.89129562241933e-13
8.65397769663288e-13
6.68353116014648e-13
1.03117520953076e-12
6.39506241335343e-13
1.24243257988095e-12
5.96734294420119e-13
1.52624383062556e-12
5.27072384624987e-13
1.93525192217881e-12
4.05190476335553e-13
2.57538825362443e-12
1.78739936719923e-13
3.62142072928648e-12
-2.19127220805364e-13
5.17004598609032e-12
-7.09200502236196e-13
7.37191556679564e-12
-1.34775206952266e-12
6.34460114612206e-12
1.86014689537431e-12
6.90403955072166e-12
-6.7289966549418e-12
1.40210049659985e-11
-1.07646692490236e-11
6.67182350999057e-12
-8.80727764026307e-12
-2.43315033521508e-12
-6.68076095138086e-12
-2.0275577767016e-12
-5.19103012036578e-12
-9.27678158905565e-13
-4.17077183063189e-12
-8.23272851507353e-14
-3.44109920110959e-12
4.23760415546675e-13
-2.89034687991233e-12
7.20239444490944e-13
-2.45595720775822e-12
9.07141332149383e-13
-2.10332406888816e-12
1.0355722814503e-12
-1.81112146781165e-12
1.13066890097006e-12
-1.56512475870549e-12
1.20493586172462e-12
-1.35529534565373e-12
1.26495800627244e-12
-1.17425978544698e-12
1.31476750946404e-12
-1.01656940448572e-12
1.35693657483544e-12
-8.77914272447429e-13
1.39302598916312e-12
-7.5495001370676e-13
1.4242057383015e-12
-6.44898361708355e-13
1.45130071291702e-12
-5.45514442133025e-13
1.47489621587153e-12
-4.54799232242414e-13
1.4954345816965e-12
-3.71065087892909e-13
1.51320897325706e-12
-2.92742033173782e-13
1.5284898553139e-12
-2.18467977242297e-13
1.54145834978157e-12
-1.46898379641813e-13
1.55222753903311e-12
-7.67979082430241e-14
1.56086091807396e-12
-6.8750912650767e-15
1.56738116995758e-12
6.4092108585248e-14
1.57179331065923e-12
1.37435125566044e-13
1.57403343104922e-12
2.14478865515372e-13
1.57404350989963e-12
2.96708834130267e-13
1.57171611087949e-12
3.85716074394321e-13
1.56680296351252e-12
4.83339643410916e-13
1.55903474422178e-12
5.91588535315335e-13
1.54812216134907e-12
7.12876222257962e-13
1.53355472747243e-12
8.50036441569791e-13
1.51462977812542e-12
1.00656925652816e-12
1.4904959500951e-12
1.18679263351128e-12
1.45988406146714e-12
1.39628264090563e-12
1.42107605426207e-12
1.64236964777176e-12
1.37144995338921e-12
1.93522309854566e-12
1.30670722776362e-12
2.28929956374448e-12
1.21968659890648e-12
2.72659548683863e-12
1.09699406293494e-12
3.28327602309498e-12
9.11469131957785e-13
4.02541449509111e-12
6.08405804734539e-13
5.06927989048138e-12
8.70861906490346e-14
6.59773744067588e-12
-7.82331655145299e-13
8.79501478443969e-12
-1.91994461154812e-12
1.09642462714151e-11
-2.51089617086318e-12
6.9840432880839e-12
6.79679046938735e-12
1.44838698300663e-11
-5.50619297468088e-12
2.01459343188808e-11
-8.48748634726212e-12
1.04345454792356e-11
-8.03920299086838e-12
-2.12806245177627e-12
-6.90412744733226e-12
-2.43782280736048e-12
-5.78639286371231e-12
-1.34164034770908e-12
-4.8478995317661e-12
-3.29163634920214e-13
-4.09732757803865e-12
3.59612587758556e-13
-3.49871349402315e-12
8.06753405504979e-13
-3.01309726572624e-12
1.10729277545021e-12
-2.61320957754778e-12
1.32316240031329e-12
-2.27915619141206e-12
1.48650904394312e-12
-1.99639656540186e-12
1.61510642378778e-12
-1.75420727985442e-12
1.71919400944615e-12
-1.54447420357199e-12
1.80534007574239e-12
-1.36104157463022e-12
1.8778863147649e-12
-1.19904192770646e-12
1.93962813566466e-12
-1.05463767660634e-12
1.99261567433653e-12
-9.2463055503782e-13
2.03831556436627e-12
-8.06405782723659e-13
2.07779092100144e-12
-6.97654822427705e-13
2.11182820024957e-12
-5.96423600726222e-13
2.14099193955286e-12
-5.00899721011286e-13
2.16574764094737e-12
-4.09490540898614e-13
2.18642344526717e-12
-3.2064080087013e-13
2.20323040477646e-12
-2.32916573102374e-13
2.21628889083066e-12
-1.44837393770003e-13
2.22563952324113e-12
-5.49923911302549e-14
2.23130108787062e-12
3.812398603851e-14
2.23318104132589e-12
1.36042224274214e-13
2.23114868121257e-12
2.40483594989985e-13
2.22497162473744e-12
3.53265569292547e-13
2.21426273780993e-12
4.76473149833688e-13
2.19854830670029e-12
6.12434471569962e-13
2.17725579893876e-12
7.6390194555565e-13
2.14950941781139e-12
9.34080971723704e-13
2.11411932989856e-12
1.12692583725161e-12
2.06955075400205e-12
1.34728623870555e-12
2.01363308157484e-12
1.60134239197979e-12
1.94341576888496e-12
1.89709923781177e-12
1.85449026912744e-12
2.2453243844338e-12
1.73989896517679e-12
2.66053198470417e-12
1.5887172463001e-12
3.16277259898644e-12
1.38199356590327e-12
3.77978388782386e-12
1.08489125864467e-12
4.55185669102371e-12
6.3090193509568e-13
5.51818103632309e-12
-7.70489134473465e-14
6.67667228604635e-12
-1.12224681106508e-12
7.90278763510418e-12
-2.29757908503366e-12
8.57690385748434e-12
-2.30569379396024e-12
5.65477504020664e-12
1.05634916570012e-11
2.06475263541062e-11
-6.63603069966008e-12
2.73242056369582e-11
-6.93992013302153e-12
1.13827970462523e-11
-6.91748128686513e-12
-1.56126332674172e-12
-6.37593862046123e-12
-2.42244696893192e-12
-5.56359718807215e-12
-1.61724047413222e-12
-4.7739842154213e-12
-5.93027849082821e-13
-4.10224732952122e-12
2.09175529651282e-13
-3.55139986676829e-12
7.76457279251715e-13
-3.09862432108215e-12
1.17608647613412e-12
-2.72304033740834e-12
1.47107605280987e-12
-2.40785502590508e-12
1.6973062425144e-12
-2.14018721859374e-12
1.87639950982144e-12
-1.91030997638906e-12
2.02162382035831e-12
-1.71071365304688e-12
2.14172059761159e-12
-1.53559862821679e-12
2.24258146297676e-12
-1.38034634086855e-12
2.32814394427863e-12
-1.24128580202871e-12
2.40127111723975e-12
-1.11534033755132e-12
2.46402881535595e-12
-9.99984131244139e-13
2.51793220756906e-12
-8.92991495571846e-13
2.56410389987339e-12
-7.92483152726225e-13
2.60337675488002e-12
-6.96707478258328e-13
2.63639369703975e-12
-6.041304346141e-13
2.66363225443869e-12
-5.1325309941309e-13
2.68539495642348e-12
-4.22705716775807e-13
2.70187185623192e-12
-3.31080702538472e-13
2.71312555675578e-12
-2.3703216722374e-13
2.71918421818162e-12
-1.39119855236876e-13
2.71992339873348e-12
-3.58733453618239e-14
2.71513693318965e-12
7.43485161896168e-14
2.70448385369996e-12
1.93281500941219e-13
2.68744249429623e-12
3.22920910180023e-13
2.66333862019445e-12
4.6549517098328e-13
2.63132950738318e-12
6.23634786326263e-13
2.59019189501051e-12
8.00387449860298e-13
2.53828697096552e-12
9.99483457141255e-13
2.47345794384262e-12
1.22547941289227e-12
2.39270026162437e-12
1.48411240923331e-12
2.29197159054164e-12
1.78271336830423e-12
2.16529679004711e-12
2.13092781716987e-12
2.0034859399393e-12
2.54133194635602e-12
1.79264210666981e-12
3.03026342643767e-12
1.51000007171711e-12
3.61760478071686e-12
1.11717350997229e-12
4.32465772740694e-12
5.47025250848565e-13
5.14900408302261e-12
-2.709791408361e-13
6.0062381562655e-12
-1.33191347492905e-12
6.65996836952403e-12
-2.27005612047908e-12
6.89462612376533e-12
-1.82085053326045e-12
6.66595307878022e-12
1.14928109560821e-11
2.77263696858559e-11
-5.47908394686507e-12
3.32238589910548e-11
-6.1864197477263e-12
1.25546454881174e-11
-6.32712265240099e-12
-1.01896428251057e-12
-5.87877981234121e-12
-2.49613644241552e-12
-5.19372238197157e-12
-1.94313906514048e-12
-4.51636933299019e-12
-9.19725363442971e-13
-3.93062715239166e-12
-2.91541308585657e-14
-3.44287015994755e-12
6.36011247722849e-13
-3.03758119904769e-12
1.11951780405977e-12
-2.69856854792472e-12
1.48293383243335e-12
-2.41228610799604e-12
1.76446150881408e-12
-2.16798734020153e-12
1.98848434949553e-12
-1.95736423713306e-12
2.17061588325449e-12
-1.77384290530925e-12
2.32131476742094e-12
-1.6122561405041e-12
2.44774528940936e-12
-1.46842730559602e-12
2.55481044334296e-12
-1.3390112560482e-12
2.64608184219696e-12
-1.22116918303014e-12
2.72413940966154e-12
-1.11256750163611e-12
2.79091041336257e-12
-1.01113834402305e-12
2.84781786705793e-12
-9.15132582416329e-13
2.89593845888757e-12
-8.22926419935334e-13
2.93608792643997e-12
-7.33091135500692e-13
2.96887382769693e-12
-6.44236299483495e-13
2.99469087647935e-12
-5.55085418973506e-13
3.01378586435093e-12
-4.64347644752343e-13
3.02626414647795e-12
-3.70766811685804e-13
3.03213900355578e-12
-2.73014177306818e-13
3.03127258226815e-12
-1.69723356507862e-13
3.02337793763738e-12
-5.93782818828968e-14
3.00802410805977e-12
5.96319254867841e-14
2.98455561787724e-12
1.89149028565952e-13
2.95212502319449e-12
3.3122638716248e-13
2.9096413653834e-12
4.88279885622096e-13
2.85557202710832e-12
6.63092271064607e-13
2.78788006965731e-12
8.59036262378715e-13
2.70387525779153e-12
1.080190344023e-12
2.59983671541789e-12
1.33160475782689e-12
2.47082829726775e-12
1.61961566204969e-12
2.30960201010399e-12
1.95233449416413e-12
2.10524995372554e-12
2.33999293142035e-12
1.84168385367788e-12
2.79523229585966e-12
1.49363550599077e-12
3.33230388778938e-12
1.02105261805136e-12
3.96352265392001e-12
3.59447693621766e-13
4.6812959487078e-12
-5.39039340826304e-13
5.41485823091274e-12
-1.59984094670334e-12
5.99033176028524e-12
-2.346854243252e-12
6.0643028835126e-12
-1.35762300326029e-12
5.47035852614363e-12
1.26157088093433e-11
3.3497072147193e-11
-3.81649630043499e-12
3.73241376990195e-11
-5.52436765305293e-12
1.45426530575168e-11
-5.80690850043089e-12
-5.10822189764657e-13
-5.40108504522796e-12
-2.69438509442524e-12
-4.82098031630413e-12
-2.32564482469148e-12
-4.24750381665168e-12
-1.30130192088802e-12
-3.74275303722274e-12
-3.43973097178802e-13
-3.3133441198153e-12
3.97046887621285e-13
-2.95046406470834e-12
9.48835374649099e-13
-2.64288449440428e-12
1.369900062582e-12
-2.38054332340933e-12
1.69932191322612e-12
-2.154974558307e-12
1.96306137134092e-12
-1.95935013146642e-12
2.17830127088073e-12
-1.78807174524648e-12
2.35673422482383e-12
-1.63662526604231e-12
2.50649558804025e-12
-1.50128030807333e-12
2.63325818193818e-12
-1.3789999558614e-12
2.74117453628596e-12
-1.26718022346818e-12
2.83326770215893e-12
-1.16365998453363e-12
2.91181790538523e-12
-1.06651201838389e-12
2.97851633337743e-12
-9.74099565123745e-13
3.03465719208865e-12
-8.84899070135145e-13
3.08121531431031e-12
-7.9756088246608e-13
3.11890901902333e-12
-7.10782542747155e-13
3.14823242691127e-12
-6.23357847841255e-13
3.16947310252206e-12
-5.34075534571335e-13
3.18278647639919e-12
-4.41752886891145e-13
3.18816638750869e-12
-3.45135438279681e-13
3.18546058190656e-12
-2.42944555348513e-13
3.17431602995767e-12
-1.33755060117092e-13
3.15421274545829e-12
-1.60579836305336e-14
3.12437453532603e-12
1.11861724276777e-13
3.08380274561012e-12
2.51904609697799e-13
3.03118674585214e-12
4.06303120285822e-13
2.96471280148296e-12
5.77591947402015e-13
2.88201128645112e-12
7.68807651970317e-13
2.77994314071886e-12
9.83558765907677e-13
2.65420167763454e-12
1.22621691976792e-12
2.49915373944164e-12
1.50210936448857e-12
2.30659412550806e-12
1.81777665941027e-12
2.06443238932612e-12
2.18103859018373e-12
1.75519865811997e-12
2.6008151057475e-12
1.35239235712451e-12
3.08602319815396e-12
8.15855493742617e-13
3.64185330444484e-12
8.54306718096576e-14
4.26013319863826e-12
-8.70829451120873e-13
4.89324377007997e-12
-1.93272846344157e-12
5.43085193872357e-12
-2.55435011952051e-12
5.36858693025348e-12
-9.2937028451393e-13
3.79242769753726e-12
1.45543428554581e-11
3.74877864725087e-11
-2.61928284785071e-12
4.00845723186041e-11
-4.76389087615244e-12
1.67853767404016e-11
-5.16532482638499e-12
-4.90990049565301e-14
-4.89101089973491e-12
-2.91510112024933e-12
-4.44313624841005e-12
-2.72369091232428e-12
-3.97795476933053e-12
-1.7194156164284e-12
-3.55176560339184e-12
-7.23793231499683e-13
-3.1770289872565e-12
6.97606093259188e-14
-2.85264560657057e-12
6.73955985451108e-13
-2.5727398235978e-12
1.14202139134947e-12
-2.33082515969124e-12
1.51217642223205e-12
-2.12075832994609e-12
1.81072115930583e-12
-1.93719810615646e-12
2.05558830757236e-12
-1.77552642648713e-12
2.25921590303992e-12
-1.63187985592275e-12
2.43039761683494e-12
-1.5029752839035e-12
2.57538311757317e-12
-1.38607259020518e-12
2.69876314451611e-12
-1.27879620150921e-12
2.80393805544802e-12
-1.1791389141373e-12
2.89347055790942e-12
-1.08530500469472e-12
2.96929620482063e-12
-9.95749512764315e-13
3.03288874738766e-12
-9.09033505838151e-13
3.08537399689966e-12
-8.2387700907375e-13
3.1275671243954e-12
-7.39036002306174e-13
3.16004929549447e-12
-6.5336872111858e-13
3.18315599558757e-12
-5.65714752650757e-13
3.19707779432956e-12
-4.74957769394228e-13
3.2018059134758e-12
-3.79888832753696e-13
3.19715106017945e-12
-2.79302273216237e-13
3.1827227671255e-12
-1.71844504948855e-13
3.15790942898825e-12
-5.60944377982415e-14
3.12183136595738e-12
6.9558626975282e-14
3.07335419578479e-12
2.06884687017077e-13
3.01097435525622e-12
3.57943916610105e-13
2.93263819060608e-12
5.25041769696323e-13
2.83570092686857e-12
7.10897990373763e-13
2.71665916846465e-12
9.18661136199302e-13
2.57075975806156e-12
1.15204547723693e-12
2.39186007554167e-12
1.41537816298468e-12
2.17112309358133e-12
1.71365784515691e-12
1.89579115277815e-12
2.05232797998865e-12
1.54781565085379e-12
2.43666279539656e-12
1.10069525345509e-12
2.87024548915426e-12
5.15807043248939e-13
3.35093076349635e-12
-2.60787395891053e-13
3.86526316115995e-12
-1.24748615572657e-12
4.37166346358888e-12
-2.29039230899879e-12
4.77384286957805e-12
-2.7826956823299e-12
4.58835871911052e-12
-5.40592326895866e-13
2.57574126960254e-12
1.67688578824556e-11
4.01626432899422e-11
-1.8966659460874e-12
4.19952698683823e-11
-3.99191551457995e-12
1.8825343275214e-11
-4.47721750804736e-12
3.63637797428028e-13
-4.36956551459374e-12
-3.09172457579741e-12
-4.06021647967419e-12
-3.10051013258638e-12
-3.70068616322143e-12
-2.1466277395369e-12
-3.34969313212126e-12
-1.1420641593126e-12
-3.0274069891655e-12
-3.18250380358227e-13
-2.73997047967434e-12
3.23083955816912e-13
-2.48657448425291e-12
8.27853505818774e-13
-2.26411737450609e-12
1.23177030416275e-12
-2.0686882939905e-12
1.56033024598251e-12
-1.89640976880989e-12
1.8314571506669e-12
-1.74364027533335e-12
2.05785892044578e-12
-1.60717324808089e-12
2.24867974122947e-12
-1.48417170415241e-12
2.41054331682581e-12
-1.37220857768838e-12
2.54835270328711e-12
-1.26913449819609e-12
2.6658005143648e-12
-1.17310261010447e-12
2.76566770984458e-12
-1.08244360456009e-12
2.85010053697797e-12
-9.95707782902541e-13
2.92072196457801e-12
-9.11533932177489e-13
2.97879014734044e-12
-8.28710459152391e-13
3.02520896498521e-12
-7.46047707313409e-13
3.06063141469593e-12
-6.62465758196687e-13
3.08544892956413e-12
-5.76846842879923e-13
3.09986779552073e-12
-4.881303923656e-13
3.10388974134533e-12
-3.95162623316868e-13
3.0972872946683e-12
-2.96794991032885e-13
3.0796351025934e-12
-1.91746449644394e-13
3.05024447690711e-12
-7.86753075850062e-14
3.00813954235278e-12
4.39240703393597e-14
2.95207580945592e-12
1.77696305938968e-13
2.88037783321756e-12
3.24529493158545e-13
2.7907980845071e-12
4.86500997513828e-13
2.68047320607284e-12
6.66015193718522e-13
2.54562077309787e-12
8.65761142711675e-13
2.38118197602223e-12
1.08880433969548e-12
2.18068380837374e-12
1.33848855791095e-12
1.93497673942583e-12
1.61833157967471e-12
1.6311090399437e-12
1.93153747589707e-12
1.25118300723362e-12
2.28003612997287e-12
7.69774671526603e-13
2.66257702293423e-12
1.51256344084501e-13
3.07044304458628e-12
-6.50441783191928e-13
3.48325836702842e-12
-1.6401472819061e-12
3.85614256830698e-12
-2.63480428099587e-12
4.08283063440259e-12
-2.96128969339697e-12
3.79838369827471e-12
-1.85078049205649e-13
1.83159143550167e-12
1.8804726625962e-11
4.20159257215545e-11
-1.45769288549543e-12
4.3358626653549e-11
-3.30321756442806e-12
2.04900738250709e-11
-3.83501299018361e-12
7.17013073824188e-13
-3.87065707113819e-12
-3.22163662816464e-12
-3.68395474958942e-12
-3.44665050066142e-12
-3.41946341556329e-12
-2.5685844959371e-12
-3.13792686351853e-12
-1.57972920264857e-12
-2.86551862903032e-12
-7.44853660524262e-13
-2.61401143038292e-12
-8.01513168669928e-14
-2.38685227988512e-12
4.51732389780927e-13
-2.18389670049764e-12
8.82736112030393e-13
-2.00326857851482e-12
1.23663368360158e-12
-1.8424697312238e-12
1.53068966703799e-12
-1.69880307526994e-12
1.77745402599391e-12
-1.56971284645144e-12
1.98613744049717e-12
-1.45280957985881e-12
2.16354109896486e-12
-1.34598653584779e-12
2.31475821438641e-12
-1.24732066094238e-12
2.44368252040395e-12
-1.155139833565e-12
2.55326323523735e-12
-1.06789995026566e-12
2.64580795357773e-12
-9.84256372339882e-13
2.72306878526913e-12
-9.02926975617462e-13
2.78641030400763e-12
-8.2276996997201e-13
2.83681594426961e-12
-7.42655032065732e-13
2.87499967061128e-12
-6.61558110444605e-13
2.90140563603673e-12
-5.7841753032252e-13
2.91625585311418e-12
-4.92221291939999e-13
2.91955491020016e-12
-4.01878408783089e-13
2.91105164738202e-12
-3.06295812684082e-13
2.89027786883718e-12
-2.04267449258492e-13
2.85648777198047e-12
-9.45369445093589e-14
2.80861984971658e-12
2.42981214741407e-14
2.74533646376944e-12
1.53753120856174e-13
2.66481786303037e-12
2.95536793830199e-13
2.56467248537019e-12
4.51495882780239e-13
2.44187003020626e-12
6.23717500130301e-13
2.29243469864137e-12
8.14436300750715e-13
2.11113552334893e-12
1.02607985615435e-12
1.89134465590814e-12
1.26105683789433e-12
1.62388356829456e-12
1.52151109324885e-12
1.29602363952771e-12
1.80864405350257e-12
8.90623239720787e-13
2.12151850405854e-12
3.84180051209261e-13
2.45493502351926e-12
-2.54872436667064e-13
2.79519487082071e-12
-1.06377908386871e-12
3.11653576269799e-12
-2.03374885139148e-12
3.37033905557087e-12
-2.95521930870602e-12
3.44358161750521e-12
-3.08729976152911e-12
3.0918074327375e-12
1.28828706759023e-13
1.37344619614735e-12
2.04825369534824e-11
4.33462113630023e-11
-1.16954019425847e-12
4.43543734139917e-11
-2.73255309021157e-12
2.17861042763614e-11
-3.27826228138133e-12
1.01463379615508e-12
-3.41422112921124e-12
-3.31430698590217e-12
-3.32566287216548e-12
-3.75451123041999e-12
-3.1417815359193e-12
-2.96819009934301e-12
-2.92216372260734e-12
-2.01302541744772e-12
-2.69614303624586e-12
-1.18233665262284e-12
-2.47917614987658e-12
-5.05992186991604e-13
-2.27791946850095e-12
4.44385905053226e-14
-2.09463230920635e-12
4.96343842424729e-13
-1.92919117423239e-12
8.7112535182682e-13
-1.78033667131548e-12
1.1848748091372e-12
-1.64625002694531e-12
1.44962679999864e-12
-1.52499778617584e-12
1.6744080106103e-12
-1.4146304888677e-12
1.86601979251761e-12
-1.31335967410543e-12
2.0296279829808e-12
-1.21949280779507e-12
2.16924105529688e-12
-1.13153583920279e-12
2.28792574445628e-12
-1.04807440644958e-12
2.38810206030731e-12
-9.6786991970846e-13
2.47162872434234e-12
-8.89728559749601e-13
2.53995816142841e-12
-8.12582672561029e-13
2.59413921977368e-12
-7.35370650030684e-13
2.63494097182749e-12
-6.57122366887844e-13
2.66284626257411e-12
-5.76836426981454e-13
2.67809824274168e-12
-4.93553604978971e-13
2.68069726643111e-12
-4.06246826732019e-13
2.67037932359335e-12
-3.13887771412939e-13
2.64663502352723e-12
-2.15344806426813e-13
2.60866979389419e-12
-1.09455019281915e-13
2.5553563546758e-12
5.0779770919993e-15
2.48527677645464e-12
1.2963099657017e-13
2.39649989483855e-12
2.65737701968756e-13
2.28652665672036e-12
4.15012985519292e-13
2.15221777403106e-12
5.79222639070739e-13
1.98949185238523e-12
7.60167288782107e-13
1.79305690892023e-12
9.59670724209756e-13
1.55629316798516e-12
1.17927427922018e-12
1.27024559332846e-12
1.41990143964251e-12
9.22745815095087e-13
1.68105316988795e-12
4.97872399448256e-13
1.95950491195189e-12
-2.53774938115866e-14
2.24713160027991e-12
-6.73873722769757e-13
2.52706801818774e-12
-1.47585341067075e-12
2.7707402760856e-12
-2.40960651604462e-12
2.92855014999184e-12
-3.24202752393896e-12
2.89214083662495e-12
-3.17159492141531e-12
2.50504418763775e-12
4.0343300484503e-13
1.0692969276299e-12
2.18014680814461e-11
4.43304481028394e-11
-9.64370451691186e-13
4.50909170726964e-11
-2.27419055804716e-12
2.27742197381372e-11
-2.80986362605093e-12
1.25959138806275e-12
-3.00664920055244e-12
-3.38412531816093e-12
-2.99173354208663e-12
-4.02443365188882e-12
-2.87349508185727e-12
-3.33670546768945e-12
-2.70746713233257e-12
-2.42676882528226e-12
-2.52357104838622e-12
-1.61153773415348e-12
-2.33917761330492e-12
-9.3303261461335e-13
-2.16310034167188e-12
-3.71414978498544e-13
-1.9994150329582e-12
9.58359519780815e-14
-1.84941840361554e-12
4.87353404448893e-13
-1.7129181750997e-12
8.17700664141014e-13
-1.58887976986249e-12
1.0981137415833e-12
-1.47594336753761e-12
1.33722927803753e-12
-1.37257392440682e-12
1.54169306276315e-12
-1.27729593163925e-12
1.71664570392862e-12
-1.18863931112488e-12
1.8661214440127e-12
-1.10528993163142e-12
1.99326387335926e-12
-1.02596953171061e-12
2.10056098276475e-12
-9.49549972594692e-13
2.18995341491248e-12
-8.74928284178641e-13
2.26296080581009e-12
-8.01114065894586e-13
2.32068504249623e-12
-7.27115266780373e-13
2.36394117174213e-12
-6.52025016137424e-13
2.39324561812101e-12
-5.74903519835205e-13
2.40885980984956e-12
-4.94854298848755e-13
2.41078246784004e-12
-4.10914032298209e-13
2.39873593906747e-12
-3.22125103376499e-13
2.37217775796728e-12
-2.27433938405273e-13
2.33027111624367e-12
-1.25775281352381e-13
2.27184375679203e-12
-1.59597861207215e-14
2.19540603478022e-12
1.032514316508e-13
2.09894745639184e-12
2.33211176859972e-13
1.97990442126586e-12
3.7530581394776e-13
1.83507685534568e-12
5.30993829660671e-13
1.66035653660723e-12
7.01664639283371e-13
1.45049266601842e-12
8.88589345512207e-13
1.19901003512187e-12
1.0925431381374e-12
8.97383261631941e-13
1.31340847512891e-12
5.34268058951219e-13
1.54931794668143e-12
9.52828884468629e-14
1.79535496676512e-12
-4.37752453740093e-13
2.04147233742428e-12
-1.08677660662979e-12
2.26927640365735e-12
-1.87147082316216e-12
2.44968910065335e-12
-2.75858538627025e-12
2.53495495644739e-12
-3.49485537389689e-12
2.43006259656714e-12
-3.23109678600575e-12
2.03351157498568e-12
6.36766097685388e-13
8.51167171330885e-13
2.28152018060954e-11
4.50674715490476e-11
-8.0946105031332e-13
4.56447794583824e-11
-1.90833790367288e-12
2.35285923337345e-11
-2.41840039378691e-12
1.46377216650961e-12
-2.64672614057505e-12
-3.43534826642956e-12
-2.68440333585549e-12
-4.25361514526253e-12
-2.61802794544729e-12
-3.66454902908302e-12
-2.49727139020991e-12
-2.80610474061598e-12
-2.35081792026423e-12
-2.01403968904167e-12
-2.196554038557e-12
-1.34065249137423e-12
-2.0445211570069e-12
-7.73919247845119e-13
-1.90005374075569e-12
-2.96135324089409e-13
-1.76553205291613e-12
1.08386744122891e-13
-1.64163358314184e-12
4.52463502606197e-13
-1.52799679017807e-12
7.46333316118327e-13
-1.42377168497072e-12
9.98081421371506e-13
-1.32780497375425e-12
1.21407168783235e-12
-1.23891146110826e-12
1.3993308950626e-12
-1.15584198460011e-12
1.55785011737997e-12
-1.07745793234028e-12
1.69280615826764e-12
-1.00261569565146e-12
1.80671398799532e-12
-9.30298444173569e-13
1.90157300380878e-12
-8.59494108767768e-13
1.97894905568075e-12
-7.89300483061613e-13
2.03999469087335e-12
-7.18793742813019e-13
2.08555077709116e-12
-6.47137485401563e-13
2.11616960800622e-12
-5.73455722607669e-13
2.1321237739283e-12
-4.96916630677257e-13
2.13341175799611e-12
-4.16626850969667e-13
2.11974680601276e-12
-3.31700999157836e-13
2.09055634923937e-12
-2.41167682024825e-13
2.04497109962597e-12
-1.44059478393555e-13
1.98178921057023e-12
-3.93019391842758e-14
1.89946680179459e-12
7.42068350798422e-14
1.79593685615682e-12
1.97646777739991e-13
1.66860734184107e-12
3.32186487317008e-13
1.51426293736605e-12
4.78990918538737e-13
1.3288445509919e-12
6.39074158916676e-13
1.10722325745462e-12
8.13217904727716e-13
8.4317987553557e-13
1.00154903982002e-12
5.28773016626023e-13
1.20309809240605e-12
1.53681875524868e-13
1.41496817834777e-12
-2.94757354486448e-13
1.63110389185792e-12
-8.31782868045314e-13
1.84042314556477e-12
-1.47449574845437e-12
2.02428589439176e-12
-2.23486490577307e-12
2.15478617792437e-12
-3.0698470431505e-12
2.18796923870685e-12
-3.70964122930658e-12
2.04563087581212e-12
-3.27156333203949e-12
1.65845490931468e-12
8.37218543067607e-13
6.86342794442889e-13
2.35937301756079e-11
4.56282125507462e-11
-6.87718585922718e-13
4.60682210961549e-11
-1.61440012509791e-12
2.41093126322639e-11
-2.08986072930598e-12
1.63555952889317e-12
-2.32996580757094e-12
-3.47186508569958e-12
-2.40337087796434e-12
-4.44374305563344e-12
-2.37694284406514e-12
-3.94880015322307e-12
-2.2936683757026e-12
-3.14413564208114e-12
-2.17989522608221e-12
-2.37998433062644e-12
-2.05303110835682e-12
-1.71699961361525e-12
-1.92359826482705e-12
-1.14996562180238e-12
-1.79768899421488e-12
-6.65702015626996e-13
-1.67844497110023e-12
-2.51465820752899e-13
-1.56721905236176e-12
1.0372121640475e-13
-1.46420089512713e-12
4.08972626262267e-13
-1.36897551930681e-12
6.71706264571747e-13
-1.28073536382074e-12
8.97916225741099e-13
-1.19855841770363e-12
1.09243514621849e-12
-1.12140627439162e-12
1.25915998097075e-12
-1.04830064940829e-12
1.40125108316702e-12
-9.78235142372982e-13
1.52122720598276e-12
-9.10306440294209e-13
1.62112412828903e-12
-8.43596313898829e-13
1.70253270164809e-12
-7.77284302741428e-13
1.76664533346711e-12
-7.10524420846598e-13
1.81432370853825e-12
-6.42551037866757e-13
1.84614958839506e-12
-5.72557979619928e-13
1.86240523595499e-12
-4.99778551204921e-13
1.86308454569168e-12
-4.23393375750567e-13
1.84790026702084e-12
-3.42592158683252e-13
1.81625102586418e-12
-2.56489966481678e-13
1.76724588241321e-12
-1.64216643250385e-13
1.69966512582017e-12
-6.48105301057378e-14
1.61192554910707e-12
4.26978139386948e-14
1.50192399385364e-12
1.59317735623666e-13
1.36707843449814e-12
2.86012000829861e-13
1.20419519327212e-12
4.23680580874625e-13
1.00932190404326e-12
5.73003539744563e-13
7.77522034624602e-13
7.34342152848443e-13
5.02916239879096e-13
9.07297817914273e-13
1.782519683777e-13
1.09024459528396e-12
-2.0563731974189e-13
1.2795754601826e-12
-6.59635267659646e-13
1.46857728058247e-12
-1.19607385313948e-12
1.64585182509547e-12
-1.82754402957883e-12
1.79343113413938e-12
-2.55934634709711e-12
1.8856107988402e-12
-3.34047992278429e-12
1.88334643477623e-12
-3.88811332245144e-12
1.72496632442708e-12
-3.29865667289415e-12
1.3596208838241e-12
1.00840213484461e-12
5.58224723081713e-13
2.41932694548432e-11
4.60574887247311e-11
-5.89158884792852e-13
4.64002929805566e-11
-1.37519113259868e-12
2.45655775839757e-11
-1.81159754733938e-12
1.78505257617472e-12
-2.05086262851527e-12
-3.49323252103197e-12
-2.14701532395173e-12
-4.59544636031915e-12
-2.15058219836789e-12
-4.18736662761756e-12
-2.09779822056085e-12
-3.43592893223916e-12
-2.01212483806844e-12
-2.70207062363954e-12
-1.90983375755202e-12
-2.0530346226964e-12
-1.80136309022209e-12
-1.48933206767006e-12
-1.69314609194285e-12
-1.00187030540777e-12
-1.58880281627058e-12
-5.80715867315566e-13
-1.49016980315267e-12
-2.16729683021786e-13
-1.39786630603578e-12
9.80183185786057e-14
-1.31183954626076e-12
3.70210333569572e-13
-1.23157378448398e-12
6.05400395448335e-13
-1.15638209055753e-12
8.08172407181343e-13
-1.08542449026826e-12
9.82292246779881e-13
-1.01787072145043e-12
1.1308552256484e-12
-9.52851077395584e-13
1.25637188250587e-12
-8.89565999172938e-13
1.36088180669661e-12
-8.27197729628146e-13
1.44599768951233e-12
-7.65006098093824e-13
1.51293152682926e-12
-7.02228384959685e-13
1.56256817403595e-12
-6.38167727202993e-13
1.59550493909066e-12
-5.72089987561244e-13
1.61203659864018e-12
-5.03299959247894e-13
1.61215218932424e-12
-4.31051510599593e-13
1.59556534392438e-12
-3.54614197604584e-13
1.56165286016788e-12
-2.73188310315207e-13
1.50950683772565e-12
-1.86000947110567e-13
1.43790252488843e-12
-9.22035087548994e-14
1.34523292182726e-12
9.04592367947857e-15
1.22937381788619e-12
1.1859892403535e-13
1.08778349950044e-12
2.37227905824799e-13
9.17323029670133e-13
3.65598164005023e-13
7.1419209049013e-13
5.04099898771553e-13
4.73701651623221e-13
6.52747588585998e-13
1.90369135652715e-13
8.10733155154146e-13
-1.42305293922664e-13
9.75970737378998e-13
-5.32277889830934e-13
1.14442162193575e-12
-9.88666089991971e-13
1.3091143572721e-12
-1.52104493570363e-12
1.45888400221294e-12
-2.13796941841854e-12
1.57703208592542e-12
-2.83915881108557e-12
1.6405936650286e-12