/*--------------------------------*- C++ -*----------------------------------*\
  =========                 |
  \\      /  F ield         | OpenFOAM: The Open Source CFD Toolbox
   \\    /   O peration     | Website:  https://openfoam.org
    \\  /    A nd           | Version:  10
     \\/     M anipulation  |
\*---------------------------------------------------------------------------*/
FoamFile
{
    format      ascii;
    class       volScalarField;
    location    "2.2";
    object      rho;
}
// * * * * * * * * * * * * * * * * * * * * * * * * * * * * * * * * * * * * * //

dimensions      [1 -3 0 0 0 0 0];

internalField   nonuniform List<scalar> 
2500
(
1.14172742889732
1.14193826942122
1.14204156447307
1.14207221133105
1.14208036896608
1.14208250758012
1.14208305321824
1.14208319159048
1.14208323071311
1.14208324190675
1.14208325082671
1.14208325632045
1.14208325962168
1.14208326380177
1.14208326770063
1.14208327204364
1.14208327429284
1.14208327708932
1.14208328026159
1.14208328253102
1.14208328482207
1.1420832874116
1.14208328976582
1.14208329036938
1.1420832910616
1.14208329255169
1.14208329282729
1.1420832932345
1.14208329393316
1.14208329332958
1.14208329267721
1.14208329233753
1.14208329103375
1.14208328920333
1.14208328752041
1.14208328592716
1.1420832841447
1.14208328262387
1.14208327941253
1.14208327606912
1.14208327061236
1.14208325733929
1.1420832133294
1.14208305025014
1.14208243187507
1.14208017842803
1.14207194346413
1.14204136459049
1.14193655489699
1.14172767562127
1.15026776841329
1.15073939389433
1.15103739591317
1.15114231095414
1.1511756440104
1.15118570065347
1.15118853865014
1.15118928063196
1.15118946188064
1.15118950333601
1.15118951464433
1.15118951824717
1.15118951936328
1.15118952076145
1.15118952207619
1.15118952350793
1.15118952431251
1.15118952530262
1.15118952642242
1.15118952737993
1.15118952881742
1.15118953090782
1.15118953301615
1.15118953322435
1.15118953327021
1.15118953430589
1.15118953409984
1.15118953413645
1.15118953486086
1.15118953395233
1.15118953366125
1.15118953449988
1.15118953269307
1.15118953003963
1.15118952894103
1.15118952840323
1.1511895278741
1.15118952737553
1.15118952588669
1.15118952243318
1.15118950852584
1.15118945118925
1.15118922261495
1.151188354822
1.15118526019854
1.15117490343152
1.15114171127834
1.15103752254004
1.15073387913397
1.15025853002924
1.15622904719378
1.1566691687834
1.15695182805367
1.15705485670233
1.15708788113999
1.157097933987
1.15710080927408
1.15710157213595
1.1571017596619
1.1571018022457
1.157101812829
1.15710181535523
1.15710181491984
1.15710181507375
1.15710181514181
1.15710181499457
1.15710181486311
1.15710181498013
1.15710181521241
1.1571018154319
1.15710181605179
1.15710181708878
1.15710181830424
1.15710181864464
1.15710181844539
1.15710181871038
1.15710181872494
1.15710181854024
1.15710181855751
1.1571018181492
1.15710181818441
1.15710181890026
1.15710181772791
1.15710181576559
1.15710181543832
1.15710181562316
1.15710181563651
1.15710181570579
1.15710181509174
1.15710181295233
1.15710180025504
1.15710174393393
1.15710151876987
1.157100663056
1.15709761548364
1.15708740863393
1.15705460549609
1.15695179196575
1.15666248536863
1.1562053011864
1.15945079898197
1.15972857585365
1.15988336512619
1.15993976964574
1.15995716604442
1.15996229136036
1.15996373616162
1.1599641196117
1.15996421448108
1.15996423598657
1.15996424133681
1.15996424234145
1.15996424165523
1.15996424147505
1.1599642413502
1.15996424124616
1.15996424119
1.15996424114253
1.15996424113249
1.15996424105387
1.1599642411074
1.15996424148666
1.1599642420782
1.15996424230323
1.159964242105
1.1599642421303
1.15996424217524
1.15996424198824
1.15996424184917
1.15996424170192
1.15996424174798
1.15996424211776
1.15996424156593
1.15996424060068
1.15996424052204
1.15996424067699
1.15996424072979
1.15996424085119
1.15996424080827
1.15996424037221
1.15996423499976
1.15996420896854
1.15996410337618
1.15996369605283
1.15996221358429
1.15995708210854
1.15993979962018
1.15988307364524
1.15972364625833
1.1594272373752
1.16089916760447
1.16103685678746
1.1611025823587
1.16112678531525
1.16113409503314
1.16113620041167
1.16113678832415
1.16113694502195
1.16113698420558
1.16113699311232
1.16113699533983
1.161136995697
1.16113699529818
1.16113699512009
1.1611369950178
1.16113699496583
1.16113699488745
1.16113699479478
1.16113699476012
1.16113699475172
1.16113699474737
1.16113699483122
1.16113699507666
1.16113699515552
1.16113699506677
1.16113699506701
1.16113699505997
1.16113699495404
1.16113699486266
1.16113699481047
1.16113699483295
1.16113699497755
1.16113699476487
1.16113699439883
1.16113699439743
1.16113699447576
1.16113699451588
1.16113699461121
1.1611369946709
1.16113699461126
1.16113699275609
1.16113698287838
1.16113694215323
1.16113678400702
1.16113620046364
1.16113413016804
1.16112690854695
1.16110249438786
1.16103427025927
1.16088369326083
1.16146578795777
1.16152342309439
1.16154712623594
1.1615560001264
1.16155866135248
1.16155941728929
1.1615596270411
1.16155968322201
1.16155969742321
1.16155970066814
1.16155970147806
1.16155970158836
1.16155970141406
1.16155970131981
1.16155970126658
1.16155970124077
1.16155970120071
1.16155970115491
1.16155970113278
1.1615597011316
1.16155970111954
1.16155970115206
1.16155970122169
1.16155970121669
1.16155970119859
1.16155970120273
1.16155970119478
1.16155970115183
1.16155970111297
1.16155970109088
1.16155970110043
1.16155970115017
1.16155970107964
1.16155970097129
1.16155970097587
1.16155970100119
1.16155970102847
1.16155970108143
1.16155970113082
1.16155970113742
1.16155970055458
1.16155969720514
1.16155968322558
1.1615596288805
1.1615594269882
1.16155869864441
1.16155609646403
1.16154715149
1.16152234796628
1.16145787007591
1.16166459736046
1.16168585295888
1.16169349148447
1.16169639893972
1.16169727298175
1.16169751955929
1.16169758767778
1.1616976059959
1.16169761067071
1.16169761176075
1.16169761201143
1.16169761202422
1.16169761197355
1.16169761193567
1.16169761191325
1.16169761190013
1.16169761188557
1.16169761187189
1.16169761186286
1.16169761186269
1.1616976118573
1.16169761186868
1.16169761188539
1.1616976118793
1.16169761187618
1.16169761187413
1.16169761187033
1.16169761186036
1.16169761184799
1.16169761183848
1.16169761184233
1.16169761185819
1.1616976118382
1.16169761181098
1.16169761181417
1.16169761182316
1.16169761183639
1.16169761186004
1.16169761188534
1.1616976118946
1.16169761171996
1.16169761066999
1.16169760624719
1.16169758909426
1.16169752527383
1.16169729270708
1.16169644940011
1.16169352758625
1.16168547769781
1.16166118950502
1.16172848521647
1.16173558364114
1.16173785446089
1.1617387293458
1.16173899451126
1.16173906920944
1.16173908978454
1.1617390953316
1.1617390967587
1.16173909709634
1.16173909716777
1.16173909716829
1.16173909715393
1.16173909714139
1.16173909713319
1.16173909712877
1.16173909712569
1.16173909712271
1.16173909712038
1.16173909712114
1.16173909712001
1.16173909712396
1.16173909712821
1.16173909712545
1.16173909712495
1.16173909712507
1.16173909712545
1.16173909712448
1.16173909712138
1.16173909711833
1.16173909712005
1.16173909712511
1.16173909712079
1.16173909711559
1.16173909711786
1.1617390971214
1.16173909712676
1.16173909713597
1.16173909714632
1.16173909715125
1.16173909710029
1.16173909679018
1.16173909547698
1.16173909040406
1.16173907156757
1.16173900259414
1.16173875054433
1.1617378752557
1.16173547019982
1.1617271962434
1.16174756924735
1.16174975691777
1.16175039283975
1.16175063910499
1.16175071457571
1.1617507358926
1.16175074175475
1.16175074333735
1.16175074374752
1.16175074384568
1.1617507438657
1.16175074386616
1.16175074386294
1.16175074385995
1.16175074385811
1.16175074385767
1.1617507438579
1.16175074385814
1.16175074385827
1.16175074385947
1.16175074386077
1.1617507438625
1.16175074386381
1.16175074386407
1.161750743865
1.161750743866
1.16175074386699
1.16175074386784
1.16175074386801
1.16175074386788
1.16175074386914
1.16175074387125
1.16175074387115
1.16175074387105
1.16175074387259
1.16175074387429
1.16175074387647
1.16175074387981
1.1617507438835
1.1617507438854
1.16175074387116
1.16175074378434
1.16175074341433
1.16175074199162
1.16175073673101
1.16175071745115
1.16175064682126
1.16175040178714
1.16174972685092
1.16174712865783
1.16175291942165
1.16175355024114
1.16175372031582
1.16175378600947
1.16175380638417
1.16175381217201
1.16175381376361
1.16175381419394
1.16175381430663
1.16175381433439
1.16175381434061
1.1617538143417
1.16175381434187
1.16175381434208
1.16175381434258
1.16175381434354
1.1617538143447
1.16175381434589
1.16175381434708
1.16175381434838
1.16175381434985
1.16175381435142
1.16175381435274
1.1617538143539
1.16175381435525
1.16175381435658
1.16175381435782
1.16175381435906
1.16175381436013
1.16175381436102
1.16175381436225
1.16175381436365
1.1617538143645
1.16175381436536
1.16175381436652
1.1617538143676
1.16175381436874
1.16175381437011
1.16175381437149
1.16175381437227
1.16175381436859
1.1617538143454
1.16175381424575
1.16175381386445
1.16175381246213
1.16175380733249
1.16175378856406
1.16175372362144
1.16175354331083
1.16175278069543
1.16175432902914
1.16175450098928
1.16175454481569
1.16175456158233
1.16175456684271
1.16175456834918
1.16175456876448
1.16175456887743
1.16175456890784
1.16175456891614
1.16175456891881
1.16175456892018
1.16175456892134
1.1617545689225
1.16175456892375
1.16175456892513
1.16175456892657
1.16175456892802
1.16175456892946
1.16175456893091
1.16175456893242
1.16175456893395
1.16175456893543
1.16175456893687
1.16175456893833
1.16175456893976
1.16175456894112
1.16175456894246
1.16175456894375
1.16175456894495
1.16175456894618
1.1617545689474
1.16175456894846
1.16175456894946
1.16175456895046
1.16175456895136
1.1617545689522
1.16175456895301
1.16175456895373
1.16175456895421
1.16175456895343
1.16175456894755
1.16175456892178
1.1617545688236
1.16175456846465
1.16175456715662
1.16175456238875
1.16175454594187
1.16175449967402
1.16175428824527
1.16175466926768
1.16175471393932
1.16175472488224
1.16175472900574
1.16175473031309
1.16175473069152
1.16175473079675
1.16175473082609
1.16175473083477
1.16175473083792
1.16175473083968
1.16175473084114
1.16175473084255
1.16175473084397
1.16175473084542
1.16175473084691
1.16175473084842
1.16175473084995
1.16175473085147
1.16175473085298
1.16175473085452
1.16175473085605
1.16175473085757
1.16175473085907
1.16175473086056
1.16175473086201
1.16175473086342
1.1617547308648
1.16175473086613
1.16175473086741
1.16175473086865
1.16175473086984
1.16175473087093
1.16175473087196
1.16175473087292
1.16175473087378
1.16175473087455
1.16175473087523
1.1617547308758
1.16175473087622
1.16175473087623
1.16175473087489
1.16175473086851
1.16175473084413
1.16175473075551
1.16175473043419
1.16175472926935
1.16175472526245
1.16175471379044
1.1617546579728
1.1617547328223
1.16175474395172
1.16175474660895
1.16175474759167
1.16175474790637
1.161754747999
1.1617547480255
1.16175474803361
1.16175474803674
1.16175474803856
1.16175474804007
1.16175474804153
1.16175474804298
1.16175474804446
1.16175474804595
1.16175474804746
1.16175474804899
1.16175474805052
1.16175474805206
1.1617547480536
1.16175474805514
1.16175474805668
1.16175474805821
1.16175474805972
1.16175474806121
1.16175474806267
1.1617547480641
1.16175474806549
1.16175474806684
1.16175474806814
1.16175474806939
1.16175474807058
1.16175474807169
1.16175474807273
1.16175474807368
1.16175474807455
1.16175474807532
1.16175474807599
1.16175474807654
1.16175474807698
1.16175474807723
1.16175474807706
1.16175474807561
1.16175474806978
1.1617547480486
1.16175474797223
1.1617547476973
1.1617547467535
1.16175474399348
1.16175472987076
1.16175472768796
1.16175473036067
1.16175473099004
1.16175473121825
1.16175473129233
1.16175473131496
1.16175473132209
1.16175473132495
1.16175473132668
1.16175473132814
1.16175473132956
1.16175473133099
1.16175473133244
1.16175473133391
1.1617547313354
1.1617547313369
1.16175473133842
1.16175473133995
1.16175473134149
1.16175473134303
1.16175473134458
1.16175473134611
1.16175473134764
1.16175473134916
1.16175473135065
1.16175473135212
1.16175473135356
1.16175473135496
1.16175473135632
1.16175473135763
1.16175473135888
1.16175473136008
1.1617547313612
1.16175473136225
1.16175473136322
1.16175473136411
1.1617547313649
1.16175473136558
1.16175473136616
1.16175473136663
1.16175473136697
1.16175473136714
1.16175473136692
1.16175473136563
1.16175473136074
1.16175473134311
1.1617547312802
1.16175473106445
1.161754730418
1.16175472697576
1.16175470610741
1.16175470672855
1.16175470687459
1.16175470692673
1.16175470694423
1.1617547069502
1.16175470695268
1.16175470695424
1.1617547069556
1.16175470695694
1.16175470695831
1.1617547069597
1.16175470696113
1.16175470696258
1.16175470696405
1.16175470696554
1.16175470696705
1.16175470696858
1.16175470697011
1.16175470697165
1.16175470697319
1.16175470697473
1.16175470697626
1.16175470697777
1.16175470697927
1.16175470698074
1.16175470698218
1.16175470698359
1.16175470698496
1.16175470698628
1.16175470698754
1.16175470698875
1.16175470698989
1.16175470699096
1.16175470699194
1.16175470699285
1.16175470699366
1.16175470699437
1.16175470699499
1.16175470699549
1.16175470699589
1.16175470699617
1.16175470699629
1.16175470699611
1.16175470699507
1.16175470699111
1.16175470697715
1.16175470692913
1.16175470678115
1.16175470596962
1.16175468071314
1.16175468085318
1.1617546808868
1.16175468089891
1.16175468090344
1.16175468090552
1.16175468090687
1.16175468090809
1.16175468090933
1.1617546809106
1.16175468091192
1.16175468091329
1.16175468091468
1.16175468091611
1.16175468091757
1.16175468091904
1.16175468092054
1.16175468092206
1.16175468092358
1.16175468092512
1.16175468092665
1.16175468092819
1.16175468092972
1.16175468093124
1.16175468093274
1.16175468093421
1.16175468093566
1.16175468093708
1.16175468093845
1.16175468093978
1.16175468094105
1.16175468094227
1.16175468094343
1.16175468094451
1.16175468094552
1.16175468094645
1.16175468094728
1.16175468094803
1.16175468094868
1.16175468094922
1.16175468094967
1.16175468095001
1.16175468095025
1.16175468095037
1.16175468095024
1.16175468094942
1.16175468094645
1.16175468093601
1.1617546809026
1.16175468071704
1.16175465445936
1.16175465448993
1.16175465449801
1.16175465450121
1.16175465450282
1.16175465450397
1.16175465450503
1.16175465450613
1.1617546545073
1.16175465450853
1.16175465450981
1.16175465451114
1.16175465451251
1.16175465451391
1.16175465451535
1.16175465451681
1.1617546545183
1.1617546545198
1.16175465452132
1.16175465452285
1.16175465452438
1.16175465452592
1.16175465452745
1.16175465452896
1.16175465453047
1.16175465453195
1.1617546545334
1.16175465453482
1.16175465453621
1.16175465453755
1.16175465453883
1.16175465454007
1.16175465454123
1.16175465454234
1.16175465454337
1.16175465454431
1.16175465454518
1.16175465454595
1.16175465454664
1.16175465454722
1.16175465454771
1.16175465454811
1.16175465454842
1.16175465454864
1.16175465454876
1.16175465454867
1.16175465454813
1.1617546545459
1.1617546545382
1.16175465449707
1.16175462801674
1.16175462802308
1.16175462802548
1.16175462802673
1.16175462802768
1.16175462802859
1.16175462802954
1.16175462803058
1.1617546280317
1.16175462803288
1.16175462803412
1.16175462803542
1.16175462803676
1.16175462803814
1.16175462803956
1.161754628041
1.16175462804248
1.16175462804397
1.16175462804548
1.16175462804701
1.16175462804854
1.16175462805007
1.1617546280516
1.16175462805312
1.16175462805463
1.16175462805611
1.16175462805757
1.161754628059
1.16175462806039
1.16175462806174
1.16175462806304
1.16175462806429
1.16175462806547
1.16175462806659
1.16175462806764
1.16175462806861
1.16175462806951
1.16175462807031
1.16175462807103
1.16175462807166
1.16175462807219
1.16175462807264
1.161754628073
1.16175462807328
1.1617546280735
1.1617546280736
1.16175462807361
1.16175462807313
1.16175462807108
1.16175462806236
1.16175460153359
1.16175460153471
1.16175460153587
1.1617546015367
1.16175460153748
1.1617546015383
1.16175460153919
1.16175460154017
1.16175460154124
1.16175460154239
1.16175460154359
1.16175460154486
1.16175460154617
1.16175460154753
1.16175460154892
1.16175460155035
1.16175460155181
1.1617546015533
1.1617546015548
1.16175460155632
1.16175460155785
1.16175460155938
1.16175460156091
1.16175460156243
1.16175460156394
1.16175460156543
1.1617546015669
1.16175460156834
1.16175460156974
1.1617546015711
1.16175460157241
1.16175460157367
1.16175460157487
1.16175460157601
1.16175460157708
1.16175460157808
1.161754601579
1.16175460157983
1.16175460158058
1.16175460158125
1.16175460158183
1.16175460158232
1.16175460158273
1.16175460158307
1.16175460158334
1.16175460158353
1.16175460158368
1.16175460158357
1.16175460158273
1.16175460158109
1.16175457504192
1.16175457504195
1.16175457504285
1.16175457504358
1.16175457504429
1.16175457504506
1.1617545750459
1.16175457504684
1.16175457504787
1.16175457504897
1.16175457505014
1.16175457505137
1.16175457505266
1.16175457505399
1.16175457505537
1.16175457505678
1.16175457505823
1.1617545750597
1.1617545750612
1.16175457506271
1.16175457506424
1.16175457506577
1.1617545750673
1.16175457506882
1.16175457507034
1.16175457507183
1.1617545750733
1.16175457507475
1.16175457507616
1.16175457507753
1.16175457507885
1.16175457508013
1.16175457508135
1.1617545750825
1.1617545750836
1.16175457508462
1.16175457508556
1.16175457508643
1.16175457508722
1.16175457508792
1.16175457508854
1.16175457508908
1.16175457508954
1.16175457508993
1.16175457509025
1.16175457509049
1.16175457509069
1.16175457509066
1.16175457509007
1.16175457508993
1.1617545485485
1.16175454854832
1.16175454854916
1.16175454854986
1.16175454855053
1.16175454855125
1.16175454855205
1.16175454855295
1.16175454855393
1.16175454855499
1.16175454855613
1.16175454855733
1.16175454855859
1.1617545485599
1.16175454856126
1.16175454856265
1.16175454856409
1.16175454856555
1.16175454856704
1.16175454856855
1.16175454857007
1.1617545485716
1.16175454857313
1.16175454857466
1.16175454857617
1.16175454857768
1.16175454857915
1.16175454858061
1.16175454858203
1.16175454858341
1.16175454858474
1.16175454858603
1.16175454858727
1.16175454858845
1.16175454858956
1.16175454859061
1.16175454859158
1.16175454859248
1.1617545485933
1.16175454859404
1.16175454859471
1.16175454859529
1.1617545485958
1.16175454859623
1.1617545485966
1.16175454859688
1.16175454859712
1.16175454859711
1.16175454859657
1.16175454859673
1.16175452205473
1.16175452205451
1.16175452205533
1.16175452205602
1.16175452205666
1.16175452205733
1.16175452205809
1.16175452205895
1.16175452205989
1.16175452206092
1.16175452206202
1.16175452206319
1.16175452206442
1.16175452206571
1.16175452206704
1.16175452206843
1.16175452206985
1.1617545220713
1.16175452207278
1.16175452207429
1.16175452207581
1.16175452207733
1.16175452207886
1.16175452208039
1.16175452208191
1.16175452208342
1.1617545220849
1.16175452208636
1.16175452208779
1.16175452208919
1.16175452209054
1.16175452209184
1.16175452209309
1.16175452209429
1.16175452209543
1.1617545220965
1.1617545220975
1.16175452209843
1.16175452209929
1.16175452210007
1.16175452210077
1.1617545221014
1.16175452210195
1.16175452210243
1.16175452210284
1.16175452210317
1.16175452210343
1.16175452210343
1.16175452210291
1.16175452210312
1.16175449556088
1.16175449556067
1.16175449556149
1.16175449556216
1.16175449556277
1.16175449556341
1.16175449556412
1.16175449556494
1.16175449556584
1.16175449556683
1.1617544955679
1.16175449556904
1.16175449557024
1.1617544955715
1.16175449557282
1.16175449557419
1.1617544955756
1.16175449557704
1.16175449557852
1.16175449558002
1.16175449558153
1.16175449558306
1.16175449558459
1.16175449558612
1.16175449558764
1.16175449558915
1.16175449559065
1.16175449559212
1.16175449559355
1.16175449559496
1.16175449559632
1.16175449559764
1.16175449559891
1.16175449560013
1.16175449560129
1.16175449560238
1.16175449560341
1.16175449560438
1.16175449560527
1.16175449560608
1.16175449560683
1.1617544956075
1.16175449560809
1.16175449560862
1.16175449560907
1.16175449560944
1.16175449560973
1.16175449560974
1.16175449560922
1.16175449560943
1.16175446906703
1.16175446906683
1.16175446906764
1.1617544690683
1.16175446906888
1.16175446906947
1.16175446907015
1.16175446907093
1.16175446907179
1.16175446907274
1.16175446907378
1.16175446907489
1.16175446907606
1.16175446907731
1.1617544690786
1.16175446907996
1.16175446908135
1.16175446908279
1.16175446908425
1.16175446908575
1.16175446908726
1.16175446908878
1.16175446909032
1.16175446909185
1.16175446909338
1.16175446909489
1.16175446909639
1.16175446909787
1.16175446909932
1.16175446910073
1.16175446910211
1.16175446910345
1.16175446910473
1.16175446910597
1.16175446910715
1.16175446910827
1.16175446910933
1.16175446911032
1.16175446911125
1.1617544691121
1.16175446911288
1.1617544691136
1.16175446911423
1.1617544691148
1.16175446911529
1.1617544691157
1.16175446911603
1.16175446911605
1.16175446911553
1.16175446911573
1.16175444257318
1.161754442573
1.16175444257381
1.16175444257445
1.16175444257499
1.16175444257555
1.16175444257619
1.16175444257693
1.16175444257775
1.16175444257867
1.16175444257967
1.16175444258075
1.1617544425819
1.16175444258312
1.1617544425844
1.16175444258573
1.16175444258711
1.16175444258854
1.16175444259
1.16175444259149
1.161754442593
1.16175444259452
1.16175444259605
1.16175444259759
1.16175444259912
1.16175444260064
1.16175444260215
1.16175444260363
1.16175444260509
1.16175444260652
1.16175444260791
1.16175444260926
1.16175444261056
1.16175444261182
1.16175444261302
1.16175444261417
1.16175444261526
1.16175444261628
1.16175444261724
1.16175444261813
1.16175444261895
1.1617544426197
1.16175444262039
1.161754442621
1.16175444262153
1.16175444262198
1.16175444262233
1.16175444262236
1.16175444262185
1.16175444262204
1.16175441607935
1.16175441607917
1.16175441607997
1.1617544160806
1.16175441608111
1.16175441608163
1.16175441608223
1.16175441608293
1.16175441608372
1.1617544160846
1.16175441608556
1.16175441608661
1.16175441608774
1.16175441608893
1.16175441609019
1.16175441609151
1.16175441609288
1.1617544160943
1.16175441609575
1.16175441609723
1.16175441609874
1.16175441610026
1.1617544161018
1.16175441610333
1.16175441610487
1.1617544161064
1.16175441610791
1.1617544161094
1.16175441611087
1.16175441611231
1.16175441611372
1.16175441611508
1.1617544161164
1.16175441611768
1.1617544161189
1.16175441612007
1.16175441612119
1.16175441612224
1.16175441612323
1.16175441612416
1.16175441612502
1.16175441612582
1.16175441612654
1.16175441612719
1.16175441612777
1.16175441612826
1.16175441612865
1.16175441612869
1.16175441612817
1.16175441612835
1.16175438958552
1.16175438958536
1.16175438958616
1.16175438958677
1.16175438958725
1.16175438958772
1.16175438958828
1.16175438958894
1.16175438958969
1.16175438959054
1.16175438959147
1.16175438959249
1.16175438959359
1.16175438959476
1.16175438959601
1.16175438959731
1.16175438959867
1.16175438960007
1.16175438960152
1.16175438960299
1.1617543896045
1.16175438960602
1.16175438960755
1.16175438960909
1.16175438961063
1.16175438961217
1.16175438961369
1.16175438961519
1.16175438961667
1.16175438961812
1.16175438961953
1.16175438962091
1.16175438962225
1.16175438962355
1.1617543896248
1.16175438962599
1.16175438962713
1.16175438962822
1.16175438962924
1.16175438963021
1.16175438963111
1.16175438963194
1.16175438963271
1.1617543896334
1.16175438963402
1.16175438963455
1.16175438963497
1.16175438963502
1.16175438963451
1.16175438963468
1.16175436309171
1.16175436309156
1.16175436309236
1.16175436309295
1.16175436309339
1.16175436309383
1.16175436309435
1.16175436309497
1.16175436309568
1.16175436309648
1.16175436309739
1.16175436309838
1.16175436309945
1.1617543631006
1.16175436310183
1.16175436310311
1.16175436310446
1.16175436310585
1.16175436310729
1.16175436310876
1.16175436311026
1.16175436311179
1.16175436311332
1.16175436311486
1.16175436311641
1.16175436311794
1.16175436311947
1.16175436312098
1.16175436312247
1.16175436312393
1.16175436312536
1.16175436312676
1.16175436312811
1.16175436312943
1.1617543631307
1.16175436313192
1.16175436313308
1.1617543631342
1.16175436313526
1.16175436313626
1.1617543631372
1.16175436313807
1.16175436313888
1.16175436313962
1.16175436314028
1.16175436314085
1.1617543631413
1.16175436314137
1.16175436314086
1.16175436314103
1.16175433659793
1.16175433659779
1.16175433659858
1.16175433659915
1.16175433659956
1.16175433659995
1.16175433660043
1.16175433660101
1.16175433660168
1.16175433660245
1.16175433660332
1.16175433660428
1.16175433660533
1.16175433660646
1.16175433660766
1.16175433660893
1.16175433661027
1.16175433661165
1.16175433661308
1.16175433661455
1.16175433661605
1.16175433661757
1.1617543366191
1.16175433662065
1.16175433662219
1.16175433662374
1.16175433662527
1.16175433662679
1.16175433662829
1.16175433662976
1.1617543366312
1.16175433663261
1.16175433663399
1.16175433663532
1.16175433663661
1.16175433663785
1.16175433663905
1.16175433664019
1.16175433664129
1.16175433664232
1.1617543366433
1.16175433664422
1.16175433664507
1.16175433664585
1.16175433664655
1.16175433664717
1.16175433664765
1.16175433664774
1.16175433664724
1.16175433664739
1.16175431010417
1.16175431010404
1.16175431010482
1.16175431010537
1.16175431010574
1.16175431010609
1.16175431010653
1.16175431010706
1.16175431010769
1.16175431010843
1.16175431010926
1.16175431011019
1.16175431011122
1.16175431011232
1.16175431011351
1.16175431011477
1.16175431011609
1.16175431011747
1.16175431011889
1.16175431012035
1.16175431012185
1.16175431012336
1.1617543101249
1.16175431012645
1.161754310128
1.16175431012954
1.16175431013108
1.16175431013261
1.16175431013412
1.1617543101356
1.16175431013706
1.16175431013848
1.16175431013987
1.16175431014123
1.16175431014254
1.1617543101438
1.16175431014503
1.1617543101462
1.16175431014732
1.16175431014839
1.16175431014941
1.16175431015037
1.16175431015127
1.16175431015209
1.16175431015284
1.16175431015351
1.16175431015402
1.16175431015412
1.16175431015363
1.16175431015378
1.16175428361044
1.16175428361032
1.16175428361109
1.16175428361163
1.16175428361196
1.16175428361225
1.16175428361264
1.16175428361313
1.16175428361373
1.16175428361442
1.16175428361522
1.16175428361613
1.16175428361712
1.16175428361821
1.16175428361938
1.16175428362062
1.16175428362193
1.1617542836233
1.16175428362471
1.16175428362617
1.16175428362766
1.16175428362918
1.16175428363072
1.16175428363227
1.16175428363382
1.16175428363537
1.16175428363692
1.16175428363845
1.16175428363997
1.16175428364146
1.16175428364293
1.16175428364437
1.16175428364578
1.16175428364715
1.16175428364848
1.16175428364977
1.16175428365102
1.16175428365222
1.16175428365338
1.16175428365448
1.16175428365554
1.16175428365654
1.16175428365748
1.16175428365835
1.16175428365915
1.16175428365986
1.16175428366042
1.16175428366054
1.16175428366005
1.16175428366019
1.16175425711675
1.16175425711664
1.1617542571174
1.16175425711791
1.1617542571182
1.16175425711844
1.16175425711878
1.16175425711923
1.16175425711978
1.16175425712044
1.1617542571212
1.16175425712208
1.16175425712305
1.16175425712411
1.16175425712526
1.16175425712649
1.16175425712779
1.16175425712915
1.16175425713056
1.16175425713201
1.1617542571335
1.16175425713501
1.16175425713655
1.1617542571381
1.16175425713966
1.16175425714122
1.16175425714277
1.16175425714431
1.16175425714584
1.16175425714734
1.16175425714882
1.16175425715028
1.1617542571517
1.16175425715309
1.16175425715444
1.16175425715575
1.16175425715702
1.16175425715826
1.16175425715944
1.16175425716059
1.16175425716168
1.16175425716272
1.16175425716371
1.16175425716463
1.16175425716547
1.16175425716624
1.16175425716684
1.16175425716697
1.1617542571665
1.16175425716663
1.1617542306231
1.161754230623
1.16175423062375
1.16175423062424
1.16175423062447
1.16175423062466
1.16175423062495
1.16175423062535
1.16175423062585
1.16175423062647
1.16175423062721
1.16175423062805
1.161754230629
1.16175423063004
1.16175423063117
1.16175423063239
1.16175423063367
1.16175423063502
1.16175423063642
1.16175423063787
1.16175423063936
1.16175423064087
1.16175423064241
1.16175423064396
1.16175423064552
1.16175423064708
1.16175423064864
1.16175423065019
1.16175423065173
1.16175423065324
1.16175423065473
1.1617542306562
1.16175423065764
1.16175423065904
1.16175423066042
1.16175423066175
1.16175423066305
1.16175423066431
1.16175423066553
1.1617542306667
1.16175423066784
1.16175423066892
1.16175423066996
1.16175423067093
1.16175423067182
1.16175423067265
1.16175423067329
1.16175423067345
1.16175423067298
1.16175423067311
1.1617542041295
1.16175420412941
1.16175420413015
1.16175420413061
1.16175420413079
1.16175420413091
1.16175420413114
1.16175420413149
1.16175420413195
1.16175420413253
1.16175420413323
1.16175420413404
1.16175420413497
1.16175420413599
1.1617542041371
1.1617542041383
1.16175420413958
1.16175420414092
1.16175420414231
1.16175420414376
1.16175420414524
1.16175420414675
1.16175420414829
1.16175420414984
1.16175420415141
1.16175420415297
1.16175420415454
1.16175420415609
1.16175420415764
1.16175420415916
1.16175420416067
1.16175420416215
1.1617542041636
1.16175420416502
1.16175420416641
1.16175420416777
1.16175420416909
1.16175420417038
1.16175420417163
1.16175420417284
1.16175420417401
1.16175420417514
1.16175420417622
1.16175420417724
1.16175420417819
1.16175420417908
1.16175420417977
1.16175420417996
1.16175420417951
1.16175420417962
1.16175417763596
1.16175417763588
1.16175417763659
1.16175417763703
1.16175417763714
1.16175417763719
1.16175417763737
1.16175417763766
1.16175417763808
1.16175417763862
1.16175417763928
1.16175417764007
1.16175417764096
1.16175417764197
1.16175417764306
1.16175417764425
1.16175417764551
1.16175417764684
1.16175417764823
1.16175417764967
1.16175417765115
1.16175417765266
1.1617541776542
1.16175417765576
1.16175417765732
1.16175417765889
1.16175417766046
1.16175417766203
1.16175417766358
1.16175417766511
1.16175417766663
1.16175417766812
1.16175417766958
1.16175417767102
1.16175417767243
1.16175417767381
1.16175417767515