/*--------------------------------*- C++ -*----------------------------------*\
  =========                 |
  \\      /  F ield         | OpenFOAM: The Open Source CFD Toolbox
   \\    /   O peration     | Website:  https://openfoam.org
    \\  /    A nd           | Version:  10
     \\/     M anipulation  |
\*---------------------------------------------------------------------------*/
FoamFile
{
    format      ascii;
    class       volScalarField;
    location    "2.2";
    object      T;
}
// * * * * * * * * * * * * * * * * * * * * * * * * * * * * * * * * * * * * * //

dimensions      [0 0 0 1 0 0 0];

internalField   nonuniform List<scalar> 
2500
(
305.262459731866
305.206097937652
305.178492746374
305.170303457076
305.168123692565
305.167552248975
305.167406453748
305.167369480944
305.167359027812
305.167356037335
305.167353654368
305.167352186878
305.167351305223
305.167350188728
305.167349147375
305.167347987338
305.16734738677
305.167346639964
305.167345792747
305.167345186767
305.167344575005
305.167343883484
305.167343254835
305.167343093961
305.167342909388
305.167342511615
305.167342438344
305.167342329896
305.167342143559
305.167342305168
305.167342479796
305.167342570852
305.167342919499
305.167343408839
305.167343858742
305.167344284658
305.167344761095
305.167345167588
305.16734602575
305.167346919158
305.167348377201
305.167351923722
305.167363683116
305.167407258026
305.167572489048
305.168174616773
305.170375045071
305.178546171435
305.206556191665
305.262393777522
302.995984991449
302.871803424758
302.793390329807
302.765793759904
302.757026976252
302.754382121969
302.753635749698
302.753440614944
302.753392948535
302.753382046598
302.753379073067
302.753378125997
302.753377832909
302.753377465634
302.753377120293
302.753376744183
302.753376533005
302.753376273032
302.75337597895
302.753375727546
302.753375349907
302.753374800556
302.753374246482
302.753374192122
302.753374180449
302.753373908453
302.75337396301
302.753373953739
302.753373763567
302.753374002831
302.753374079694
302.753373859433
302.753374334881
302.75337503296
302.753375322105
302.753375463732
302.753375603049
302.753375734293
302.75337612593
302.753377034211
302.753380691714
302.753395770695
302.753455883727
302.753684106187
302.754497970201
302.757221758864
302.765951494545
302.793357031127
302.873254915169
302.998418537225
301.433793279767
301.319095384845
301.245478979295
301.21865491478
301.21005783596
301.207440928796
301.206692457103
301.206493876037
301.206445061448
301.206433976893
301.206431222402
301.206430565244
301.206430679016
301.206430639382
301.206430622089
301.206430660838
301.206430695476
301.206430665432
301.206430605379
301.206430548655
301.206430387699
301.206430118162
301.206429802164
301.206429713947
301.206429766198
301.206429697595
301.206429694172
301.206429742606
301.206429738453
301.206429845067
301.206429836213
301.206429650158
301.206429955605
301.206430466665
301.206430552076
301.20643050415
301.206430500837
301.206430482925
301.206430642854
301.206431199804
301.206434505038
301.206449165976
301.206507778559
301.206730530425
301.207523850675
301.210180849133
301.218720323658
301.245488387734
301.3208364756
301.43998410302
300.596196042322
300.524197581985
300.484091892469
300.469480219421
300.464973944404
300.463646334699
300.463272090579
300.463172766783
300.46314819346
300.463142623414
300.463141238006
300.463140978221
300.463141156404
300.463141203503
300.463141236264
300.463141263632
300.463141278598
300.463141291308
300.463141294319
300.463141315095
300.463141301634
300.463141203798
300.463141050973
300.463140993075
300.463141044807
300.463141038629
300.463141027354
300.463141076145
300.46314111251
300.463141150977
300.463141139355
300.463141043863
300.463141187071
300.463141437345
300.463141457935
300.463141417988
300.463141404471
300.463141373152
300.463141384355
300.463141497346
300.463142888952
300.463149631701
300.463176982944
300.463282490921
300.463666492261
300.46499569798
300.46947246665
300.484167416656
300.525475021315
300.602304699197
300.221157408921
300.185553709738
300.168561354895
300.162304530328
300.160414911384
300.159870659458
300.15971868157
300.159678174925
300.159668046249
300.159665744279
300.159665168907
300.159665077017
300.159665180542
300.159665227005
300.159665253866
300.15966526772
300.159665288397
300.159665312766
300.159665322136
300.159665324715
300.159665326246
300.159665304973
300.159665241921
300.159665221926
300.159665245252
300.159665245567
300.159665247752
300.15966527549
300.159665299452
300.159665313269
300.159665307767
300.159665270677
300.159665325926
300.159665420796
300.159665421379
300.159665401322
300.159665391113
300.159665366597
300.159665351254
300.159665366715
300.159665846283
300.159668399662
300.159678927196
300.159719808593
300.159870657331
300.16040584036
300.162272685536
300.168584109091
300.186222468932
300.225159307923
300.074687865282
300.059798069572
300.053674891513
300.051382584093
300.050695142392
300.050499871505
300.050445689563
300.050431177586
300.05042750965
300.050426671885
300.050426463114
300.050426435052
300.050426480504
300.050426505272
300.05042651944
300.050426526521
300.050426537282
300.050426549526
300.050426555651
300.050426556364
300.050426559885
300.050426551884
300.050426534295
300.050426535977
300.050426541035
300.050426540341
300.050426542761
300.05042655421
300.050426564591
300.050426570623
300.050426568464
300.050426555909
300.050426574397
300.050426602635
300.050426601673
300.050426595327
300.050426588443
300.050426574893
300.050426562225
300.050426560572
300.050426711132
300.050427576302
300.050431187353
300.050445225438
300.050497377423
300.050685520811
300.051357710086
300.053668379792
300.060075822895
300.076733544241
300.023325693075
300.017836105751
300.015863387573
300.015112517819
300.014886791891
300.014823112357
300.014805520848
300.014800790565
300.014799583724
300.01479930266
300.014799238355
300.014799235479
300.014799248987
300.014799259185
300.014799265391
300.014799269192
300.014799273364
300.014799277306
300.014799280047
300.014799280496
300.014799282292
300.014799279754
300.014799275836
300.014799277799
300.014799278987
300.014799279893
300.01479928124
300.014799284168
300.014799287704
300.014799290488
300.014799289805
300.014799286
300.014799291436
300.014799298715
300.014799298116
300.014799295991
300.014799292742
300.014799286767
300.01479928033
300.014799277995
300.01479932311
300.014799594236
300.014800736361
300.014805166063
300.014821647866
300.014881709289
300.015099497912
300.015854076016
300.017933033024
300.02420585517
300.006819430752
300.004986331834
300.004399919713
300.004173991724
300.004105516622
300.004086227242
300.004080914423
300.004079482412
300.004079114321
300.00407902756
300.004079009539
300.004079009825
300.00407901395
300.004079017599
300.004079020128
300.00407902168
300.004079022884
300.004079024062
300.004079025069
300.00407902528
300.004079025974
300.004079025356
300.004079024652
300.004079025756
300.004079026268
300.004079026614
300.004079026882
300.004079027486
300.004079028628
300.004079029744
300.004079029612
300.004079028599
300.004079029988
300.004079031584
300.004079031225
300.004079030511
300.004079029297
300.004079027056
300.004079024488
300.004079023279
300.004079036461
300.004079116522
300.004079455572
300.004080765477
300.004085629614
300.004103440912
300.004168529287
300.004394561725
300.00501563883
300.007152309893
300.001884376239
300.001319447726
300.001155232299
300.001091638788
300.001072150253
300.001066645976
300.001065132588
300.001064724331
300.001064618833
300.001064593902
300.001064589146
300.001064589441
300.001064590681
300.00106459186
300.001064592742
300.001064593263
300.001064593612
300.001064593956
300.001064594326
300.001064594421
300.001064594488
300.001064594441
300.001064594497
300.00106459482
300.001064594964
300.001064595082
300.001064595194
300.001064595328
300.00106459563
300.001064595993
300.00106459598
300.00106459573
300.001064596032
300.001064596313
300.001064596146
300.00106459591
300.001064595521
300.001064594803
300.001064593961
300.001064593543
300.001064597252
300.001064619666
300.001064715168
300.001065082472
300.001066440817
300.001071419326
300.001089658034
300.001152933831
300.001327224044
300.001998163261
300.000495947998
300.000333050798
300.000289132399
300.000272168358
300.000266907351
300.000265413145
300.000265002525
300.000264891798
300.000264863101
300.000264856338
300.000264855135
300.000264855255
300.000264855613
300.000264855963
300.000264856236
300.000264856393
300.000264856496
300.000264856593
300.000264856691
300.000264856757
300.00026485678
300.000264856773
300.000264856828
300.000264856918
300.000264856953
300.000264856986
300.000264857033
300.000264857069
300.000264857139
300.000264857238
300.000264857236
300.000264857173
300.00026485723
300.000264857266
300.000264857202
300.000264857129
300.000264857016
300.000264856811
300.000264856573
300.000264856453
300.000264857449
300.000264863444
300.000264889149
300.000264987549
300.000265349588
300.000266674085
300.000271520539
300.000288290841
300.000334852529
300.000531783519
300.000125102694
300.000080697228
300.000069379998
300.00006505043
300.00006369236
300.000063303705
300.000063196819
300.000063168028
300.00006316056
300.000063158807
300.000063158511
300.00006315855
300.000063158648
300.000063158744
300.000063158821
300.000063158865
300.000063158894
300.000063158921
300.000063158953
300.00006315898
300.000063158989
300.000063158993
300.000063159005
300.000063159025
300.000063159031
300.00006315904
300.000063159056
300.000063159067
300.000063159081
300.000063159104
300.000063159103
300.000063159087
300.000063159096
300.000063159097
300.000063159076
300.000063159056
300.000063159025
300.000063158972
300.000063158911
300.00006315888
300.000063159137
300.000063160679
300.000063167321
300.000063192636
300.000063285268
300.000063622941
300.000064854066
300.000069101261
300.000081049007
300.000135646466
300.000030401292
300.000018865603
300.000016039875
300.000014975159
300.000014637848
300.000014540459
300.000014513621
300.000014506401
300.000014504529
300.00001450409
300.000014504017
300.000014504027
300.000014504052
300.000014504077
300.000014504096
300.000014504107
300.000014504115
300.000014504121
300.00001450413
300.000014504138
300.000014504141
300.000014504143
300.000014504146
300.000014504149
300.000014504149
300.000014504151
300.000014504157
300.00001450416
300.000014504163
300.000014504167
300.000014504167
300.000014504162
300.000014504164
300.000014504163
300.000014504157
300.000014504152
300.000014504144
300.000014504132
300.000014504118
300.000014504111
300.000014504176
300.00001450456
300.000014506215
300.000014512492
300.000014535339
300.000014618239
300.000014918989
300.000015953792
300.000018916213
300.000033330136
300.000007148038
300.000004273989
300.000003587865
300.000003334204
300.000003253196
300.000003229586
300.000003223057
300.000003221302
300.000003220847
300.000003220739
300.00000322072
300.000003220721
300.000003220726
300.000003220731
300.000003220735
300.000003220737
300.000003220738
300.000003220739
300.000003220741
300.000003220743
300.000003220743
300.000003220743
300.000003220744
300.000003220744
300.000003220744
300.000003220744
300.000003220746
300.000003220746
300.000003220747
300.000003220748
300.000003220747
300.000003220746
300.000003220747
300.000003220747
300.000003220745
300.000003220744
300.000003220743
300.000003220741
300.000003220738
300.000003220738
300.000003220755
300.000003220849
300.000003221248
300.000003222754
300.000003228204
300.000003247877
300.000003318854
300.00000356266
300.000004275396
300.000007922408
300.000001632346
300.000000942092
300.000000779616
300.000000720798
300.000000701908
300.000000696349
300.000000694805
300.000000694388
300.000000694279
300.000000694252
300.000000694246
300.000000694244
300.000000694244
300.000000694244
300.000000694244
300.000000694244
300.000000694243
300.000000694243
300.000000694243
300.000000694242
300.000000694242
300.000000694242
300.000000694242
300.000000694241
300.000000694241
300.000000694241
300.000000694241
300.000000694241
300.000000694241
300.000000694241
300.000000694241
300.000000694241
300.000000694241
300.000000694242
300.000000694242
300.000000694242
300.000000694242
300.000000694242
300.000000694243
300.000000694244
300.000000694249
300.000000694273
300.000000694367
300.000000694719
300.000000695981
300.000000700509
300.000000716756
300.000000772551
300.000000939507
300.000001828479
300.000000363562
300.000000203102
300.000000165434
300.000000152084
300.000000147787
300.00000014651
300.000000146152
300.000000146054
300.000000146027
300.000000146019
300.000000146016
300.000000146014
300.000000146013
300.000000146011
300.00000014601
300.000000146009
300.000000146008
300.000000146007
300.000000146007
300.000000146006
300.000000146006
300.000000146005
300.000000146004
300.000000146004
300.000000146004
300.000000146003
300.000000146003
300.000000146003
300.000000146003
300.000000146003
300.000000146003
300.000000146003
300.000000146004
300.000000146004
300.000000146004
300.000000146005
300.000000146006
300.000000146007
300.000000146008
300.000000146009
300.000000146012
300.000000146019
300.000000146042
300.000000146123
300.000000146409
300.000000147424
300.000000151049
300.000000163524
300.000000201767
300.000000411394
300.0000000796
300.000000043388
300.000000034744
300.000000031737
300.000000030773
300.000000030485
300.000000030402
300.000000030378
300.000000030369
300.000000030366
300.000000030363
300.000000030361
300.00000003036
300.000000030358
300.000000030357
300.000000030356
300.000000030354
300.000000030354
300.000000030353
300.000000030352
300.000000030351
300.000000030351
300.00000003035
300.000000030349
300.000000030349
300.000000030349
300.000000030349
300.000000030348
300.000000030348
300.000000030348
300.000000030348
300.000000030349
300.000000030349
300.000000030349
300.00000003035
300.000000030351
300.000000030351
300.000000030353
300.000000030354
300.000000030355
300.000000030357
300.00000003036
300.000000030367
300.000000030387
300.000000030452
300.000000030676
300.000000031474
300.000000034241
300.000000042903
300.000000090874
300.000000017596
300.00000000966
300.000000007612
300.000000006903
300.000000006683
300.000000006617
300.000000006597
300.000000006589
300.000000006585
300.000000006582
300.00000000658
300.000000006578
300.000000006576
300.000000006575
300.000000006573
300.000000006572
300.000000006571
300.00000000657
300.000000006569
300.000000006568
300.000000006567
300.000000006567
300.000000006566
300.000000006566
300.000000006565
300.000000006565
300.000000006565
300.000000006564
300.000000006564
300.000000006564
300.000000006565
300.000000006565
300.000000006565
300.000000006565
300.000000006566
300.000000006567
300.000000006568
300.000000006569
300.00000000657
300.000000006571
300.000000006573
300.000000006576
300.000000006579
300.000000006585
300.000000006601
300.000000006652
300.000000006833
300.000000007479
300.000000009502
300.000000020166
300.000000004355
300.000000002684
300.000000002102
300.000000001895
300.000000001837
300.00000000182
300.000000001813
300.000000001809
300.000000001806
300.000000001804
300.000000001802
300.0000000018
300.000000001798
300.000000001796
300.000000001795
300.000000001793
300.000000001792
300.000000001791
300.00000000179
300.000000001789
300.000000001789
300.000000001788
300.000000001787
300.000000001787
300.000000001786
300.000000001786
300.000000001786
300.000000001786
300.000000001786
300.000000001786
300.000000001786
300.000000001786
300.000000001786
300.000000001787
300.000000001787
300.000000001788
300.000000001789
300.00000000179
300.000000001791
300.000000001793
300.000000001794
300.000000001797
300.000000001799
300.000000001802
300.000000001808
300.000000001821
300.000000001871
300.000000002063
300.000000002629
300.000000004916
300.000000001584
300.000000001268
300.000000001006
300.000000000906
300.000000000883
300.000000000876
300.000000000872
300.000000000869
300.000000000867
300.000000000864
300.000000000862
300.00000000086
300.000000000858
300.000000000857
300.000000000855
300.000000000854
300.000000000853
300.000000000852
300.000000000851
300.00000000085
300.000000000849
300.000000000848
300.000000000848
300.000000000847
300.000000000847
300.000000000846
300.000000000846
300.000000000846
300.000000000846
300.000000000846
300.000000000846
300.000000000846
300.000000000846
300.000000000847
300.000000000848
300.000000000848
300.000000000849
300.00000000085
300.000000000852
300.000000000853
300.000000000855
300.000000000857
300.000000000859
300.000000000861
300.000000000865
300.00000000087
300.000000000892
300.000000000989
300.000000001242
300.000000001693
300.000000001015
300.000000000985
300.000000000791
300.000000000714
300.000000000698
300.000000000694
300.000000000691
300.000000000689
300.000000000686
300.000000000684
300.000000000682
300.00000000068
300.000000000678
300.000000000676
300.000000000675
300.000000000673
300.000000000672
300.000000000671
300.00000000067
300.000000000669
300.000000000668
300.000000000667
300.000000000667
300.000000000666
300.000000000666
300.000000000665
300.000000000665
300.000000000665
300.000000000665
300.000000000665
300.000000000665
300.000000000665
300.000000000666
300.000000000666
300.000000000667
300.000000000667
300.000000000668
300.000000000669
300.000000000671
300.000000000672
300.000000000674
300.000000000676
300.000000000678
300.00000000068
300.000000000683
300.000000000687
300.000000000703
300.00000000078
300.000000000966
300.000000001025
300.000000000899
300.000000000929
300.00000000075
300.000000000678
300.000000000664
300.00000000066
300.000000000657
300.000000000655
300.000000000652
300.00000000065
300.000000000648
300.000000000646
300.000000000644
300.000000000642
300.000000000641
300.000000000639
300.000000000638
300.000000000637
300.000000000636
300.000000000635
300.000000000634
300.000000000633
300.000000000633
300.000000000632
300.000000000632
300.000000000631
300.000000000631
300.000000000631
300.000000000631
300.000000000631
300.000000000631
300.000000000631
300.000000000632
300.000000000632
300.000000000633
300.000000000634
300.000000000634
300.000000000636
300.000000000637
300.000000000638
300.00000000064
300.000000000642
300.000000000644
300.000000000646
300.000000000648
300.000000000652
300.000000000667
300.00000000074
300.000000000912
300.000000000888
300.000000000876
300.000000000918
300.000000000742
300.000000000671
300.000000000657
300.000000000654
300.000000000651
300.000000000649
300.000000000646
300.000000000644
300.000000000642
300.00000000064
300.000000000638
300.000000000636
300.000000000635
300.000000000633
300.000000000632
300.000000000631
300.00000000063
300.000000000629
300.000000000628
300.000000000627
300.000000000627
300.000000000626
300.000000000626
300.000000000625
300.000000000625
300.000000000625
300.000000000625
300.000000000625
300.000000000625
300.000000000625
300.000000000626
300.000000000626
300.000000000627
300.000000000628
300.000000000629
300.00000000063
300.000000000631
300.000000000632
300.000000000634
300.000000000636
300.000000000638
300.00000000064
300.000000000642
300.000000000646
300.00000000066
300.000000000732
300.000000000901
300.00000000086
300.000000000871
300.000000000916
300.000000000741
300.00000000067
300.000000000656
300.000000000653
300.00000000065
300.000000000648
300.000000000646
300.000000000643
300.000000000641
300.000000000639
300.000000000637
300.000000000636
300.000000000634
300.000000000633
300.000000000631
300.00000000063
300.000000000629
300.000000000628
300.000000000627
300.000000000627
300.000000000626
300.000000000625
300.000000000625
300.000000000625
300.000000000624
300.000000000624
300.000000000624
300.000000000624
300.000000000624
300.000000000624
300.000000000625
300.000000000625
300.000000000626
300.000000000627
300.000000000628
300.000000000629
300.00000000063
300.000000000632
300.000000000633
300.000000000635
300.000000000637
300.000000000639
300.000000000641
300.000000000644
300.000000000659
300.000000000731
300.000000000899
300.000000000855
300.00000000087
300.000000000915
300.00000000074
300.000000000669
300.000000000656
300.000000000653
300.00000000065
300.000000000648
300.000000000646
300.000000000643
300.000000000641
300.000000000639
300.000000000637
300.000000000636
300.000000000634
300.000000000633
300.000000000631
300.00000000063
300.000000000629
300.000000000628
300.000000000627
300.000000000627
300.000000000626
300.000000000625
300.000000000625
300.000000000625
300.000000000624
300.000000000624
300.000000000624
300.000000000624
300.000000000624
300.000000000624
300.000000000625
300.000000000625
300.000000000626
300.000000000627
300.000000000628
300.000000000629
300.00000000063
300.000000000632
300.000000000633
300.000000000635
300.000000000637
300.000000000639
300.000000000641
300.000000000644
300.000000000658
300.000000000731
300.000000000899
300.000000000853
300.00000000087
300.000000000915
300.00000000074
300.000000000669
300.000000000656
300.000000000653
300.00000000065
300.000000000648
300.000000000646
300.000000000643
300.000000000641
300.000000000639
300.000000000637
300.000000000636
300.000000000634
300.000000000633
300.000000000631
300.00000000063
300.000000000629
300.000000000628
300.000000000627
300.000000000627
300.000000000626
300.000000000625
300.000000000625
300.000000000625
300.000000000624
300.000000000624
300.000000000624
300.000000000624
300.000000000624
300.000000000624
300.000000000625
300.000000000625
300.000000000626
300.000000000627
300.000000000628
300.000000000629
300.00000000063
300.000000000632
300.000000000633
300.000000000635
300.000000000637
300.000000000639
300.000000000641
300.000000000644
300.000000000658
300.00000000073
300.000000000898
300.000000000853
300.00000000087
300.000000000915
300.00000000074
300.000000000669
300.000000000656
300.000000000653
300.00000000065
300.000000000648
300.000000000646
300.000000000643
300.000000000641
300.000000000639
300.000000000637
300.000000000636
300.000000000634
300.000000000633
300.000000000631
300.00000000063
300.000000000629
300.000000000628
300.000000000627
300.000000000627
300.000000000626
300.000000000625
300.000000000625
300.000000000625
300.000000000624
300.000000000624
300.000000000624
300.000000000624
300.000000000624
300.000000000624
300.000000000625
300.000000000625
300.000000000626
300.000000000627
300.000000000628
300.000000000629
300.00000000063
300.000000000632
300.000000000633
300.000000000635
300.000000000637
300.000000000639
300.000000000641
300.000000000644
300.000000000658
300.00000000073
300.000000000898
300.000000000853
300.00000000087
300.000000000915
300.00000000074
300.000000000669
300.000000000656
300.000000000653
300.00000000065
300.000000000648
300.000000000645
300.000000000643
300.000000000641
300.000000000639
300.000000000637
300.000000000635
300.000000000634
300.000000000632
300.000000000631
300.00000000063
300.000000000629
300.000000000628
300.000000000627
300.000000000626
300.000000000626
300.000000000625
300.000000000625
300.000000000624
300.000000000624
300.000000000624
300.000000000624
300.000000000624
300.000000000624
300.000000000624
300.000000000625
300.000000000625
300.000000000626
300.000000000627
300.000000000628
300.000000000629
300.00000000063
300.000000000631
300.000000000633
300.000000000635
300.000000000637
300.000000000639
300.000000000641
300.000000000644
300.000000000658
300.00000000073
300.000000000898
300.000000000853
300.00000000087
300.000000000914
300.00000000074
300.000000000669
300.000000000656
300.000000000652
300.00000000065
300.000000000647
300.000000000645
300.000000000643
300.00000000064
300.000000000638
300.000000000637
300.000000000635
300.000000000633
300.000000000632
300.000000000631
300.00000000063
300.000000000629
300.000000000628
300.000000000627
300.000000000626
300.000000000625
300.000000000625
300.000000000624
300.000000000624
300.000000000624
300.000000000624
300.000000000624
300.000000000624
300.000000000624
300.000000000624
300.000000000624
300.000000000625
300.000000000626
300.000000000626
300.000000000627
300.000000000628
300.00000000063
300.000000000631
300.000000000633
300.000000000635
300.000000000637
300.000000000639
300.000000000641
300.000000000644
300.000000000658
300.00000000073
300.000000000898
300.000000000853
300.00000000087
300.000000000914
300.00000000074
300.000000000669
300.000000000655
300.000000000652
300.000000000649
300.000000000647
300.000000000644
300.000000000642
300.00000000064
300.000000000638
300.000000000636
300.000000000634
300.000000000633
300.000000000631
300.00000000063
300.000000000629
300.000000000628
300.000000000627
300.000000000626
300.000000000626
300.000000000625
300.000000000624
300.000000000624
300.000000000624
300.000000000623
300.000000000623
300.000000000623
300.000000000623
300.000000000623
300.000000000624
300.000000000624
300.000000000625
300.000000000625
300.000000000626
300.000000000627
300.000000000628
300.000000000629
300.000000000631
300.000000000632
300.000000000634
300.000000000636
300.000000000638
300.000000000641
300.000000000644
300.000000000658
300.000000000731
300.000000000899
300.000000000853
300.00000000087
300.000000000915
300.00000000074
300.000000000668
300.000000000655
300.000000000651
300.000000000649
300.000000000646
300.000000000644
300.000000000641
300.000000000639
300.000000000637
300.000000000635
300.000000000634
300.000000000632
300.000000000631
300.00000000063
300.000000000628
300.000000000627
300.000000000627
300.000000000626
300.000000000625
300.000000000624
300.000000000624
300.000000000624
300.000000000623
300.000000000623
300.000000000623
300.000000000623
300.000000000623
300.000000000623
300.000000000623
300.000000000624
300.000000000624
300.000000000625
300.000000000625
300.000000000626
300.000000000627
300.000000000629
300.00000000063
300.000000000632
300.000000000634
300.000000000636
300.000000000638
300.00000000064
300.000000000644
300.000000000658
300.000000000731
300.000000000899
300.000000000854
300.00000000087
300.000000000915
300.00000000074
300.000000000668
300.000000000654
300.000000000651
300.000000000648
300.000000000645
300.000000000643
300.000000000641
300.000000000638
300.000000000636
300.000000000635
300.000000000633
300.000000000631
300.00000000063
300.000000000629
300.000000000628
300.000000000627
300.000000000626
300.000000000625
300.000000000624
300.000000000624
300.000000000623
300.000000000623
300.000000000623
300.000000000622
300.000000000622
300.000000000622
300.000000000622
300.000000000622
300.000000000623
300.000000000623
300.000000000623
300.000000000624
300.000000000625
300.000000000626
300.000000000627
300.000000000628
300.00000000063
300.000000000631
300.000000000633
300.000000000635
300.000000000638
300.00000000064
300.000000000644
300.000000000658
300.000000000731
300.0000000009
300.000000000854
300.000000000871
300.000000000915
300.000000000739
300.000000000668
300.000000000654
300.00000000065
300.000000000647
300.000000000644
300.000000000642
300.00000000064
300.000000000637
300.000000000635
300.000000000634
300.000000000632
300.000000000631
300.000000000629
300.000000000628
300.000000000627
300.000000000626
300.000000000625
300.000000000624
300.000000000624
300.000000000623
300.000000000623
300.000000000622
300.000000000622
300.000000000622
300.000000000621
300.000000000621
300.000000000621
300.000000000622
300.000000000622
300.000000000622
300.000000000623
300.000000000623
300.000000000624
300.000000000625
300.000000000626
300.000000000627
300.000000000629
300.000000000631
300.000000000633
300.000000000635
300.000000000637
300.00000000064
300.000000000643
300.000000000658
300.000000000731
300.0000000009
300.000000000855
300.000000000871
300.000000000915
300.000000000739
300.000000000667
300.000000000653
300.000000000649
300.000000000646
300.000000000643
300.000000000641
300.000000000638
300.000000000636
300.000000000634
300.000000000632
300.000000000631
300.000000000629
300.000000000628
300.000000000627
300.000000000626
300.000000000625
300.000000000624
300.000000000623
300.000000000623
300.000000000622
300.000000000622
300.000000000621
300.000000000621
300.000000000621
300.000000000621
300.000000000621
300.000000000621
300.000000000621
300.000000000621
300.000000000621
300.000000000622
300.000000000622
300.000000000623
300.000000000624
300.000000000625
300.000000000627
300.000000000628
300.00000000063
300.000000000632
300.000000000634
300.000000000636
300.000000000639
300.000000000643
300.000000000658
300.000000000731
300.000000000901
300.000000000856
300.000000000872
300.000000000916
300.000000000739
300.000000000667
300.000000000652
300.000000000648
300.000000000645
300.000000000642
300.00000000064
300.000000000637
300.000000000635
300.000000000633
300.000000000631
300.00000000063
300.000000000628
300.000000000627
300.000000000626
300.000000000625
300.000000000624
300.000000000623
300.000000000622
300.000000000622
300.000000000621
300.000000000621
300.00000000062
300.00000000062
300.00000000062
300.00000000062
300.00000000062
300.00000000062
300.00000000062
300.00000000062
300.000000000621
300.000000000621
300.000000000622
300.000000000622
300.000000000623
300.000000000624
300.000000000626
300.000000000627
300.000000000629
300.000000000631
300.000000000633
300.000000000636
300.000000000639
300.000000000643
300.000000000658
300.000000000732
300.000000000902
300.000000000858
300.000000000873
300.000000000917
300.000000000739
300.000000000666
300.000000000652
300.000000000647
300.000000000644
300.000000000641
300.000000000638
300.000000000636
300.000000000634
300.000000000632
300.00000000063
300.000000000628
300.000000000627
300.000000000626
300.000000000625
300.000000000624
300.000000000623
300.000000000622
300.000000000621
300.000000000621
300.00000000062
300.00000000062
300.000000000619
300.000000000619
300.000000000619
300.000000000619
300.000000000619
300.000000000619
300.000000000619
300.000000000619
300.000000000619
300.00000000062
300.000000000621