/*--------------------------------*- C++ -*----------------------------------*\
  =========                 |
  \\      /  F ield         | OpenFOAM: The Open Source CFD Toolbox
   \\    /   O peration     | Website:  https://openfoam.org
    \\  /    A nd           | Version:  10
     \\/     M anipulation  |
\*---------------------------------------------------------------------------*/
FoamFile
{
    format      ascii;
    class       volVectorField;
    location    "2.2";
    object      U;
}
// * * * * * * * * * * * * * * * * * * * * * * * * * * * * * * * * * * * * * //

dimensions      [0 1 -1 0 0 0 0];

internalField   nonuniform List<vector> 
2500
(
(-1.90031862547303e-06 -1.85270511941705e-05 6.09820321481688e-25)
(-3.87907833197346e-06 -2.06852591524121e-05 8.45943982830844e-24)
(-2.62746843289437e-06 -2.1204440141974e-05 6.66182277361283e-25)
(-1.80553886889844e-06 -2.09454087547252e-05 -1.3505156346044e-25)
(-1.33405458574758e-06 -2.07692511957387e-05 7.99458846421412e-25)
(-1.00652417701927e-06 -2.06753109632653e-05 7.42469734937343e-25)
(-7.9897557645674e-07 -2.06369238769505e-05 1.56024097756922e-25)
(-6.67435756169316e-07 -2.06232136260583e-05 2.51663682816054e-25)
(-5.70024876860837e-07 -2.0617576778898e-05 1.40940841737576e-24)
(-4.96059382253079e-07 -2.06149643861512e-05 5.66041739775847e-24)
(-4.37116564473701e-07 -2.06133619043352e-05 -7.06219174614263e-25)
(-3.88885146851904e-07 -2.06121598932392e-05 4.57454754275901e-24)
(-3.48589535349794e-07 -2.06111599210527e-05 8.17561916523954e-24)
(-3.14333360001641e-07 -2.06102700207986e-05 -7.15394878166616e-25)
(-2.84808411187626e-07 -2.06094609524286e-05 4.88231700395984e-24)
(-2.59017489236287e-07 -2.06087175689691e-05 1.79149743231432e-25)
(-2.36196094038723e-07 -2.06080307982048e-05 7.48584369427943e-24)
(-2.15744254740987e-07 -2.06073817039088e-05 7.30768757382332e-24)
(-1.97176950996815e-07 -2.06067774418331e-05 6.71633337236355e-25)
(-1.80094710705548e-07 -2.06062127644219e-05 1.06703347707347e-23)
(-1.64147724298578e-07 -2.06056851428936e-05 7.65992686976586e-25)
(-1.49037683819032e-07 -2.06051966246367e-05 1.18091323397893e-24)
(-1.34486928311534e-07 -2.06047326695936e-05 4.29501533019393e-24)
(-1.20256892056194e-07 -2.06043131892199e-05 1.04964142239429e-25)
(-1.06132238622713e-07 -2.06039222729988e-05 1.14247382884478e-24)
(-9.18648095431269e-08 -2.06035651652949e-05 5.69067793391195e-24)
(-7.72359682915263e-08 -2.06032336037656e-05 9.36150093481799e-25)
(-6.20282325029682e-08 -2.06029446755987e-05 -1.21795224580457e-24)
(-4.59742486202935e-08 -2.06026887368895e-05 3.47879983333665e-24)
(-2.88288244572381e-08 -2.06024654928841e-05 5.75053249116055e-25)
(-1.03247422901083e-08 -2.06022806190996e-05 -9.71696795719494e-25)
(9.8824963160775e-09 -2.06021454071402e-05 4.96970136976847e-25)
(3.21544511205024e-08 -2.06020330890005e-05 -1.09284250374686e-24)
(5.69013251502778e-08 -2.06019715292489e-05 -9.81760386652251e-25)
(8.46347685030405e-08 -2.06019827441671e-05 7.04419920776978e-25)
(1.1596747636774e-07 -2.06020644063683e-05 6.33118692894713e-24)
(1.51683947151316e-07 -2.06022309949327e-05 -5.65870771304271e-24)
(1.9278042139786e-07 -2.06025144785318e-05 -3.62162817295032e-25)
(2.40576179302879e-07 -2.06029545615259e-05 -6.15974467590645e-25)
(2.96947767397389e-07 -2.06036516741076e-05 1.61753194056549e-25)
(3.6469718659823e-07 -2.060485608148e-05 -6.97738885618837e-24)
(4.48268347259484e-07 -2.06072728964132e-05 -5.05541105031486e-24)
(5.5632189115007e-07 -2.06130860315385e-05 2.05097397981735e-24)
(7.00375966367354e-07 -2.06275603399214e-05 -4.89205788970221e-24)
(9.21577738276847e-07 -2.06666413002722e-05 -9.38859731519431e-24)
(1.26964166955818e-06 -2.07600787235724e-05 2.74705151111926e-24)
(1.76385162131553e-06 -2.09314111336772e-05 -2.64434353379765e-24)
(2.6220419191476e-06 -2.11920802429567e-05 -6.11975464804817e-24)
(3.93640215520473e-06 -2.0670285993304e-05 1.97508803128827e-24)
(1.94596911434907e-06 -1.8409371146646e-05 -6.32424503785974e-24)
(-7.57378572275553e-07 -1.56825335344536e-05 1.63243353493296e-24)
(-5.57547991423381e-06 -1.77819550939742e-05 8.12149621768653e-24)
(-4.3053275908861e-06 -1.83841288767409e-05 1.86395434755239e-24)
(-3.07847969100425e-06 -1.77182610725383e-05 6.23096879162963e-25)
(-2.48909999555041e-06 -1.72663511395844e-05 1.09658682695632e-23)
(-2.01712645262349e-06 -1.70154692282644e-05 3.39197677014992e-24)
(-1.67417332472874e-06 -1.68958616778166e-05 7.92298867250716e-25)
(-1.4262621072317e-06 -1.68389932959383e-05 1.09968044045967e-24)
(-1.2277850222847e-06 -1.68085112688725e-05 4.34014657770322e-24)
(-1.06914684004064e-06 -1.67895408221624e-05 3.23834422117366e-24)
(-9.39142021622116e-07 -1.67760876303699e-05 -1.07098186095252e-24)
(-8.30833112444356e-07 -1.67657112745302e-05 6.73374867244262e-25)
(-7.3918557131515e-07 -1.6757320222402e-05 2.87912219019109e-24)
(-6.60552285428414e-07 -1.67503001778468e-05 -1.77704220325189e-24)
(-5.92271762273299e-07 -1.67442900906897e-05 1.96018728725672e-24)
(-5.32291065132037e-07 -1.6739090284599e-05 8.90858355443362e-25)
(-4.79003379949064e-07 -1.6734534424189e-05 2.10041955937713e-24)
(-4.31127237252617e-07 -1.67305101829974e-05 3.57295754992799e-24)
(-3.87628079550621e-07 -1.67269501827607e-05 2.15924942948622e-24)
(-3.47624167100571e-07 -1.67237891506193e-05 5.88139462233801e-24)
(-3.10355750488176e-07 -1.67210027138488e-05 2.34045888954823e-24)
(-2.75147857555749e-07 -1.67185446001506e-05 3.71618779299486e-24)
(-2.41400208552726e-07 -1.67163890494765e-05 8.54907084386814e-25)
(-2.08575726206597e-07 -1.67145514542763e-05 8.48915225401798e-25)
(-1.76166984090201e-07 -1.67129994673239e-05 2.69639848089655e-24)
(-1.43642760041059e-07 -1.67117270687734e-05 2.82164889765477e-24)
(-1.10504245698373e-07 -1.67107517560187e-05 2.07175983989352e-24)
(-7.62565745843204e-08 -1.67100756971334e-05 -3.25351515080382e-24)
(-4.03357128838627e-08 -1.67096939938128e-05 -7.83536466236625e-25)
(-2.18624059821955e-09 -1.6709637994103e-05 2.30016287894469e-24)
(3.87973532875035e-08 -1.67099451041474e-05 -3.03018957086167e-24)
(8.33509372362514e-08 -1.67106347676627e-05 4.43819092413369e-25)
(1.32254025067755e-07 -1.6711750883278e-05 -3.13368967222699e-24)
(1.86379480003346e-07 -1.6713357470213e-05 -3.06586124295502e-24)
(2.46827979067069e-07 -1.67155663012373e-05 1.70112965579567e-24)
(3.14903199682064e-07 -1.67184859608795e-05 5.50829089753175e-25)
(3.92225858837371e-07 -1.67222880996143e-05 -1.54089610064911e-24)
(4.80840399186937e-07 -1.6727221208392e-05 -9.44117334780244e-25)
(5.83401109964779e-07 -1.67336624338673e-05 -1.89585424619173e-24)
(7.03517688537246e-07 -1.6742274376278e-05 -7.39763252930652e-24)
(8.46202789629986e-07 -1.6754292676834e-05 -3.76733892726097e-25)
(1.01848554501758e-06 -1.67723896033127e-05 1.57047371032299e-24)
(1.23189300773385e-06 -1.68030657512348e-05 -3.2707888625144e-24)
(1.49756313598791e-06 -1.68619132050259e-05 4.75752288355242e-25)
(1.86101490376687e-06 -1.69850192176432e-05 3.99569260998164e-25)
(2.36668495937058e-06 -1.72395047668977e-05 -2.51371245403204e-24)
(2.9901005007904e-06 -1.76923459914909e-05 2.61559833358772e-24)
(4.2751631816846e-06 -1.83825598950955e-05 1.134346457502e-24)
(5.70719810638647e-06 -1.77730738131366e-05 -4.66029493178351e-24)
(8.82336868090095e-07 -1.55298475455069e-05 2.96845306234484e-25)
(-4.634324971078e-07 1.33952755654123e-05 2.30361492212662e-24)
(-3.51881528869126e-06 1.44345400428016e-05 5.79391752789332e-24)
(-3.40260867809898e-06 1.22829587036454e-05 2.64549582383213e-24)
(-2.98198037984352e-06 1.201312345393e-05 7.52717557124463e-25)
(-2.68185588675643e-06 1.20631903755625e-05 -2.76098443373597e-24)
(-2.28983828134848e-06 1.21799987441009e-05 2.29533273348832e-25)
(-1.95240108231717e-06 1.2279652004153e-05 1.20552021446597e-24)
(-1.68709739723387e-06 1.23513784202753e-05 1.4645795259525e-24)
(-1.46651338681295e-06 1.24020484430856e-05 -2.1332534730422e-25)
(-1.28648557149958e-06 1.2439086871094e-05 -2.37145543482036e-25)
(-1.1372691337031e-06 1.2467302565841e-05 5.54328960467798e-24)
(-1.01201373170643e-06 1.24896103218939e-05 2.81057019564898e-24)
(-9.05452773153293e-07 1.25077729586248e-05 -2.35214814943772e-24)
(-8.13654941503962e-07 1.25229133578985e-05 3.81823471403274e-24)
(-7.33638102751995e-07 1.25357861066738e-05 -9.92335490049679e-25)
(-6.63085305623449e-07 1.25468544305733e-05 1.72442999393697e-24)
(-6.001779006561e-07 1.25564652655713e-05 3.97068683646253e-24)
(-5.43443245959095e-07 1.2564858086617e-05 4.43196966807231e-24)
(-4.91671783603543e-07 1.25722118191553e-05 3.09147587337561e-24)
(-4.43846037188075e-07 1.25786540607969e-05 1.98217971341296e-24)
(-3.99078044258042e-07 1.25842835430637e-05 2.97363566762109e-24)
(-3.5658538352189e-07 1.25891777708906e-05 -8.38802837416365e-25)
(-3.15683038035871e-07 1.25933766864527e-05 3.17961812591056e-24)
(-2.75723895482705e-07 1.2596912272228e-05 1.29961629039291e-24)
(-2.36096908312976e-07 1.25998044602809e-05 6.64440884572064e-25)
(-1.96215343497486e-07 1.26020706933934e-05 4.47847001832712e-24)
(-1.5548878046576e-07 1.26036861651563e-05 2.89366251682066e-25)
(-1.13323717732729e-07 1.26046577258527e-05 9.03931853683532e-26)
(-6.91085980892177e-08 1.26049595212789e-05 1.43091727587111e-24)
(-2.21844312937313e-08 1.26045446549652e-05 -5.95093593273433e-25)
(2.81841613695465e-08 1.26033484779752e-05 -3.9334373422256e-24)
(8.27980167757613e-08 1.26013073816793e-05 -6.1274756108561e-24)
(1.42563552446514e-07 1.25982885054723e-05 4.53583237279724e-25)
(2.08517330534985e-07 1.25941645153017e-05 7.82819964350995e-26)
(2.81889556562196e-07 1.25887399965173e-05 -3.58513875524732e-24)
(3.64158645901231e-07 1.2581754399781e-05 2.12943271745749e-24)
(4.57156484361103e-07 1.25728248577088e-05 -2.35089870390417e-24)
(5.6316564770905e-07 1.25614379487826e-05 -1.14883682034495e-24)
(6.85108464598592e-07 1.254683197953e-05 3.84102020287079e-24)
(8.26870055241156e-07 1.25278141511394e-05 -4.19452334201875e-24)
(9.93650790013548e-07 1.25025000363233e-05 -1.37934958900178e-24)
(1.19222039642539e-06 1.24678322320361e-05 -5.03676087669169e-25)
(1.43235450985236e-06 1.24186906938757e-05 4.25280064474376e-24)
(1.71909321292579e-06 1.23469910502424e-05 -6.9823221557924e-25)
(2.0781899736762e-06 1.22451640491027e-05 -8.58236911112171e-25)
(2.50229004793208e-06 1.21212942484729e-05 -1.10519386731082e-24)
(2.8341439575945e-06 1.20508272320205e-05 3.07963921458123e-28)
(3.3202279617331e-06 1.22508757148921e-05 -1.58359683146211e-25)
(3.60069675230383e-06 1.44428541653327e-05 -5.88434940672861e-25)
(5.43190951636085e-07 1.3414708016055e-05 -6.90246306833241e-25)
(-2.24416608714343e-06 1.62759586812554e-05 2.31002516611358e-24)
(-2.25319393484834e-06 1.48256674414853e-05 1.52308967281749e-23)
(-2.78427210744103e-06 1.07661795814621e-05 2.57490199381923e-24)
(-2.73316326830547e-06 9.87640965147318e-06 7.53766021085436e-25)
(-2.57138073693119e-06 9.71246114429883e-06 1.73050463042983e-24)
(-2.24254776260554e-06 9.78333279324319e-06 3.42873467622781e-24)
(-1.93896021150581e-06 9.89283500651342e-06 8.46801635070827e-25)
(-1.69428067126921e-06 9.98714779211692e-06 1.08919233533835e-24)
(-1.48890436288707e-06 1.005901732906e-05 4.6917600620573e-24)
(-1.32024554369706e-06 1.01136939839589e-05 8.22871207203955e-24)
(-1.17983472602081e-06 1.01561030920998e-05 -1.03840272449572e-25)
(-1.06154880179345e-06 1.01898838727751e-05 7.54665287495551e-24)
(-9.60621810011209e-07 1.02174271331394e-05 8.5085467742003e-24)
(-8.73450219672896e-07 1.02403566409497e-05 -6.39540313693321e-25)
(-7.97236766028878e-07 1.02597670983694e-05 8.95417024106341e-24)
(-7.29803121550438e-07 1.02763952128565e-05 2.2142297837097e-24)
(-6.69419062293579e-07 1.02907538938436e-05 6.68983745973794e-24)
(-6.14666555842711e-07 1.03032234642927e-05 8.43268330687927e-24)
(-5.64387773899942e-07 1.03140770431611e-05 2.97016838003665e-24)
(-5.17589048267607e-07 1.03235171996315e-05 9.70402783662272e-24)
(-4.7342244123341e-07 1.03316958160901e-05 2.55685571941361e-24)
(-4.31144325500104e-07 1.03387162258965e-05 4.18506048459395e-24)
(-3.9007932602646e-07 1.03446742784848e-05 7.25454929801849e-24)
(-3.49610720301314e-07 1.03496230183555e-05 1.3913232963885e-24)
(-3.0915232629854e-07 1.03535885039751e-05 3.02177025023139e-24)
(-2.68142419702553e-07 1.03565739255838e-05 7.46966345661767e-24)
(-2.26023672256775e-07 1.03585904397081e-05 2.39583875249334e-24)
(-1.82227614673265e-07 1.03596067402286e-05 -2.52479963288796e-24)
(-1.3616575335924e-07 1.03595917304634e-05 5.17994587690984e-24)
(-8.72064318555295e-08 1.03584776811086e-05 2.85459991682337e-24)
(-3.46513324680047e-08 1.03561765961163e-05 -2.89950799834849e-24)
(2.22594686129986e-08 1.03525516087257e-05 4.8183951314502e-25)
(8.43918403903039e-08 1.03474520551998e-05 -3.05437531862498e-24)
(1.5274831694929e-07 1.0340642211871e-05 -2.96191464710976e-24)
(2.28501964258699e-07 1.03318342082099e-05 2.25661720700487e-24)
(3.13041211726251e-07 1.03206152866683e-05 5.41326165246411e-24)
(4.08085840911e-07 1.03064310985899e-05 -5.06839157393104e-24)
(5.15769274447818e-07 1.02885114721596e-05 -1.17668056219893e-24)
(6.38794662982339e-07 1.02657360676571e-05 -1.65515954582647e-24)
(7.80684219552364e-07 1.02363933651973e-05 2.64788650677937e-24)
(9.46073491043732e-07 1.01979647756451e-05 -6.2954344711169e-24)
(1.14087886849925e-06 1.01466571331095e-05 -5.53162992569628e-24)
(1.37323935516331e-06 1.00772189494315e-05 3.64133167098499e-24)
(1.64567153825527e-06 9.98372981267834e-06 -5.84482836752937e-24)
(1.97424582957528e-06 9.87270042001202e-06 -5.23758225145987e-24)
(2.3342207477942e-06 9.79519764064994e-06 4.04050629813983e-24)
(2.52610995420308e-06 9.93235678339055e-06 -5.30519440252017e-24)
(2.66086601243507e-06 1.07343036202195e-05 -6.7801199964851e-24)
(2.24202284490696e-06 1.48797805746379e-05 6.00488991555216e-24)
(2.22515427980369e-06 1.62982401711508e-05 -4.82999316395936e-24)
(-1.84464947566672e-06 1.36529426380872e-05 1.00678153099672e-24)
(-1.93209522074561e-06 9.72759599519126e-06 7.21488333514663e-24)
(-2.6729517758514e-06 5.6200146005214e-06 1.12086044987364e-24)
(-2.5664085018567e-06 4.82384422936078e-06 1.58492828575892e-25)
(-2.40956028472007e-06 4.73191790716532e-06 -1.00674194002326e-24)
(-2.11616672418987e-06 4.86082828430817e-06 1.63223849445947e-24)
(-1.84846261658528e-06 5.01211623136371e-06 3.19346808170606e-25)
(-1.63189027538543e-06 5.13603160745651e-06 4.11705189489154e-25)
(-1.44889908691522e-06 5.2292643785811e-06 2.38762223899908e-24)
(-1.29745979676817e-06 5.30027913216317e-06 3.52232946694476e-24)
(-1.17057221525934e-06 5.35557720968836e-06 -7.04736797968704e-25)
(-1.06310989969743e-06 5.39975647926151e-06 2.50592722005713e-24)
(-9.71028465453718e-07 5.43582393184426e-06 3.56786535886464e-24)
(-8.91199982374092e-07 5.46584254834708e-06 -7.81553127745112e-25)
(-8.21149668057606e-07 5.49119946496759e-06 4.07517109041866e-24)
(-7.58920893060432e-07 5.51285548258326e-06 9.41035501778182e-25)
(-7.02947986162219e-07 5.53150307156947e-06 2.8711363406344e-24)
(-6.51930288358298e-07 5.5476274572884e-06 3.92688596943999e-24)
(-6.04794299151587e-07 5.56159661595742e-06 1.21994519747742e-24)
(-5.60625287087408e-07 5.57368550393442e-06 4.21098414537885e-24)
(-5.18639031412159e-07 5.58408462253143e-06 1.01803671701301e-24)
(-4.78134721598468e-07 5.59295104196806e-06 2.19662419186383e-24)
(-4.38490957563543e-07 5.60040057570089e-06 2.29268338800356e-24)
(-3.99137126627224e-07 5.60650068730704e-06 5.65291205057199e-25)
(-3.59528914730588e-07 5.61130329216825e-06 1.8772678813286e-24)
(-3.19145740811387e-07 5.61481003617163e-06 2.76807281078849e-24)
(-2.77475026077911e-07 5.61703372004145e-06 1.50789907630939e-24)
(-2.33988727873955e-07 5.61793878578968e-06 -1.38557973043327e-24)
(-1.88144208288408e-07 5.61747801395639e-06 1.83681361993151e-24)
(-1.39358564121026e-07 5.61555596672591e-06 1.44424270277165e-24)
(-8.69820374591435e-08 5.61205043072282e-06 -1.49038434369014e-24)
(-3.03174961873927e-08 5.60680238509986e-06 8.77384548725995e-25)
(3.14349763165751e-08 5.59959097794893e-06 -1.69819062486246e-24)
(9.91987328613362e-08 5.59012791392017e-06 -1.59448451782072e-24)
(1.74040333213061e-07 5.57801114671764e-06 1.42835457059095e-24)
(2.57223793055584e-07 5.56270853634564e-06 1.91672872138324e-24)
(3.50296619187304e-07 5.54350121291414e-06 -1.71853530558941e-24)
(4.55143018653791e-07 5.51941230671739e-06 -4.65782840137252e-25)
(5.74122993381837e-07 5.48900471189097e-06 -1.01355526042707e-24)
(7.10250466387097e-07 5.45011619689328e-06 4.78353790138011e-24)
(8.67388205459412e-07 5.39960929233931e-06 -1.75152629040145e-24)
(1.05034386731297e-06 5.3327156752297e-06 -1.85503658102957e-24)
(1.26552788087065e-06 5.24251531025781e-06 4.44338999295792e-24)
(1.51438822117677e-06 5.11994389520884e-06 -1.60044419735323e-24)
(1.81010815777825e-06 4.96765930097824e-06 -1.77629168904619e-24)
(2.13506400967153e-06 4.83240502311351e-06 4.89971140859448e-24)
(2.32126130279182e-06 4.8898976723159e-06 -1.8261459967645e-24)
(2.52841165568909e-06 5.59014074975204e-06 -1.98207379678536e-24)
(1.87153769612338e-06 9.80313189274845e-06 5.72428546428787e-24)
(1.78889987807551e-06 1.37464374836966e-05 -2.23273537957288e-24)
(-9.75971288663444e-07 1.11900216508051e-05 3.62698102297928e-25)
(-1.80557285457652e-06 6.2475466954142e-06 4.4089689410676e-24)
(-2.55752888429833e-06 2.45418567607944e-06 4.01685638421698e-25)
(-2.38653262188655e-06 1.78191866673382e-06 8.67870371354513e-26)
(-2.23648240179437e-06 1.76869737952615e-06 9.32389107068278e-25)
(-1.98331944541841e-06 1.94715087080211e-06 1.58921284472874e-24)
(-1.75237356350066e-06 2.13208030040821e-06 1.48153995259704e-25)
(-1.56307328396462e-06 2.27981775625533e-06 1.52790519478412e-25)
(-1.40067763775164e-06 2.39083124895145e-06 1.59628474935417e-24)
(-1.26431118999899e-06 2.47576422654689e-06 1.86509444579814e-24)
(-1.14877619005683e-06 2.54229162690168e-06 -1.27932636956561e-24)
(-1.05007723950229e-06 2.59565170676141e-06 6.65581853376335e-25)
(-9.64932478595607e-07 2.63934632553035e-06 2.0361245388077e-24)
(-8.90710989347802e-07 2.67573939472314e-06 -1.17594972905237e-24)
(-8.2527758286387e-07 2.70647890551997e-06 2.1082060989588e-24)
(-7.66895990361146e-07 2.73269591938031e-06 3.08050145830715e-25)
(-7.14159913414357e-07 2.75521860378042e-06 8.94086355554574e-25)
(-6.65884115321094e-07 2.77464166893619e-06 2.3279392523996e-24)
(-6.21076182645265e-07 2.79141280584904e-06 4.29762293022467e-25)
(-5.78885958262543e-07 2.80585873109126e-06 2.19369107775615e-24)
(-5.38580130545454e-07 2.81823309095446e-06 3.70969671573921e-25)
(-4.99506066895996e-07 2.82872050856077e-06 1.53458301800242e-24)
(-4.61078384711595e-07 2.83745443817834e-06 6.76026736507872e-25)
(-4.227565664512e-07 2.84452928868832e-06 2.17323222043265e-25)
(-3.8403206376841e-07 2.85000144996837e-06 1.63869181485382e-24)
(-3.44415486386814e-07 2.85389675437389e-06 8.57999316797455e-25)
(-3.03424520546403e-07 2.85620749197453e-06 1.41763295440497e-24)
(-2.60564129342027e-07 2.8569060298915e-06 -1.38288847768484e-24)
(-2.15320919001229e-07 2.85591377946376e-06 5.19444023710213e-25)
(-1.67151982800099e-07 2.85313592928923e-06 1.31960285981796e-24)
(-1.15444441387922e-07 2.84841181259923e-06 -1.40017054366972e-24)
(-5.95513319884912e-08 2.84154247976466e-06 1.26948994023554e-24)
(1.26874959585303e-09 2.83227065869242e-06 -1.45110164171678e-24)
(6.78717632655606e-08 2.82023406127165e-06 -1.54177351756229e-24)
(1.41232447011974e-07 2.80495105957016e-06 1.31339108586714e-24)
(2.22498369046083e-07 2.7858021753634e-06 5.69217416721608e-25)
(3.13045759236115e-07 2.7619087633977e-06 -4.7848043895501e-25)
(4.14522337638319e-07 2.7321274599235e-06 -1.84114359065977e-25)
(5.28943657515987e-07 2.69478639327465e-06 -1.30798438598713e-24)
(6.58797156563531e-07 2.6473968731734e-06 2.33086793344193e-24)
(8.07139781416399e-07 2.58637215597281e-06 -4.02222216958637e-25)
(9.77576908104567e-07 2.50631010369634e-06 -4.32333984729484e-25)
(1.17459122348766e-06 2.39925803326533e-06 2.1513625434227e-24)
(1.3983142344975e-06 2.25417437097557e-06 -4.06484282288445e-25)
(1.65918502195541e-06 2.0698168000635e-06 -4.3241571362282e-25)
(1.9448230650535e-06 1.88495354161329e-06 2.47460631372683e-24)
(2.1257433486728e-06 1.85171889874054e-06 -4.22580350292814e-25)
(2.40399130420661e-06 2.41639433434466e-06 -4.05678399959589e-25)
(1.73128627230739e-06 6.32131825025869e-06 4.11854419858762e-24)
(9.22198621952593e-07 1.13100259647395e-05 -6.94243483371717e-25)
(-4.47520678718196e-07 9.89241982007304e-06 1.17969652648316e-25)
(-1.60926739007304e-06 4.74625219584368e-06 1.51382145332944e-24)
(-2.30065389331242e-06 9.80503466648088e-07 1.28901780578129e-25)
(-2.16224535801285e-06 3.13094583645885e-07 2.57863629648284e-26)
(-2.05065266694082e-06 3.29617304368436e-07 2.28115234646043e-25)
(-1.84870590445773e-06 5.32483789491778e-07 3.85668421471212e-25)
(-1.6559054721873e-06 7.37742246441747e-07 4.46963479900256e-26)
(-1.49304816127177e-06 9.02039374060891e-07 4.59255843576821e-26)
(-1.34974725688034e-06 1.02683396227687e-06 3.84254487328499e-25)
(-1.22687211343188e-06 1.12326950396294e-06 6.07179357116672e-25)
(-1.12116741423434e-06 1.19943937672141e-06 -2.74649120044971e-25)
(-1.02981383877336e-06 1.26091308071718e-06 5.00417424284548e-25)
(-9.50310082536754e-07 1.3114625972379e-06 9.06082946455226e-25)
(-8.80527978778735e-07 1.35366295031443e-06 -2.1903389370527e-25)
(-8.18662158212228e-07 1.38934327582721e-06 8.27288987154066e-25)
(-7.63208776852949e-07 1.4197730819541e-06 1.13624371745519e-25)
(-7.12909594842472e-07 1.44588795679718e-06 5.92373864138989e-25)
(-6.6668766490358e-07 1.46837362294464e-06 8.3821757224928e-25)
(-6.23631544795321e-07 1.48774507671449e-06 1.50590111158058e-25)
(-5.82949333930661e-07 1.50438017440578e-06 8.57222184368415e-25)
(-5.43953429891325e-07 1.51857266477462e-06 1.15603157022838e-25)
(-5.06029514096288e-07 1.53053750829792e-06 3.61393003663337e-25)
(-4.68620584670237e-07 1.5404405444965e-06 5.69512918850254e-25)
(-4.31214065065326e-07 1.54839350828748e-06 7.54178302423701e-26)
(-3.93324872930594e-07 1.55445024774073e-06 4.09545326855074e-25)
(-3.54489056478828e-07 1.5586537148015e-06 5.63194457808165e-25)
(-3.14248069248552e-07 1.56099182433297e-06 3.27424725677654e-25)
(-2.7212999301626e-07 1.56143429465925e-06 -2.81259192431976e-25)
(-2.27644798391462e-07 1.55988553844438e-06 5.48273109673815e-25)
(-1.80275790389272e-07 1.55623652538981e-06 2.98586534633157e-25)
(-1.29452882268647e-07 1.55030207770134e-06 -3.14513178702198e-25)
(-7.45590968058237e-08 1.54184569811814e-06 2.96588529991472e-25)
(-1.49029410683755e-08 1.53057303731838e-06 -3.0284138172474e-25)
(5.03017764536268e-08 1.51605923289212e-06 -3.60302781243599e-25)
(1.21956813275866e-07 1.49776855577428e-06 2.89160534947435e-25)
(2.01091411825367e-07 1.47498422059169e-06 4.75080575431164e-25)
(2.88916957785971e-07 1.44671718823441e-06 -3.04430817555282e-25)
(3.86858595500484e-07 1.41170037717153e-06 -6.47907818562705e-26)
(4.96589580688713e-07 1.3680861865545e-06 -2.97219314740071e-25)
(6.2007410161876e-07 1.31318097241289e-06 4.90267024282365e-25)
(7.59571268514197e-07 1.24316411912204e-06 -4.64054385441558e-25)
(9.17484730013533e-07 1.15237442283598e-06 -5.25949731255778e-25)
(1.09632504404373e-06 1.03258619762492e-06 4.22661183661701e-25)
(1.29452781889182e-06 8.72486780088893e-07 -5.69759538505468e-25)
(1.51877303587504e-06 6.6969145298497e-07 -5.31054959143339e-25)
(1.75448131888189e-06 4.60394385997299e-07 5.31008963665497e-25)
(1.8999595571233e-06 3.86171962727098e-07 -4.84393939770847e-25)
(2.14208353540516e-06 9.32299187137498e-07 -5.93182658192447e-25)
(1.53216618437207e-06 4.81551231983638e-06 8.18550234021168e-25)
(4.01790235503598e-07 1.00035418255414e-05 -8.52047930964623e-25)
(-2.22131540137394e-07 9.45858654199853e-06 4.23513000015426e-26)
(-1.36413208638596e-06 4.37087386688627e-06 3.48286059637386e-25)
(-1.97703417157746e-06 4.23875030024461e-07 4.63652762790491e-26)
(-1.91969198348642e-06 -3.0991110714638e-07 6.36578039810245e-27)
(-1.85891915492685e-06 -3.05432149434866e-07 -8.44265817184421e-26)
(-1.71077404915576e-06 -9.91306993579681e-08 1.00205356980029e-25)
(-1.555451075927e-06 1.14966096073387e-07 1.77788566389685e-26)
(-1.41823197164909e-06 2.89302784489377e-07 2.06860175875878e-26)
(-1.29333335865023e-06 4.24080591815028e-07 1.26668886828626e-25)
(-1.18345253727996e-06 5.29657251799401e-07 2.05610787237614e-25)
(-1.08716992424079e-06 6.13936193549051e-07 -6.31262229780444e-26)
(-1.00280611221066e-06 6.82486510864368e-07 9.65873428796482e-26)
(-9.28623221621123e-07 7.39149734189949e-07 1.97004628732958e-25)
(-8.62985888998808e-07 7.86636132695608e-07 -4.54603560434479e-26)
(-8.04428489864863e-07 8.26861896129911e-07 1.8612397316482e-25)
(-7.51671891772232e-07 8.61205333191044e-07 4.0452665186443e-26)
(-7.03613303435658e-07 8.90680550566654e-07 1.32630053305408e-25)
(-6.59288639437303e-07 9.16039509073415e-07 2.02262404785294e-25)
(-6.17867130568861e-07 9.37851712814962e-07 5.11609879588562e-26)
(-5.78616991687191e-07 9.56546608752621e-07 1.88634593277385e-25)
(-5.40894398765725e-07 9.72442913067156e-07 3.69222970598576e-26)
(-5.04119870277509e-07 9.85802353437478e-07 9.42041637535726e-26)
(-4.67764155339738e-07 9.96796481121043e-07 1.06936694126706e-25)
(-4.31346181908234e-07 1.00555661598275e-06 2.21019566523899e-26)
(-3.94402330676636e-07 1.01214948472279e-06 1.01431632770378e-25)
(-3.56487519657867e-07 1.01661792549991e-06 1.18952347509801e-25)
(-3.17164338803134e-07 1.01896185841192e-06 7.5543462381475e-26)
(-2.7598589619728e-07 1.01912593373535e-06 -5.92273990913194e-26)
(-2.32483075770594e-07 1.01702839126592e-06 1.06933858258797e-25)
(-1.8616433474021e-07 1.01251729469588e-06 6.7159142981241e-26)
(-1.36494987315171e-07 1.00539772678283e-06 -6.26409471863223e-26)
(-8.28952328709767e-08 9.95413376719954e-07 5.93361129228412e-26)
(-2.47209610248749e-08 9.82214987474132e-07 -7.31622396239236e-26)
(3.87553399225455e-08 9.65347264833629e-07 -8.17845411812399e-26)
(1.08349302449678e-07 9.44210549335499e-07 6.8921807374373e-26)
(1.84975292140426e-07 9.18019059032144e-07 9.26589500887499e-26)
(2.69690248644817e-07 8.85711952946721e-07 -9.51638425858602e-26)
(3.63686539603269e-07 8.45928690322155e-07 -1.53622615581988e-26)
(4.68299495964617e-07 7.96717891350106e-07 -4.82958581839208e-26)
(5.84992072546803e-07 7.35295814103091e-07 2.07951975652141e-25)
(7.15256761827999e-07 6.57785093010562e-07 -8.35679259963305e-26)
(8.6035648925932e-07 5.58600006408899e-07 -9.53758503278149e-26)
(1.02100614610393e-06 4.2981842189156e-07 2.35604199040254e-25)
(1.1939840178643e-06 2.61075956465902e-07 -1.06565110376446e-25)
(1.38209535458405e-06 5.10826383191423e-08 -8.90401499884794e-26)
(1.56525197736533e-06 -1.61850491646527e-07 2.72498620131161e-25)
(1.66313856510225e-06 -2.32484128917285e-07 -8.4819418528174e-26)
(1.81479384777438e-06 3.67512604865484e-07 -1.11636044352588e-25)
(1.28366144086867e-06 4.44155065896431e-06 3.94647727232578e-25)
(1.82056627883825e-07 9.553664899362e-06 -1.89410177802107e-25)
(-1.39222989165842e-07 9.4371683998634e-06 3.06847399436704e-26)
(-1.12742313135815e-06 4.45209202580328e-06 2.41829610313178e-25)
(-1.66442988057646e-06 2.67900099662649e-07 3.44342527707236e-26)
(-1.6861471223567e-06 -5.5268257291783e-07 1.62618521016143e-26)
(-1.67157917617706e-06 -5.8343265698802e-07 1.05212512002903e-25)
(-1.57237361572554e-06 -3.86993825462667e-07 1.09907658928287e-25)
(-1.45176544711674e-06 -1.72351338936348e-07 1.91626431696153e-26)
(-1.33882451747682e-06 6.78630468183268e-09 2.21281996951659e-26)
(-1.2317028063114e-06 1.48194524655283e-07 1.51685328820035e-25)
(-1.13463658616276e-06 2.6071103359606e-07 1.47138933803602e-25)
(-1.04778052000729e-06 3.51619325826267e-07 -8.27321032146266e-26)
(-9.70493491419847e-07 4.26211435410819e-07 2.0138726561932e-26)
(-9.01734176124849e-07 4.88274452386279e-07 1.27761701780917e-25)
(-8.40347698611059e-07 5.40517920105333e-07 -8.47417057913733e-26)
(-7.85201482139807e-07 5.84905726710512e-07 1.44208223502616e-25)
(-7.35239748977131e-07 6.22873498588608e-07 2.40080926570526e-26)
(-6.89519635832094e-07 6.5548375165089e-07 4.2568552643077e-26)
(-6.47190670910567e-07 6.83544386077356e-07 1.2392494419842e-25)
(-6.07502100907238e-07 7.07658722945794e-07 3.32297257310545e-26)
(-5.69788479297812e-07 7.28296128899349e-07 1.13481678987281e-25)
(-5.33447971091341e-07 7.45815066850103e-07 2.62920292431622e-26)
(-4.97941203736634e-07 7.6049373355388e-07 1.15477368721075e-25)
(-4.62775745883447e-07 7.72520989267985e-07 2.7419711269311e-26)
(-4.27489838694804e-07 7.82038377395205e-07 1.49777962238239e-26)
(-3.91646292890716e-07 7.89136150627195e-07 9.2380723999989e-26)
(-3.54821088437823e-07 7.93851570414177e-07 4.13479366275917e-26)
(-3.16602624379775e-07 7.96183551182325e-07 7.70464561754819e-26)
(-2.76562197040394e-07 7.96074529418013e-07 -7.00912449341639e-26)
(-2.34259917827372e-07 7.93430673670508e-07 1.72691590992561e-26)
(-1.89230402094448e-07 7.88090238519818e-07 7.59699568236804e-26)
(-1.40967508169609e-07 7.79832009579589e-07 -5.00404228071978e-26)
(-8.89371142667868e-08 7.68382703530115e-07 5.5710438408772e-26)
(-3.25364512105216e-08 7.53363296259675e-07 -1.08950171520971e-25)
(2.88919389877056e-08 7.34272124564361e-07 -8.23102329217088e-26)
(9.60789343846969e-08 7.10468740176108e-07 6.87389351889353e-26)
(1.69829951274235e-07 6.81125804078829e-07 2.40032516854798e-26)
(2.51035976586908e-07 6.45131919504266e-07 -1.56963123513813e-26)
(3.40664559181257e-07 6.01062288251231e-07 -6.14550444262057e-27)
(4.39726697512585e-07 5.46945982133515e-07 -4.96900368354438e-26)
(5.49203873854576e-07 4.80001614731145e-07 1.00316847935497e-25)
(6.69892366622892e-07 3.96440352468954e-07 -7.66218480591852e-27)
(8.02046683121056e-07 2.90991909087928e-07 -1.02848763586461e-26)
(9.44874870366642e-07 1.56444748438031e-07 1.0298531413058e-25)
(1.09381531353103e-06 -1.59686106630834e-08 -1.01608124858956e-26)
(1.24838660417078e-06 -2.25306618860653e-07 -6.19334710045782e-27)