/*--------------------------------*- C++ -*----------------------------------*\
  =========                 |
  \\      /  F ield         | OpenFOAM: The Open Source CFD Toolbox
   \\    /   O peration     | Website:  https://openfoam.org
    \\  /    A nd           | Version:  10
     \\/     M anipulation  |
\*---------------------------------------------------------------------------*/
FoamFile
{
    format      ascii;
    class       volScalarField;
    location    "2.2";
    object      wallHeatFlux;
}
// * * * * * * * * * * * * * * * * * * * * * * * * * * * * * * * * * * * * * //

dimensions      [1 0 -3 0 0 0 0];

internalField   uniform 0;

boundaryField
{
    back
    {
        type            calculated;
        value           uniform 0;
    }
    bottom
    {
        type            calculated;
        value           nonuniform List<scalar> 
50
(
290.513565115727
305.21497450536
312.4136554576
314.547299362397
315.11390110712
315.261488293838
315.298725027863
315.30737523238
315.309025374076
315.309342874788
315.309156572271
315.309015343667
315.30892839991
315.308787103159
315.308671273344
315.30851854232
315.308470968818
315.308386323254
315.308280826235
315.308225890762
315.308198029622
315.308215295284
315.308239501002
315.308200851262
315.308146544754
315.308147498419
315.308129520799
315.308120016504
315.308152323705
315.308115613238
315.308097692359
315.308146403044
315.308137736993
315.308117653359
315.308134731887
315.308186964223
315.308257497859
315.308300548507
315.308426035956
315.308506705078
315.308492860597
315.307998327295
315.30544280161
315.294476054164
315.252357393119
315.095897613757
314.523051343019
312.393882663069
305.088699624803
290.524784933016
)
;
    }
    left
    {
        type            calculated;
        value           uniform 0;
    }
    front
    {
        type            calculated;
        value           uniform 0;
    }
    right
    {
        type            calculated;
        value           uniform 0;
    }
    top
    {
        type            calculated;
        value           uniform 0;
    }
}


// ************************************************************************* //
