/*--------------------------------*- C++ -*----------------------------------*\
  =========                 |
  \\      /  F ield         | OpenFOAM: The Open Source CFD Toolbox
   \\    /   O peration     | Website:  https://openfoam.org
    \\  /    A nd           | Version:  10
     \\/     M anipulation  |
\*---------------------------------------------------------------------------*/
FoamFile
{
    format      ascii;
    class       volScalarField;
    location    "3";
    object      alphat;
}
// * * * * * * * * * * * * * * * * * * * * * * * * * * * * * * * * * * * * * //

dimensions      [1 -1 -1 0 0 0 0];

internalField   nonuniform List<scalar> 
2500
(
2.68512494311579e-14
5.10078729936634e-13
2.08529238205902e-12
3.35621433224188e-12
4.17250272734642e-12
4.61504956989481e-12
4.82237204396875e-12
4.90789421250075e-12
4.9394599958052e-12
4.95002696269885e-12
4.95327148132675e-12
4.95419288694286e-12
4.95443554362826e-12
4.95449379133812e-12
4.95450523280032e-12
4.95450581448183e-12
4.95450426617815e-12
4.95450254998854e-12
4.95450098992712e-12
4.95449961511592e-12
4.95449842135709e-12
4.95449739299633e-12
4.95449651521999e-12
4.9544957742548e-12
4.9544951747605e-12
4.95449471770823e-12
4.9544944069866e-12
4.9544943302759e-12
4.95449451235998e-12
4.95449467039667e-12
4.95449481695614e-12
4.95449519158873e-12
4.95449575571714e-12
4.95449637242387e-12
4.95449635712736e-12
4.95449187175323e-12
4.95446812366741e-12
4.95437264881097e-12
4.95401905310628e-12
4.9527904166407e-12
4.94878422090056e-12
4.93658863347126e-12
4.90220330638084e-12
4.81331849632202e-12
4.60526601832907e-12
4.17083473883395e-12
3.37587489538923e-12
2.12866925229522e-12
5.36154799660844e-13
2.95177006879964e-14
2.6069073031123e-12
1.30393672624861e-10
5.45976442839268e-10
8.82802170176859e-10
1.10244789824544e-09
1.22370572631374e-09
1.28160558835967e-09
1.30594742707252e-09
1.31509811234584e-09
1.31821514910946e-09
1.31918799956492e-09
1.31946858787701e-09
1.31954363444338e-09
1.31956200822584e-09
1.3195657879171e-09
1.31956610442695e-09
1.31956572358465e-09
1.31956526853019e-09
1.31956484938029e-09
1.31956448136052e-09
1.31956416322974e-09
1.31956389098535e-09
1.31956366002226e-09
1.31956346596183e-09
1.3195633094368e-09
1.3195631920845e-09
1.31956311557823e-09
1.31956310872753e-09
1.31956316647618e-09
1.31956319874624e-09
1.31956325008934e-09
1.31956336064428e-09
1.31956351485338e-09
1.31956367367333e-09
1.31956361994268e-09
1.31956214010225e-09
1.31955469578468e-09
1.31952533248512e-09
1.31941791573435e-09
1.31904921992189e-09
1.31786242286998e-09
1.31429919462003e-09
1.30440074152572e-09
1.27921569393731e-09
1.22123961432402e-09
1.10223615664758e-09
8.88103379792902e-10
5.5710802835366e-10
1.36802996971039e-10
2.84812942044956e-12
9.09794708062198e-12
2.30699111690521e-09
7.52582779045092e-07
1.21005233660213e-06
1.5068323917462e-06
1.67151044124419e-06
1.75099010795091e-06
1.78486382072691e-06
1.7977888525556e-06
1.80225895479818e-06
1.80367527735424e-06
1.80408990768144e-06
1.80420253847683e-06
1.80423067460749e-06
1.80423672465327e-06
1.80423741675564e-06
1.80423700174119e-06
1.80423643635128e-06
1.80423590466686e-06
1.80423543591098e-06
1.80423502992836e-06
1.80423468200654e-06
1.80423438681261e-06
1.80423413943575e-06
1.80423393904686e-06
1.80423378794466e-06
1.80423369004362e-06
1.80423368670885e-06
1.80423375191641e-06
1.80423377939909e-06
1.80423385092447e-06
1.80423398896839e-06
1.80423417488986e-06
1.80423435304933e-06
1.80423419168006e-06
1.80423187741718e-06
1.80422081541256e-06
1.80417780218182e-06
1.80402185454676e-06
1.80349108123438e-06
1.80179749952955e-06
1.79676026900773e-06
1.78290663317043e-06
1.74802145988753e-06
1.66851202944653e-06
1.50663300917071e-06
1.21651200413018e-06
7.66083511264537e-07
2.40546083035762e-09
9.7657514872274e-12
1.58308378846961e-11
4.04440996549783e-09
1.31176361329509e-06
2.08956567346743e-06
2.58872876685782e-06
2.86464795266923e-06
2.99792587857157e-06
3.05493794875237e-06
3.07680947352607e-06
3.08442255743478e-06
3.08685200199901e-06
3.08756876608384e-06
3.08776517770408e-06
3.08781482709397e-06
3.08782577475422e-06
3.08782721614454e-06
3.08782663471225e-06
3.08782576370435e-06
3.08782492944378e-06
3.08782418942717e-06
3.08782354544841e-06
3.08782299107256e-06
3.08782251898407e-06
3.08782212269901e-06
3.0878217992749e-06
3.08782155078597e-06
3.0878213855162e-06
3.08782136616694e-06
3.08782143325915e-06
3.08782147691264e-06
3.08782158221666e-06
3.08782178128075e-06
3.08782206344057e-06
3.0878223231409e-06
3.08782201708553e-06
3.08781813602746e-06
3.08779995974967e-06
3.08772911226125e-06
3.08747138101634e-06
3.08659110444561e-06
3.08377328156208e-06
3.07536918931152e-06
3.05220469038509e-06
2.99376918045253e-06
2.86034829042858e-06
2.58799134987879e-06
2.097446142761e-06
1.32886048823968e-06
4.17057495971963e-09
1.66797346271751e-11
2.19621615427011e-11
5.61951180438692e-09
1.80708505674758e-06
2.85733213124032e-06
3.52614444024333e-06
3.89492901770121e-06
4.07324776986315e-06
4.14977629571894e-06
4.17927300622687e-06
4.18959852084013e-06
4.19291464314816e-06
4.19389995275217e-06
4.19417216296399e-06
4.19424174709348e-06
4.19425746199275e-06
4.19425980248367e-06
4.19425921262361e-06
4.19425817126797e-06
4.19425714985218e-06
4.1942562369751e-06
4.19425543818112e-06
4.19425474629526e-06
4.1942541536829e-06
4.19425365352468e-06
4.19425324183588e-06
4.19425292025668e-06
4.19425269751101e-06
4.19425263904797e-06
4.1942526842504e-06
4.19425273947408e-06
4.1942528521475e-06
4.19425307464562e-06
4.19425339393326e-06
4.19425367714449e-06
4.19425317921437e-06
4.19424796621522e-06
4.19422412596986e-06
4.19413105558632e-06
4.19379144134733e-06
4.19262750022233e-06
4.18888948255448e-06
4.17770904091117e-06
4.14681909880755e-06
4.06874628360729e-06
3.8901848562731e-06
3.5249169661795e-06
2.86471660640381e-06
1.82380019402332e-06
5.74737535731547e-09
2.28477847460635e-11
2.71920657287873e-11
6.96968116558582e-09
2.22595819792559e-06
3.49967996315358e-06
4.30640053958102e-06
4.75061599228332e-06
4.96568775584508e-06
5.05827186247846e-06
5.0941082570924e-06
5.10671685660994e-06
5.11078958177822e-06
5.11200751261576e-06
5.11234652608638e-06
5.11243409113597e-06
5.11245431711743e-06
5.11245765852678e-06
5.11245720124054e-06
5.11245611210879e-06
5.11245500912884e-06
5.11245401326534e-06
5.11245313628849e-06
5.11245237188837e-06
5.11245171234792e-06
5.11245115144047e-06
5.11245068552144e-06
5.11245031497233e-06
5.11245004580429e-06
5.11244992201617e-06
5.11244993727246e-06
5.11245001865488e-06
5.11245010022345e-06
5.11245030748316e-06
5.11245061303508e-06
5.11245088391856e-06
5.11245014198987e-06
5.11244375834951e-06
5.11241546432489e-06
5.11230493232652e-06
5.11190066644014e-06
5.11051120291089e-06
5.10603657321519e-06
5.09262037596873e-06
5.05547957614144e-06
4.96146213763563e-06
4.74615766960413e-06
4.305096865013e-06
3.50603443873906e-06
2.24066672715773e-06
7.08738772357409e-09
2.80441478397826e-11
3.14300144786953e-11
8.07266643557639e-09
2.56581853084406e-06
4.0170387748422e-06
4.93278190409538e-06
5.43673019580778e-06
5.68107711758967e-06
5.78656148729566e-06
5.8275462550225e-06
5.84203155496658e-06
5.84673455977192e-06
5.84814911952695e-06
5.8485455505743e-06
5.84864892120079e-06
5.84867329116765e-06
5.84867766788649e-06
5.84867744648557e-06
5.84867640518412e-06
5.84867530449612e-06
5.84867429760105e-06
5.84867340401994e-06
5.84867261949646e-06
5.84867193709476e-06
5.84867135134638e-06
5.84867085907172e-06
5.84867045993828e-06
5.84867015728807e-06
5.84866997455005e-06
5.8486699540478e-06
5.84867000116479e-06
5.84867007294977e-06
5.84867023521918e-06
5.84867048520485e-06
5.84867068039681e-06
5.8486696133159e-06
5.84866228582253e-06
5.84863055513042e-06
5.84850657836922e-06
5.84805238041565e-06
5.84648772604043e-06
5.84143744492158e-06
5.82626497444889e-06
5.78419430103059e-06
5.67756803688363e-06
5.43316304561779e-06
4.93201917912888e-06
4.02271752932876e-06
2.57841316131532e-06
8.17749709556443e-09
3.22258551632987e-11
3.47111139868512e-11
8.93507401724463e-09
2.83111804555847e-06
4.41906111949578e-06
5.4186764402892e-06
5.96874658231602e-06
6.23585440190626e-06
6.35146078418037e-06
6.39652905400907e-06
6.41252095889445e-06
6.41773663308225e-06
6.41931342518844e-06
6.41975800111323e-06
6.41987491159094e-06
6.41990297162626e-06
6.41990836115303e-06
6.4199084368313e-06
6.41990750842412e-06
6.4199064685692e-06
6.41990550146553e-06
6.41990463511654e-06
6.41990386811526e-06
6.41990319500896e-06
6.41990261113955e-06
6.41990211369167e-06
6.41990170207048e-06
6.4199013780262e-06
6.41990115396606e-06
6.4199010616217e-06
6.41990106394494e-06
6.4199011293044e-06
6.41990123626893e-06
6.41990140158083e-06
6.41990146781508e-06
6.41990007848493e-06
6.41989199740562e-06
6.41985765181679e-06
6.41972355390971e-06
6.41923171361725e-06
6.417534333111e-06
6.41204559819881e-06
6.39552927497878e-06
6.34967342656446e-06
6.23334528725065e-06
5.96652753289263e-06
5.41910050978043e-06
4.42485001466742e-06
2.84232035896421e-06
9.02954440312059e-09
3.54560156428499e-11
3.71464190110493e-11
9.58222991426559e-09
3.0306967578256e-06
4.72081485046196e-06
5.78320481511228e-06
6.36797749390553e-06
6.65234498884228e-06
6.77570127215524e-06
6.82393071921066e-06
6.84110314093919e-06
6.84672578995348e-06
6.84843318600873e-06
6.84891713395998e-06
6.849045342869e-06
6.84907658718874e-06
6.84908291729124e-06
6.8490833181617e-06
6.84908253875014e-06
6.84908159437428e-06
6.84908069791232e-06
6.84907988585199e-06
6.84907915993419e-06
6.84907851607379e-06
6.84907795091424e-06
6.84907746208898e-06
6.84907704904425e-06
6.84907671259864e-06
6.84907645907148e-06
6.8490763035478e-06
6.84907624880502e-06
6.84907626863968e-06
6.84907634252043e-06
6.84907640388352e-06
6.84907631442409e-06
6.84907463405433e-06
6.84906597882689e-06
6.84902967521463e-06
6.8488881421939e-06
6.84836865660237e-06
6.84657338994127e-06
6.8407597381964e-06
6.8232434303148e-06
6.77456244067179e-06
6.65098017326288e-06
6.36739384445453e-06
5.7853457408087e-06
4.72756454989972e-06
3.04151401221688e-06
9.67100447850055e-09
3.78583317761867e-11
3.88837707259668e-11
1.0049338779781e-08
3.17558009594063e-06
4.93979122434214e-06
6.04787546936759e-06
6.65807585194408e-06
6.95519932997501e-06
7.08434147474917e-06
7.13495774441402e-06
7.15303246098359e-06
7.15897024597889e-06
7.16078018783908e-06
7.16129552728972e-06
7.16143291831025e-06
7.16146682597959e-06
7.16147399207484e-06
7.16147471441066e-06
7.16147409383229e-06
7.16147325907664e-06
7.16147244686435e-06
7.16147170155753e-06
7.16147102800736e-06
7.16147042377399e-06
7.16146988660485e-06
7.16146941466624e-06
7.16146900757923e-06
7.16146866567846e-06
7.16146839236503e-06
7.16146819476403e-06
7.16146807732756e-06
7.16146803992953e-06
7.16146803731412e-06
7.16146802671487e-06
7.16146777072532e-06
7.16146584887335e-06
7.16145678188534e-06
7.16141904611688e-06
7.16127219219769e-06
7.16073295862744e-06
7.15886752154483e-06
7.15281993675778e-06
7.13458094881852e-06
7.08385267837384e-06
6.9550053278603e-06
6.65924231619034e-06
6.05206097382208e-06
4.94817734325792e-06
3.18693772768422e-06
1.01371061682066e-08
3.95826067484973e-11
4.00778924141843e-11
1.03743123010742e-08
3.27721475067175e-06
5.09357795616543e-06
6.23400711048003e-06
6.86234635779817e-06
7.16865447404795e-06
7.30200684198376e-06
7.35438014857806e-06
7.37312735256991e-06
7.37930310194469e-06
7.3811915557141e-06
7.38173129402566e-06
7.38187595244357e-06
7.38191202015466e-06
7.38191990259064e-06
7.3819209230019e-06
7.38192044866679e-06
7.38191972282967e-06
7.38191899613907e-06
7.3819183196903e-06
7.38191770118795e-06
7.38191713975639e-06
7.3819166341253e-06
7.38191618300083e-06
7.38191578622681e-06
7.38191544389498e-06
7.38191515797645e-06
7.38191493191588e-06
7.38191476883969e-06
7.38191466815203e-06
7.38191460628295e-06
7.38191451915741e-06
7.38191412300561e-06
7.38191203145145e-06
7.38190263370958e-06
7.3818638744729e-06
7.3817133157889e-06
7.38116037534264e-06
7.37924608954683e-06
7.37303500560578e-06
7.35428916490816e-06
7.30212138935693e-06
7.16956652411744e-06
6.86522473394892e-06
6.24033975340897e-06
5.10399148694278e-06
3.28976538470485e-06
1.04646337297404e-08
4.07795983743766e-11
4.08704481081972e-11
1.05926882091963e-08
3.3462108934559e-06
5.19822482642562e-06
6.3609237604952e-06
7.0018608863582e-06
7.31461175830679e-06
7.450950142221e-06
7.50458446043384e-06
7.52382040515817e-06
7.53017139119353e-06
7.53211846476682e-06
7.53267669223497e-06
7.53282695354905e-06
7.53286472182308e-06
7.5328731891206e-06
7.53287446222089e-06
7.53287412769592e-06
7.53287350137951e-06
7.53287285367999e-06
7.53287224157374e-06
7.53287167524082e-06
7.532871155158e-06
7.53287068089606e-06
7.53287025164928e-06
7.53286986747325e-06
7.53286952835279e-06
7.53286923551423e-06
7.53286899060985e-06
7.5328687955247e-06
7.53286864888448e-06
7.53286853372154e-06
7.53286838057267e-06
7.5328678834181e-06
7.53286565691312e-06
7.53285600917659e-06
7.53281653807501e-06
7.53266347177468e-06
7.53210129134509e-06
7.53015399381694e-06
7.5238320104487e-06
7.50474124769409e-06
7.45159148546668e-06
7.31650372054506e-06
7.00629739538002e-06
6.36930949121079e-06
5.21076747803604e-06
3.36028663274813e-06
1.06876395780436e-08
4.15849466149568e-11
4.13795465716088e-11
1.07347218042838e-08
3.39161040450795e-06
5.26731161825297e-06
6.44493247139201e-06
7.09439160480982e-06
7.41154686062383e-06
7.54994994883171e-06
7.60446685900972e-06
7.62404926895867e-06
7.63052613959316e-06
7.63251590966792e-06
7.63308780264927e-06
7.63324227420415e-06
7.63328134661537e-06
7.63329027352843e-06
7.63329175506321e-06
7.63329154065978e-06
7.63329099976469e-06
7.63329042047284e-06
7.63328986467334e-06
7.63328934458932e-06
7.63328886180136e-06
7.63328841655932e-06
7.63328800846014e-06
7.63328763774698e-06
7.63328730436198e-06
7.63328700912101e-06
7.63328675273966e-06
7.63328653619102e-06
7.63328635735971e-06
7.6332862010304e-06
7.63328599598899e-06
7.6332854256008e-06
7.63328309796507e-06
7.63327327001395e-06
7.63323331799639e-06
7.63307860221368e-06
7.63251037205057e-06
7.63054141410955e-06
7.62414641191588e-06
7.60482782618164e-06
7.55102790309249e-06
7.41426052199358e-06
7.10016205924726e-06
6.45513876805158e-06
5.28185627819863e-06
3.40726734164862e-06
1.08350468625747e-08
4.21111489072052e-11
4.16967224700171e-11
1.08243181082929e-08
3.42061249478424e-06
5.31162621088826e-06
6.49898513827433e-06
7.15406294054828e-06
7.47415424777144e-06
7.613950002843e-06
7.6690696668203e-06
7.68889177274076e-06
7.69545690858415e-06
7.69747703310585e-06
7.69805878357558e-06
7.69821634140843e-06
7.69825639010979e-06
7.6982656686625e-06
7.69826731351364e-06
7.69826719655845e-06
7.69826672572532e-06
7.69826620314711e-06
7.69826569457476e-06
7.69826521384083e-06
7.69826476338457e-06
7.69826434397237e-06
7.69826395551396e-06
7.69826359839977e-06
7.69826327256159e-06
7.69826297857817e-06
7.69826271664134e-06
7.69826248710508e-06
7.69826228725775e-06
7.69826210210665e-06
7.698261859546e-06
7.69826123775218e-06
7.69825883835166e-06
7.69824888614776e-06
7.69820861906332e-06
7.69805284896377e-06
7.69748077025224e-06
7.69549800583323e-06
7.68905630491374e-06
7.66959156388725e-06
7.61537353186698e-06
7.47752417999301e-06
7.16091573600049e-06
6.51070661141162e-06
5.3279029339657e-06
3.43771671466265e-06
1.09298147740845e-08
4.24456718899637e-11
4.18887714397002e-11
1.08792404731032e-08
3.43862906971611e-06
5.33928457245972e-06
6.53283907669262e-06
7.1915305558121e-06
7.51353197051528e-06
7.6542447766831e-06
7.70976639867992e-06
7.72975046029544e-06
7.73637604494784e-06
7.73841724855412e-06
7.73900594415035e-06
7.73916571103845e-06
7.73920647287004e-06
7.73921601348651e-06
7.73921778329586e-06
7.73921774276635e-06
7.73921732773691e-06
7.73921685084914e-06
7.73921638083506e-06
7.73921593276108e-06
7.73921550970789e-06
7.7392151128135e-06
7.73921474221567e-06
7.73921439841113e-06
7.73921408133659e-06
7.73921379142908e-06
7.73921352857233e-06
7.73921329270737e-06
7.73921308068587e-06
7.73921287731745e-06
7.73921260989282e-06
7.73921195394397e-06
7.73920950640132e-06
7.73919947231093e-06
7.7391590053604e-06
7.7390025804201e-06
7.7384281214481e-06
7.73643680088595e-06
7.72996606357752e-06
7.71041016288452e-06
7.6559306951499e-06
7.51740353473691e-06
7.19922049607585e-06
6.54575430088167e-06
5.35696256681275e-06
3.45694602486339e-06
1.09891767096124e-08
4.26529631439216e-11
4.20020017039736e-11
1.09120172509543e-08
3.44953037540146e-06
5.35610670860601e-06
6.55350823176603e-06
7.21446919694804e-06
7.53768450885014e-06
7.67898737185491e-06
7.73477097273188e-06
7.75486199914391e-06
7.76152805423669e-06
7.76358356845051e-06
7.76417704790168e-06
7.76433836051758e-06
7.76437963110672e-06
7.76438936292165e-06
7.7643912270094e-06
7.7643912463613e-06
7.76439087526918e-06
7.76439043477884e-06
7.76438999598106e-06
7.76438957487673e-06
7.76438917501232e-06
7.7643887977781e-06
7.76438844346099e-06
7.76438811263328e-06
7.76438780523817e-06
7.76438752162393e-06
7.76438726148812e-06
7.764387024496e-06
7.76438680719415e-06
7.76438659413069e-06
7.76438631216941e-06
7.76438563543536e-06
7.76438315783885e-06
7.76437307259404e-06
7.76433248336163e-06
7.76417566343469e-06
7.76359977229515e-06
7.761603291266e-06
7.75511498110781e-06
7.73550373453098e-06
7.68086512332273e-06
7.54192449806093e-06
7.2227793058276e-06
6.56731970013922e-06
5.3748563159994e-06
3.46879620241762e-06
1.10254655895983e-08
4.2778374542524e-11
4.20671200013444e-11
1.09310928017132e-08
3.45596488383966e-06
5.36609155353244e-06
6.56582709751018e-06
7.22818136354704e-06
7.55215106116549e-06
7.6938252798366e-06
7.74977592259757e-06
7.76993607050008e-06
7.77662863830349e-06
7.77869365999239e-06
7.77929036446082e-06
7.77945273600137e-06
7.77949436224402e-06
7.77950423148327e-06
7.77950616668976e-06
7.77950623305424e-06
7.77950589652156e-06
7.77950548506673e-06
7.77950507164277e-06
7.77950467296119e-06
7.77950429289556e-06
7.77950393299152e-06
7.77950359362801e-06
7.77950327542018e-06
7.77950297832054e-06
7.77950270262001e-06
7.77950244789765e-06
7.77950221363513e-06
7.77950199616603e-06
7.77950177982216e-06
7.77950149116964e-06
7.77950080356285e-06
7.77949830909123e-06
7.77948819407606e-06
7.77944753319927e-06
7.77929048223801e-06
7.77871375234786e-06
7.77671423884598e-06
7.77021556378546e-06
7.7505715639877e-06
7.69583851056062e-06
7.55665195045394e-06
7.2369332950975e-06
6.58028319344797e-06
5.38562191457133e-06
3.47593261965306e-06
1.10471483812124e-08
4.28525651879036e-11
4.21037039831909e-11
1.09419355165224e-08
3.45967509667828e-06
5.37188318550375e-06
6.57300401308812e-06
7.23619542550995e-06
7.56062408805909e-06
7.70252715978561e-06
7.758582111192e-06
7.77878600778405e-06
7.78549558878488e-06
7.78756679836121e-06
7.78816563340854e-06
7.78832871661539e-06
7.78837058767546e-06
7.78838055515889e-06
7.78838254448618e-06
7.78838264817898e-06
7.78838233913759e-06
7.78838195127421e-06
7.78838155893819e-06
7.78838117936067e-06
7.78838081663757e-06
7.78838047239816e-06
7.78838014706804e-06
7.78837984128464e-06
7.78837955500633e-06
7.78837928848855e-06
7.7883790412275e-06
7.78837881257598e-06
7.7883785987233e-06
7.78837838383998e-06
7.78837809429324e-06
7.78837740300191e-06
7.78837490100406e-06
7.78836477071238e-06
7.78832407043163e-06
7.78816688907915e-06
7.7875896812152e-06
7.78558842978265e-06
7.77908378843791e-06
7.75942086742636e-06
7.70463309362808e-06
7.56530367684401e-06
7.24525114246075e-06
6.58790627479836e-06
5.39195877266373e-06
3.480137988272e-06
1.10598285338764e-08
4.28955384706832e-11
4.21238065756186e-11
1.09479624169032e-08
3.46176759243396e-06
5.37517012132814e-06
6.57709621317428e-06
7.24078047111948e-06
7.56548281894443e-06
7.70752415117348e-06
7.76364296494725e-06
7.78387401222335e-06
7.79059429895935e-06
7.79266945857879e-06
7.79326967499421e-06
7.79343322855994e-06
7.79347526644705e-06
7.79348530446365e-06
7.79348733582052e-06
7.79348746970549e-06
7.79348718283719e-06
7.79348681467005e-06
7.79348644038064e-06
7.79348607755347e-06
7.79348573042699e-06
7.79348540066505e-06
7.79348508870563e-06
7.79348479519767e-06
7.79348452010769e-06
7.79348426366401e-06
7.79348402530327e-06
7.79348380428213e-06
7.79348359668724e-06
7.79348338657689e-06
7.79348310019203e-06
7.7934824102007e-06
7.79347990704667e-06
7.793469770994e-06
7.79342905131726e-06
7.79327179977623e-06
7.79269432740059e-06
7.79069210401106e-06
7.78418410661027e-06
7.76451049911659e-06
7.7096917210151e-06
7.57028114152496e-06
7.25003843426243e-06
6.59229678768635e-06
5.39561245232805e-06
3.48256576773205e-06
1.10670948192277e-08
4.29199377049435e-11
4.21346179252018e-11
1.0951241047872e-08
3.46292289367798e-06
5.37699703752843e-06
6.57938210379048e-06
7.24335099878628e-06
7.56821350324711e-06
7.71033682410103e-06
7.76649402034406e-06
7.78674160951474e-06
7.79346851040526e-06
7.79554614643916e-06
7.79614724339404e-06
7.79631110369617e-06
7.79635325497138e-06
7.79636334458962e-06
7.79636540986201e-06
7.79636556879559e-06
7.79636530010202e-06
7.79636494906665e-06
7.79636459088898e-06
7.79636424335417e-06
7.79636391077682e-06
7.796363594819e-06
7.79636329590651e-06
7.7963630146964e-06
7.79636275116739e-06
7.79636250552849e-06
7.79636227717019e-06
7.79636206526612e-06
7.79636186583036e-06
7.79636166284482e-06
7.79636138247735e-06
7.79636069724233e-06
7.79635819726846e-06
7.79634806169731e-06
7.79630733495783e-06
7.79615004863355e-06
7.79557243522928e-06
7.79356968206632e-06
7.78705983864621e-06
7.76738032265825e-06
7.71254434036851e-06
7.57308859099863e-06
7.25273975813467e-06
6.59477606265131e-06
5.39767801656638e-06
3.48394015108308e-06
1.10711786771249e-08
4.29335282971337e-11
4.21403059514371e-11
1.09529862309461e-08
3.46354736462491e-06
5.37799172615332e-06
6.58063351807429e-06
7.24476385905986e-06
7.5697184520651e-06
7.71188955864694e-06
7.76806943085478e-06
7.78832692734485e-06
7.79505784566736e-06
7.7971370088246e-06
7.79773865882801e-06
7.79790271733384e-06
7.79794494621581e-06
7.79795507501307e-06
7.7979571687947e-06
7.79795734866625e-06
7.79795709558087e-06
7.79795676009023e-06
7.79795641688181e-06
7.79795608379941e-06
7.79795576517944e-06
7.79795546266927e-06
7.79795517664663e-06
7.79795490778987e-06
7.79795465609719e-06
7.79795442176394e-06
7.79795420413959e-06
7.79795400232746e-06
7.79795381228694e-06
7.79795361795218e-06
7.79795334545446e-06
7.79795266722081e-06
7.79795017323696e-06
7.79794004216331e-06
7.79789931592924e-06
7.79774201544853e-06
7.79716433130974e-06
7.79516129868412e-06
7.78865046426962e-06
7.76896775062754e-06
7.7141224126846e-06
7.57464201389421e-06
7.25423509587499e-06
6.5961495091915e-06
5.39882360401927e-06
3.48470346566793e-06
1.1073430668726e-08
4.29409567817825e-11
4.2143222595288e-11
1.09538923456381e-08
3.46387701151303e-06
5.37852122931138e-06
6.58130393292472e-06
7.24552425801172e-06
7.57053092975687e-06
7.71272944368706e-06
7.76892250252965e-06
7.78918584029141e-06
7.79591916126631e-06
7.79799925239521e-06
7.79860124558202e-06
7.79876543169917e-06
7.79880771476441e-06
7.79881787483892e-06
7.79881999341135e-06
7.79882019157737e-06
7.79881995276702e-06
7.79881963210277e-06
7.79881930344711e-06
7.79881898456768e-06
7.79881867978627e-06
7.79881839075499e-06
7.79881811771691e-06
7.79881786142106e-06
7.79881762189226e-06
7.79881739931788e-06
7.79881719300776e-06
7.79881700200286e-06
7.79881682221992e-06
7.79881663756487e-06
7.79881637416442e-06
7.79881570440089e-06
7.79881321826086e-06
7.79880309442381e-06
7.79876237362021e-06
7.79860507136128e-06
7.79802735675904e-06
7.79602418561151e-06
7.78951283872313e-06
7.76982844224936e-06
7.71497813598619e-06
7.57548457205061e-06
7.25504650547776e-06
6.59689533016792e-06
5.39944639545899e-06
3.48511901809982e-06
1.10746480031827e-08
4.29449370383269e-11
4.21446593200831e-11
1.09543452944617e-08
3.46404506022629e-06
5.37879421725777e-06
6.58165252167725e-06
7.2459220293786e-06
7.5709576454111e-06
7.71317162958624e-06
7.76937224151607e-06
7.78963897298984e-06
7.79637371060032e-06
7.79845435829628e-06
7.79905656234972e-06
7.799220830647e-06
7.79926315265143e-06
7.79927333881309e-06
7.79927547965432e-06
7.79927569469781e-06
7.79927546952418e-06
7.79927516345476e-06
7.79927484932281e-06
7.79927454468315e-06
7.79927425383689e-06
7.79927397857006e-06
7.7992737186881e-06
7.79927347516437e-06
7.79927324807517e-06
7.799273037597e-06
7.79927284300598e-06
7.79927266328948e-06
7.79927249432828e-06
7.79927232001188e-06
7.79927206647796e-06
7.79927140610124e-06
7.79926892902737e-06
7.79925881450239e-06
7.79921810276021e-06
7.7990608069029e-06
7.798483086302e-06
7.79647985860465e-06
7.78996827122187e-06
7.77028304248527e-06
7.7154302154509e-06
7.57592986872589e-06
7.25547560418058e-06
6.59729010387544e-06
5.39977646906484e-06
3.48533961889802e-06
1.10752899360904e-08
4.29470178090522e-11
4.21453004685327e-11
1.09545517916039e-08
3.46412397536155e-06
5.37892514071133e-06
6.58182232016331e-06
7.24611783139001e-06
7.57116911144084e-06
7.71339163915974e-06
7.76959649756738e-06
7.78986516834096e-06
7.7966007286716e-06
7.79868170560602e-06
7.7992840376895e-06
7.79944835860614e-06
7.7994907090692e-06
7.79950091726383e-06
7.79950307826842e-06
7.79950330903525e-06
7.79950309691123e-06
7.79950280514499e-06
7.79950250548967e-06
7.79950221511995e-06
7.79950193835218e-06
7.79950167760153e-06
7.79950143118027e-06
7.79950120077121e-06
7.79950098657549e-06
7.79950078875987e-06
7.79950060657444e-06
7.799500438962e-06
7.79950028176392e-06
7.79950011885588e-06
7.79949987639098e-06
7.79949922677007e-06
7.79949676046608e-06
7.79948665787186e-06
7.79944595907949e-06
7.79928867682921e-06
7.798710968408e-06
7.79670773873803e-06
7.79019608037333e-06
7.77051052823892e-06
7.71565660677159e-06
7.57615312570559e-06
7.25569110657029e-06
6.59748880631003e-06
5.39994304939645e-06
3.48545134114053e-06
1.10756137938976e-08
4.29480606084962e-11
4.21454861101985e-11
1.09546146598929e-08
3.46415027836999e-06
5.37897223901395e-06
6.58188673723349e-06
7.24619474229995e-06
7.57125398177529e-06
7.7134810378903e-06
7.76968822335902e-06
7.78995798840787e-06
7.796694027869e-06
7.79877520533833e-06
7.79937762177283e-06
7.79954198270269e-06
7.79958435933606e-06
7.79959459036702e-06
7.79959677310335e-06
7.79959702153035e-06
7.79959682425476e-06
7.79959654815424e-06
7.79959626429769e-06
7.7995959892132e-06
7.79959572732129e-06
7.79959548351716e-06
7.79959525107173e-06
7.79959503391801e-06
7.79959483263955e-06
7.79959464741536e-06
7.79959447747229e-06
7.79959432170018e-06
7.79959417588566e-06
7.79959402385192e-06
7.79959379173823e-06
7.79959315198023e-06
7.79959069541824e-06
7.79958060360602e-06
7.7995399169469e-06
7.79938265003753e-06
7.79880496467999e-06
7.79680177260899e-06
7.79029016732429e-06
7.77060464901484e-06
7.71575058709329e-06
7.57624631076872e-06
7.25578178129152e-06
6.59757331205756e-06
5.40001481894191e-06
3.48550021860901e-06
1.10757573137661e-08
4.29485262435665e-11
4.21453120721337e-11
1.09545665593183e-08
3.46413759999754e-06
5.37895866733275e-06
6.58187588558685e-06
7.24618748215808e-06
7.57124972171057e-06
7.71347877252779e-06
7.76968709343718e-06
7.78995743491524e-06
7.79669374497181e-06
7.79877504558192e-06
7.79937752048666e-06
7.7995419140451e-06
7.79958431475627e-06
7.79959456805109e-06
7.79959677245294e-06
7.79959703939808e-06
7.79959685772748e-06
7.79959659699016e-06
7.79959632926135e-06
7.79959606970731e-06
7.79959582262452e-06
7.79959559324016e-06
7.79959537427039e-06
7.79959517031031e-06
7.79959498170893e-06
7.79959480861223e-06
7.79959465021357e-06
7.79959450532962e-06
7.79959436965002e-06
7.79959422688747e-06
7.79959400311568e-06
7.79959337079133e-06
7.79959092100694e-06
7.79958083584163e-06
7.79954015718278e-06
7.79938290455204e-06
7.79880525216046e-06
7.79680213980113e-06
7.79029071724301e-06
7.77060558191271e-06
7.71575223739099e-06
7.57624913894308e-06
7.25578626149669e-06
6.59757965354676e-06
5.40002250594231e-06
3.48550738459078e-06
1.10757857298417e-08
4.29486407413368e-11
4.2144720467114e-11
1.09543942294178e-08
3.46408293592609e-06
5.37888154188491e-06
6.58178771715617e-06
7.24609491636559e-06
7.57115593343335e-06
7.71338493657687e-06
7.76959348034158e-06
7.78986401708482e-06
7.79660044648102e-06
7.79868181184975e-06
7.79928432223023e-06
7.79944873807785e-06
7.79949115635793e-06
7.79950142663852e-06
7.79950364795126e-06
7.79950393160443e-06
7.79950376430551e-06
7.79950351441586e-06
7.7995032608918e-06
7.79950301543781e-06
7.79950278196577e-06
7.7995025631498e-06
7.79950235755646e-06
7.79950216683641e-06
7.79950199118894e-06
7.79950183072277e-06
7.79950168459322e-06
7.79950155152624e-06
7.79950142708695e-06
7.79950129485152e-06
7.79950108082512e-06
7.79950045752908e-06
7.79949801622503e-06
7.79948793918636e-06
7.79944727180744e-06
7.7992900431002e-06
7.79871245182326e-06
7.79670949761078e-06
7.79019846472383e-06
7.77051422215196e-06
7.7156627625952e-06
7.57616334573754e-06
7.25570704043936e-06
6.59751115797343e-06
5.39996995518885e-06
3.48547614135575e-06
1.10757082045782e-08
4.2948415508648e-11
4.21435401202646e-11
1.09540418499966e-08
3.46396586908253e-06
5.37871066944785e-06
6.58158690332971e-06
7.245879322538e-06
7.57093396076807e-06
7.71316059345957e-06
7.76936840188514e-06
7.78963876698982e-06
7.79637518309716e-06
7.7984565669304e-06
7.79905909654788e-06
7.7992235284009e-06
7.7992659610536e-06
7.79927624575413e-06
7.79927847963811e-06
7.79927877893809e-06
7.79927862793017e-06
7.79927838750605e-06
7.79927814726091e-06
7.79927791520686e-06
7.7992776949761e-06
7.79927748859667e-06
7.79927729617426e-06
7.7992771187189e-06
7.79927695636152e-06
7.79927680917838e-06
7.79927667627871e-06
7.79927655627789e-06
7.7992764445909e-06
7.79927632464371e-06
7.79927612240576e-06
7.79927551055873e-06
7.7992730807237e-06
7.79926301608937e-06
7.79922236821234e-06
7.79906518277251e-06
7.79848770329022e-06
7.79648504225581e-06
7.78997474691434e-06
7.77029224229096e-06
7.71544458386463e-06
7.57595285095614e-06
7.25551078690605e-06
6.59733902228091e-06
5.39983500534694e-06
3.48539314295219e-06
1.10754922858297e-08
4.29477924643905e-11
4.21412896056066e-11
1.09533698670094e-08
3.46374084164016e-06
5.37837850032513e-06