/*--------------------------------*- C++ -*----------------------------------*\
  =========                 |
  \\      /  F ield         | OpenFOAM: The Open Source CFD Toolbox
   \\    /   O peration     | Website:  https://openfoam.org
    \\  /    A nd           | Version:  10
     \\/     M anipulation  |
\*---------------------------------------------------------------------------*/
FoamFile
{
    format      ascii;
    class       volScalarField;
    location    "3";
    object      h;
}
// * * * * * * * * * * * * * * * * * * * * * * * * * * * * * * * * * * * * * //

dimensions      [0 2 -2 0 0 0 0];

internalField   nonuniform List<scalar> 
2500
(
7033.29066332929
6999.22576201504
6974.30224180316
6964.08112302873
6960.39611743436
6959.11565055473
6958.6879647935
6958.55142252301
6958.50914797969
6958.49681788555
6958.49183245238
6958.48965327319
6958.48857133187
6958.48736760478
6958.48626254903
6958.48505458336
6958.48441862537
6958.48364017231
6958.48275654383
6958.4821255054
6958.48153340598
6958.48094537156
6958.48043176557
6958.48019750694
6958.4799480047
6958.47963142685
6958.47953065554
6958.47943614508
6958.4793564046
6958.47944684272
6958.47956253191
6958.47971975164
6958.48007528733
6958.48055519061
6958.48100680123
6958.48148198476
6958.48203399893
6958.482551713
6958.48374170296
6958.48562437212
6958.49043141614
6958.50522532022
6958.55269756791
6958.701526488
6959.15122593588
6960.44768314496
6964.11443481622
6974.31339279139
6999.5899493402
7033.16698817195
5206.00233252661
5109.79709512227
5040.57798071289
5009.33059855218
4996.59686999168
4991.65784047652
4989.85023586515
4989.23405048976
4989.03892631598
4988.98150394467
4988.96499056429
4988.9603317801
4988.95906348608
4988.95838788573
4988.95787694561
4988.95737711542
4988.95709294845
4988.95675613211
4988.95635933061
4988.95603920296
4988.95567000341
4988.95521904415
4988.95479456262
4988.9546442331
4988.95454211781
4988.95433231988
4988.95429078051
4988.95424748133
4988.95410710802
4988.95422331931
4988.95427370634
4988.95417244224
4988.95457954719
4988.95514991501
4988.95540497331
4988.95558340752
4988.95586805534
4988.95637485615
4988.95814441763
4988.96390784395
4988.98407742582
4989.05242435668
4989.27148875944
4989.93131739844
4991.79369354634
4996.74335800278
5009.35820243839
5040.54279313162
5111.04897134235
5206.97139821721
3732.87276658135
3623.21086406948
3547.36775374232
3512.92146447196
3498.8632949127
3493.39847198943
3491.38700009075
3490.69554678359
3490.47477756027
3490.40929778142
3490.39077045891
3490.38583705725
3490.38481872638
3490.38451068249
3490.38436730894
3490.38427320796
3490.38422829463
3490.38416104259
3490.38404004995
3490.38393097779
3490.38375883483
3490.38349470169
3490.38320985628
3490.38308226467
3490.38304135735
3490.3829284878
3490.38293667968
3490.38294236053
3490.38284721804
3490.38292391913
3490.38292557251
3490.38279810964
3490.38311248311
3490.38357806153
3490.38358662087
3490.3835083939
3490.38367944928
3490.38407625428
3490.3857250842
3490.39182441306
3490.41384706034
3490.4892692238
3490.73128581442
3491.45954213138
3493.51258060108
3498.97387174674
3512.92812320311
3547.45866793598
3625.08858835985
3737.0516551679
2783.67237193008
2698.73273524897
2646.68818982714
2623.68303384195
2614.7031463897
2611.348591386
2610.14572800146
2609.73772375618
2609.60809629053
2609.56965950058
2609.55874594248
2609.55592200649
2609.55547949961
2609.55540120113
2609.55541496609
2609.55543483531
2609.55545588313
2609.55546067623
2609.55544026236
2609.55542803805
2609.55538345899
2609.55526579169
2609.55510470105
2609.55500920938
2609.55499578821
2609.55497918401
2609.5549857477
2609.55502558041
2609.55504624002
2609.55503952831
2609.55502060719
2609.55493498006
2609.55508546816
2609.55532111865
2609.55531411876
2609.55528155581
2609.555272743
2609.55534586187
2609.55618299556
2609.55946576429
2609.57156388868
2609.61382702796
2609.75149933847
2610.17318736951
2611.39062972802
2614.74094894313
2623.69515872481
2646.91108707196
2700.50280411418
2789.15223478548
2268.12320213749
2216.4320227235
2188.34492143211
2176.21716427369
2171.64963353333
2169.99943529069
2169.42018977193
2169.22535604325
2169.16342527664
2169.14497053308
2169.13967329947
2169.13833437143
2169.13819421823
2169.13819646594
2169.13822828734
2169.13825993536
2169.1382902957
2169.13831255634
2169.13831918158
2169.13832121374
2169.13831394723
2169.13827596072
2169.13820236019
2169.13815694772
2169.13816971717
2169.13818168031
2169.13818566069
2169.13820913075
2169.13821539282
2169.13820990065
2169.13820622443
2169.1381484533
2169.13821353619
2169.13831237163
2169.13830774006
2169.13830663384
2169.13829198244
2169.13827329115
2169.13858193478
2169.14001413656
2169.14549424268
2169.16487136429
2169.22853616634
2169.42575484574
2170.00551663286
2171.64726951674
2176.20820056663
2188.50473524969
2217.64152837533
2272.70855130033
2023.60304599299
1997.13817746515
1984.29477585777
1978.85289683834
1976.85702951245
1976.1548683911
1975.91262158552
1975.83157732894
1975.80573241784
1975.79797388586
1975.7957222466
1975.79516362842
1975.79512671028
1975.79514322257
1975.79516730419
1975.79518840911
1975.79520918566
1975.79522576464
1975.79523425455
1975.79523808504
1975.79524023498
1975.79522833033
1975.79520038169
1975.7951862034
1975.79519454802
1975.79520252343
1975.79520643542
1975.79521830864
1975.79522174867
1975.79521954328
1975.79521721493
1975.79518958519
1975.79521440255
1975.79524934772
1975.79524622863
1975.79524681958
1975.79523410432
1975.79521591515
1975.79531109338
1975.79586059387
1975.79806185828
1975.80588976606
1975.83169240299
1975.91208372329
1976.15143818406
1976.84502572075
1978.83359135985
1984.36443707393
1997.79628285158
2026.54280312609
1919.76552900703
1907.89912139717
1902.70368665099
1900.53768708257
1899.75817562956
1899.48951435519
1899.3981257172
1899.36766549321
1899.35790926874
1899.35495529769
1899.35409124139
1899.35388174153
1899.35387370935
1899.35388560525
1899.35389890681
1899.35390997951
1899.35392067085
1899.3539292135
1899.3539343851
1899.35393659847
1899.35393930945
1899.35393601972
1899.35392645163
1899.35392462173
1899.3539290078
1899.3539318398
1899.35393397517
1899.35393887286
1899.35394063881
1899.35393994266
1899.35393869795
1899.35392738112
1899.3539357005
1899.35394614774
1899.35394418583
1899.35394386378
1899.35393622577
1899.35392575615
1899.35394949424
1899.35414422122
1899.35495633701
1899.35784415881
1899.36735441427
1899.3970234003
1899.48608270866
1899.74882025926
1900.52118184888
1902.72321434643
1908.20075442289
1921.33166648488
1879.54696285806
1874.76204613672
1872.84947630113
1872.06435395771
1871.78552283357
1871.69089315258
1871.65907451185
1871.6485007038
1871.64509890395
1871.64405998573
1871.64375516247
1871.64368326543
1871.64368182228
1871.64368783975
1871.64369404618
1871.64369906519
1871.64370366142
1871.64370729911
1871.64370974751
1871.64371078266
1871.64371232448
1871.64371159989
1871.64370897705
1871.64370964479
1871.64371139114
1871.64371233754
1871.64371317777
1871.64371486387
1871.64371602251
1871.64371541536
1871.64371443283
1871.64371073041
1871.64371318324
1871.64371574517
1871.64371464084
1871.64371416468
1871.6437104946
1871.64370655351
1871.6437115718
1871.64377555434
1871.64405536228
1871.64504842538
1871.64830607452
1871.65844773749
1871.68902281243
1871.78043712044
1872.05442599027
1872.85137591852
1874.88271477948
1880.27257997502
1865.13681785399
1863.36883905426
1862.71536955048
1862.45141771107
1862.35854840288
1862.32738072091
1862.31699946327
1862.31355899053
1862.31244783656
1862.31210586641
1862.31200558821
1862.31198259978
1862.3119824792
1862.31198502709
1862.31198759102
1862.31198961873
1862.31199137133
1862.31199275244
1862.3119937685
1862.31199422955
1862.31199483241
1862.31199477012
1862.3119942772
1862.31199481413
1862.31199543944
1862.31199576599
1862.31199605484
1862.31199656028
1862.31199701489
1862.31199676251
1862.3119963863
1862.31199516267
1862.31199579168
1862.31199624246
1862.31199569701
1862.31199538085
1862.31199385301
1862.31199229313
1862.31199312762
1862.31201336779
1862.31210451646
1862.31242696683
1862.31347866231
1862.31673811057
1862.32657663358
1862.35626861964
1862.44657587973
1862.71366172688
1863.41196527358
1865.43781556929
1860.30755256385
1859.70058805223
1859.49041829214
1859.4070063963
1859.37785839033
1859.36815141618
1859.36494269148
1859.36388215922
1859.36353863834
1859.36343225976
1859.36340114977
1859.36339420981
1859.36339427558
1859.36339523465
1859.36339619326
1859.36339693825
1859.36339755352
1859.36339804921
1859.36339843872
1859.36339862601
1859.3633988257
1859.36339887857
1859.36339886613
1859.36339909245
1859.3633992747
1859.36339938291
1859.36339947909
1859.36339961807
1859.36339975954
1859.363399678
1859.36339954718
1859.36339915582
1859.36339928571
1859.36339930307
1859.36339906955
1859.36339891082
1859.36339834199
1859.36339775492
1859.36339784163
1859.36340401222
1859.36343232598
1859.36353204319
1859.36385512323
1859.36485040432
1859.36785091611
1859.37695970626
1859.40496249284
1859.48897529854
1859.71456930986
1860.42160803099
1858.78034849555
1858.58466158977
1858.52038198552
1858.49535395488
1858.48665507986
1858.48377257361
1858.48282533576
1858.48251311807
1858.48241179715
1858.48238027844
1858.48237109533
1858.48236909689
1858.48236914599
1858.48236947563
1858.48236980457
1858.48237005708
1858.4823702594
1858.48237042623
1858.48237056438
1858.4823706393
1858.48237070324
1858.48237073732
1858.48237076594
1858.48237084297
1858.4823708956
1858.48237092959
1858.48237096161
1858.48237099825
1858.48237103614
1858.48237101019
1858.4823709676
1858.48237084662
1858.48237083585
1858.48237081888
1858.48237075741
1858.48237067815
1858.48237048418
1858.48237028254
1858.48237027531
1858.48237209476
1858.48238052712
1858.48241007415
1858.48250515408
1858.48279606091
1858.48367038834
1858.48633249373
1858.49457825306
1858.51963408478
1858.58881212515
1858.82040994378
1858.32133344859
1858.26158663144
1858.2427529486
1858.23556706893
1858.23308130268
1858.23225997426
1858.23199124057
1858.23190290346
1858.23187421144
1858.23186525854
1858.23186265991
1858.23186210572
1858.2318621267
1858.23186223116
1858.23186233547
1858.23186241488
1858.23186247735
1858.23186252956
1858.23186257492
1858.23186260306
1858.23186262361
1858.23186263738
1858.23186265125
1858.23186267413
1858.23186268841
1858.23186269857
1858.23186270927
1858.23186271881
1858.23186272767
1858.23186271917
1858.23186270634
1858.23186267549
1858.23186266592
1858.23186265756
1858.23186263264
1858.23186259629
1858.23186253514
1858.23186247208
1858.23186246566
1858.23186298653
1858.23186540412
1858.23187382986
1858.23190076501
1858.23198259265
1858.23222746557
1858.23297348087
1858.23529577202
1858.24243561174
1858.26271990284
1858.33452270803
1858.18943738401
1858.17204543738
1858.16673058811
1858.16474453028
1858.16406064448
1858.16383497839
1858.16376135703
1858.16373721744
1858.16372937601
1858.16372692415
1858.16372621384
1858.16372606339
1858.1637260696
1858.1637260997
1858.16372612992
1858.16372615268
1858.16372617033
1858.1637261852
1858.16372619873
1858.16372620806
1858.16372621423
1858.16372621859
1858.16372622291
1858.16372622887
1858.16372623246
1858.1637262353
1858.16372623871
1858.16372624116
1858.16372624295
1858.16372624021
1858.16372623661
1858.16372622917
1858.16372622541
1858.16372622182
1858.16372621285
1858.16372620075
1858.16372618332
1858.16372616574
1858.16372616471
1858.16372631074
1858.16372698095
1858.16372930168
1858.16373667344
1858.163758911
1858.16382511688
1858.16402656576
1858.16465558774
1858.16661113094
1858.17232973482
1858.19354291563
1858.15302515856
1858.14817169331
1858.14672132148
1858.14619042729
1858.14600847965
1858.14594845593
1858.14592890562
1858.14592250842
1858.14592043033
1858.14591977893
1858.14591958924
1858.14591954771
1858.145919548
1858.14591955516
1858.14591956249
1858.14591956785
1858.14591957188
1858.14591957523
1858.14591957846
1858.14591958083
1858.14591958225
1858.14591958316
1858.14591958403
1858.14591958519
1858.14591958575
1858.14591958634
1858.14591958732
1858.14591958789
1858.14591958822
1858.14591958745
1858.14591958658
1858.14591958482
1858.14591958377
1858.14591958288
1858.14591958055
1858.14591957759
1858.14591957365
1858.14591956989
1858.14591957113
1858.14591961231
1858.14591979339
1858.14592041347
1858.14592236901
1858.14592822582
1858.14594556351
1858.14599818128
1858.1461627619
1858.14667998174
1858.14823662313
1858.15424188102
1858.14332736184
1858.14202298832
1858.14163905066
1858.14150126717
1858.14145428339
1858.14143877697
1858.14143372805
1858.14143207729
1858.14143153993
1858.14143137
1858.14143131921
1858.14143130648
1858.14143130464
1858.14143130503
1858.14143130565
1858.14143130591
1858.14143130594
1858.1414313059
1858.14143130596
1858.14143130596
1858.14143130578
1858.14143130554
1858.14143130533
1858.14143130524
1858.14143130506
1858.14143130494
1858.14143130501
1858.14143130505
1858.14143130515
1858.14143130521
1858.14143130514
1858.14143130482
1858.14143130498
1858.14143130526
1858.14143130519
1858.14143130516
1858.14143130512
1858.14143130533
1858.14143130739
1858.1414313199
1858.14143136855
1858.14143153088
1858.14143203616
1858.14143353596
1858.1414379464
1858.14145128219
1858.14149303007
1858.14162564207
1858.14203614878
1858.14367262043
1858.14082677761
1858.14048790767
1858.14038904428
1858.14035419996
1858.14034238281
1858.14033847959
1858.14033720669
1858.14033678916
1858.14033665161
1858.14033660649
1858.1403365915
1858.1403365862
1858.14033658387
1858.14033658234
1858.14033658106
1858.14033657986
1858.14033657874
1858.14033657772
1858.14033657686
1858.1403365761
1858.1403365754
1858.14033657478
1858.14033657424
1858.14033657382
1858.14033657345
1858.14033657319
1858.14033657307
1858.14033657301
1858.14033657304
1858.14033657319
1858.14033657341
1858.14033657367
1858.14033657414
1858.14033657475
1858.14033657543
1858.14033657629
1858.14033657732
1858.14033657863
1858.14033658069
1858.14033658559
1858.14033659978
1858.14033664277
1858.1403367716
1858.14033714731
1858.14033824116
1858.14034153132
1858.14035183499
1858.1403849181
1858.14049010907
1858.14092102031
1858.14020064252
1858.14011528739
1858.14009044083
1858.14008180941
1858.14007890017
1858.14007793832
1858.14007762258
1858.14007751714
1858.14007748062
1858.14007746699
1858.14007746098
1858.14007745757
1858.1400774551
1858.14007745304
1858.14007745122
1858.14007744959
1858.14007744813
1858.14007744683
1858.14007744569
1858.1400774447
1858.14007744382
1858.14007744307
1858.14007744243
1858.14007744191
1858.14007744149
1858.14007744118
1858.140077441
1858.14007744092
1858.14007744096
1858.14007744114
1858.14007744143
1858.14007744185
1858.14007744243
1858.14007744318
1858.1400774441
1858.14007744522
1858.14007744656
1858.14007744817
1858.14007745019
1858.14007745313
1858.1400774586
1858.14007747136
1858.14007750525
1858.14007759905
1858.14007786577
1858.1400786602
1858.14008114846
1858.14008922444
1858.14011550663
1858.14022548104
1858.14004799419
1858.14002711788
1858.1400209788
1858.14001885548
1858.14001814571
1858.14001791085
1858.1400178319
1858.14001780359
1858.14001779203
1858.14001778617
1858.14001778237
1858.14001777942
1858.1400177769
1858.14001777468
1858.14001777271
1858.14001777094
1858.14001776936
1858.14001776796
1858.14001776673
1858.14001776565
1858.14001776471
1858.14001776391
1858.14001776323
1858.14001776267
1858.14001776223
1858.14001776191
1858.14001776171
1858.14001776163
1858.14001776168
1858.14001776187
1858.14001776219
1858.14001776265
1858.14001776328
1858.14001776409
1858.14001776508
1858.14001776629
1858.14001776773
1858.14001776942
1858.14001777143
1858.14001777389
1858.14001777719
1858.14001778248
1858.14001779302
1858.14001781792
1858.14001788366
1858.14001807432
1858.14001867163
1858.1400206308
1858.14002707777
1858.14005433088
1858.14001167717
1858.14000673445
1858.14000520701
1858.14000466262
1858.14000448353
1858.14000442431
1858.14000440269
1858.14000439311
1858.14000438761
1858.14000438366
1858.1400043804
1858.14000437756
1858.14000437502
1858.14000437274
1858.1400043707
1858.14000436888
1858.14000436725
1858.14000436581
1858.14000436454
1858.14000436342
1858.14000436245
1858.14000436161
1858.14000436091
1858.14000436034
1858.14000435988
1858.14000435956
1858.14000435935
1858.14000435928
1858.14000435933
1858.14000435952
1858.14000435985
1858.14000436034
1858.14000436099
1858.14000436183
1858.14000436286
1858.1400043641
1858.14000436557
1858.1400043673
1858.14000436931
1858.14000437164
1858.1400043744
1858.14000437786
1858.14000438275
1858.14000439116
1858.14000440917
1858.14000445721
1858.14000460807
1858.14000510726
1858.14000669442
1858.1400132408
1858.14000322805
1858.14000212088
1858.14000170427
1858.14000153501
1858.14000148138
1858.14000146381
1858.14000145588
1858.1400014508
1858.14000144679
1858.14000144332
1858.14000144021
1858.14000143739
1858.14000143484
1858.14000143253
1858.14000143046
1858.14000142861
1858.14000142695
1858.14000142548
1858.14000142418
1858.14000142304
1858.14000142205
1858.1400014212
1858.14000142048
1858.14000141989
1858.14000141943
1858.1400014191
1858.14000141889
1858.14000141882
1858.14000141887
1858.14000141907
1858.14000141941
1858.14000141991
1858.14000142058
1858.14000142143
1858.14000142248
1858.14000142374
1858.14000142524
1858.14000142698
1858.14000142899
1858.14000143128
1858.1400014339
1858.14000143689
1858.14000144041
1858.14000144488
1858.14000145172
1858.14000146674
1858.14000151443
1858.1400016728
1858.14000209703
1858.14000359629
1858.14000130216
1858.14000109645
1858.14000094184
1858.14000086011
1858.14000083568
1858.14000082788
1858.14000082323
1858.14000081928
1858.14000081567
1858.14000081233
1858.14000080927
1858.14000080646
1858.1400008039
1858.14000080158
1858.14000079949
1858.14000079761
1858.14000079593
1858.14000079444
1858.14000079312
1858.14000079196
1858.14000079095
1858.14000079009
1858.14000078936
1858.14000078877
1858.1400007883
1858.14000078797
1858.14000078776
1858.14000078768
1858.14000078774
1858.14000078794
1858.14000078829
1858.1400007888
1858.14000078948
1858.14000079035
1858.14000079141
1858.14000079268
1858.14000079419
1858.14000079594
1858.14000079795
1858.14000080023
1858.14000080279
1858.14000080564
1858.14000080879
1858.1400008123
1858.1400008165
1858.14000082393
1858.14000084817
1858.14000092847
1858.14000108032
1858.14000137894
1858.14000087114
1858.14000087272
1858.14000077881
1858.14000071725
1858.14000069959
1858.14000069412
1858.1400006903
1858.14000068666
1858.14000068318
1858.14000067991
1858.14000067686
1858.14000067406
1858.14000067149
1858.14000066916
1858.14000066706
1858.14000066517
1858.14000066347
1858.14000066197
1858.14000066063
1858.14000065946
1858.14000065844
1858.14000065757
1858.14000065684
1858.14000065623
1858.14000065576
1858.14000065543
1858.14000065522
1858.14000065514
1858.1400006552
1858.14000065541
1858.14000065577
1858.14000065628
1858.14000065697
1858.14000065785
1858.14000065892
1858.1400006602
1858.14000066172
1858.14000066347
1858.14000066548
1858.14000066776
1858.14000067029
1858.14000067308
1858.1400006761
1858.14000067933
1858.14000068286
1858.1400006885
1858.14000070741
1858.14000077006
1858.14000085926
1858.14000087858
1858.14000077613
1858.14000082443
1858.14000074443
1858.14000068753
1858.14000067147
1858.1400006666
1858.14000066303
1858.14000065951
1858.14000065609
1858.14000065284
1858.14000064982
1858.14000064702
1858.14000064445
1858.14000064211
1858.14000064
1858.1400006381
1858.14000063639
1858.14000063488
1858.14000063353
1858.14000063235
1858.14000063133
1858.14000063045
1858.14000062971
1858.1400006291
1858.14000062863
1858.14000062829
1858.14000062808
1858.14000062801
1858.14000062807
1858.14000062828
1858.14000062865
1858.14000062917
1858.14000062986
1858.14000063075
1858.14000063183
1858.14000063312
1858.14000063464
1858.1400006364
1858.14000063841
1858.14000064067
1858.14000064319
1858.14000064594
1858.1400006489
1858.14000065202
1858.14000065534
1858.14000066052
1858.14000067818
1858.14000073682
1858.14000081178
1858.14000076744
1858.14000075538
1858.14000081402
1858.14000073722
1858.14000068142
1858.14000066577
1858.14000066108
1858.1400006576
1858.14000065414
1858.14000065075
1858.14000064753
1858.14000064451
1858.14000064172
1858.14000063915
1858.14000063681
1858.14000063469
1858.14000063279
1858.14000063108
1858.14000062955
1858.14000062821
1858.14000062702
1858.14000062599
1858.14000062511
1858.14000062437
1858.14000062376
1858.14000062329
1858.14000062295
1858.14000062274
1858.14000062267
1858.14000062274
1858.14000062295
1858.14000062332
1858.14000062384
1858.14000062455
1858.14000062543
1858.14000062652
1858.14000062781
1858.14000062934
1858.1400006311
1858.14000063311
1858.14000063536
1858.14000063787
1858.1400006406
1858.14000064352
1858.14000064659
1858.14000064983
1858.14000065486
1858.14000067219
1858.14000072989
1858.14000080162
1858.14000074305
1858.14000075087
1858.14000081175
1858.14000073568
1858.14000068015
1858.14000066462
1858.14000065999
1858.14000065655
1858.14000065311
1858.14000064974
1858.14000064653
1858.14000064352
1858.14000064073
1858.14000063816
1858.14000063582
1858.1400006337
1858.1400006318
1858.14000063009
1858.14000062856
1858.14000062721
1858.14000062603
1858.140000625
1858.14000062412
1858.14000062338
1858.14000062277
1858.1400006223
1858.14000062196
1858.14000062175
1858.14000062168
1858.14000062175
1858.14000062197
1858.14000062234
1858.14000062287
1858.14000062357
1858.14000062446
1858.14000062555
1858.14000062685
1858.14000062837
1858.14000063014
1858.14000063214
1858.1400006344
1858.14000063689
1858.14000063962
1858.14000064252
1858.14000064556
1858.14000064877
1858.14000065375
1858.14000067099
1858.14000072847
1858.14000079948
1858.14000073778
1858.14000074995
1858.1400008113
1858.14000073536
1858.14000067987
1858.14000066436
1858.14000065973
1858.14000065628
1858.14000065284
1858.14000064948
1858.14000064627
1858.14000064326
1858.14000064047
1858.14000063791
1858.14000063557
1858.14000063346
1858.14000063155
1858.14000062985
1858.14000062833
1858.14000062698
1858.1400006258
1858.14000062477
1858.14000062389
1858.14000062316
1858.14000062255
1858.14000062208
1858.14000062175
1858.14000062154
1858.14000062148
1858.14000062155
1858.14000062177
1858.14000062214
1858.14000062267
1858.14000062337
1858.14000062426
1858.14000062535
1858.14000062665
1858.14000062818
1858.14000062994
1858.14000063195
1858.1400006342
1858.1400006367
1858.14000063942
1858.14000064232
1858.14000064536
1858.14000064857
1858.14000065355
1858.14000067079
1858.14000072825
1858.14000079915
1858.14000073678
1858.14000074991
1858.14000081133
1858.14000073534
1858.14000067979
1858.14000066423
1858.14000065956
1858.14000065609
1858.14000065263
1858.14000064925
1858.14000064603
1858.14000064302
1858.14000064023
1858.14000063767
1858.14000063534
1858.14000063324
1858.14000063134
1858.14000062964
1858.14000062813
1858.14000062679
1858.14000062562
1858.1400006246
1858.14000062372
1858.14000062299
1858.14000062239
1858.14000062193
1858.1400006216
1858.1400006214
1858.14000062133
1858.14000062141
1858.14000062162
1858.140000622
1858.14000062253
1858.14000062323
1858.14000062412
1858.14000062521
1858.14000062651
1858.14000062803
1858.14000062979
1858.1400006318
1858.14000063406
1858.14000063656
1858.14000063928
1858.14000064221
1858.14000064527
1858.14000064851
1858.14000065353
1858.14000067083
1858.14000072836
1858.14000079935
1858.14000073685
1858.1400007502
1858.14000081159
1858.14000073543
1858.14000067976
1858.1400006641
1858.14000065935
1858.14000065581
1858.14000065231
1858.1400006489
1858.14000064567
1858.14000064265
1858.14000063987
1858.14000063732
1858.140000635
1858.1400006329
1858.14000063101
1858.14000062933
1858.14000062783
1858.1400006265
1858.14000062534
1858.14000062433
1858.14000062346
1858.14000062274
1858.14000062215
1858.14000062169
1858.14000062137
1858.14000062117
1858.14000062111
1858.14000062118
1858.1400006214
1858.14000062177
1858.14000062231
1858.14000062301
1858.14000062389
1858.14000062498
1858.14000062627
1858.14000062779
1858.14000062955
1858.14000063156
1858.14000063382
1858.14000063633
1858.14000063908
1858.14000064203
1858.14000064514
1858.14000064844
1858.14000065354
1858.14000067094
1858.14000072862
1858.14000079981
1858.14000073731
1858.1400007507
1858.14000081204
1858.14000073561
1858.14000067975
1858.14000066393
1858.14000065906
1858.14000065544
1858.14000065187
1858.14000064842
1858.14000064516
1858.14000064214
1858.14000063935
1858.14000063681
1858.1400006345
1858.14000063242
1858.14000063055
1858.14000062888
1858.1400006274
1858.14000062609
1858.14000062494
1858.14000062394
1858.14000062309
1858.14000062238
1858.1400006218
1858.14000062135
1858.14000062103
1858.14000062084
1858.14000062078
1858.14000062086
1858.14000062108
1858.14000062144
1858.14000062197
1858.14000062267
1858.14000062355
1858.14000062463
1858.14000062592
1858.14000062743
1858.14000062919
1858.14000063119
1858.14000063346
1858.14000063599
1858.14000063876
1858.14000064176
1858.14000064494
1858.14000064834
1858.14000065356
1858.14000067112
1858.14000072901
1858.1400008005
1858.14000073804
1858.14000075143
1858.14000081268
1858.14000073588
1858.14000067974
1858.14000066372
1858.14000065869
1858.14000065494
1858.14000065129
1858.14000064778
1858.1400006445
1858.14000064146
1858.14000063868
1858.14000063614
1858.14000063385
1858.14000063179
1858.14000062994
1858.1400006283
1858.14000062683
1858.14000062554
1858.14000062442
1858.14000062344
1858.1400006226
1858.1400006219
1858.14000062133
1858.14000062089
1858.14000062058
1858.1400006204
1858.14000062034
1858.14000062042
1858.14000062064
1858.140000621
1858.14000062153
1858.14000062222
1858.14000062309
1858.14000062416
1858.14000062544
1858.14000062695
1858.1400006287
1858.1400006307
1858.14000063298
1858.14000063552
1858.14000063833
1858.1400006414
1858.14000064466
1858.14000064818
1858.14000065357
1858.14000067134
1858.14000072953
1858.14000080143
1858.14000073903
1858.1400007524
1858.14000081353
1858.14000073625
1858.14000067976
1858.14000066347
1858.14000065823
1858.14000065433
1858.14000065057
1858.140000647
1858.14000064368
1858.14000064063
1858.14000063784
1858.14000063533
1858.14000063306
1858.14000063102
1858.1400006292
1858.14000062758
1858.14000062614
1858.14000062488
1858.14000062377
1858.14000062281
1858.140000622
1858.14000062131
1858.14000062076
1858.14000062033
1858.14000062002
1858.14000061984
1858.14000061979
1858.14000061987
1858.14000062009
1858.14000062045
1858.14000062097
1858.14000062165
1858.14000062252
1858.14000062357
1858.14000062484
1858.14000062634
1858.14000062808
1858.14000063008
1858.14000063236
1858.14000063493
1858.14000063779
1858.14000064092
1858.1400006443
1858.14000064798
1858.14000065357
1858.14000067162
1858.14000073018
1858.14000080262
1858.1400007403
1858.14000075365
1858.14000081464
1858.14000073673
1858.14000067979
1858.14000066316
1858.14000065767
1858.14000065359
1858.1400006497
1858.14000064606
1858.14000064269
1858.14000063963
1858.14000063685
1858.14000063435
1858.14000063211
1858.1400006301
1858.14000062831
1858.14000062673
1858.14000062532
1858.14000062408
1858.140000623
1858.14000062207
1858.14000062128
1858.14000062061
1858.14000062007
1858.14000061966
1858.14000061936
1858.14000061919
1858.14000061914
1858.14000061922
1858.14000061944
1858.1400006198
1858.1400006203
1858.14000062098
1858.14000062183
1858.14000062287
1858.14000062412
1858.1400006256
1858.14000062733
1858.14000062933
1858.14000063162
1858.14000063421
1858.14000063711
1858.14000064033
1858.14000064384
1858.14000064771
1858.14000065356
1858.14000067195
1858.14000073099
1858.1400008041
1858.14000074189
1858.14000075523
1858.14000081605
1858.14000073734
1858.14000067983
1858.1400006628
1858.14000065701
1858.14000065271
1858.14000064868
1858.14000064495
1858.14000064154
1858.14000063847
1858.14000063571
1858.14000063323
1858.14000063102
1858.14000062905
1858.1400006273
1858.14000062574
1858.14000062437
1858.14000062317
1858.14000062212
1858.14000062122
1858.14000062044
1858.1400006198
1858.14000061928
1858.14000061888
1858.14000061859
1858.14000061843
1858.14000061839
1858.14000061847
1858.14000061868
1858.14000061903
1858.14000061953
1858.14000062019
1858.14000062103
1858.14000062205
1858.14000062328
1858.14000062474
1858.14000062646
1858.14000062845
1858.14000063074
1858.14000063335
1858.14000063631
1858.14000063962
1858.14000064328
1858.14000064736
1858.14000065352
1858.14000067233
1858.14000073197
1858.14000080592
1858.14000074386
1858.14000075722
1858.1400008178
1858.1400007381
1858.14000067989
1858.14000066236
1858.14000065622
1858.14000065168
1858.14000064749
1858.14000064367
1858.14000064023
1858.14000063715
1858.1400006344
1858.14000063195
1858.14000062978
1858.14000062785
1858.14000062614
1858.14000062463
1858.14000062331
1858.14000062214
1858.14000062113
1858.14000062025
1858.14000061951
1858.14000061889
1858.14000061839
1858.140000618
1858.14000061773
1858.14000061757
1858.14000061753
1858.14000061761
1858.14000061782
1858.14000061817
1858.14000061865
1858.1400006193
1858.14000062011
1858.14000062112
1858.14000062233
1858.14000062376
1858.14000062546
1858.14000062743
1858.14000062972
1858.14000063235
1858.14000063536
1858.14000063877
1858.14000064259
1858.14000064692
1858.14000065344
1858.14000067275
1858.14000073313
1858.14000080813
1858.14000074626
1858.14000075971
1858.14000081998
1858.14000073903
1858.14000067996
1858.14000066184
1858.14000065528
1858.14000065048
1858.14000064613
1858.14000064221
1858.14000063874
1858.14000063565
1858.14000063293
1858.14000063053
1858.1400006284
1858.14000062652
1858.14000062486
1858.1400006234
1858.14000062212
1858.140000621
1858.14000062002
1858.14000061918
1858.14000061847
1858.14000061787
1858.14000061739
1858.14000061702
1858.14000061676
1858.14000061662
1858.14000061658
1858.14000061666
1858.14000061687
1858.1400006172
1858.14000061768
1858.1400006183
1858.1400006191
1858.14000062007
1858.14000062125