/*--------------------------------*- C++ -*----------------------------------*\
  =========                 |
  \\      /  F ield         | OpenFOAM: The Open Source CFD Toolbox
   \\    /   O peration     | Website:  https://openfoam.org
    \\  /    A nd           | Version:  10
     \\/     M anipulation  |
\*---------------------------------------------------------------------------*/
FoamFile
{
    format      ascii;
    class       volScalarField;
    location    "3";
    object      k;
}
// * * * * * * * * * * * * * * * * * * * * * * * * * * * * * * * * * * * * * //

dimensions      [0 2 -2 0 0 0 0];

internalField   nonuniform List<scalar> 
2500
(
3.01652253716101e-09
5.73049176793379e-08
2.34240930557427e-07
3.76982662164699e-07
4.68661862081808e-07
5.18365785451517e-07
5.41651137917083e-07
5.51256617302055e-07
5.54801968568943e-07
5.55988815862248e-07
5.56353224453674e-07
5.56456709286476e-07
5.56483960585748e-07
5.56490498376413e-07
5.56491779275188e-07
5.56491839939469e-07
5.56491663656381e-07
5.56491467919434e-07
5.56491289299568e-07
5.5649113250496e-07
5.56490996222765e-07
5.56490878586289e-07
5.56490778142366e-07
5.56490694039275e-07
5.56490625737051e-07
5.5649057323762e-07
5.56490537963774e-07
5.56490528998919e-07
5.56490549196365e-07
5.5649056725806e-07
5.56490584158482e-07
5.56490626913637e-07
5.56490691568502e-07
5.56490762564359e-07
5.56490762550793e-07
5.56490260595846e-07
5.56487595353276e-07
5.56476873516614e-07
5.56437161977109e-07
5.56299167556862e-07
5.55849205658514e-07
5.54479438587551e-07
5.50617409462456e-07
5.4063427097768e-07
5.17266982635354e-07
4.68474634317354e-07
3.79191071747475e-07
2.39113464705481e-07
6.02345578452488e-08
3.31607455858594e-09
7.22993777193284e-08
1.60623339777126e-06
6.72246600378786e-06
1.08674828816127e-05
1.35702334591466e-05
1.50623296090614e-05
1.57748191929579e-05
1.60743690063467e-05
1.61869802739311e-05
1.62253404260159e-05
1.62373130603546e-05
1.62407662032319e-05
1.62416897835814e-05
1.62419158664645e-05
1.62419623345851e-05
1.6241966177095e-05
1.62419614592118e-05
1.62419558222671e-05
1.62419506208563e-05
1.6241946056966e-05
1.6241942101902e-05
1.62419387029105e-05
1.62419358148573e-05
1.62419334102745e-05
1.6241931472842e-05
1.62419300060791e-05
1.62419290600245e-05
1.62419289711406e-05
1.62419296670222e-05
1.62419300766746e-05
1.62419307140626e-05
1.62419320640803e-05
1.62419340056563e-05
1.6241936021402e-05
1.62419353873084e-05
1.62419171916694e-05
1.6241825593201e-05
1.6241464227201e-05
1.62401422698769e-05
1.62356047679155e-05
1.62209991469905e-05
1.61771481733489e-05
1.60553354412598e-05
1.57454112360371e-05
1.50319881857073e-05
1.35676401503907e-05
1.09327438855018e-05
6.85952473778974e-06
1.68519947803445e-06
7.89898798782113e-08
2.49886279133909e-07
7.03539039884026e-06
3.30325170338788e-05
5.30997893834262e-05
6.61170225104588e-05
7.33401452937297e-05
7.68264202849362e-05
7.83123054097505e-05
7.88792863949125e-05
7.90753811820998e-05
7.91375136527223e-05
7.91557032704233e-05
7.91606444932342e-05
7.91618788248723e-05
7.9162144200198e-05
7.91621745177759e-05
7.9162156285543e-05
7.91621314438124e-05
7.91621080528523e-05
7.91620874291592e-05
7.91620695267279e-05
7.91620541236814e-05
7.91620410232837e-05
7.9162030103074e-05
7.91620212897926e-05
7.91620146013877e-05
7.91620103104824e-05
7.91620101674194e-05
7.91620129789998e-05
7.9162014225171e-05
7.91620173645153e-05
7.91620233549172e-05
7.91620316768713e-05
7.91620397372676e-05
7.91620326617462e-05
7.91619310811443e-05
7.91614458175321e-05
7.9159558789554e-05
7.91527173400495e-05
7.91294324770164e-05
7.90551368889439e-05
7.88341640975361e-05
7.82264507293623e-05
7.6696204657086e-05
7.32086404240165e-05
6.61083222358846e-05
5.33832563223445e-05
3.36251141110097e-05
7.33577411813756e-06
2.68235740497668e-07
4.32095159129789e-07
1.22586890508869e-05
5.72344230702324e-05
9.11573329700981e-05
0.000112926616115346
0.000124960103594558
0.000130772838774407
0.000133259408276203
0.00013421335058291
0.00013454540629163
0.000134651371214012
0.00013468263461598
0.00013469120188021
0.000134693367563614
0.000134693845123525
0.000134693908016515
0.000134693882673153
0.000134693844683744
0.000134693808274816
0.000134693775984207
0.000134693747854009
0.000134693723567195
0.000134693702831108
0.000134693685460138
0.000134693671340616
0.000134693660486991
0.000134693653284117
0.000134693652476088
0.000134693655421606
0.000134693657320278
0.000134693661897296
0.000134693670504707
0.000134693682947375
0.000134693694486261
0.00013469368112993
0.000134693511805814
0.000134692718932005
0.00013468962856381
0.00013467838683279
0.000134639991272733
0.00013451708597775
0.000134150529121314
0.000133140193005726
0.000130591542766495
0.000124772580825485
0.000112894476469531
9.15011259132899e-05
5.79804736560733e-05
1.26412458262251e-05
4.55281898856316e-07
5.97403493200098e-07
1.69785242199923e-05
7.86070621904205e-05
0.000124282154617159
0.000153368084830762
0.000169406352463384
0.000177161482018263
0.000180489773855716
0.000181772624901237
0.000182221698868316
0.000182365923333721
0.000182408776604873
0.000182420615900954
0.000182423642384669
0.000182424325924966
0.000182424427760808
0.000182424402142915
0.000182424356877963
0.000182424312461369
0.000182424272759993
0.000182424238009286
0.000182424207871267
0.000182424182007955
0.000182424160199922
0.000182424142310133
0.000182424128338572
0.000182424118655992
0.000182424116142252
0.000182424118116488
0.000182424120512346
0.000182424125409085
0.00018242413501706
0.000182424148983352
0.000182424161421335
0.000182424139759297
0.000182423913025065
0.000182422876104101
0.000182418828094261
0.000182404057343439
0.000182353434816447
0.000182190860725496
0.00018170460380674
0.000180361157779784
0.000176965701317603
0.000169200016369738
0.000153314694005645
0.000124603341416974
7.93342442088691e-05
1.73649842863729e-05
6.21512652651542e-07
7.38466353626693e-07
2.10272589795153e-05
9.66968312340617e-05
0.000152022506500129
0.000187063143397053
0.000206358189949153
0.000215700172741056
0.000219721734726239
0.000221278361786981
0.000221826043920765
0.000222002952021244
0.000222055855791655
0.000222070581836524
0.000222074385520334
0.000222075264134636
0.000222075409310963
0.000222075389478731
0.000222075342194164
0.000222075294296152
0.000222075251044219
0.000222075212954026
0.000222075179733247
0.000222075151043734
0.000222075126658937
0.000222075106433436
0.000222075090350068
0.000222075078664498
0.000222075073305668
0.000222075073974212
0.000222075077506806
0.000222075081047274
0.000222075090010211
0.000222075103320013
0.000222075115138765
0.000222075082906756
0.000222074805614969
0.00022207357655822
0.000222068775232626
0.000222051214834156
0.000221990859998232
0.000221796493857722
0.000221213731317237
0.000219600443294522
0.000215516619056389
0.000206164523783559
0.000187006498988081
0.000152298518908367
9.73358227177784e-05
2.13824684812044e-05
7.61621558386177e-07
8.5297028411878e-07
2.43405069193681e-05
0.000111400224576802
0.00017440539292712
0.000214162561994313
0.000236041652407016
0.000246650094577055
0.000251229761550262
0.000253009142734785
0.000253638032526225
0.000253842217042417
0.000253903631310745
0.000253920842774769
0.000253925330741663
0.00025392638881305
0.000253926578852515
0.000253926569259083
0.000253926524065189
0.0002539264762873
0.000253926432576557
0.000253926393786308
0.000253926359720805
0.000253926330078449
0.000253926304645438
0.000253926283281157
0.00025392626595807
0.000253926252822716
0.000253926244898112
0.000253926244011844
0.000253926246057159
0.000253926249172502
0.000253926256199311
0.000253926267067463
0.000253926275560225
0.0002539262292291
0.000253925911098197
0.000253924533464003
0.000253919150863496
0.000253899431415294
0.000253831500605125
0.000253612238630726
0.000252953514486386
0.000251126987131669
0.000246497742273491
0.000235886775290776
0.000214129434116251
0.000174651924935206
0.000111947060567982
2.46566391272765e-05
8.74577469193972e-07
9.41763757690695e-07
2.69348942268576e-05
0.000122894395323223
0.000191823514768593
0.00023521458709268
0.000259091938137052
0.000270686523451757
0.000275704756245141
0.000277661077311595
0.000278355253360708
0.000278581655225225
0.000278650100618408
0.000278669398806023
0.000278674473677994
0.000278675691722811
0.000278675925682099
0.00027867592897664
0.000278675888684
0.000278675843551445
0.000278675801574282
0.000278675763971633
0.000278675730677293
0.000278675701455245
0.000278675676112883
0.000278675654523901
0.000278675636659001
0.000278675622595432
0.000278675612873527
0.000278675608868148
0.00027867560896881
0.000278675611805023
0.000278675616442159
0.000278675623623381
0.000278675626503982
0.000278675566194482
0.000278675215410067
0.000278673724527625
0.000278667903587533
0.000278646553752178
0.000278572873834083
0.000278334618881327
0.000277617678752854
0.000275627170144055
0.000270577606482034
0.000258995610234335
0.000235232987239888
0.000192074787686723
0.000123380671752969
2.72196982092049e-05
9.6197867202532e-07
1.00774083629093e-06
2.8883570986122e-05
0.000131548951665708
0.00020490903783009
0.000251022385185366
0.000276404626803257
0.000288747692509317
0.000294102014564411
0.000296195430754899
0.000296940805886503
0.000297184859008963
0.000297258969170139
0.000297279975124369
0.000297285540089122
0.000297286896267325
0.000297287171032975
0.000297287188437427
0.000297287154610556
0.000297287113622642
0.000297287074713369
0.000297287039467874
0.000297287007960124
0.000297286980013261
0.00029728695548447
0.000297286934269166
0.000297286916342544
0.000297286901740645
0.000297286890738259
0.000297286883989624
0.000297286881613996
0.000297286882475148
0.000297286885680476
0.000297286888346076
0.000297286884464759
0.000297286811527319
0.000297286435843792
0.000297284860068651
0.000297278716768998
0.000297256168292165
0.00029717824406823
0.000296925900379351
0.000296165598694908
0.00029405258300318
0.000288688451673228
0.000276379291818497
0.000251115309174001
0.00020520200492093
0.000132018478674905
2.91511711626516e-05
1.02705628602001e-06
1.05483948294181e-06
3.02908340501005e-05
0.000137834743335664
0.000214409480476441
0.000262505342354122
0.000288990799692316
0.000301887304723379
0.000307492659381725
0.000309689635124202
0.000310474159857562
0.000310731886684014
0.000310810446383823
0.000310832814462243
0.00031083877786075
0.000310840249610925
0.000310840560654676
0.000310840592009702
0.000310840565075916
0.000310840528845662
0.000310840493593492
0.00031084046124536
0.000310840432011499
0.000310840405786172
0.000310840382472227
0.000310840361989487
0.000310840344321435
0.000310840329482721
0.000310840317621073
0.000310840309045667
0.00031084030394927
0.000310840302326765
0.000310840302213401
0.000310840301754526
0.000310840290644307
0.0003108402072275
0.00031083981367936
0.000310838175774768
0.000310831801645757
0.000310808396455609
0.00031072742801038
0.000310464935368759
0.000309673280497753
0.000307471443370856
0.000301878883995449
0.000289041429004909
0.000262687010773483
0.000214773473415229
0.000138327715344229
3.05553863739683e-05
1.07379832947962e-06
1.08722266161908e-06
3.12701428336471e-05
0.000142245244196232
0.000221083198682592
0.000270582715113698
0.000297855334637418
0.00031115042181209
0.000316938487198908
0.000319211713636545
0.000320025422814734
0.000320293476867454
0.000320375443875898
0.000320398870839974
0.000320405149638915
0.000320406715134393
0.000320407057267634
0.000320407101559422
0.000320407080972739
0.000320407049469748
0.000320407017929596
0.000320406988570144
0.000320406961725761
0.000320406937358488
0.000320406915413297
0.000320406895833869
0.000320406878613432
0.000320406863755998
0.00032040685134713
0.000320406841536328
0.000320406834459148
0.000320406830089823
0.000320406827405179
0.000320406823624479
0.00032040680643064
0.000320406715648893
0.000320406307747086
0.000320404625429866
0.000320398090535931
0.000320374090544073
0.00032029100231566
0.000320021414590534
0.000319207764582077
0.000316943459062952
0.000311190008678163
0.000297980268367025
0.000270857578497163
0.000221535189607071
0.000142789995110692
3.15423896048126e-05
1.10625865303672e-06
1.1087195793207e-06
3.19283021824793e-05
0.00014523971312503
0.000225624944326925
0.000276090991362817
0.0003039103714735
0.000317485081290899
0.000323402743492291
0.000325730699641399
0.00032656562096555
0.000326841280610736
0.00032692579183705
0.000326950021270772
0.000326956543248483
0.000326958182552593
0.000326958550070394
0.000326958605329605
0.000326958590811084
0.000326958563627587
0.000326958535515954
0.000326958508949216
0.00032695848436923
0.000326958461796698
0.000326958441213005
0.000326958422583134
0.000326958405909504
0.00032695839119146
0.00032695837848222
0.000326958367853496
0.000326958359387064
0.000326958353023297
0.000326958348025693
0.000326958341379333
0.000326958319801617
0.000326958223162681
0.000326957804410822
0.000326956091198679
0.000326949447474473
0.000326925046467103
0.000326840525521565
0.000326566124715672
0.000325737504902893
0.000323430580529617
0.000317567200467623
0.000304102934692923
0.000276454967371294
0.000226169348076154
0.000145850659484562
3.22145032433018e-05
1.1281023500503e-06
1.12252929724039e-06
3.23563996933736e-05
0.000147210176448261
0.000228623506249738
0.000279737209274307
0.000307926470117586
0.000321692343603797
0.000327699620392656
0.000330065883847227
0.000330915842895486
0.00033119696635433
0.000331283330755103
0.000331308153319759
0.000331314858036841
0.000331316553945177
0.000331316941411964
0.000331317005717998
0.000331316996413192
0.000331316972937293
0.000331316947794823
0.000331316923672028
0.000331316901099441
0.000331316880145665
0.000331316860821544
0.000331316843109568
0.00033131682702029
0.000331316812551194
0.000331316799737686
0.000331316788610818
0.000331316779212813
0.000331316771451858
0.000331316764667529
0.000331316755768849
0.000331316731012522
0.000331316629984178
0.000331316203410488
0.000331314469325377
0.000331307754009511
0.000331283090428187
0.000331197629363106
0.000330920059340562
0.000330081551375014
0.000327746408179125
0.000321810127962996
0.000308176932152501
0.000280180205496002
0.000229254805632861
0.000147889753363889
3.26587976917169e-05
1.14237597070956e-06
1.13113330785993e-06
3.26264555300375e-05
0.000148468976362692
0.000230546928299394
0.000282083301685586
0.000310516434643498
0.000324409744223044
0.000330477468214918
0.00033286989356121
0.000333730256365404
0.00033401521088643
0.000334102892791886
0.000334128143211197
0.000334134981885191
0.000334136720168453
0.000334137122897816
0.000334137194292436
0.000334137189217272
0.000334137168782341
0.000334137146101474
0.000334137124028534
0.000334137103163908
0.000334137083613465
0.000334137065410467
0.000334137048550986
0.000334137033051967
0.000334137018910441
0.000334137006151523
0.000334136994783533
0.000334136984821828
0.000334136976148708
0.000334136968113418
0.000334136957586265
0.00033413693059874
0.000334136826455539
0.000334136394488824
0.000334134646728656
0.000334127885651539
0.000334103055028835
0.000334016994710512
0.000333737397785883
0.00033289254612288
0.000330539255397999
0.000324556013494167
0.000310813874828931
0.000282592062953473
0.000231253406554896
0.000149211371456547
3.29444416086511e-05
1.1514505409126e-06
1.13634312009044e-06
3.27920016417669e-05
0.000149250973292904
0.000231747420918041
0.000283552709409198
0.000312142691677538
0.000326118908208498
0.000332226436183061
0.000334636308240084
0.000335503700617637
0.000335791278876157
0.000335879875704031
0.000335905427571447
0.000335912362127823
0.000335914131363947
0.000335914545467972
0.000335914622286295
0.00033591462052832
0.000335914602515497
0.000335914581817783
0.000335914561418433
0.000335914541971386
0.000335914523610354
0.000335914506384724
0.000335914490300472
0.00033591447537915
0.000335914461618008
0.000335914449036007
0.000335914437628096
0.000335914427391709
0.000335914418190189
0.000335914409364205
0.000335914397757864
0.000335914369287881
0.000335914263055126
0.000335913827534205
0.000335912071099005
0.000335905281598962
0.000335880347662565
0.000335793915970222
0.000335513058739437
0.000334664250348965
0.000332299612173608
0.000326286950423087
0.000312476467480003
0.000284113284518277
0.00023251472028428
0.000150046006237763
3.31233693810103e-05
1.15707383317218e-06
1.1394148218671e-06
3.28907979510114e-05
0.000149724141416049
0.00023247758124225
0.000284449848582761
0.000313138337216328
0.000327167242539079
0.000333300381701024
0.000335721624837528
0.000336593659971052
0.000336882994828145
0.000336972212800032
0.00033699797230786
0.000337004973955583
0.000337006765273984
0.000337007187676835
0.000337007268587233
0.000337007269428359
0.000337007253322596
0.00033700723420468
0.000337007215160246
0.000337007196883794
0.000337007179529252
0.000337007163156958
0.000337007147779358
0.000337007133421289
0.000337007120080277
0.000337007107771435
0.000337007096481629
0.000337007086196324
0.000337007076765623
0.000337007067518842
0.000337007055281558
0.00033700702590942
0.000337006918372211
0.000337006480630971
0.000337004718888172
0.000336997912243805
0.000336972916144371
0.000336886260462729
0.000336604640485473
0.000335753429817896
0.000333381884054444
0.000327351275956174
0.000313499030961852
0.000285049324488335
0.000233291393164373
0.000150560359433854
3.32327518120326e-05
1.16047597894642e-06
1.14118137427573e-06
3.2948296538e-05
0.000150003432707926
0.000232910975737688
0.000284984551702817
0.000313733516724772
0.000327795166181906
0.000333944424013391
0.000336372917577567
0.00033724795291319
0.000337538438546281
0.000337628069186532
0.00033765396867481
0.000337661016284618
0.000337662823039948
0.000337663251407604
0.000337663335404852
0.000337663338286517
0.000337663323680774
0.000337663305823118
0.000337663287880011
0.000337663270576799
0.000337663254081606
0.000337663238461513
0.000337663223732963
0.00033766320992265
0.000337663197028507
0.000337663185063156
0.00033766317400832
0.000337663163841496
0.000337663154403541
0.000337663145014384
0.00033766313248668
0.000337663102642628
0.000337662994372974
0.000337662555339569
0.00033766079048704
0.000337653973814528
0.000337628941308707
0.000337542154001194
0.000337260084131181
0.00033640745179851
0.000334031806740844
0.00032799052376953
0.000314113387451435
0.000285612007187403
0.000233758675694915
0.000150870116563405
3.3298109110201e-05
1.16248864301621e-06
1.14217386196094e-06
3.29809799301961e-05
0.000150164478343411
0.000233162367482834
0.000285296072948356
0.000314081374950526
0.0003281629460551
0.000334322137351368
0.000336755158459993
0.000337632092712604
0.000337923316803258
0.000338013216027932
0.000338039207993468
0.000338046286492899
0.000338048103874409
0.000338048536506286
0.000338048622852603
0.000338048627354467
0.000338048613941956
0.000338048597108264
0.000338048580080458
0.00033804856360644
0.000338048547863983
0.0003380485329238
0.000338048518804357
0.000338048505533317
0.000338048493108866
0.000338048481542086
0.000338048470811106
0.000338048460887826
0.000338048451606844
0.000338048442281087
0.000338048429714578
0.000338048399710609
0.00033804829111429
0.000338047851417813
0.00033804608485492
0.000338039262522589
0.000338014209269579
0.000337927346524653
0.000337645017680046
0.000336791564048474
0.000334413543788821
0.000328366059962817
0.00031447443126103
0.000285942893936325
0.000234033732590361
0.000151052654086336
3.33363308893203e-05
1.16365445812377e-06
1.14271924950059e-06
3.29991476006205e-05
0.000150255308305278
0.000233305044953619
0.00028547370465377
0.000314280399538331
0.00032837385037795
0.000334539043042932
0.000336974836158133
0.000337852948904743
0.00033814463768266
0.000338234708359927
0.000338260760283829
0.000338267859199128
0.000338269683821706
0.000338270119515031
0.000338270207685604
0.00033827021349793
0.000338270201047819
0.00033827018506902
0.000338270168824509
0.000338270153077523
0.000338270138012022
0.000338270123700219
0.00033827011016112
0.000338270097422885
0.000338270085484055
0.000338270074354535
0.000338270064009868
0.000338270054417783
0.00033827004540842
0.000338270036289835
0.000338270023860571
0.000338269993913036
0.00033826988526654
0.000338269445320003
0.000338267677915177
0.000338260852536073
0.00033823578780102
0.000338148882865135
0.000337866408340736
0.000337012490832013
0.000334633124746804
0.000328582117842261
0.000314682234204183
0.000286133473704558
0.000234192328329837
0.000151158036815165
3.33582343073443e-05
1.16431640433132e-06
1.14301258784491e-06
3.30090314924927e-05
0.000150305460092755
0.000233384351444483
0.000285572934945554
0.000314391985590274
0.000328492388545074
0.000334661140142872
0.000337098599330006
0.000337977430104571
0.000338269405977951
0.000338359584146134
0.000338385674290333
0.000338392786519596
0.000338394616063767
0.000338395053996832
0.000338395143639477
0.000338395150539011
0.000338395138877753
0.000338395123642539
0.000338395108097341
0.000338395093014103
0.000338395078580093
0.000338395064867444
0.000338395051894635
0.000338395039690178
0.000338395028253143
0.000338395017592597
0.00033839500768208
0.000338394998485717
0.000338394989830499
0.000338394981021167
0.00033839496885309
0.000338394939112005
0.000338394830603548
0.000338394390677903
0.000338392622966458
0.000338385796077319
0.000338360725219907
0.000338273797285686
0.000337991242623426
0.00033713706862228
0.000334756955694435
0.000328703987951119
0.000314799497381477
0.000286241097722866
0.000234281993192645
0.000151217697731358
3.33705453159266e-05
1.1646851379316e-06
1.14316694260686e-06
3.3014293295096e-05
0.000150332571612547
0.000233427535757618
0.000285627264612553
0.000314453324007042
0.000328557724635437
0.000334728550616398
0.00033716699414708
0.000338046254981115
0.000338338405241273
0.000338428649697142
0.000338454763847154
0.000338461884679604
0.000338463717592307
0.000338464157225916
0.000338464248105978
0.000338464255914301
0.000338464244930498
0.000338464230369985
0.000338464215474509
0.000338464201018563
0.000338464187190358
0.000338464174061392
0.000338464161648055
0.000338464149979784
0.000338464139056495
0.000338464128886663
0.000338464119442047
0.00033846411068372
0.000338464102436299
0.000338464094002452
0.000338464082175962
0.000338464052738774
0.000338463944490314
0.000338463504759873
0.000338461737070298
0.000338454909566417
0.000338429835637705
0.000338342895569688
0.000338060297881247
0.000337205985049544
0.000334825465938502
0.000328771428030676
0.000314864415686946
0.000286300724135231
0.000234331727192623
0.000151250835692532
3.33773347481093e-05
1.16488670820319e-06
1.14324611633404e-06
3.30170259934708e-05
0.000150346886526514
0.000233450529062251
0.0002856563764571
0.000314486342854417
0.000328593004562379
0.000334765020419002
0.000337204036416341
0.00033808355082625
0.00033837580538495
0.000338466090122799
0.000338492219169592
0.000338499345541223
0.00033850118080578
0.000338501621796963
0.000338501713753046
0.000338501722355419
0.000338501711991204
0.000338501698074213
0.000338501683810384
0.000338501669970901
0.000338501656743344
0.000338501644199416
0.000338501632349662
0.000338501621226586
0.000338501610831261
0.000338501601171815
0.000338501592218285
0.000338501583929041
0.000338501576126846
0.000338501568113146
0.000338501556681523
0.000338501527611982
0.000338501419703982
0.000338500980287632
0.000338499212833697
0.000338492385252339
0.000338467310000262
0.000338380363915872
0.000338097743971055
0.00033724335805847
0.000334862623192961
0.000328808013586542
0.000314899648630687
0.00028633310895471
0.000234358769643749
0.000151268879311633
3.33810055360619e-05
1.16499473622019e-06
1.14328514335961e-06
3.30183927676292e-05
0.000150354187398539
0.000233462388525457
0.000285671519692476
0.000314503622136113
0.000328611540790899
0.000334784228402587
0.000337223572346878
0.000338103234098258
0.000338395550158215
0.000338485859057518
0.000338511997257987
0.000338519127196893
0.000338520964151647
0.000338521406275132
0.00033852149919777
0.000338521508532688
0.000338521498760358
0.000338521485476837
0.000338521471843393
0.000338521458621972
0.000338521445999255
0.000338521434052759
0.000338521422774034
0.000338521412205322
0.000338521402349928
0.000338521393215508
0.000338521384770639
0.000338521376971362
0.000338521369638881
0.000338521362073928
0.00033852135107056
0.000338521322408454
0.000338521214893969
0.000338520775881795
0.000338519008821098
0.000338512181517304
0.000338487106003738
0.000338400157460909
0.000338117527064773
0.000337263104989579
0.000334882260603548
0.000328827356319679
0.000314918287669941
0.000286350256843065
0.000234373106907094
0.000151278461208132
3.33829419592679e-05
1.16505123568245e-06
1.14330258827959e-06
3.30190166916094e-05
0.000150357619497294
0.000233468081790431
0.000285678902676149
0.00031451213509589
0.000328620734277819
0.000334793792996532
0.000337233321366983
0.000338113067332211
0.000338405419114991
0.000338495742308729
0.000338521886067417
0.000338529018290535
0.000338530856480586
0.000338531299560404
0.000338531393358211
0.000338531403375581
0.000338531394169652
0.000338531381506943
0.000338531368501839
0.000338531355899789
0.000338531343888135
0.0003385313325717
0.000338531321877224
0.000338531311877742
0.000338531302581979
0.00033853129399717
0.000338531286090757
0.000338531278816851
0.000338531271994943
0.000338531264925166
0.000338531254402248
0.000338531226206997
0.000338531119159977
0.000338530680665641
0.000338528914166955
0.000338522087453469
0.000338497012467431
0.000338410063835045
0.000338127430345146
0.000337272994194233
0.000334892102196777
0.00032883706159351
0.000314927655728301
0.000286358894411191
0.000234380347872762
0.000151283317316096
3.33839196463021e-05
1.16507957743802e-06
1.14330767637609e-06
3.30192076920725e-05
0.000150358768007621
0.000233470136689973
0.000285681711661509
0.000314515487679985
0.000328624432977175
0.000334797688528563
0.00033723731801439
0.000338117111515836
0.000338409484108199
0.000338499816010094
0.000338525963431147
0.000338533097391317
0.000338534936717341
0.000338535380788361
0.000338535475529413
0.000338535486313301
0.000338535477751849
0.000338535465769092
0.000338535453449716
0.000338535441511105
0.000338535430145122
0.000338535419564234
0.000338535409476367
0.000338535400052221
0.000338535391317122
0.000338535383278834
0.000338535375903794
0.000338535369143811
0.000338535362816002
0.000338535356218222
0.000338535346144597
0.000338535318377446
0.000338535211753276
0.000338534773726917
0.0003385330077548
0.000338526181706881
0.000338501107720782
0.000338414160716413
0.000338131529517562
0.000337277094795908
0.000334896196593733
0.000328841121197121
0.00031493160573895
0.000286362575361078
0.000234383473650125
0.00015128544569561
3.33843537619682e-05
1.16509226208755e-06
1.14330300720949e-06
3.30190642121317e-05
0.000150358224561235
0.000233469558255776
0.000285681253666435
0.000314515186884703
0.000328624263040532
0.000334797605451582
0.000337237284331428
0.000338117102892386
0.000338409487243031
0.000338499824493851
0.000338525974453933
0.000338533109830632
0.000338534950201805
0.00033853539523918
0.000338535490920601
0.000338535502508248
0.00033853549462411
0.000338535483308174
0.000338535471688805
0.000338535460424276
0.000338535449701068
0.000338535439746056
0.000338535430243087
0.000338535421391601
0.00033853541320674
0.000338535405694837
0.000338535398820876
0.000338535392533488
0.000338535386645582
0.000338535380450217
0.000338535370738673
0.000338535343294181
0.000338535236964194
0.000338534799226332
0.000338533033601395
0.000338526208172935
0.000338501135616576
0.000338414192068093
0.000338131568787502
0.000337277150649875
0.000334896283477475
0.00032884125892993
0.000314931814543369
0.000286362863651863
0.000234383817974253
0.000151285763620359
3.33844409338206e-05
1.16509542121056e-06
1.14328701043439e-06
3.30185462822848e-05
0.000150355858757786
0.000233466221319105
0.000285677439795702
0.000314511183463159
0.000328620207200585
0.000334793547823547
0.00033723323648735
0.000338113063563692
0.000338405453107476
0.000338495793173189
0.000338521944674243
0.000338529081018697
0.000338530922152505
0.000338531367927144
0.000338531464342563
0.000338531476655401
0.000338531469395048
0.00033853145854994
0.000338531447547111
0.000338531436894579
0.000338531426762131
0.000338531417265829
0.000338531408343451
0.000338531400066637
0.000338531392444031
0.000338531385480348
0.000338531379138919
0.000338531373364441
0.000338531367964417
0.000338531362225979
0.000338531352937433
0.000338531325884817
0.000338531219922918
0.00033853078253778
0.000338529017402375
0.000338522193012003
0.000338497123107156
0.000338410186418978
0.000338127580038919
0.000337273200611897
0.000334892415146542
0.000328837550119835
0.000314928390358804
0.000286359903697461
0.000234381547724979
0.000151284414422585
3.33842087791214e-05
1.16508936424673e-06
1.14325504247782e-06
3.30174856502037e-05
0.000150350784409612
0.000233458815365894
0.000285668736637529
0.000314501840103653
0.000328610587615124
0.000334783825631583
0.000337223482489649
0.000338103302156199
0.000338395691136485
0.000338486032007731
0.000338512184344925
0.000338519321384391
0.000338521163142103
0.000338521609542637
0.000338521706503696
0.000338521719495664
0.000338521712942401
0.00033852170250813
0.000338521692081657
0.000338521682010734
0.00033852167245301
0.000338521663496504
0.000338521655145798
0.000338521647444727
0.000338521640398966
0.000338521634011824
0.00033852162824463
0.000338521623037282
0.000338521618190767
0.000338521612985696
0.000338521604208826
0.000338521577653153
0.000338521472189064
0.00033852103534232
0.000338519271053313
0.000338512448540638
0.00033848738348703
0.000338400459520085
0.000338117885139776
0.000337263581108192
0.000334882960519582
0.000328828428733049
0.00031491988646898
0.000286352445322827
0.000234375701006198
0.000151280818831255
3.3383559481126e-05
1.16507251559084e-06
1.14319404338346e-06
3.30154616743788e-05
0.000150341024113695
0.00023344440845264