/*--------------------------------*- C++ -*----------------------------------*\
  =========                 |
  \\      /  F ield         | OpenFOAM: The Open Source CFD Toolbox
   \\    /   O peration     | Website:  https://openfoam.org
    \\  /    A nd           | Version:  10
     \\/     M anipulation  |
\*---------------------------------------------------------------------------*/
FoamFile
{
    format      ascii;
    class       volScalarField;
    location    "3";
    object      nut;
}
// * * * * * * * * * * * * * * * * * * * * * * * * * * * * * * * * * * * * * //

dimensions      [0 2 -1 0 0 0 0];

internalField   nonuniform List<scalar> 
2500
(
2.35075174222358e-14
4.46510020929088e-13
1.82526376172807e-12
2.937608231417e-12
3.65204058566014e-12
4.03936893635783e-12
4.22082414300477e-12
4.29567626963136e-12
4.32330389424958e-12
4.33255254654277e-12
4.33539226810918e-12
4.33619870524587e-12
4.33641107723245e-12
4.33646204199916e-12
4.33647204060327e-12
4.33647253263745e-12
4.33647116847955e-12
4.33646965536162e-12
4.33646827740787e-12
4.33646706517067e-12
4.3364660119522e-12
4.33646510355731e-12
4.33646432801603e-12
4.33646367617313e-12
4.336463147938e-12
4.33646274342709e-12
4.33646247004722e-12
4.33646240157579e-12
4.33646255982544e-12
4.33646269943551e-12
4.33646282935709e-12
4.33646315948896e-12
4.3364636582848e-12
4.33646420485988e-12
4.33646419786798e-12
4.33646027873652e-12
4.33643950084291e-12
4.33635594300959e-12
4.3360464722649e-12
4.33497112459346e-12
4.33146473630796e-12
4.32079065512469e-12
4.29069527358505e-12
4.21290013135487e-12
4.03080625182901e-12
3.65058127023043e-12
2.95481693892304e-12
1.8632317568279e-12
4.69336910703263e-13
2.58419104486093e-14
2.26866778459264e-12
1.13439596691703e-10
4.74879419880917e-10
7.67764924693232e-10
9.58748694532777e-10
1.06418383760731e-09
1.11452927484603e-09
1.13569549497686e-09
1.14365250350837e-09
1.14636296482144e-09
1.1472089251416e-09
1.14745291633572e-09
1.1475181744989e-09
1.14753415039478e-09
1.14753743541372e-09
1.1475377087791e-09
1.14753737651722e-09
1.14753697951962e-09
1.14753661351973e-09
1.14753629227329e-09
1.14753601422699e-09
1.14753577577683e-09
1.14753557332605e-09
1.14753540400034e-09
1.14753526749835e-09
1.14753516465634e-09
1.14753509796953e-09
1.14753509185078e-09
1.14753514154379e-09
1.14753517004683e-09
1.14753521488823e-09
1.14753531065047e-09
1.14753544629183e-09
1.1475355865582e-09
1.14753554079504e-09
1.1475342545514e-09
1.14752778180417e-09
1.14750224843276e-09
1.14740884199418e-09
1.14708823380922e-09
1.14605623230089e-09
1.14295778914974e-09
1.13435058512229e-09
1.11245123496518e-09
1.06203968115069e-09
9.58565013773948e-10
7.72375407987409e-10
4.84561394962049e-10
1.19016055596035e-10
2.4785998364135e-12
7.8792292809352e-12
1.99723490168427e-09
6.51371587115328e-07
1.04719923249193e-06
1.3039770748934e-06
1.44645946809651e-06
1.51522798876482e-06
1.54453724917761e-06
1.55572083046199e-06
1.55958870691183e-06
1.56081422926602e-06
1.56117300507938e-06
1.56127046513025e-06
1.56129481120527e-06
1.56130004588896e-06
1.56130064431901e-06
1.56130028495676e-06
1.5612997953517e-06
1.56129933463683e-06
1.56129892843878e-06
1.56129857623669e-06
1.56129827380355e-06
1.56129801689187e-06
1.56129780216921e-06
1.5612976285544e-06
1.56129749721902e-06
1.56129741254522e-06
1.56129740969155e-06
1.56129746563143e-06
1.56129748981153e-06
1.5612975517172e-06
1.56129767051928e-06
1.56129783302921e-06
1.56129798960138e-06
1.56129785000618e-06
1.56129584695252e-06
1.56128627530667e-06
1.56124905576328e-06
1.56111411464682e-06
1.56065484026361e-06
1.55918940907935e-06
1.55483081771109e-06
1.5428437731547e-06
1.51265941670018e-06
1.44386530423557e-06
1.30380500987686e-06
1.05278955841578e-06
6.63056870603348e-07
2.08249613720901e-09
8.45769434957809e-12
1.3667292252837e-11
3.49069324172335e-09
1.13197616754404e-06
1.80303707283513e-06
2.23368676452566e-06
2.47173641406036e-06
2.58672380551426e-06
2.63591241511538e-06
2.65478282896705e-06
2.6613513353008e-06
2.66344745171163e-06
2.66406587676362e-06
2.66423534390694e-06
2.6642781825081e-06
2.66428762867089e-06
2.6642888725345e-06
2.66428837104417e-06
2.66428761955427e-06
2.66428689954903e-06
2.66428626093317e-06
2.66428570489692e-06
2.66428522552867e-06
2.66428481677792e-06
2.6642844740117e-06
2.66428419483635e-06
2.66428398028964e-06
2.66428383775169e-06
2.66428382141253e-06
2.66428387948897e-06
2.66428391710004e-06
2.66428400779755e-06
2.66428417880608e-06
2.66428442359491e-06
2.66428464975576e-06
2.66428438562168e-06
2.66428103662035e-06
2.66426535339617e-06
2.66420422427096e-06
2.66398185182679e-06
2.66322234634307e-06
2.66079113349758e-06
2.65354014997155e-06
2.63355417986608e-06
2.58313748415581e-06
2.46802683172556e-06
2.23305076324464e-06
1.80983701718144e-06
1.14673062840867e-06
3.59960618075696e-09
1.44004343089808e-11
1.89283278555667e-11
4.84240766008176e-09
1.55704411989561e-06
2.46187267529223e-06
3.03807425869371e-06
3.35579527480682e-06
3.50942451263658e-06
3.575357569698e-06
3.60077055867296e-06
3.6096665762325e-06
3.61252361134491e-06
3.61337251652986e-06
3.61360704522449e-06
3.61366699742229e-06
3.61368053742343e-06
3.61368255432478e-06
3.61368204648448e-06
3.61368114954854e-06
3.61368026960512e-06
3.61367948312134e-06
3.61367879481771e-06
3.61367819825578e-06
3.61367768679906e-06
3.61367725533648e-06
3.61367690079421e-06
3.61367662387866e-06
3.61367643202016e-06
3.61367638193733e-06
3.61367642096406e-06
3.61367646848384e-06
3.61367656552257e-06
3.61367675653549e-06
3.61367703241167e-06
3.61367727760924e-06
3.61367684855253e-06
3.61367235713724e-06
3.61365181673111e-06
3.61357162910249e-06
3.61327902859845e-06
3.61227621952306e-06
3.60905569077086e-06
3.59942309766935e-06
3.57280975060237e-06
3.50554619172247e-06
3.35170786511881e-06
3.03701666143295e-06
2.4682350537639e-06
1.57144726642097e-06
4.95260923157515e-09
1.96919111000615e-11
2.34167859956438e-11
6.00150085420521e-09
1.9166616888772e-06
3.01334563411124e-06
3.70793543454149e-06
4.09040826093306e-06
4.27558740330036e-06
4.35530357655306e-06
4.38615926791861e-06
4.39701548580027e-06
4.4005221747968e-06
4.40157083663663e-06
4.40186273548123e-06
4.40193813150482e-06
4.40195554695782e-06
4.40195842431374e-06
4.40195803088974e-06
4.40195709336925e-06
4.40195614380709e-06
4.40195528640703e-06
4.40195453134699e-06
4.40195387301322e-06
4.40195330473207e-06
4.40195282157755e-06
4.40195242053936e-06
4.40195210161164e-06
4.40195186991617e-06
4.40195176351266e-06
4.4019517767066e-06
4.40195184675416e-06
4.4019519169599e-06
4.40195209501915e-06
4.40195235847604e-06
4.40195259222999e-06
4.40195195337013e-06
4.4019464569041e-06
4.40192209483503e-06
4.40182692366059e-06
4.40147884165745e-06
4.40028248560394e-06
4.39642974566967e-06
4.38487816620551e-06
4.35289934730826e-06
4.27194902778956e-06
4.08656947879992e-06
3.70681278561862e-06
3.01881686446141e-06
1.92932691645663e-06
6.1028697476483e-09
2.41508026069081e-11
2.70570267661891e-11
6.94920939182177e-09
2.20870055624936e-06
3.45791095547991e-06
4.24618168329686e-06
4.6799805957282e-06
4.8903148865138e-06
4.98111613997147e-06
5.0163959773622e-06
5.02886498403769e-06
5.03291335175133e-06
5.03413101200095e-06
5.03447226272014e-06
5.03456124514472e-06
5.03458222322742e-06
5.0345859909339e-06
5.03458580053793e-06
5.03458490432963e-06
5.03458395694478e-06
5.03458309024827e-06
5.0345823211017e-06
5.03458164573256e-06
5.03458105816574e-06
5.03458055392808e-06
5.03458013025709e-06
5.03457978673668e-06
5.03457952625797e-06
5.03457936904653e-06
5.0345793514363e-06
5.03457939199179e-06
5.03457945377217e-06
5.03457959327359e-06
5.03457980860944e-06
5.03457997681352e-06
5.03457905823574e-06
5.03457275067437e-06
5.03454543653204e-06
5.03443871622748e-06
5.0340477395926e-06
5.03270087652205e-06
5.02835356987087e-06
5.01529304049949e-06
4.97907844314473e-06
4.88729422522697e-06
4.67690991146631e-06
4.24552499142916e-06
3.4627991000513e-06
2.2195423739113e-06
7.03945802190337e-09
2.77422830140279e-11
2.98776264093203e-11
7.69075186016082e-09
2.43683355485298e-06
3.80361687025934e-06
4.66401108607565e-06
5.13747070792636e-06
5.36737747265579e-06
5.46688298637209e-06
5.50567446619159e-06
5.51943913449538e-06
5.52392840800138e-06
5.52528559649361e-06
5.52566825561597e-06
5.52576888390798e-06
5.52579303610148e-06
5.52579767512208e-06
5.52579774035463e-06
5.52579694132489e-06
5.52579604634726e-06
5.52579521396293e-06
5.52579446831041e-06
5.52579380812778e-06
5.52579322872844e-06
5.52579272619815e-06
5.52579229807303e-06
5.5257919438066e-06
5.52579166491799e-06
5.52579147210386e-06
5.5257913926513e-06
5.52579139464916e-06
5.52579145089682e-06
5.52579154290485e-06
5.52579168524653e-06
5.52579174231075e-06
5.52579054646151e-06
5.52578359084438e-06
5.52575402855786e-06
5.52563860660889e-06
5.52521526577999e-06
5.52375428328974e-06
5.51902997820575e-06
5.50481392729789e-06
5.46534455357356e-06
5.3652177953373e-06
5.13556067709025e-06
4.66437601644956e-06
3.80859941862549e-06
2.44647575867877e-06
7.77206916171661e-09
3.05188747514633e-11
3.19722894080061e-11
8.24747145503345e-09
2.60852964456046e-06
4.06321571601992e-06
4.97761555913843e-06
5.48092996680667e-06
5.72568539660757e-06
5.83185830679602e-06
5.87336945722226e-06
5.8881497848513e-06
5.89298920702454e-06
5.89445876544107e-06
5.89487530032061e-06
5.89498565001887e-06
5.89501254212122e-06
5.89501799050171e-06
5.89501833557635e-06
5.89501766477308e-06
5.89501685197777e-06
5.89501608041133e-06
5.89501538149241e-06
5.89501475670359e-06
5.89501420253331e-06
5.89501371612112e-06
5.89501329541165e-06
5.89501293992065e-06
5.89501265035773e-06
5.89501243216688e-06
5.89501229832654e-06
5.89501225121432e-06
5.89501226828824e-06
5.89501233186271e-06
5.89501238469896e-06
5.89501230771797e-06
5.89501086141751e-06
5.89500341184833e-06
5.89497216524018e-06
5.89485034748944e-06
5.89440322532695e-06
5.89285803648095e-06
5.88785421774678e-06
5.87277790631579e-06
5.83087811122739e-06
5.72451069269841e-06
5.480427604318e-06
4.97945822062049e-06
4.0690251320014e-06
2.61784007265155e-06
8.32388134198935e-09
3.2585072301461e-11
3.34671095611189e-11
8.64940920631913e-09
2.73320197091641e-06
4.25164630238761e-06
5.20536672938956e-06
5.73056200984564e-06
5.98629416564111e-06
6.09744593598217e-06
6.14101101811867e-06
6.15656780515758e-06
6.16167841686701e-06
6.16323622174191e-06
6.16367977101526e-06
6.16379802258909e-06
6.16382720672615e-06
6.16383337456287e-06
6.16383399629598e-06
6.16383346218949e-06
6.16383274374005e-06
6.16383204468955e-06
6.16383140322452e-06
6.16383082351704e-06
6.16383030346877e-06
6.16382984114711e-06
6.16382943496796e-06
6.16382908460451e-06
6.16382879034602e-06
6.16382855512082e-06
6.16382838506059e-06
6.16382828399252e-06
6.16382825181162e-06
6.16382824956211e-06
6.16382824045111e-06
6.16382802013144e-06
6.16382636600926e-06
6.16381856211652e-06
6.16378608318465e-06
6.16365968697984e-06
6.16319557221333e-06
6.1615900029647e-06
6.1563848872545e-06
6.14068671280693e-06
6.09702523193333e-06
5.98612718778199e-06
5.73156597252735e-06
5.20896915035686e-06
4.2588641519535e-06
2.74297740069704e-06
8.72495050782794e-09
3.40686078930959e-11
3.44947113869795e-11
8.92907921807517e-09
2.82066926768109e-06
4.38399638205336e-06
5.36555326418688e-06
5.90635908739925e-06
6.16999567736283e-06
6.28477084055328e-06
6.32984806682232e-06
6.34598361403863e-06
6.35129902513986e-06
6.35292440008118e-06
6.3533889479452e-06
6.35351345414634e-06
6.35354449731458e-06
6.35355128167169e-06
6.35355215994577e-06
6.35355175170473e-06
6.35355112699781e-06
6.35355050155515e-06
6.35354991935506e-06
6.35354938702838e-06
6.35354890382195e-06
6.35354846864346e-06
6.35354808037776e-06
6.35354773889047e-06
6.35354744426087e-06
6.35354719818554e-06
6.35354700362915e-06
6.35354686328115e-06
6.35354677662963e-06
6.35354672338681e-06
6.35354664840781e-06
6.35354630745201e-06
6.35354450727727e-06
6.35353641873221e-06
6.35350305901261e-06
6.35337347452515e-06
6.35289756371998e-06
6.35124995539877e-06
6.34590413215461e-06
6.32976975828253e-06
6.28486943058992e-06
6.17078067028321e-06
5.90883647788282e-06
5.37100370694739e-06
4.39295920254696e-06
2.83147147867071e-06
9.0068182007263e-09
3.50986685867881e-11
3.51768047495197e-11
9.11702387107533e-09
2.88005103935772e-06
4.47406123936621e-06
5.47478478883566e-06
6.02643308002257e-06
6.29561468643548e-06
6.4129597960289e-06
6.45912232769385e-06
6.47567851669352e-06
6.48114474811144e-06
6.48282057525974e-06
6.48330103618361e-06
6.48343036463733e-06
6.48346287143378e-06
6.48347015916654e-06
6.48347125492413e-06
6.48347096701442e-06
6.48347042796275e-06
6.48346987050666e-06
6.48346934368532e-06
6.48346885626059e-06
6.48346840864291e-06
6.483468000463e-06
6.48346763102694e-06
6.48346730038264e-06
6.48346700851706e-06
6.48346675648559e-06
6.48346654571031e-06
6.48346637781323e-06
6.48346625161172e-06
6.48346615250157e-06
6.48346602069724e-06
6.48346559281004e-06
6.48346367648691e-06
6.48345537278156e-06
6.48342140039679e-06
6.48328965773642e-06
6.48280579455317e-06
6.48112977466264e-06
6.4756885055651e-06
6.45925727326418e-06
6.41351179415988e-06
6.29724307995025e-06
6.03025153955442e-06
5.48200230348047e-06
4.48485657307865e-06
2.89216588782948e-06
9.19874762723944e-09
3.57917683660691e-11
3.56149661612688e-11
9.23926827187066e-09
2.91912528517705e-06
4.53352260271102e-06
5.54708911932953e-06
6.1060721155066e-06
6.37904448025565e-06
6.49816663770751e-06
6.54508879852917e-06
6.56194318346471e-06
6.56751776143066e-06
6.56923033669991e-06
6.56972255929673e-06
6.56985551143488e-06
6.56988914068108e-06
6.56989682399772e-06
6.5698980991517e-06
6.56989791462875e-06
6.5698974490979e-06
6.56989695051943e-06
6.56989647216067e-06
6.56989602454193e-06
6.56989560902358e-06
6.56989522582067e-06
6.56989487458614e-06
6.56989455552926e-06
6.56989426860018e-06
6.56989401450106e-06
6.56989379384771e-06
6.56989360747754e-06
6.56989345356989e-06
6.56989331902894e-06
6.56989314256156e-06
6.56989265164328e-06
6.56989064827883e-06
6.56988218946697e-06
6.56984780317065e-06
6.56971464084521e-06
6.56922557081536e-06
6.56753090835646e-06
6.56202679375331e-06
6.54539947969697e-06
6.49909442251152e-06
6.38138010182132e-06
6.11103868823171e-06
5.55587357677909e-06
4.54604104544877e-06
2.93260105398882e-06
9.32561706086907e-09
3.62446495460294e-11
3.58879527982112e-11
9.31638239350085e-09
2.94408696688409e-06
4.57166355345698e-06
5.593611503065e-06
6.15743041391418e-06
6.43292979989698e-06
6.55325060783252e-06
6.60069155123923e-06
6.61775223952654e-06
6.62340278628366e-06
6.62514148726188e-06
6.62564219408232e-06
6.6257778025437e-06
6.62581227207133e-06
6.62582025804007e-06
6.62582167375848e-06
6.62582157310806e-06
6.62582116787867e-06
6.62582071811299e-06
6.62582028040215e-06
6.62581986665165e-06
6.62581947896089e-06
6.62581911798946e-06
6.62581878365957e-06
6.62581847630725e-06
6.6258181958737e-06
6.62581794285701e-06
6.6258177174222e-06
6.62581751987389e-06
6.62581734787814e-06
6.62581718853083e-06
6.62581697977122e-06
6.62581644460885e-06
6.62581437947753e-06
6.62580581372321e-06
6.62577115625369e-06
6.62563708649361e-06
6.62514470407462e-06
6.6234381585777e-06
6.61789385103786e-06
6.60114074315078e-06
6.55447582535649e-06
6.43583026717565e-06
6.16332854668662e-06
5.60370005786696e-06
4.58567276604587e-06
2.9588083976452e-06
9.40718232173705e-09
3.65325662372527e-11
3.6053247090082e-11
9.36365354606072e-09
2.95959367024162e-06
4.59546886177174e-06
5.62274929231424e-06
6.18967846392943e-06
6.46682186278695e-06
6.58793196848235e-06
6.63571887354548e-06
6.65291895562543e-06
6.65862153011567e-06
6.66037837366551e-06
6.66088505809073e-06
6.66102256786476e-06
6.66105765117654e-06
6.66106586270086e-06
6.66106738596946e-06
6.66106735109778e-06
6.66106699389801e-06
6.66106658345759e-06
6.66106617893345e-06
6.66106579329304e-06
6.66106542918785e-06
6.66106508759729e-06
6.66106476863986e-06
6.66106447274305e-06
6.66106419985233e-06
6.66106395034378e-06
6.66106372411728e-06
6.66106352112202e-06
6.6610633386482e-06
6.66106316362155e-06
6.66106293346189e-06
6.66106236890276e-06
6.66106026233616e-06
6.6610516261031e-06
6.66101679661079e-06
6.66088216323502e-06
6.66038773214596e-06
6.65867382244828e-06
6.65310452353237e-06
6.63627295528979e-06
6.58938302199064e-06
6.47015407974897e-06
6.19629711896329e-06
5.6338652969285e-06
4.61068413493848e-06
2.9753588904886e-06
9.45827456704806e-09
3.67109792994148e-11
3.61507037706447e-11
9.39186435723158e-09
2.96897637038461e-06
4.60994759364511e-06
5.64053913512777e-06
6.20942164180604e-06
6.48760983524905e-06
6.60922779931972e-06
6.65724018791378e-06
6.67453233385843e-06
6.68026974096262e-06
6.68203890154323e-06
6.68254970339425e-06
6.68268854356327e-06
6.68272406475816e-06
6.68273244084516e-06
6.6827340452582e-06
6.68273406192581e-06
6.68273374254239e-06
6.68273336342885e-06
6.68273298577225e-06
6.68273262334433e-06
6.68273227919749e-06
6.68273195452824e-06
6.68273164958348e-06
6.68273136485572e-06
6.68273110029602e-06
6.68273085620407e-06
6.68273063231951e-06
6.68273042835416e-06
6.68273024133567e-06
6.6827300579647e-06
6.68272981529357e-06
6.68272923284494e-06
6.68272710041138e-06
6.68271842015019e-06
6.6826834854106e-06
6.68254851207137e-06
6.68205284832072e-06
6.68033449702782e-06
6.67475007322835e-06
6.65787086901134e-06
6.61084396160717e-06
6.49125915199049e-06
6.21657406991866e-06
5.65242652842088e-06
4.62608519384108e-06
2.98555827556601e-06
9.48950821081073e-09
3.68189201397326e-11
3.6206751188807e-11
9.40828269605228e-09
2.97451455238172e-06
4.61854155104121e-06
5.65114198369941e-06
6.22122370306407e-06
6.50006119489427e-06
6.62199878375958e-06
6.67015494469346e-06
6.6875065831959e-06
6.69326680965181e-06
6.69504415326019e-06
6.6955577308625e-06
6.69569748244036e-06
6.69573330974337e-06
6.69574180411021e-06
6.69574346973442e-06
6.69574352686523e-06
6.69574323722674e-06
6.69574288310372e-06
6.69574252728608e-06
6.69574218415719e-06
6.69574185705094e-06
6.6957415472976e-06
6.69574125522325e-06
6.6957409813573e-06
6.69574072565883e-06
6.69574048837815e-06
6.69574026915293e-06
6.69574006753697e-06
6.69573988037459e-06
6.69573969418027e-06
6.69573944575014e-06
6.69573885394353e-06
6.69573670698579e-06
6.69572800110149e-06
6.69569300469768e-06
6.69555783250672e-06
6.69506144684109e-06
6.69334048549162e-06
6.68774714060162e-06
6.6708397456433e-06
6.62373155172976e-06
6.50393506581545e-06
6.22875640370973e-06
5.66358420178917e-06
4.63535113850295e-06
2.99170058386407e-06
9.50817057790852e-09
3.68827760428244e-11
3.62382394645556e-11
9.41761512441753e-09
2.97770796274594e-06
4.62352645532364e-06
5.6573192111528e-06
6.2281214669717e-06
6.50735399165461e-06
6.62948855482386e-06
6.67773449425937e-06
6.69512378721566e-06
6.70089865689136e-06
6.7026813263929e-06
6.70319673777476e-06
6.70333710187976e-06
6.7033731398954e-06
6.70338171882014e-06
6.70338343102555e-06
6.70338352028442e-06
6.70338325430734e-06
6.70338292048921e-06
6.70338258282171e-06
6.70338225613545e-06
6.70338194395572e-06
6.70338164768476e-06
6.70338136768881e-06
6.70338110451644e-06
6.70338085813178e-06
6.70338062875463e-06
6.70338041595131e-06
6.70338021916472e-06
6.703380035115e-06
6.70337985017782e-06
6.70337960097812e-06
6.70337900600034e-06
6.70337685256491e-06
6.7033681335322e-06
6.70333310321313e-06
6.70319781879286e-06
6.7027010217289e-06
6.70097856452114e-06
6.69538008438353e-06
6.67845640374301e-06
6.63130111148625e-06
6.51138166754421e-06
6.23591563286308e-06
5.67014543997214e-06
4.64080531387483e-06
2.99532017028243e-06
9.51908447300795e-09
3.69197635391644e-11
3.62555423873533e-11
9.42280263162407e-09
2.979509020742e-06
4.6263555934565e-06
5.66084145575115e-06
6.23206791179918e-06
6.51153600103125e-06
6.63378956641942e-06
6.68209047265738e-06
6.6995031343331e-06
6.70528721845992e-06
6.70707328776473e-06
6.70758988808797e-06
6.70773065702926e-06
6.70776683863199e-06
6.70777547826403e-06
6.70777722664385e-06
6.70777734188875e-06
6.70777709499577e-06
6.70777677812994e-06
6.70777645599493e-06
6.7077761437255e-06
6.7077758449696e-06
6.70777556115922e-06
6.70777529267128e-06
6.70777504006426e-06
6.70777480330929e-06
6.70777458260283e-06
6.70777437745993e-06
6.70777418724078e-06
6.70777400857712e-06
6.70777382774804e-06
6.70777358126981e-06
6.707772987411e-06
6.70777083298051e-06
6.70776210898929e-06
6.70772706197564e-06
6.70759171714187e-06
6.70709469240422e-06
6.70537139860377e-06
6.699770029815e-06
6.68283715104092e-06
6.63565517261637e-06
6.51566587001275e-06
6.24003614915943e-06
5.67392443973214e-06
4.64395010518714e-06
2.99740980403924e-06
9.52533870886697e-09
3.69407645538165e-11
3.62648484335716e-11
9.42562473128911e-09
2.98050344490493e-06
4.62792810745423e-06
5.66280902803488e-06
6.23428048137789e-06
6.51388642220242e-06
6.63621055717096e-06
6.68454449991943e-06
6.70197139943619e-06
6.70776117643177e-06
6.70954937720246e-06
6.7100667354089e-06
6.71020776835825e-06
6.71024404755369e-06
6.71025273159887e-06
6.71025450916939e-06
6.71025464597332e-06
6.71025441472308e-06
6.71025411260233e-06
6.71025380433448e-06
6.71025350522699e-06
6.71025321899335e-06
6.71025294706402e-06
6.71025268980542e-06
6.71025244778304e-06
6.71025222097849e-06
6.71025200957159e-06
6.71025181303772e-06
6.71025163066557e-06
6.71025145902444e-06
6.71025128432767e-06
6.71025104302861e-06
6.71025045326358e-06
6.71024830157028e-06
6.71023957799342e-06
6.71020452490028e-06
6.71006915012599e-06
6.70957200399527e-06
6.70784825418507e-06
6.70224529641849e-06
6.68530733187669e-06
6.63811054490391e-06
6.51808236230086e-06
6.24236129391886e-06
5.67605845630837e-06
4.64572802158949e-06
2.99859279041072e-06
9.52885386171091e-09
3.69524626820698e-11
3.62697448872212e-11
9.42712700774548e-09
2.98104098874923e-06
4.62878433151123e-06
5.66388623689598e-06
6.23549665822032e-06
6.51518186511186e-06
6.63754713156944e-06
6.68590059239711e-06
6.70333601944234e-06
6.70912925433357e-06
6.71091876952477e-06
6.71143660374624e-06
6.71157780729063e-06
6.71161415328215e-06
6.71162287104842e-06
6.71162467315652e-06
6.71162482798147e-06
6.71162461016499e-06
6.71162432142338e-06
6.71162402603936e-06
6.71162373937087e-06
6.71162346515017e-06
6.71162320479507e-06
6.71162295863063e-06
6.71162272724063e-06
6.71162251062349e-06
6.71162230894727e-06
6.71162212165203e-06
6.71162194796594e-06
6.71162178441123e-06
6.71162161716015e-06
6.71162138263458e-06
6.71162079889564e-06
6.71161865235794e-06
6.71160993265196e-06
6.71157487999316e-06
6.71143949303166e-06
6.71094228600931e-06
6.70921829562933e-06
6.70361448479633e-06
6.6866737676798e-06
6.63946892731432e-06
6.5194195264657e-06
6.24364845848619e-06
5.67724069742867e-06
4.64671412318226e-06
2.99924983601437e-06
9.53079234560953e-09
3.69588571466987e-11
3.62722560397867e-11
9.42790710641385e-09
2.98132478046415e-06
4.62924017507189e-06
5.66446338533343e-06
6.23615126810375e-06
6.5158813050222e-06
6.63827016350058e-06
6.68663497503561e-06
6.70407543000259e-06
6.70987073296475e-06
6.71166104689258e-06
6.71217917650023e-06
6.71232048988151e-06
6.71235688250875e-06
6.71236562719513e-06
6.71236745064037e-06
6.71236762121113e-06
6.71236741568094e-06
6.7123671397002e-06
6.71236685684155e-06
6.71236658239737e-06
6.71236632008734e-06
6.71236607133336e-06
6.71236583634458e-06
6.71236561576563e-06
6.71236540961781e-06
6.71236521806235e-06
6.71236504050516e-06
6.71236487612078e-06
6.71236472139472e-06
6.71236456247493e-06
6.71236433577935e-06
6.71236375933063e-06
6.71236161954409e-06
6.71235290606651e-06
6.71231785808101e-06
6.71218246958609e-06
6.71168523633302e-06
6.70996112668956e-06
6.70435687464798e-06
6.68741470874931e-06
6.6402055911249e-06
6.52014485643206e-06
6.2443469729197e-06
5.67788274747949e-06
4.64725025945549e-06
2.99960756619845e-06
9.53184031042139e-09
3.69622837559066e-11
3.62734934407412e-11
9.4282971697205e-09
2.98146948623469e-06
4.62947523853713e-06
5.66476354124435e-06
6.23649376802604e-06
6.51624872337793e-06
6.63865089973081e-06
6.68702221323485e-06
6.70446558953329e-06
6.7102621119115e-06
6.7120529049117e-06
6.71257121602183e-06
6.7127126001378e-06
6.71274902628033e-06
6.71275779341975e-06
6.7127596360315e-06
6.71275982112844e-06
6.71275962733519e-06
6.71275936391599e-06
6.7127590935577e-06
6.71275883136951e-06
6.71275858105329e-06
6.7127583441462e-06
6.71275812048075e-06
6.71275791089462e-06
6.71275771545344e-06
6.71275753430907e-06
6.71275736683842e-06
6.71275721216989e-06
6.71275706675804e-06
6.71275691673667e-06
6.71275669853319e-06
6.71275613016368e-06
6.71275399818035e-06
6.7127452927175e-06
6.71271025253043e-06
6.71257486954241e-06
6.71207763111522e-06
6.71035347276084e-06
6.70474901360073e-06
6.68780613099608e-06
6.64059484269391e-06
6.52052826738706e-06
6.2447164361586e-06
5.67822265463247e-06
4.64753445639635e-06
2.99979750344777e-06
9.53239303283659e-09
3.69640754965689e-11
3.62740460970148e-11
9.42847511450467e-09
2.98153747561703e-06
4.62958802849993e-06
5.66490981414324e-06
6.23666243492404e-06
6.51643087851344e-06
6.63884041099778e-06
6.68721538050487e-06
6.70466042633661e-06
6.71045765695376e-06
6.71224873336686e-06
6.71276715468283e-06
6.71290858409085e-06
6.71294503472815e-06
6.71295382083122e-06
6.71295568079731e-06
6.7129558794271e-06
6.71295569686544e-06
6.7129554457568e-06
6.71295518785833e-06
6.71295493795209e-06
6.71295469975305e-06
6.71295447533988e-06
6.71295426325989e-06
6.71295406496142e-06
6.71295388061753e-06
6.7129537103717e-06
6.71295355357844e-06
6.71295340932778e-06
6.71295327404037e-06
6.71295313383814e-06
6.71295292516172e-06
6.7129523660497e-06
6.71295024333596e-06
6.71294154814173e-06
6.71290651909978e-06
6.71277114782028e-06
6.71227391986491e-06
6.71054975977368e-06
6.70494523939274e-06
6.68800207805721e-06
6.64078984671248e-06
6.52072057097509e-06
6.24490205916621e-06
5.6783938051827e-06
4.64767793629532e-06
2.9998937300026e-06
9.53267199116353e-09
3.6964973865637e-11
3.62742067030915e-11
9.42852943935117e-09
2.98156018226071e-06
4.62962867098226e-06
5.66496538629731e-06
6.2367287734243e-06
6.51650407398347e-06
6.63891750680138e-06
6.68729448028853e-06
6.70474046834931e-06
6.71053811148119e-06
6.7123293605333e-06
6.71284785446101e-06
6.71298931831108e-06
6.71302579147362e-06
6.71303459723179e-06
6.71303647590211e-06
6.71303668973177e-06
6.71303651994993e-06
6.71303628232454e-06
6.71303603802388e-06
6.71303580127344e-06
6.71303557587787e-06
6.71303536605036e-06
6.71303516599922e-06
6.71303497910948e-06
6.71303480588335e-06
6.71303464647485e-06
6.71303450021849e-06
6.71303436615871e-06
6.71303424066906e-06
6.71303410982628e-06
6.71303391005912e-06
6.7130333594361e-06
6.71303124510726e-06
6.71302255919292e-06
6.71298754059329e-06
6.71285218251465e-06
6.71235497439883e-06
6.71063084662962e-06
6.70502637180674e-06
6.68808323919845e-06
6.64087088589127e-06
6.52080092294851e-06
6.24498024423183e-06
5.67846666777175e-06
4.6477398134867e-06
2.99993586668093e-06
9.53279573440729e-09
3.69653754750294e-11
3.62740577363506e-11
9.42848825438495e-09
2.98154933801229e-06
4.62961709540495e-06
5.66495617540574e-06
6.23672266672682e-06
6.51650055579431e-06
6.63891570822043e-06
6.68729366007171e-06
6.70474014465651e-06
6.71053802081905e-06
6.71232937589784e-06
6.71284792016194e-06
6.71298941209819e-06
6.71302590598495e-06
6.7130347309055e-06
6.71303662822307e-06
6.71303685799103e-06
6.71303670164018e-06
6.71303647723769e-06
6.71303624681795e-06
6.71303602343437e-06
6.71303581078483e-06
6.71303561336825e-06
6.71303542491544e-06
6.71303524938134e-06
6.71303508706624e-06
6.71303493809576e-06
6.71303480177558e-06
6.71303467708717e-06
6.71303456032059e-06
6.71303443745749e-06
6.71303424487019e-06
6.71303370064532e-06
6.71303159214995e-06
6.71302291195648e-06
6.71298790024195e-06
6.71285255444988e-06
6.71235537469641e-06
6.71063131549522e-06
6.70502699781594e-06
6.6880841944485e-06
6.64087245752544e-06
6.52080350563547e-06
6.24498424252435e-06
5.67847225515173e-06
4.64774653546133e-06
2.99994210269266e-06
9.53282040894835e-09
3.69654748640016e-11
3.62735493738022e-11
9.42834014644914e-09
2.9815023570822e-06
4.62955081972074e-06
5.66488041871271e-06
6.23664313828855e-06
6.51641998154671e-06
6.63883509572812e-06
6.68721324049026e-06
6.70465989353498e-06
6.71045787254379e-06
6.71224928340029e-06
6.71276785820965e-06
6.71290936933305e-06
6.7129458783419e-06
6.71295471788202e-06
6.71295662975458e-06
6.7129568739029e-06
6.71295672992154e-06
6.71295651485546e-06
6.71295629666156e-06
6.7129560854137e-06
6.71295588447875e-06
6.71295569615826e-06
6.7129555192184e-06
6.71295535507984e-06
6.71295520391405e-06
6.71295506581456e-06
6.7129549400543e-06
6.71295482553666e-06
6.71295471844456e-06
6.71295460464211e-06
6.71295442044264e-06
6.71295388398843e-06
6.71295178279207e-06
6.71294310959304e-06
6.7129081075864e-06
6.71277278238214e-06
6.71227565521832e-06
6.71055173209355e-06
6.70494774967307e-06
6.68800571430852e-06
6.64079559868151e-06
6.52072981276622e-06
6.24491619995772e-06
5.67841343100297e-06
4.6477014113897e-06
2.99991528026681e-06
9.53275390081432e-09
3.69652818502894e-11
3.62725342868753e-11
9.42803707163865e-09
2.98140166669215e-06
4.62940385691347e-06
5.66470770922183e-06
6.23645772081579e-06
6.51622908024184e-06
6.63864215698586e-06
6.68701966995025e-06
6.70446617566441e-06
6.71026414336744e-06
6.71205557015675e-06
6.71257416153486e-06
6.71271568643702e-06
6.71275220781694e-06
6.71276105976826e-06
6.71276298246071e-06
6.71276324007601e-06
6.71276311011606e-06
6.71276290319681e-06
6.71276269643189e-06
6.71276249671718e-06
6.71276230717885e-06
6.71276212956232e-06
6.71276196395853e-06
6.71276181123676e-06
6.71276167150961e-06
6.7127615448427e-06
6.71276143046929e-06
6.71276132719761e-06
6.71276123108134e-06
6.71276112785531e-06
6.71276095380212e-06
6.71276042720203e-06
6.71275833587701e-06
6.71274967335421e-06
6.71271468813199e-06
6.71257940016467e-06
6.7120823692103e-06
6.710358698382e-06
6.70475535063236e-06
6.6878148107176e-06
6.64060796561167e-06
6.5205487904625e-06
6.24474742867642e-06
5.67826540481094e-06
4.64758536722358e-06
2.99984391267055e-06
9.53256827875346e-09
3.69647464440279e-11
3.62705981168777e-11
9.42745891713353e-09
2.98120805566012e-06