/*--------------------------------*- C++ -*----------------------------------*\
  =========                 |
  \\      /  F ield         | OpenFOAM: The Open Source CFD Toolbox
   \\    /   O peration     | Website:  https://openfoam.org
    \\  /    A nd           | Version:  10
     \\/     M anipulation  |
\*---------------------------------------------------------------------------*/
FoamFile
{
    format      ascii;
    class       volScalarField;
    location    "3";
    object      omega;
}
// * * * * * * * * * * * * * * * * * * * * * * * * * * * * * * * * * * * * * //

dimensions      [0 0 -1 0 0 0 0];

internalField   nonuniform List<scalar> 
2500
(
128321.612315713
128339.600441887
128332.647296772
128329.795012474
128328.76609368
128328.408129739
128328.288401868
128328.249779717
128328.237417426
128328.233735078
128328.231921749
128328.231041
128328.230574695
128328.230014868
128328.22950653
128328.228935192
128328.228653137
128328.22829312
128328.227880457
128328.227596733
128328.227337413
128328.227092104
128328.22687993
128328.22677541
128328.226656708
128328.226520823
128328.226476664
128328.226435608
128328.226410138
128328.226443756
128328.226496291
128328.226586207
128328.22673501
128328.22693214
128328.227135921
128328.227361969
128328.227626629
128328.227855391
128328.228384153
128328.229085732
128328.230632741
128328.235002524
128328.248536372
128328.290280124
128328.416281641
128328.778251739
128329.801671464
128332.647739198
128339.698991482
128321.571471292
31868.6491739073
14159.3715476313
14156.1535883648
14154.7009144171
14154.1089302444
14153.8793174375
14153.7952828894
14153.7666367817
14153.7575655843
14153.7548960709
14153.754128395
14153.7539118339
14153.7538528955
14153.753821511
14153.7537977829
14153.7537745712
14153.7537613862
14153.7537457541
14153.7537273334
14153.7537124778
14153.7536953409
14153.7536744032
14153.7536546961
14153.7536477347
14153.7536430142
14153.7536332869
14153.753631382
14153.7536293945
14153.7536228927
14153.7536283195
14153.7536306845
14153.7536259984
14153.7536449448
14153.7536714799
14153.7536833548
14153.7536916655
14153.7537049127
14153.7537284858
14153.7538107618
14153.7540787083
14153.7550163872
14153.7581938028
14153.7683779913
14153.7990530703
14153.8856339346
14154.115741168
14154.7021984937
14156.1519533082
14159.4297474819
31868.7505412365
31714.5586483364
3522.56531913562
50.7122473366808
50.7064823348557
50.7041295307004
50.7032149267499
50.7028782827352
50.7027625597555
50.702725611438
50.7027146526846
50.7027115519938
50.702710726412
50.7027105560665
50.7027105045982
50.7027104806913
50.7027104650327
50.7027104576079
50.7027104464459
50.7027104262912
50.7027104081325
50.702710379419
50.7027103353101
50.7027102877349
50.7027102664776
50.7027102597271
50.7027102409317
50.7027102423956
50.7027102434371
50.7027102276019
50.7027102405238
50.7027102408819
50.7027102196268
50.7027102723138
50.7027103503018
50.7027103517967
50.702710338761
50.7027103674394
50.7027104338928
50.7027107098807
50.7027117307058
50.7027154164827
50.7027280393054
50.702768543707
50.7028904261848
50.7032340269272
50.7041480398424
50.7064834520914
50.7122625551147
3522.58714293178
31714.9957672624
31615.2717843651
3511.82077656151
50.5615089003237
50.5576587101234
50.5561558177237
50.5555943925607
50.555393078933
50.5553247945723
50.5553030999269
50.5552966671435
50.5552948407074
50.5552943681694
50.5552942941944
50.5552942811761
50.5552942835676
50.5552942869826
50.5552942905966
50.5552942914918
50.5552942881695
50.5552942862191
50.5552942788544
50.555294259258
50.5552942323942
50.5552942165088
50.5552942143581
50.5552942116735
50.5552942128646
50.5552942196215
50.555294223167
50.5552942221285
50.555294219043
50.5552942047895
50.5552942300483
50.5552942695551
50.5552942684461
50.5552942630529
50.5552942616283
50.5552942739093
50.5552944140502
50.5552949634903
50.5552969882789
50.5553040615391
50.5553271026672
50.5553976772449
50.5556014309002
50.5561621472027
50.5576607421754
50.5615462077028
3511.84134914635
31615.8449868682
31561.3453950399
3506.21538123572
50.4848007747466
50.4827710484282
50.4820066171476
50.4817304366507
50.4816334929979
50.4816008852959
50.4815905205102
50.4815874319632
50.4815865454864
50.481586321482
50.4815862981089
50.4815862985704
50.4815863039834
50.4815863093693
50.4815863145414
50.4815863183595
50.4815863195621
50.4815863199973
50.481586318877
50.4815863126158
50.4815863003942
50.4815862928899
50.4815862951223
50.4815862972185
50.4815862979771
50.4815863019954
50.4815863031312
50.4815863022967
50.4815863017627
50.4815862921712
50.4815863031365
50.4815863197458
50.4815863190333
50.481586318905
50.4815863165036
50.4815863134193
50.4815863651115
50.4815866048371
50.4815875220208
50.4815907650298
50.481601420108
50.4816344270306
50.4817314571477
50.4820062242617
50.4827695510448
50.4848275243468
3506.22943874981
31561.8250302583
31535.7689891375
3503.66674775721
50.4506516696264
50.4497409056651
50.4494068732846
50.4492893582413
50.4492488153922
50.4492352517329
50.4492309263512
50.4492296279444
50.4492292511843
50.4492291577737
50.4492291516778
50.4492291545262
50.4492291586434
50.4492291622642
50.4492291658319
50.4492291686987
50.4492291702132
50.4492291709489
50.4492291714043
50.449229169508
50.4492291649266
50.4492291626495
50.4492291641412
50.4492291655699
50.449229166317
50.4492291683943
50.4492291690578
50.4492291687734
50.449229168465
50.4492291639182
50.4492291681447
50.4492291740614
50.4492291736023
50.4492291737584
50.4492291716813
50.4492291686815
50.449229184648
50.4492292766434
50.4492296450736
50.4492309551822
50.4492352735696
50.4492487280225
50.4492887868634
50.4494048670635
50.449737677459
50.4506633310976
3503.67439669575
31536.0764933056
31524.9081685747
3502.62965856424
50.4369975647461
50.4366350587288
50.4365045981808
50.4364596345699
50.4364443396581
50.4364392418485
50.4364376091033
50.4364371147978
50.4364369702662
50.4364369352843
50.4364369340224
50.4364369360976
50.4364369384101
50.4364369403516
50.436436942231
50.4364369437525
50.4364369447112
50.436436945176
50.436436945725
50.4364369452702
50.4364369437649
50.4364369435543
50.4364369443833
50.4364369449511
50.4364369454008
50.4364369463107
50.436436946694
50.4364369466623
50.4364369465353
50.4364369447188
50.4364369461844
50.4364369480013
50.4364369477362
50.4364369477399
50.4364369465131
50.4364369448057
50.4364369488164
50.4364369814365
50.4364371173762
50.4364376007018
50.436439192362
50.4364441578189
50.43645906295
50.4365030352039
50.4366322991763
50.437000835766
3502.6331644506
31525.0719903529
31520.7019723933
3502.24460710846
50.4320022508214
50.4318708512599
50.431824185605
50.4318083482814
50.431803023129
50.4318012535519
50.4318006842966
50.4318005104982
50.4318004595607
50.4318004476079
50.4318004474481
50.4318004485391
50.4318004496636
50.4318004505914
50.4318004514503
50.4318004521505
50.4318004526531
50.4318004529205
50.4318004532735
50.4318004532479
50.4318004529047
50.4318004531119
50.4318004534991
50.4318004537513
50.4318004539841
50.4318004543565
50.4318004546382
50.4318004546214
50.4318004545385
50.4318004539966
50.4318004544806
50.4318004549782
50.4318004548569
50.4318004548353
50.431800454273
50.4318004536588
50.431800454537
50.4318004652761
50.431800512128
50.4318006783431
50.431801223554
50.4318029208772
50.4318080379646
50.4318233372066
50.4318691924922
50.4320025715691
3502.24600976054
31520.777874656
31519.1953704317
3502.11227084566
50.4303073342586
50.4302631588575
50.4302476161528
50.4302423999585
50.4302406626111
50.4302400868838
50.4302399009956
50.4302398438395
50.4302398271346
50.4302398233667
50.4302398234277
50.4302398239375
50.4302398244519
50.4302398248785
50.4302398252611
50.4302398255832
50.4302398258458
50.4302398260168
50.4302398262124
50.4302398262974
50.4302398263105
50.4302398264957
50.4302398266951
50.4302398268435
50.430239826984
50.4302398271588
50.4302398273227
50.4302398273655
50.4302398273842
50.4302398272573
50.4302398274364
50.430239827581
50.4302398275537
50.4302398275593
50.4302398273562
50.4302398271411
50.4302398273197
50.4302398307386
50.4302398460167
50.4302398999971
50.4302400760154
50.430240621517
50.4302422680921
50.4302472373609
50.4302623513164
50.4303070512577
3502.11277227129
31519.2268569543
31518.6909408899
3502.06971685077
50.4297687482823
50.4297547884061
50.4297499102252
50.4297482857358
50.4297477487973
50.4297475713812
50.4297475139651
50.4297474962375
50.4297474911082
50.4297474900255
50.4297474901171
50.4297474903603
50.4297474906056
50.429747490817
50.4297474910088
50.4297474911824
50.4297474913397
50.4297474914646
50.4297474915924
50.4297474916964
50.4297474917897
50.4297474919228
50.4297474920479
50.4297474921597
50.4297474922679
50.4297474923815
50.429747492493
50.4297474925645
50.4297474926245
50.4297474926371
50.429747492733
50.4297474928054
50.4297474928308
50.4297474928633
50.4297474928212
50.4297474927697
50.4297474928239
50.4297474938888
50.4297474986516
50.4297475153556
50.429747569432
50.4297477359988
50.4297482381513
50.4297497625776
50.4297544491328
50.4297685096048
3502.06987954308
31518.7028730115
31518.531911227
3502.05682690628
50.4296075495493
50.4296033609046
50.4296019051268
50.4296014227901
50.4296012643369
50.429601212159
50.429601195277
50.4296011900773
50.4296011886169
50.4296011883605
50.4296011884487
50.4296011885859
50.4296011887251
50.4296011888537
50.4296011889759
50.429601189094
50.4296011892089
50.4296011893146
50.4296011894195
50.4296011895201
50.42960118962
50.429601189728
50.4296011898313
50.4296011899306
50.4296011900281
50.4296011901245
50.4296011902188
50.4296011902997
50.4296011903747
50.4296011904329
50.4296011905055
50.4296011905726
50.4296011906273
50.4296011906737
50.429601190695
50.4296011907087
50.429601190748
50.4296011910856
50.4296011925219
50.4296011974832
50.4296012134022
50.4296012620848
50.4296014083967
50.4296018538972
50.4296032338813
50.4296074272052
3502.0568753424
31518.5361034788
31518.4846155148
3502.05315177193
50.4295622335291
50.4295610309721
50.4295606150271
50.4295604776486
50.4295604327488
50.4295604180384
50.4295604133103
50.4295604118863
50.4295604115269
50.4295604115114
50.4295604115941
50.4295604116929
50.4295604117939
50.429560411893
50.4295604119913
50.4295604120897
50.4295604121887
50.4295604122863
50.4295604123836
50.4295604124806
50.4295604125778
50.4295604126766
50.4295604127734
50.4295604128686
50.4295604129625
50.4295604130544
50.429560413144
50.4295604132279
50.4295604133081
50.4295604133817
50.4295604134549
50.4295604135238
50.4295604135851
50.4295604136393
50.4295604136836
50.4295604137213
50.4295604137617
50.429560413883
50.4295604143138
50.4295604157414
50.4295604202571
50.4295604339497
50.4295604749173
50.4295605997422
50.4295609883683
50.4295621832468
3502.05316514042
31518.4859969017
31518.4715368658
3502.05219085195
50.4295506588139
50.4295503264995
50.4295502121153
50.4295501744231
50.4295501621749
50.4295501582067
50.4295501569666
50.4295501566293
50.4295501565849
50.429550156636
50.4295501567154
50.4295501568011
50.4295501568891
50.429550156978
50.4295501570683
50.4295501571601
50.4295501572533
50.4295501573474
50.429550157442
50.4295501575371
50.4295501576326
50.4295501577284
50.4295501578232
50.4295501579171
50.4295501580098
50.4295501581006
50.4295501581891
50.4295501582742
50.4295501583561
50.4295501584339
50.4295501585084
50.4295501585787
50.4295501586432
50.4295501587021
50.4295501587545
50.4295501588006
50.429550158843
50.4295501589027
50.4295501590423
50.4295501594496
50.429550160693
50.4295501644147
50.4295501754833
50.4295502091737
50.4295503144165
50.4295506416511
3502.0521943535
31518.4719680842
31518.4684459435
3502.05199314251
50.4295484585585
50.4295483697745
50.4295483393903
50.4295483294155
50.4295483262135
50.4295483252125
50.4295483249352
50.4295483248978
50.4295483249393
50.4295483250077
50.4295483250851
50.4295483251662
50.4295483252496
50.4295483253351
50.4295483254226
50.4295483255119
50.4295483256031
50.4295483256956
50.4295483257891
50.4295483258834
50.4295483259781
50.4295483260729
50.4295483261671
50.4295483262606
50.4295483263529
50.4295483264434
50.4295483265317
50.4295483266173
50.4295483266999
50.429548326779
50.4295483268544
50.4295483269256
50.4295483269919
50.429548327053
50.4295483271084
50.4295483271578
50.4295483272016
50.429548327245
50.4295483273041
50.4295483274285
50.4295483277675
50.4295483287502
50.4295483316434
50.4295483404302
50.4295483679488
50.4295484544718
3502.05199409465
31518.4685749902
31518.4681493789
3502.05200143938
50.4295487565087
50.4295487335089
50.4295487257074
50.4295487231785
50.4295487224003
50.4295487221912
50.4295487221698
50.4295487222115
50.4295487222749
50.429548722347
50.4295487224231
50.4295487225022
50.4295487225838
50.4295487226678
50.429548722754
50.4295487228423
50.4295487229325
50.4295487230243
50.4295487231172
50.429548723211
50.4295487233054
50.4295487233998
50.4295487234938
50.4295487235871
50.4295487236792
50.4295487237696
50.4295487238581
50.429548723944
50.429548724027
50.4295487241067
50.4295487241827
50.4295487242546
50.4295487243219
50.4295487243842
50.4295487244411
50.4295487244922
50.4295487245373
50.4295487245772
50.4295487246157
50.4295487246653
50.4295487247637
50.4295487250199
50.4295487257531
50.4295487279705
50.4295487349368
50.4295487570991
3502.05200179002
31518.4681872712
31518.4686056466
3502.05206335695
50.4295496958278
50.4295496900495
50.4295496881289
50.4295496875375
50.4295496873879
50.4295496873826
50.4295496874262
50.429549687487
50.4295496875551
50.4295496876272
50.4295496877023
50.4295496877802
50.4295496878607
50.4295496879438
50.4295496880292
50.4295496881169
50.4295496882064
50.4295496882977
50.4295496883903
50.4295496884838
50.4295496885778
50.429549688672
50.4295496887659
50.4295496888591
50.4295496889511
50.4295496890416
50.4295496891301
50.4295496892163
50.4295496892996
50.4295496893797
50.4295496894563
50.4295496895288
50.4295496895968
50.4295496896601
50.4295496897181
50.4295496897704
50.4295496898167
50.4295496898568
50.4295496898911
50.4295496899227
50.4295496899604
50.4295496900312
50.4295496902128
50.4295496907536
50.4295496924623
50.4295496979743
3502.05206358037
31518.4686172832
31518.4692579796
3502.0521387846
50.4295507943697
50.4295507929728
50.4295507925386
50.4295507924353
50.4295507924427
50.4295507924871
50.4295507925454
50.4295507926097
50.4295507926778
50.429550792749
50.4295507928231
50.4295507928999
50.4295507929796
50.4295507930619
50.4295507931467
50.4295507932338
50.4295507933229
50.4295507934137
50.4295507935059
50.4295507935991
50.4295507936929
50.4295507937868
50.4295507938806
50.4295507939738
50.4295507940659
50.4295507941564
50.4295507942451
50.4295507943314
50.4295507944151
50.4295507944956
50.4295507945726
50.4295507946457
50.4295507947144
50.4295507947786
50.4295507948376
50.429550794891
50.4295507949385
50.4295507949797
50.4295507950144
50.4295507950429
50.4295507950671
50.4295507950935
50.4295507951402
50.4295507952677
50.4295507956731
50.4295507970058
3502.05213898523
31518.4692623585
31518.4699598359
3502.05221751785
50.429551931256
50.4295519309434
50.4295519308732
50.4295519308877
50.4295519309314
50.4295519309862
50.4295519310464
50.4295519311103
50.4295519311772
50.4295519312472
50.4295519313201
50.4295519313961
50.4295519314749
50.4295519315564
50.4295519316406
50.4295519317272
50.4295519318158
50.4295519319062
50.429551931998
50.429551932091
50.4295519321845
50.4295519322783
50.429551932372
50.429551932465
50.4295519325571
50.4295519326477
50.4295519327366
50.4295519328231
50.429551932907
50.4295519329879
50.4295519330654
50.4295519331391
50.4295519332086
50.4295519332736
50.4295519333336
50.4295519333882
50.429551933437
50.4295519334797
50.4295519335157
50.429551933545
50.4295519335678
50.4295519335855
50.429551933602
50.4295519336326
50.4295519337258
50.4295519340401
3502.05221771567
31518.4699622838
31518.4706738574
3502.05229703861
50.4295530771237
50.429553077071
50.4295530770857
50.429553077126
50.4295530771763
50.4295530772315
50.4295530772906
50.4295530773529
50.4295530774184
50.429553077487
50.4295530775588
50.4295530776338
50.4295530777117
50.4295530777926
50.4295530778761
50.4295530779621
50.4295530780502
50.4295530781402
50.4295530782317
50.4295530783244
50.4295530784176
50.4295530785113
50.4295530786048
50.4295530786978
50.4295530787899
50.4295530788806
50.4295530789696
50.4295530790563
50.4295530791406
50.4295530792219
50.4295530792999
50.4295530793742
50.4295530794445
50.4295530795103
50.4295530795713
50.4295530796271
50.4295530796772
50.4295530797214
50.4295530797592
50.4295530797903
50.4295530798146
50.4295530798325
50.4295530798444
50.4295530798549
50.4295530798774
50.429553079952
3502.0522972366
31518.470675806
31518.4713907913
3502.05237674237
50.4295542250411
50.4295542250473
50.4295542250795
50.4295542251233
50.4295542251727
50.4295542252262
50.4295542252833
50.4295542253439
50.4295542254077
50.429554225475
50.4295542255457
50.4295542256196
50.4295542256967
50.4295542257768
50.4295542258596
50.429554225945
50.4295542260327
50.4295542261223
50.4295542262134
50.4295542263058
50.4295542263988
50.4295542264923
50.4295542265857
50.4295542266786
50.4295542267707
50.4295542268615
50.4295542269506
50.4295542270376
50.4295542271222
50.4295542272039
50.4295542272824
50.4295542273574
50.4295542274284
50.4295542274951
50.4295542275571
50.4295542276141
50.4295542276657
50.4295542277115
50.4295542277511
50.4295542277843
50.4295542278108
50.4295542278308
50.4295542278442
50.4295542278529
50.4295542278618
50.4295542278835
3502.05237694084
31518.4713926181
31518.4721084054
3502.05245648763
50.4295553734142
50.4295553734315
50.4295553734653
50.4295553735075
50.4295553735545
50.4295553736056
50.4295553736606
50.4295553737193
50.4295553737815
50.4295553738475
50.4295553739169
50.4295553739898
50.429555374066
50.4295553741453
50.4295553742275
50.4295553743124
50.4295553743995
50.4295553744887
50.4295553745794
50.4295553746714
50.4295553747643
50.4295553748575
50.4295553749509
50.4295553750438
50.4295553751358
50.4295553752267
50.429555375316
50.4295553754033
50.4295553754881
50.4295553755703
50.4295553756493
50.4295553757249
50.4295553757967
50.4295553758642
50.4295553759274
50.4295553759856
50.4295553760386
50.429555376086
50.4295553761276
50.4295553761629
50.4295553761918
50.4295553762144
50.4295553762305
50.4295553762414
50.42955537625
50.4295553762623
3502.05245668635
31518.4721102026
31518.472826174
3502.05253624202
50.4295565218853
50.4295565219027
50.4295565219344
50.4295565219739
50.4295565220182
50.4295565220669
50.4295565221197
50.4295565221764
50.4295565222371
50.4295565223016
50.4295565223698
50.4295565224416
50.4295565225169
50.4295565225954
50.429556522677
50.4295565227612
50.4295565228479
50.4295565229366
50.429556523027
50.4295565231187
50.4295565232113
50.4295565233044
50.4295565233976
50.4295565234904
50.4295565235825
50.4295565236735
50.4295565237629
50.4295565238504
50.4295565239356
50.4295565240182
50.4295565240978
50.429556524174
50.4295565242465
50.4295565243151
50.4295565243793
50.4295565244387
50.4295565244932
50.4295565245423
50.4295565245857
50.4295565246232
50.4295565246547
50.42955652468
50.4295565246991
50.429556524713
50.4295565247239
50.4295565247367
3502.05253644101
31518.4728279683
31518.4735439766
3502.05261599831
50.4295576703761
50.4295576703913
50.4295576704202
50.4295576704568
50.4295576704984
50.4295576705446
50.4295576705952
50.42955767065
50.4295576707091
50.4295576707721
50.4295576708391
50.4295576709098
50.4295576709842
50.4295576710619
50.4295576711428
50.4295576712264
50.4295576713126
50.4295576714008
50.4295576714908
50.4295576715822
50.4295576716746
50.4295576717675
50.4295576718606
50.4295576719534
50.4295576720455
50.4295576721365
50.4295576722261
50.4295576723139
50.4295576723994
50.4295576724825
50.4295576725626
50.4295576726395
50.4295576727128
50.4295576727823
50.4295576728476
50.4295576729083
50.4295576729642
50.429557673015
50.4295576730604
50.4295576731001
50.429557673134
50.429557673162
50.4295576731841
50.4295576732011
50.429557673215
50.4295576732303
3502.05261619746
31518.47354577
31518.4742617859
3502.05269575494
50.42955881887
50.4295588188825
50.4295588189086
50.4295588189423
50.4295588189812
50.429558819025
50.4295588190735
50.4295588191264
50.4295588191837
50.4295588192453
50.429558819311
50.4295588193807
50.4295588194541
50.429558819531
50.4295588196112
50.4295588196942
50.4295588197798
50.4295588198677
50.4295588199573
50.4295588200484
50.4295588201405
50.4295588202332
50.4295588203262
50.4295588204189
50.429558820511
50.4295588206022
50.4295588206919
50.42955882078
50.4295588208659
50.4295588209493
50.42955882103
50.4295588211076
50.4295588211817
50.4295588212521
50.4295588213185
50.4295588213806
50.429558821438
50.4295588214904
50.4295588215377
50.4295588215796
50.429558821616
50.4295588216467
50.4295588216717
50.4295588216918
50.4295588217087
50.4295588217268
3502.05269595428
31518.4742635808
31518.4749795962
3502.05277551159
50.4295599673639
50.4295599673737
50.4295599673971
50.429559967428
50.4295599674643
50.4295599675056
50.4295599675519
50.4295599676029
50.4295599676586
50.4295599677188
50.4295599677832
50.4295599678518
50.4295599679243
50.4295599680003
50.4295599680798
50.4295599681622
50.4295599682472
50.4295599683346
50.4295599684239
50.4295599685146
50.4295599686065
50.429559968699
50.4295599687919
50.4295599688846
50.4295599689767
50.4295599690679
50.4295599691579
50.4295599692461
50.4295599693324
50.4295599694164
50.4295599694976
50.4295599695758
50.4295599696508
50.4295599697222
50.4295599697896
50.429559969853
50.4295599699119
50.4295599699661
50.4295599700153
50.4295599700594
50.4295599700982
50.4295599701316
50.4295599701595
50.4295599701825
50.4295599702024
50.4295599702232
3502.05277571112
31518.474981394
31518.4756974065
3502.05285526822
50.4295611158575
50.4295611158646
50.4295611158852
50.4295611159135
50.4295611159471
50.4295611159861
50.4295611160302
50.4295611160793
50.4295611161333
50.4295611161919
50.4295611162551
50.4295611163226
50.4295611163941
50.4295611164694
50.4295611165481
50.4295611166298
50.4295611167144
50.4295611168013
50.4295611168902
50.4295611169806
50.4295611170723
50.4295611171646
50.4295611172573
50.4295611173499
50.4295611174421
50.4295611175334
50.4295611176235
50.4295611177121
50.4295611177987
50.4295611178831
50.4295611179649
50.4295611180438
50.4295611181196
50.4295611181919
50.4295611182606
50.4295611183251
50.4295611183855
50.4295611184414
50.4295611184926
50.4295611185389
50.4295611185801
50.4295611186162
50.429561118647
50.429561118673
50.4295611186957
50.4295611187193
3502.05285546793
31518.4756992038
31518.4764152168
3502.05293502484
50.429562264351
50.4295622643555
50.4295622643734
50.4295622643989
50.4295622644299
50.4295622644666
50.4295622645086
50.4295622645558
50.429562264608
50.4295622646652
50.4295622647272
50.4295622647935
50.429562264864
50.4295622649384
50.4295622650164
50.4295622650975
50.4295622651816
50.429562265268
50.4295622653565
50.4295622654466
50.429562265538
50.4295622656301
50.4295622657227
50.4295622658153
50.4295622659075
50.4295622659989
50.4295622660892
50.429562266178
50.429562266265
50.4295622663498
50.4295622664322
50.4295622665118
50.4295622665884
50.4295622666617
50.4295622667315
50.4295622667974
50.4295622668593
50.4295622669169
50.42956226697
50.4295622670185
50.4295622670621
50.4295622671008
50.4295622671345
50.4295622671634
50.4295622671889
50.4295622672152
3502.05293522469
31518.4764170169
31518.4771330272
3502.05301478148
50.4295634128446
50.4295634128464
50.4295634128617
50.4295634128846
50.429563412913
50.4295634129473
50.4295634129871
50.4295634130324
50.429563413083
50.4295634131387
50.4295634131993
50.4295634132645
50.4295634133341
50.4295634134076
50.4295634134849
50.4295634135654
50.4295634136488
50.4295634137348
50.4295634138229
50.4295634139127
50.4295634140039
50.4295634140958
50.4295634141883
50.4295634142808
50.429563414373
50.4295634144645
50.429563414555
50.4295634146441
50.4295634147314
50.4295634148167
50.4295634148996
50.42956341498
50.4295634150574
50.4295634151316
50.4295634152025
50.4295634152697
50.4295634153331
50.4295634153924
50.4295634154475
50.4295634154982
50.4295634155443
50.4295634155856
50.4295634156221
50.4295634156538
50.4295634156822
50.4295634157112
3502.05301498154
31518.477134829
31518.477850838
3502.05309453815
50.4295645613387
50.429564561338
50.4295645613506
50.4295645613708
50.4295645613966
50.4295645614286
50.4295645614663
50.4295645615097
50.4295645615586
50.4295645616128
50.429564561672
50.4295645617362
50.4295645618047
50.4295645618774
50.4295645619539
50.4295645620338
50.4295645621167
50.4295645622022
50.4295645622899
50.4295645623794
50.4295645624702
50.429564562562
50.4295645626543
50.4295645627469
50.4295645628391
50.4295645629307
50.4295645630213
50.4295645631106
50.4295645631984
50.4295645632841
50.4295645633676
50.4295645634486
50.4295645635268
50.4295645636021
50.4295645636741
50.4295645637426
50.4295645638075
50.4295645638685
50.4295645639256
50.4295645639784
50.4295645640269
50.4295645640708
50.4295645641101
50.4295645641448
50.429564564176
50.4295645642077
3502.05309473839
31518.4778526425
31518.4785686494
3502.05317429489
50.4295657098337
50.4295657098303
50.4295657098402
50.4295657098576
50.429565709881
50.4295657099106
50.4295657099461
50.4295657099876
50.4295657100348
50.4295657100875
50.4295657101455
50.4295657102085
50.429565710276
50.4295657103479
50.4295657104237
50.4295657105029
50.4295657105852
50.4295657106702
50.4295657107576
50.4295657108467
50.4295657109373
50.4295657110289
50.4295657111211
50.4295657112135
50.4295657113058
50.4295657113975
50.4295657114883
50.4295657115779
50.4295657116659
50.4295657117522
50.4295657118362
50.4295657119179
50.429565711997
50.4295657120732
50.4295657121463
50.4295657122161
50.4295657122825
50.4295657123453
50.4295657124043
50.4295657124593
50.4295657125102
50.4295657125568
50.4295657125989
50.4295657126365
50.4295657126705
50.429565712705
3502.05317449533
31518.4785704554
31518.4792864616
3502.05325405172
50.4295668583299
50.4295668583237
50.4295668583309
50.4295668583457
50.4295668583664
50.4295668583937
50.4295668584271
50.4295668584666
50.4295668585121
50.4295668585633
50.42956685862
50.4295668586819
50.4295668587484
50.4295668588194
50.4295668588944
50.429566858973
50.4295668590548
50.4295668591394
50.4295668592263
50.4295668593152
50.4295668594055
50.4295668594969
50.429566859589
50.4295668596814
50.4295668597736
50.4295668598654
50.4295668599564
50.4295668600463
50.4295668601347
50.4295668602213
50.4295668603059
50.4295668603883
50.4295668604682
50.4295668605454
50.4295668606196
50.4295668606907
50.4295668607586
50.429566860823
50.4295668608839
50.4295668609411
50.4295668609944
50.4295668610436
50.4295668610886
50.4295668611292
50.4295668611661
50.4295668612034
3502.05325425228
31518.4792882692
31518.480004275
3502.05333380865
50.4295680068276
50.4295680068184
50.429568006823
50.4295680068349
50.4295680068531
50.429568006878
50.4295680069092
50.4295680069468
50.4295680069907
50.4295680070404
50.4295680070958
50.4295680071565
50.429568007222
50.4295680072922
50.4295680073664
50.4295680074444
50.4295680075257
50.4295680076097
50.4295680076963
50.4295680077848
50.4295680078749
50.4295680079661
50.429568008058
50.4295680081504
50.4295680082427
50.4295680083346
50.4295680084257
50.4295680085159
50.4295680086046
50.4295680086917
50.4295680087769
50.4295680088599
50.4295680089406
50.4295680090187
50.429568009094
50.4295680091664
50.4295680092357
50.4295680093019
50.4295680093647
50.429568009424
50.4295680094798
50.4295680095316
50.4295680095795
50.4295680096231
50.4295680096629
50.4295680097032
3502.05333400933
31518.4800060817
31518.4807220897
3502.05341356574
50.4295691553273
50.429569155315
50.4295691553167
50.4295691553259
50.4295691553414
50.4295691553639
50.429569155393
50.4295691554287
50.4295691554708
50.4295691555191
50.4295691555732
50.4295691556327
50.4295691556973
50.4295691557666
50.4295691558401
50.4295691559174
50.4295691559982
50.4295691560818
50.4295691561679
50.4295691562561
50.4295691563459
50.4295691564369
50.4295691565288
50.4295691566211
50.4295691567133
50.4295691568053
50.4295691568967
50.429569156987
50.4295691570761
50.4295691571637
50.4295691572494
50.4295691573331
50.4295691574146
50.4295691574936
50.42956915757
50.4295691576437
50.4295691577145
50.4295691577823
50.429569157847
50.4295691579085
50.4295691579667
50.4295691580211
50.4295691580719
50.4295691581185
50.4295691581613
50.4295691582049
3502.0534137666
31518.4807238989
31518.481439906
3502.05349332299
50.4295703038291
50.4295703038136
50.4295703038124
50.4295703038186
50.4295703038314
50.4295703038516
50.4295703038786
50.4295703039123
50.4295703039528
50.4295703039995
50.4295703040523
50.4295703041107
50.4295703041744
50.4295703042428
50.4295703043156
50.4295703043923
50.4295703044724
50.4295703045556
50.4295703046413
50.4295703047292
50.4295703048188
50.4295703049096
50.4295703050014
50.4295703050936
50.4295703051859
50.4295703052779
50.4295703053694
50.4295703054601
50.4295703055495
50.4295703056375
50.4295703057237
50.4295703058081
50.4295703058903
50.4295703059703
50.4295703060477
50.4295703061226
50.4295703061949
50.4295703062643
50.429570306331
50.4295703063946
50.4295703064552
50.4295703065122
50.429570306566
50.4295703066158
50.4295703066617
50.4295703067086
3502.05349352403
31518.4814417176
31518.4821577243
3502.05357308044
50.4295714523336
50.4295714523145
50.4295714523104
50.4295714523136
50.4295714523236
50.4295714523415
50.4295714523663
50.4295714523982
50.4295714524369
50.4295714524822
50.4295714525337
50.4295714525911
50.4295714526537
50.4295714527213
50.4295714527934
50.4295714528694
50.4295714529491
50.4295714530317
50.4295714531171
50.4295714532046
50.429571453294
50.4295714533846
50.4295714534763
50.4295714535684
50.4295714536607
50.4295714537529
50.4295714538445
50.4295714539354
50.4295714540251
50.4295714541135
50.4295714542003
50.4295714542853
50.4295714543683
50.4295714544491