/*--------------------------------*- C++ -*----------------------------------*\
  =========                 |
  \\      /  F ield         | OpenFOAM: The Open Source CFD Toolbox
   \\    /   O peration     | Website:  https://openfoam.org
    \\  /    A nd           | Version:  10
     \\/     M anipulation  |
\*---------------------------------------------------------------------------*/
FoamFile
{
    format      ascii;
    class       volScalarField;
    location    "3";
    object      p;
}
// * * * * * * * * * * * * * * * * * * * * * * * * * * * * * * * * * * * * * //

dimensions      [1 -1 -2 0 0 0 0];

internalField   nonuniform List<scalar> 
2500
(
100073.401907895
100073.401909688
100073.401910528
100073.401911139
100073.401911449
100073.401911584
100073.401911655
100073.401911691
100073.401911717
100073.401911745
100073.40191178
100073.401911823
100073.401911875
100073.401911934
100073.401912
100073.401912071
100073.401912146
100073.401912224
100073.401912304
100073.401912385
100073.401912466
100073.401912546
100073.401912626
100073.401912705
100073.401912783
100073.401912859
100073.401912934
100073.401913008
100073.40191308
100073.401913152
100073.401913222
100073.401913292
100073.401913362
100073.401913433
100073.401913504
100073.401913577
100073.401913651
100073.401913728
100073.401913808
100073.40191389
100073.401913974
100073.401914057
100073.401914132
100073.401914187
100073.401914192
100073.401914122
100073.401913859
100073.401913277
100073.401912438
100073.40191064
100073.399664473
100073.399665993
100073.399666642
100073.399667157
100073.399667417
100073.399667522
100073.399667577
100073.399667605
100073.399667627
100073.399667655
100073.39966769
100073.399667733
100073.399667786
100073.399667845
100073.399667912
100073.399667983
100073.399668058
100073.399668136
100073.399668216
100073.399668297
100073.399668378
100073.399668459
100073.399668539
100073.399668618
100073.399668695
100073.399668771
100073.399668846
100073.39966892
100073.399668992
100073.399669063
100073.399669133
100073.399669203
100073.399669273
100073.399669343
100073.399669414
100073.399669486
100073.39966956
100073.399669637
100073.399669716
100073.399669798
100073.399669881
100073.399669964
100073.399670043
100073.399670106
100073.399670128
100073.399670086
100073.399669872
100073.399669388
100073.399668739
100073.399667214
100073.397404261
100073.397404919
100073.397404975
100073.397405155
100073.397405253
100073.397405283
100073.397405305
100073.39740532
100073.397405338
100073.397405364
100073.397405399
100073.397405443
100073.397405496
100073.397405556
100073.397405622
100073.397405694
100073.397405769
100073.397405847
100073.397405927
100073.397406008
100073.397406089
100073.39740617
100073.39740625
100073.397406328
100073.397406406
100073.397406482
100073.397406556
100073.397406629
100073.397406701
100073.397406772
100073.397406842
100073.397406911
100073.39740698
100073.39740705
100073.39740712
100073.397407192
100073.397407265
100073.397407341
100073.397407419
100073.3974075
100073.397407584
100073.397407668
100073.397407752
100073.397407828
100073.397407883
100073.397407917
100073.397407865
100073.397407712
100073.397407668
100073.397406984
100073.395135153
100073.395135105
100073.395134833
100073.395134752
100073.395134728
100073.395134704
100073.395134705
100073.395134711
100073.395134726
100073.395134751
100073.395134786
100073.395134831
100073.395134884
100073.395134944
100073.395135011
100073.395135083
100073.395135158
100073.395135236
100073.395135316
100073.395135397
100073.395135477
100073.395135558
100073.395135637
100073.395135716
100073.395135793
100073.395135868
100073.395135942
100073.395136015
100073.395136086
100073.395136156
100073.395136226
100073.395136294
100073.395136363
100073.395136431
100073.395136501
100073.395136571
100073.395136644
100073.395136718
100073.395136796
100073.395136876
100073.395136959
100073.395137044
100073.395137131
100073.395137215
100073.395137292
100073.39513738
100073.39513745
100073.39513756
100073.395137855
100073.395137888
100073.392860404
100073.392860065
100073.39285972
100073.392859511
100073.392859421
100073.392859363
100073.392859347
100073.392859346
100073.392859358
100073.392859382
100073.392859417
100073.392859461
100073.392859514
100073.392859575
100073.392859642
100073.392859713
100073.392859789
100073.392859867
100073.392859946
100073.392860027
100073.392860107
100073.392860187
100073.392860266
100073.392860344
100073.39286042
100073.392860495
100073.392860568
100073.39286064
100073.392860711
100073.39286078
100073.392860848
100073.392860916
100073.392860983
100073.392861051
100073.392861119
100073.392861188
100073.392861259
100073.392861333
100073.392861409
100073.392861489
100073.392861571
100073.392861657
100073.392861746
100073.392861838
100073.392861931
100073.392862054
100073.39286219
100073.39286243
100073.392862803
100073.392863147
100073.390582785
100073.390582405
100073.390582083
100073.39058183
100073.390581713
100073.390581636
100073.39058161
100073.390581603
100073.390581612
100073.390581634
100073.390581669
100073.390581713
100073.390581766
100073.390581827
100073.390581893
100073.390581965
100073.39058204
100073.390582118
100073.390582197
100073.390582277
100073.390582356
100073.390582436
100073.390582514
100073.390582591
100073.390582667
100073.39058274
100073.390582813
100073.390582884
100073.390582953
100073.390583021
100073.390583088
100073.390583154
100073.39058322
100073.390583287
100073.390583353
100073.390583421
100073.390583491
100073.390583563
100073.390583638
100073.390583716
100073.390583798
100073.390583884
100073.390583976
100073.390584073
100073.390584176
100073.390584318
100073.390584482
100073.390584769
100073.39058512
100073.390585518
100073.388303958
100073.388303635
100073.388303365
100073.388303115
100073.388302991
100073.388302906
100073.388302872
100073.388302861
100073.388302868
100073.388302889
100073.388302923
100073.388302967
100073.38830302
100073.388303081
100073.388303147
100073.388303219
100073.388303293
100073.38830337
100073.388303449
100073.388303528
100073.388303607
100073.388303685
100073.388303763
100073.388303839
100073.388303913
100073.388303986
100073.388304057
100073.388304126
100073.388304194
100073.388304261
100073.388304327
100073.388304392
100073.388304456
100073.388304521
100073.388304586
100073.388304652
100073.38830472
100073.38830479
100073.388304863
100073.38830494
100073.388305021
100073.388305107
100073.3883052
100073.388305301
100073.388305411
100073.388305561
100073.388305732
100073.388306018
100073.388306316
100073.388306663
100073.386024705
100073.386024454
100073.386024236
100073.386024008
100073.386023888
100073.386023802
100073.386023765
100073.386023751
100073.386023756
100073.386023776
100073.38602381
100073.386023854
100073.386023907
100073.386023967
100073.386024033
100073.386024104
100073.386024178
100073.386024254
100073.386024332
100073.38602441
100073.386024488
100073.386024565
100073.386024642
100073.386024716
100073.38602479
100073.386024861
100073.386024931
100073.386024999
100073.386025065
100073.38602513
100073.386025194
100073.386025257
100073.38602532
100073.386025383
100073.386025446
100073.38602551
100073.386025576
100073.386025644
100073.386025715
100073.38602579
100073.38602587
100073.386025956
100073.386026049
100073.386026151
100073.386026265
100073.386026415
100073.386026583
100073.386026847
100073.386027092
100073.386027368
100073.38374534
100073.383745151
100073.383744975
100073.383744776
100073.383744666
100073.383744583
100073.383744544
100073.383744529
100073.383744533
100073.383744554
100073.383744587
100073.38374463
100073.383744683
100073.383744743
100073.383744809
100073.383744879
100073.383744953
100073.383745028
100073.383745105
100073.383745182
100073.383745259
100073.383745335
100073.38374541
100073.383745483
100073.383745555
100073.383745624
100073.383745692
100073.383745759
100073.383745823
100073.383745887
100073.383745949
100073.38374601
100073.383746071
100073.383746131
100073.383746192
100073.383746254
100073.383746317
100073.383746383
100073.383746452
100073.383746525
100073.383746603
100073.383746687
100073.38374678
100073.383746882
100073.383746997
100073.383747143
100073.383747302
100073.383747538
100073.383747739
100073.383747953
100073.381465977
100073.381465833
100073.381465691
100073.381465521
100073.381465422
100073.381465345
100073.381465307
100073.381465293
100073.381465297
100073.381465317
100073.38146535
100073.381465394
100073.381465446
100073.381465506
100073.381465571
100073.381465641
100073.381465713
100073.381465788
100073.381465864
100073.381465939
100073.381466015
100073.381466089
100073.381466163
100073.381466234
100073.381466304
100073.381466372
100073.381466439
100073.381466503
100073.381466566
100073.381466627
100073.381466687
100073.381466746
100073.381466804
100073.381466862
100073.381466921
100073.38146698
100073.381467041
100073.381467104
100073.381467171
100073.381467241
100073.381467317
100073.381467399
100073.38146749
100073.38146759
100073.381467703
100073.381467843
100073.381467991
100073.381468197
100073.381468365
100073.381468533
100073.379186646
100073.379186536
100073.37918642
100073.379186277
100073.379186188
100073.37918612
100073.379186085
100073.379186072
100073.379186077
100073.379186097
100073.37918613
100073.379186174
100073.379186227
100073.379186286
100073.379186351
100073.379186419
100073.379186491
100073.379186564
100073.379186639
100073.379186713
100073.379186787
100073.37918686
100073.379186932
100073.379187002
100073.37918707
100073.379187136
100073.3791872
100073.379187262
100073.379187323
100073.379187382
100073.379187439
100073.379187496
100073.379187552
100073.379187607
100073.379187663
100073.37918772
100073.379187778
100073.379187838
100073.379187901
100073.379187969
100073.379188042
100073.379188121
100073.379188209
100073.379188306
100073.379188416
100073.379188547
100073.379188683
100073.379188863
100073.379189005
100073.379189138
100073.376907353
100073.376907268
100073.376907173
100073.376907053
100073.376906976
100073.376906916
100073.376906885
100073.376906874
100073.376906881
100073.376906902
100073.376906936
100073.37690698
100073.376907032
100073.376907091
100073.376907155
100073.376907223
100073.376907293
100073.376907366
100073.376907439
100073.376907511
100073.376907584
100073.376907655
100073.376907725
100073.376907793
100073.376907859
100073.376907923
100073.376907985
100073.376908045
100073.376908103
100073.376908159
100073.376908214
100073.376908268
100073.376908321
100073.376908374
100073.376908427
100073.376908481
100073.376908536
100073.376908593
100073.376908653
100073.376908717
100073.376908787
100073.376908862
100073.376908947
100073.37690904
100073.376909144
100073.376909266
100073.376909391
100073.376909547
100073.376909668
100073.376909777
100073.374628098
100073.37462803
100073.374627952
100073.374627852
100073.374627787
100073.374627736
100073.374627709
100073.374627702
100073.37462771
100073.374627733
100073.374627768
100073.374627812
100073.374627864
100073.374627922
100073.374627986
100073.374628053
100073.374628122
100073.374628193
100073.374628264
100073.374628335
100073.374628406
100073.374628475
100073.374628543
100073.374628609
100073.374628673
100073.374628734
100073.374628794
100073.374628851
100073.374628907
100073.374628961
100073.374629013
100073.374629064
100073.374629115
100073.374629165
100073.374629214
100073.374629265
100073.374629316
100073.37462937
100073.374629427
100073.374629487
100073.374629553
100073.374629625
100073.374629704
100073.374629792
100073.37462989
100073.374630002
100073.374630115
100073.374630251
100073.374630356
100073.374630446
100073.372348877
100073.372348823
100073.372348759
100073.372348677
100073.372348621
100073.372348579
100073.372348558
100073.372348554
100073.372348565
100073.372348589
100073.372348625
100073.372348669
100073.372348721
100073.372348779
100073.372348842
100073.372348908
100073.372348976
100073.372349045
100073.372349115
100073.372349185
100073.372349253
100073.37234932
100073.372349386
100073.372349449
100073.372349511
100073.37234957
100073.372349627
100073.372349682
100073.372349735
100073.372349786
100073.372349836
100073.372349884
100073.372349931
100073.372349978
100073.372350024
100073.372350071
100073.372350119
100073.372350169
100073.372350222
100073.372350279
100073.37235034
100073.372350407
100073.372350482
100073.372350564
100073.372350655
100073.372350757
100073.372350859
100073.372350977
100073.372351068
100073.372351144
100073.370069687
100073.370069645
100073.370069592
100073.370069525
100073.370069479
100073.370069446
100073.37006943
100073.37006943
100073.370069444
100073.37006947
100073.370069506
100073.370069551
100073.370069603
100073.37006966
100073.370069722
100073.370069787
100073.370069854
100073.370069922
100073.37006999
100073.370070057
100073.370070124
100073.370070189
100073.370070252
100073.370070313
100073.370070372
100073.370070429
100073.370070483
100073.370070536
100073.370070586
100073.370070634
100073.37007068
100073.370070725
100073.370070769
100073.370070813
100073.370070856
100073.370070899
100073.370070944
100073.37007099
100073.370071038
100073.37007109
100073.370071147
100073.370071209
100073.370071278
100073.370071354
100073.370071437
100073.370071529
100073.370071621
100073.370071723
100073.370071803
100073.370071868
100073.367790526
100073.367790493
100073.367790449
100073.367790395
100073.367790359
100073.367790333
100073.367790323
100073.367790328
100073.367790344
100073.367790372
100073.367790409
100073.367790455
100073.367790507
100073.367790564
100073.367790625
100073.367790689
100073.367790754
100073.367790821
100073.367790887
100073.367790952
100073.367791017
100073.367791079
100073.36779114
100073.367791199
100073.367791255
100073.367791309
100073.367791361
100073.36779141
100073.367791457
100073.367791502
100073.367791546
100073.367791588
100073.367791628
100073.367791668
100073.367791707
100073.367791747
100073.367791787
100073.367791829
100073.367791874
100073.367791921
100073.367791973
100073.367792029
100073.367792092
100073.367792161
100073.367792237
100073.367792319
100073.367792401
100073.367792489
100073.367792559
100073.367792616
100073.365511391
100073.365511365
100073.36551133
100073.365511287
100073.365511259
100073.365511242
100073.365511237
100073.365511246
100073.365511265
100073.365511295
100073.365511334
100073.36551138
100073.365511432
100073.365511489
100073.365511549
100073.365511611
100073.365511675
100073.36551174
100073.365511804
100073.365511868
100073.36551193
100073.36551199
100073.365512048
100073.365512104
100073.365512158
100073.365512209
100073.365512258
100073.365512304
100073.365512348
100073.36551239
100073.36551243
100073.365512469
100073.365512506
100073.365512542
100073.365512578
100073.365512613
100073.365512649
100073.365512687
100073.365512727
100073.365512769
100073.365512816
100073.365512867
100073.365512923
100073.365512985
100073.365513053
100073.365513126
100073.365513198
100073.365513274
100073.365513335
100073.365513384
100073.363232279
100073.363232259
100073.363232232
100073.363232199
100073.363232179
100073.363232168
100073.36323217
100073.363232182
100073.363232205
100073.363232237
100073.363232277
100073.363232323
100073.363232375
100073.363232432
100073.363232491
100073.363232552
100073.363232615
100073.363232678
100073.36323274
100073.363232801
100073.363232861
100073.363232919
100073.363232975
100073.363233028
100073.363233079
100073.363233127
100073.363233173
100073.363233216
100073.363233257
100073.363233296
100073.363233332
100073.363233367
100073.3632334
100073.363233433
100073.363233465
100073.363233496
100073.363233528
100073.363233561
100073.363233596
100073.363233634
100073.363233675
100073.36323372
100073.36323377
100073.363233824
100073.363233884
100073.363233948
100073.36323401
100073.363234076
100073.363234129
100073.363234171
100073.360953188
100073.360953173
100073.360953153
100073.360953129
100073.360953116
100073.360953112
100073.360953119
100073.360953135
100073.360953161
100073.360953195
100073.360953236
100073.360953284
100073.360953336
100073.360953392
100073.36095345
100073.36095351
100073.360953571
100073.360953632
100073.360953693
100073.360953752
100073.360953809
100073.360953865
100073.360953918
100073.360953968
100073.360954016
100073.360954061
100073.360954104
100073.360954144
100073.360954181
100073.360954217
100073.36095425
100073.360954281
100073.360954311
100073.360954339
100073.360954367
100073.360954394
100073.360954422
100073.36095445
100073.36095448
100073.360954512
100073.360954548
100073.360954586
100073.36095463
100073.360954677
100073.360954729
100073.360954783
100073.360954837
100073.360954893
100073.360954938
100073.360954975
100073.358674115
100073.358674105
100073.358674091
100073.358674074
100073.358674069
100073.358674071
100073.358674083
100073.358674103
100073.358674132
100073.358674168
100073.358674211
100073.358674259
100073.358674311
100073.358674367
100073.358674424
100073.358674483
100073.358674543
100073.358674602
100073.35867466
100073.358674717
100073.358674772
100073.358674825
100073.358674875
100073.358674923
100073.358674968
100073.35867501
100073.358675049
100073.358675086
100073.35867512
100073.358675152
100073.358675181
100073.358675209
100073.358675234
100073.358675259
100073.358675282
100073.358675305
100073.358675328
100073.358675352
100073.358675377
100073.358675404
100073.358675433
100073.358675466
100073.358675502
100073.358675542
100073.358675586
100073.358675632
100073.358675677
100073.358675723
100073.358675762
100073.358675793
100073.356395057
100073.356395051
100073.356395043
100073.356395034
100073.356395034
100073.356395043
100073.356395059
100073.356395084
100073.356395116
100073.356395154
100073.356395198
100073.356395247
100073.356395299
100073.356395354
100073.356395411
100073.356395469
100073.356395527
100073.356395584
100073.35639564
100073.356395694
100073.356395747
100073.356395797
100073.356395845
100073.356395889
100073.356395931
100073.35639597
100073.356396006
100073.35639604
100073.35639607
100073.356396099
100073.356396124
100073.356396148
100073.35639617
100073.35639619
100073.35639621
100073.356396228
100073.356396247
100073.356396265
100073.356396285
100073.356396306
100073.35639633
100073.356396356
100073.356396385
100073.356396418
100073.356396453
100073.356396491
100073.356396528
100073.356396566
100073.356396598
100073.356396624
100073.354116012
100073.35411601
100073.354116007
100073.354116005
100073.354116011
100073.354116025
100073.354116047
100073.354116076
100073.354116111
100073.354116151
100073.354116197
100073.354116246
100073.354116298
100073.354116353
100073.354116409
100073.354116465
100073.354116521
100073.354116577
100073.354116631
100073.354116683
100073.354116733
100073.35411678
100073.354116825
100073.354116867
100073.354116905
100073.354116941
100073.354116974
100073.354117004
100073.354117031
100073.354117056
100073.354117078
100073.354117097
100073.354117115
100073.354117132
100073.354117147
100073.354117161
100073.354117174
100073.354117188
100073.354117202
100073.354117218
100073.354117235
100073.354117255
100073.354117277
100073.354117302
100073.35411733
100073.354117359
100073.354117389
100073.354117418
100073.354117444
100073.354117466
100073.351836978
100073.351836979
100073.351836981
100073.351836985
100073.351836998
100073.351837017
100073.351837043
100073.351837076
100073.351837114
100073.351837156
100073.351837203
100073.351837253
100073.351837306
100073.35183736
100073.351837415
100073.35183747
100073.351837525
100073.351837578
100073.35183763
100073.35183768
100073.351837727
100073.351837772
100073.351837814
100073.351837852
100073.351837888
100073.351837921
100073.35183795
100073.351837977
100073.351838
100073.351838021
100073.351838039
100073.351838055
100073.351838069
100073.351838081
100073.351838091
100073.351838101
100073.35183811
100073.351838118
100073.351838127
100073.351838137
100073.351838149
100073.351838162
100073.351838177
100073.351838195
100073.351838214
100073.351838236
100073.351838257
100073.351838279
100073.351838298
100073.351838316
100073.349557951
100073.349557956
100073.349557963
100073.349557973
100073.349557991
100073.349558016
100073.349558046
100073.349558083
100073.349558123
100073.349558168
100073.349558217
100073.349558267
100073.34955832
100073.349558374
100073.349558428
100073.349558482
100073.349558535
100073.349558586
100073.349558636
100073.349558683
100073.349558728
100073.34955877
100073.349558809
100073.349558845
100073.349558877
100073.349558907
100073.349558933
100073.349558956
100073.349558976
100073.349558993
100073.349559007
100073.349559019
100073.349559029
100073.349559036
100073.349559042
100073.349559047
100073.349559051
100073.349559055
100073.349559058
100073.349559063
100073.349559068
100073.349559074
100073.349559082
100073.349559093
100073.349559105
100073.349559118
100073.349559132
100073.349559146
100073.349559159
100073.349559173
100073.347278931
100073.347278939
100073.347278951
100073.347278967
100073.347278989
100073.347279019
100073.347279054
100073.347279094
100073.347279138
100073.347279185
100073.347279234
100073.347279286
100073.347279339
100073.347279392
100073.347279445
100073.347279498
100073.347279549
100073.347279599
100073.347279646
100073.347279691
100073.347279733
100073.347279773
100073.347279809
100073.347279841
100073.347279871
100073.347279897
100073.34727992
100073.347279939
100073.347279955
100073.347279969
100073.347279979
100073.347279987
100073.347279993
100073.347279996
100073.347279998
100073.347279998
100073.347279997
100073.347279995
100073.347279994
100073.347279992
100073.347279991
100073.347279991
100073.347279992
100073.347279995
100073.347279999
100073.347280005
100073.347280011
100073.347280017
100073.347280025
100073.347280034
100073.344999913
100073.344999925
100073.344999942
100073.344999963
100073.344999991
100073.345000025
100073.345000065
100073.345000108
100073.345000154
100073.345000204
100073.345000255
100073.345000307
100073.34500036
100073.345000413
100073.345000465
100073.345000516
100073.345000566
100073.345000614
100073.345000659
100073.345000702
100073.345000742
100073.345000778
100073.345000811
100073.345000841
100073.345000867
100073.34500089
100073.345000909
100073.345000925
100073.345000938
100073.345000948
100073.345000954
100073.345000958
100073.345000959
100073.345000959
100073.345000956
100073.345000951
100073.345000945
100073.345000939
100073.345000931
100073.345000924
100073.345000916
100073.34500091
100073.345000904
100073.345000899
100073.345000896
100073.345000894
100073.345000893
100073.345000892
100073.345000894
100073.345000899
100073.342720897
100073.342720912
100073.342720933
100073.34272096
100073.342720993
100073.342721032
100073.342721076
100073.342721122
100073.342721172
100073.342721223
100073.342721275
100073.342721328
100073.342721381
100073.342721434
100073.342721486
100073.342721536
100073.342721584
100073.34272163
100073.342721673
100073.342721713
100073.34272175
100073.342721784
100073.342721815
100073.342721841
100073.342721864
100073.342721884
100073.3427219
100073.342721912
100073.342721921
100073.342721927
100073.34272193
100073.34272193
100073.342721927
100073.342721922
100073.342721914
100073.342721905
100073.342721894
100073.342721883
100073.34272187
100073.342721856
100073.342721843
100073.34272183
100073.342721817
100073.342721805
100073.342721794
100073.342721784
100073.342721776
100073.342721768
100073.342721765
100073.342721766
100073.34044188
100073.340441899
100073.340441924
100073.340441956
100073.340441994
100073.340442037
100073.340442085
100073.340442135
100073.340442188
100073.340442241
100073.340442295
100073.340442349
100073.340442402
100073.340442454
100073.340442505
100073.340442554
100073.3404426
100073.340442644
100073.340442686
100073.340442724
100073.340442758
100073.340442789
100073.340442817
100073.34044284
100073.34044286
100073.340442877
100073.340442889
100073.340442898
100073.340442904
100073.340442906
100073.340442905
100073.340442901
100073.340442894
100073.340442884
100073.340442872
100073.340442859
100073.340442843
100073.340442826
100073.340442807
100073.340442788
100073.340442769
100073.340442749
100073.340442729
100073.34044271
100073.340442692
100073.340442674
100073.340442658
100073.340442644
100073.340442635
100073.340442632
100073.33816286
100073.338162882
100073.338162912
100073.338162949
100073.338162991
100073.338163039
100073.338163091
100073.338163145
100073.3381632
100073.338163256
100073.338163311
100073.338163365
100073.338163419
100073.338163471
100073.338163521
100073.338163568
100073.338163614
100073.338163656
100073.338163695
100073.338163731
100073.338163763
100073.338163791
100073.338163816
100073.338163837
100073.338163854
100073.338163867
100073.338163876
100073.338163882
100073.338163883
100073.338163882
100073.338163877
100073.338163869
100073.338163858
100073.338163844
100073.338163828
100073.338163809
100073.338163789
100073.338163766
100073.338163743
100073.338163718
100073.338163692
100073.338163666
100073.338163639
100073.338163613
100073.338163587
100073.338163562
100073.338163539
100073.338163518
100073.338163503
100073.338163496
100073.335883835
100073.33588386
100073.335883894
100073.335883937
100073.335883984
100073.335884037
100073.335884093
100073.33588415
100073.335884207
100073.335884265
100073.335884322
100073.335884377
100073.335884431
100073.335884482
100073.335884532
100073.335884578
100073.335884622
100073.335884662
100073.3358847
100073.335884733
100073.335884763
100073.335884789
100073.335884811
100073.335884828
100073.335884842
100073.335884852
100073.335884858
100073.33588486
100073.335884859
100073.335884854
100073.335884845
100073.335884833
100073.335884818
100073.3358848
100073.335884779
100073.335884756
100073.335884731
100073.335884703
100073.335884674
100073.335884644
100073.335884612
100073.335884579
100073.335884545
100073.335884512
100073.335884479
100073.335884447
100073.335884416
100073.335884388
100073.335884367
100073.335884357
100073.333604802
100073.33360483
100073.33360487
100073.333604917
100073.333604969
100073.333605027
100073.333605087
100073.333605147
100073.333605208
100073.333605267
100073.333605325
100073.333605381
100073.333605435
100073.333605487
100073.333605535
100073.333605581
100073.333605623
100073.333605662
100073.333605697
100073.333605729
100073.333605756
100073.333605779
100073.333605799
100073.333605814
100073.333605825
100073.333605831
100073.333605834
100073.333605833
100073.333605828
100073.333605819
100073.333605807
100073.333605791
100073.333605772
100073.33360575
100073.333605725
100073.333605697
100073.333605667
100073.333605634
100073.3336056
100073.333605564
100073.333605526
100073.333605487
100073.333605447
100073.333605406
100073.333605366
100073.333605326
100073.333605288
100073.333605253
100073.333605226
100073.333605212
100073.33132576
100073.331325792
100073.331325836
100073.331325889
100073.331325946
100073.331326008
100073.331326072
100073.331326136
100073.331326199
100073.331326261
100073.33132632
100073.331326377
100073.331326431
100073.331326483
100073.331326531
100073.331326575
100073.331326616
100073.331326654
100073.331326687
100073.331326716
100073.331326741
100073.331326762
100073.331326779
100073.331326791
100073.331326799
100073.331326803
100073.331326802
100073.331326798
100073.331326789
100073.331326777
100073.331326761
100073.331326741
100073.331326718
100073.331326692
100073.331326663
100073.331326631
100073.331326596
100073.331326559
100073.331326519
100073.331326477
100073.331326433
100073.331326388
100073.331326341
100073.331326294
100073.331326246
100073.331326199
100073.331326154
100073.331326111
100073.331326079
100073.33132606
100073.329046707
100073.329046742
100073.329046792
100073.32904685
100073.329046912
100073.329046978
100073.329047046
100073.329047114
100073.32904718
100073.329047243
100073.329047304
100073.329047362
100073.329047417
100073.329047468
100073.329047515
100073.329047559
100073.329047599
100073.329047635
100073.329047666
100073.329047693
100073.329047716
100073.329047735
100073.329047749
100073.329047758
100073.329047763
100073.329047764
100073.329047761
100073.329047753
100073.329047741
100073.329047726
100073.329047706
100073.329047683
100073.329047656
100073.329047626
100073.329047592
100073.329047556
100073.329047516
100073.329047474
100073.32904743
100073.329047382
100073.329047333
100073.329047281
100073.329047227
100073.329047173
100073.329047118
100073.329047063
100073.329047012
100073.329046962
100073.329046923
100073.3290469
100073.32676764
100073.32676768
100073.326767734
100073.326767799
100073.326767865
100073.326767937
100073.326768009
100073.326768079
100073.326768148
100073.326768214
100073.326768276
100073.326768335
100073.32676839
100073.326768441
100073.326768488
100073.326768531
100073.326768569
100073.326768604
100073.326768633
100073.326768659
100073.326768679
100073.326768696
100073.326768707
100073.326768714
100073.326768717
100073.326768715
100073.326768708
100073.326768698
100073.326768683
100073.326768664
100073.326768641
100073.326768614
100073.326768583
100073.326768549
100073.326768512
100073.326768471
100073.326768427
100073.32676838
100073.32676833
100073.326768277
100073.326768222
100073.326768164
100073.326768104
100073.326768043
100073.326767981
100073.326767919
100073.32676786
100073.326767803
100073.326767758
100073.32676773
100073.324488558
100073.324488602
100073.324488662
100073.324488733
100073.324488805
100073.324488881
100073.324488957
100073.324489031
100073.324489102
100073.32448917
100073.324489234
100073.324489294
100073.324489349
100073.3244894
100073.324489447
100073.324489489
100073.324489526
100073.324489559
100073.324489587
100073.324489611
100073.324489629
100073.324489643
100073.324489652
100073.324489657
100073.324489657
100073.324489652
100073.324489643
100073.324489629
100073.324489611
100073.324489589
100073.324489563
100073.324489532
100073.324489498
100073.32448946
100073.324489419
100073.324489374