/*--------------------------------*- C++ -*----------------------------------*\
  =========                 |
  \\      /  F ield         | OpenFOAM: The Open Source CFD Toolbox
   \\    /   O peration     | Website:  https://openfoam.org
    \\  /    A nd           | Version:  10
     \\/     M anipulation  |
\*---------------------------------------------------------------------------*/
FoamFile
{
    format      ascii;
    class       volScalarField;
    location    "3";
    object      p_rgh;
}
// * * * * * * * * * * * * * * * * * * * * * * * * * * * * * * * * * * * * * //

dimensions      [1 -1 -2 0 0 0 0];

internalField   nonuniform List<scalar> 
2500
(
73.5150822726428
73.5150966456422
73.5151066912076
73.5151110782608
73.515112748908
73.5151133571198
73.5151135867636
73.5151136730565
73.5151137142384
73.5151137469948
73.5151137837238
73.5151138278598
73.5151138800284
73.5151139398222
73.5151140060188
73.5151140774688
73.5151141526876
73.5151142308314
73.5151143108815
73.5151143918629
73.5151144731353
73.5151145541167
73.515114634356
73.5151147134311
73.5151147912402
73.5151148676814
73.5151149426383
73.5151150162128
73.5151150885649
73.5151151598402
73.5151152303442
73.5151153003972
73.5151153703191
73.5151154405903
73.5151155117346
73.5151155842759
73.515115658709
73.5151157355576
73.5151158148656
73.5151158964727
73.5151159785601
73.5151160555251
73.5151161134272
73.5151161129616
73.5151159525994
73.515115402668
73.515113785732
73.5151094361063
73.5150992605486
73.5150850629434
73.5157721446158
73.5158103401627
73.515837390747
73.5158498280362
73.5158549472253
73.5158569372288
73.5158576819231
73.5158579448034
73.5158580417774
73.515858091152
73.5158581325231
73.5158581780852
73.5158582307922
73.5158582908189
73.5158583571465
73.5158584285964
73.5158585039171
73.5158585820463
73.5158586620382
73.515858742976
73.5158588242048
73.5158589051571
73.5158589853527
73.5158590643405
73.5158591420186
73.5158592183143
73.5158592931111
73.5158593665255
73.5158594387176
73.5158595097746
73.5158595800458
73.5158596499095
73.5158597194968
73.5158597893751
73.5158598601993
73.5158599323913
73.5158600064024
73.5158600826981
73.5158601611911
73.5158602407901
73.5158603167802
73.5158603739255
73.5158603689342
73.5158601796575
73.5158594908862
73.5158575599198
73.5158525326697
73.5158401502704
73.5158126088063
73.515774516738
73.5163415338029
73.5163852248807
73.5164150619239
73.5164287729131
73.5164343939396
73.5164365704404
73.516437383194
73.5164376693865
73.5164377738838
73.5164378257905
73.5164378680929
73.5164379141934
73.5164379672788
73.5164380275819
73.5164380941133
73.5164381656796
73.5164382411022
73.5164383192459
73.5164383992087
73.5164384800737
73.5164385611861
73.5164386419638
73.5164387219847
73.5164388007979
73.5164388782432
73.5164389542624
73.5164390287682
73.5164391018479
73.5164391736762
73.5164392443403
73.516439314204
73.5164393836167
73.5164394527092
73.516439522049
73.5164395923202
73.5164396639157
73.5164397372428
73.5164398127818
73.5164398905326
73.5164399693022
73.5164400442445
73.5164400991343
73.5164400875947
73.5164398775669
73.5164391257131
73.5164370138518
73.5164314794529
73.5164177636034
73.516387236843
73.5163426174695
73.5167185312312
73.5167526613805
73.5167733404378
73.5167825224344
73.5167861150694
73.5167874416802
73.516787927103
73.5167880976369
73.5167881646048
73.5167882053793
73.5167882447422
73.5167882903042
73.5167883434769
73.5167884039984
73.5167884707043
73.5167885423871
73.5167886178388
73.516788695968
73.5167887757998
73.5167888564756
73.5167889373406
73.5167890178127
73.5167890974553
73.5167891759193
73.5167892529425
73.5167893284961
73.5167894025071
73.5167894750193
73.5167895462364
73.5167896163184
73.5167896855273
73.5167897541833
73.5167898225773
73.5167898911459
73.516789960544
73.516790031179
73.5167901035747
73.5167901782406
73.516790255293
73.5167903343245
73.5167904126429
73.5167904807167
73.5167905116687
73.5167904263799
73.5167900127562
73.5167887516582
73.5167852155282
73.5167759770557
73.516754698474
73.5167190612556
73.5169279918046
73.5169489106047
73.5169601196831
73.5169649000891
73.5169666903239
73.5169673107594
73.5169675336801
73.516967612697
73.5169676497753
73.5169676814112
73.5169677182275
73.5169677632366
73.516967816453
73.5169678770908
73.5169679438695
73.5169680155523
73.5169680908875
73.5169681688276
73.5169682483829
73.516968328724
73.516968409167
73.5169684891443
73.516968568234
73.5169686460722
73.5169687224698
73.5169687973248
73.5169688706083
73.5169689423637
73.5169690127514
73.5169690819457
73.5169691502233
73.5169692179043
73.5169692852796
73.5169693528005
73.5169694210344
73.5169694904616
73.5169695616059
73.5169696350349
73.5169697111705
73.5169697899837
73.5169698704703
73.5169699482212
73.5169700111728
73.516970021723
73.5169698761747
73.5169693233474
73.5169675827783
73.5169627644937
73.5169511517015
73.5169288487959
73.5170293103147
73.5170400312199
73.517045097542
73.5170471273741
73.5170478476211
73.5170480652887
73.5170481403911
73.5170481675159
73.5170481870882
73.517048213107
73.5170482482208
73.5170482927933
73.5170483459951
73.5170484066039
73.5170484733535
73.5170485448471
73.5170486199495
73.5170486975258
73.5170487766445
73.5170488564472
73.5170489362499
73.5170490155433
73.5170490938763
73.5170491708996
73.5170492464385
73.5170493203623
73.5170493926853
73.5170494634367
73.5170495327475
73.5170496008213
73.5170496679057
73.5170497343206
73.5170498004009
73.517049866583
73.5170499333763
73.5170500013046
73.5170500709355
73.5170501428802
73.517050217677
73.5170502957044
73.5170503769041
73.5170504597336
73.5170505402493
73.5170506035065
73.5170506069553
73.5170504572598
73.5170497875079
73.5170477542997
73.5170424700191
73.5170308102533
73.5170731473336
73.5170778943721
73.5170798447507
73.5170805196685
73.5170807289687
73.5170807589457
73.517080764359
73.5170807663235
73.5170807768445
73.5170807996765
73.5170808336989
73.5170808779512
73.5170809310512
73.517080991558
73.5170810580894
73.5170811292919
73.5170812039723
73.5170812810247
73.5170813595032
73.5170814385929
73.5170815175952
73.5170815960009
73.5170816733444
73.5170817493636
73.5170818238112
73.5170818966144
73.5170819677296
73.5170820372005
73.5170821052016
73.517082171893
73.5170822375367
73.5170823024528
73.5170823669614
73.5170824315283
73.517082496619
73.5170825627865
73.5170826306421
73.5170827008114
73.5170827739639
73.5170828507107
73.5170829315612
73.5170830164716
73.5170831051801
73.5170831929718
73.5170832655713
73.5170833026059
73.5170831440191
73.5170824891102
73.5170804461377
73.5170751832775
73.5170904816914
73.517092312366
73.5170929260057
73.5170930396853
73.5170930411696
73.5170929963497
73.5170929726737
73.5170929636079
73.517092969807
73.5170929909073
73.5170930243039
73.5170930683089
73.5170931212197
73.5170931815228
73.517093247734
73.5170933185
73.5170933926129
73.5170934689813
73.5170935466595
73.5170936248323
73.5170937028452
73.5170937801449
73.5170938563388
73.5170939311211
73.5170940042735
73.5170940757089
73.5170941453835
73.5170942133846
73.5170942798431
73.5170943449193
73.517094408875
73.5170944720303
73.5170945347199
73.517094597395
73.5170946605358
73.5170947246952
73.5170947904844
73.5170948586165
73.5170949298044
73.5170950048632
73.5170950846077
73.5170951697219
73.5170952615445
73.5170953592897
73.5170954600908
73.5170955706853
73.5170956191141
73.5170955365174
73.5170948979649
73.5170928299194
73.5170968959428
73.517097489108
73.5170976025984
73.5170975206274
73.5170974508655
73.5170973819768
73.5170973478525
73.5170973346831
73.5170973390923
73.5170973594213
73.5170973924978
73.5170974363136
73.5170974890498
73.5170975490473
73.5170976148365
73.5170976850495
73.5170977584494
73.5170978339738
73.5170979106624
73.5170979877585
73.5170980645926
73.5170981406263
73.5170982154668
73.5170982888085
73.5170983604621
73.5170984303113
73.5170984983706
73.5170985646837
73.5170986293524
73.517098692595
73.5170987546589
73.5170988158206
73.5170988764585
73.517098937009
73.5170989979379
73.5170990598126
73.5170991232881
73.5170991890773
73.5170992579951
73.5170993309293
73.5170994089276
73.5170994930522
73.5170995851659
73.5170996857778
73.517099796125
73.5170999297552
73.5171000485861
73.5171001657291
73.5171000583359
73.5170993760403
73.517099216886
73.5170993467473
73.5170992992353
73.517099167002
73.5170990802144
73.5170990080514
73.517098971759
73.5170989579201
73.5170989620819
73.5170989822655
73.5170990152983
73.5170990590268
73.5170991115738
73.5170991712512
73.5170992365456
73.5170993060747
73.5170993786451
73.5170994531654
73.5170995287335
73.5170996045781
73.5170996800589
73.5170997546375
73.5170998279355
73.5170998996618
73.5170999696129
73.5171000377013
73.5171001039125
73.5171001683048
73.517100231009
73.5171002921998
73.5171003521245
73.5171004110889
73.5171004694566
73.5171005276206
73.5171005861193
73.5171006454766
73.5171007063618
73.5171007695317
73.5171008358302
73.5171009062615
73.5171009819314
73.5171010641061
73.5171011547354
73.5171012545907
73.5171013662039
73.5171015022497
73.5171016375243
73.517101806181
73.5171018723922
73.517101721518
73.5171001320268
73.5171001116105
73.5171000251576
73.5170998933609
73.5170998090471
73.5170997417008
73.5170997070527
73.5170996944216
73.5170996993111
73.517099719902
73.5170997531823
73.5170997969399
73.5170998493268
73.5170999086113
73.5170999733236
73.5171000420814
73.5171001136769
73.5171001870913
73.5171002613934
73.517100335841
73.5171004098083
73.5171004827716
73.5171005543525
73.5171006242745
73.5171006923483
73.5171007584868
73.5171008226607
73.5171008849429
73.5171009454789
73.5171010044141
73.5171010620106
73.5171011185594
73.5171011744242
73.5171012300125
73.5171012858191
73.517101342426
73.5171014004591
73.5171014607331
73.5171015241067
73.5171015915985
73.5171016644017
73.5171017438115
73.5171018317196
73.5171019287518
73.5171020376729
73.5171021680871
73.5171023005823
73.5171024689771
73.5171025788877
73.5171026062744
73.5171006116288
73.5171005539014
73.517100467594
73.5171003510477
73.5171002754214
73.5171002158459
73.5171001847775
73.5171001745039
73.5171001808631
73.5171002023126
73.5171002360294
73.517100279947
73.5171003321884
73.51710039108
73.5171004551521
73.5171005230368
73.5171005935699
73.5171006657329
73.5171007386525
73.5171008115576
73.5171008838515
73.5171009550395
73.5171010247432
73.5171010927006
73.5171011587372
73.5171012227365
73.5171012847131
73.5171013447252
73.5171014028892
73.5171014593798
73.5171015144442
73.5171015683882
73.5171016215463
73.5171016743407
73.517101727266
73.5171017808752
73.5171018358378
73.517101892925
73.5171019530389
73.5171020172129
73.5171020866255
73.517102162572
73.5171022467548
73.5171023396251
73.5171024437441
73.5171025654417
73.5171026890312
73.5171028419718
73.5171029535704
73.5171030289202
73.5171009805199
73.5171009214246
73.51710084558
73.5171007469326
73.5171006815217
73.5171006306482
73.5171006042219
73.5171005970187
73.5171006054006
73.5171006280725
73.5171006624732
73.5171007066529
73.5171007587778
73.5171008172474
73.517100880621
73.5171009475598
73.5171010169433
73.517101087753
73.5171011591447
73.5171012303763
73.5171013008658
73.5171013701329
73.5171014378138
73.5171015036613
73.5171015674714
73.5171016292006
73.5171016888053
73.5171017463581
73.5171018019901
73.5171018558758
73.5171019082482
73.5171019593981
73.517102009675
73.5171020594717
73.517102109312
73.5171021597052
73.51710221135
73.5171022650029
73.5171023215516
73.5171023820294
73.5171024475712
73.5171025194577
73.5171025991294
73.5171026868484
73.5171027849137
73.517102896818
73.5171030098281
73.5171031445498
73.5171032464714
73.5171033269435
73.5171013398649
73.5171012888604
73.5171012248902
73.5171011430357
73.5171010878548
73.5171010457852
73.5171010245831
73.5171010209306
73.5171010317426
73.5171010559134
73.5171010911727
73.5171011357015
73.5171011877828
73.5171012458304
73.5171013084619
73.5171013743966
73.5171014425287
73.5171015118831
73.517101581645
73.5171016510867
73.5171017196408
73.5171017868561
73.5171018523833
73.5171019159607
73.517101977428
73.5171020367125
73.5171020937996
73.5171021487477
73.5171022016875
73.5171022527793
73.5171023022849
73.5171023504663
73.5171023976727
73.5171024443116
73.5171024908486
73.5171025378513
73.5171025859454
73.5171026359021
73.5171026886092
73.5171027450415
73.517102806305
73.5171028735786
73.5171029481135
73.5171030299971
73.5171031211503
73.5171032229846
73.5171033252991
73.5171034427622
73.517103533115
73.5171036068205
73.5171017180255
73.5171016762906
73.5171016232634
73.517101556281
73.5171015108062
73.5171014772641
73.5171014616208
73.517101461839
73.5171014753578
73.5171015012747
73.5171015375527
73.5171015825181
73.5171016345557
73.5171016921813
73.5171017540415
73.5171018188994
73.5171018857072
73.5171019535337
73.5171020215494
73.5171020890848
73.5171021556016
73.5171022206487
73.5171022838767
73.5171023450675
73.517102404061
73.5171024607553
73.5171025151794
73.5171025673772
73.5171026174794
73.5171026656462
73.5171027121251
73.5171027571778
73.5171028011682
73.5171028444602
73.5171028875338
73.5171029309276
73.5171029752819
73.5171030213241
73.5171030698984
73.5171031219797
73.5171031785867
73.5171032408107
73.517103309714
73.5171033852384
73.5171034689556
73.5171035608073
73.5171036526735
73.5171037546534
73.5171038341941
73.5171038989647
73.5171021213318
73.517102088008
73.5171020445996
73.5171019905829
73.5171019542031
73.5171019287518
73.5171019187546
73.5171019230183
73.517101939462
73.5171019672853
73.5171020046982
73.517102050173
73.5171021022252
73.5171021593997
73.5171022204595
73.5171022841969
73.5171023496223
73.5171024158044
73.5171024820011
73.5171025475429
73.5171026119206
73.517102674683
73.51710273551
73.5171027941979
73.517102850572
73.5171029045596
73.5171029561752
73.5171030054917
73.5171030526108
73.5171030977217
73.5171031410282
73.5171031828213
73.5171032234211
73.5171032632206
73.5171033026563
73.5171033422666
73.5171033826773
73.5171034245868
73.5171034688101
73.5171035162493
73.5171035678941
73.5171036246902
73.5171036875399
73.5171037563414
73.5171038322878
73.5171039143752
73.5171039962297
73.5171040845162
73.5171041543217
73.5171042107104
73.5171025494783
73.517102523314
73.5171024883748
73.5171024456504
73.5171024177253
73.5171023999137
73.5171023955627
73.5171024039591
73.5171024234296
73.517102453261
73.5171024919255
73.5171025379677
73.5171025900345
73.5171026467724
73.5171027069882
73.517102769576
73.5171028335462
73.5171028980403
73.5171029623307
73.5171030257916
73.5171030879137
73.5171031483042
73.5171032066428
73.5171032627113
73.5171033163497
73.5171033675433
73.5171034162631
73.5171034625673
73.5171035065869
73.5171035484964
73.5171035885141
73.5171036268875
73.5171036639804
73.5171037001273
73.5171037357795
73.5171037714608
73.5171038077387
73.5171038453263
73.5171038849803
73.5171039275447
73.5171039739362
73.5171040250134
73.5171040815185
73.5171041433059
73.5171042112779
73.5171042839065
73.5171043561277
73.5171044322487
73.5171044933231
73.5171045422903
73.5171030005149
73.517102980506
73.5171029530902
73.5171029203048
73.5171029002377
73.5171028895566
73.5171028907498
73.5171029032936
73.5171029258636
73.517102957805
73.5171029977646
73.5171030444326
73.5171030965284
73.5171031528298
73.5171032122016
73.5171032735816
73.517103336053
73.5171033988008
73.5171034611267
73.5171035224339
73.5171035822423
73.5171036401589
73.5171036958927
73.5171037492546
73.5171038000844
73.5171038483531
73.5171038940607
73.5171039372508
73.5171039780689
73.5171040166606
73.5171040532587
73.5171040881251
73.5171041215508
73.5171041539288
73.517104185652
73.5171042172442
73.5171042492584
73.5171042823349
73.5171043172159
73.5171043547016
73.517104395607
73.517104440718
73.5171044906456
73.5171045452298
73.5171046051546
73.5171046685864
73.5171047315816
73.5171047967597
73.5171048498887
73.5171048923221
73.5171034719388
73.5171034572413
73.5171034366213
73.5171034126397
73.5171033998777
73.5171033959195
73.5171034025116
73.5171034191881
73.5171034448576
73.5171034789673
73.5171035202511
73.5171035675739
73.517103619728
73.5171036755928
73.5171037340915
73.5171037942491
73.517103855178
73.517103916136
73.51710397641
73.5171040354908
73.5171040928981
73.5171041482827
73.5171042013535
73.5171042519214
73.5171042998554
73.5171043451119
73.5171043877053
73.517104427694
73.5171044652088
73.5171045003954
73.5171045334719
73.5171045646857
73.5171045943716
73.5171046228352
73.5171046505275
73.5171046778996
73.5171047054901
73.5171047339099
73.5171047638723
73.5171047960757
73.5171048313059
73.5171048702468
73.5171049134515
73.5171049607161
73.5171050125355
73.517105067076
73.5171051211946
73.5171051764191
73.5171052221413
73.5171052587539
73.5171039612469
73.5171039512497
73.5171039368724
73.5171039208071
73.5171039148845
73.5171039172274
73.517103929029
73.5171039497509
73.5171039785346
73.5171040148271
73.5171040574787
73.5171041054709
73.5171041576978
73.517104213126
73.517104270737
73.5171043296432
73.517104389015
73.5171044481103
73.5171045063325
73.5171045631432
73.5171046181058
73.5171046708856
73.5171047212207
73.5171047689219
73.5171048138727
73.5171048560587
73.5171048954653
73.5171049321652
73.5171049662749
73.5171049979544
73.5171050274221
73.5171050549106
73.5171050807257
73.5171051052021
73.5171051287325
73.5171051517682
73.5171051748184
73.5171051984507
73.5171052233345
73.5171052501246
73.5171052795195
73.5171053121594
73.517105348481
73.5171053883387
73.5171054320963
73.5171054779785
73.5171055235405
73.5171055695828
73.5171056083782
73.5171056396794
73.5171044658346
73.517104460072
73.5171044514864
73.5171044426534
73.517104443119
73.5171044514136
73.5171044682502
73.5171044929593
73.517104524828
73.5171045632887
73.5171046073374
73.5171046560135
73.5171047083277
73.5171047633048
73.5171048200427
73.5171048776683
73.5171049354394
73.5171049926721
73.5171050487843
73.5171051032812
73.5171051557409
73.5171052058722
73.5171052533988
73.5171052981896
73.5171053401136
73.5171053791419
73.5171054152743
73.5171054486273
73.5171054792736
73.5171055073733
73.5171055331593
73.5171055568353
73.5171055787068
73.5171055990941
73.5171056183608
73.5171056369581
73.5171056553663
73.5171056741092
73.5171056937834
73.5171057150292
73.5171057384869
73.5171057646949
73.5171057940606
73.5171058264823
73.5171058622218
73.5171058996784
73.5171059369459
73.5171059744025
73.5171060065913
73.517106032974
73.5171049832716
73.5171049814089
73.5171049782803
73.517104976112
73.5171049826167
73.5171049965575
73.5171050182253
73.5171050468489
73.5171050817444
73.5171051223879
73.517105167819
73.5171052171936
73.517105269595
73.5171053241502
73.5171053799859
73.5171054363454
73.5171054925158
73.5171055478568
73.5171056018298
73.5171056539693
73.517105703897
73.5171057513362
73.5171057960251
73.5171058378473
73.5171058766864
73.5171059125132
73.5171059453569
73.5171059752902
73.5171060024004
73.5171060268767
73.5171060488938
73.5171060686989
73.5171060865541
73.517106102765
73.5171061177098
73.5171061317815
73.5171061454457
73.5171061591973
73.5171061735891
73.5171061892033
73.5171062066074
73.5171062263107
73.517106248677
73.5171062736335
73.5171063014277
73.5171063306479
73.5171063598536
73.5171063892049
73.5171064150345
73.5171064368187
73.517105511055
73.5171055128158
73.5171055148676
73.5171055189276
73.5171055311657
73.5171055504616
73.5171055768296
73.5171056092513
73.5171056471445
73.5171056899417
73.5171057367697
73.5171057868574
73.5171058393607
73.5171058934793
73.5171059484419
73.5171060035209
73.517106058076
73.5171061114961
73.5171061633155
73.5171062130976
73.5171062604786
73.5171063051821
73.5171063470189
73.5171063858288
73.5171064215538
73.5171064541501
73.5171064836468
73.5171065101022
73.5171065336617
73.5171065544419
73.5171065726463
73.5171065885224
73.5171066023031
73.5171066142939
73.517106624844
73.5171066343319
73.5171066431794
73.5171066518669
73.5171066608891
73.5171066707844
73.5171066820767
73.5171066952171
73.5171067105402
73.5171067280608
73.5171067479678
73.5171067691408
73.517106790503
73.5171068120835
73.5171068317431
73.5171068491618
73.5171060468419
73.5171060520806
73.5171060591092
73.5171060690627
73.5171060867578
73.5171061112051
73.5171061420988
73.5171061782312
73.5171062190784
73.5171062640147
73.5171063122398
73.5171063630405
73.5171064156457
73.5171064693568
73.5171065234317
73.5171065772447
73.5171066301846
73.5171066816984
73.517106731364
73.5171067787596
73.517106823565
73.5171068655472
73.5171069044882
73.5171069402859
73.5171069728676
73.5171070021897
73.5171070283104
73.5171070512879
73.517107071224
73.5171070882934
73.5171071026562
73.5171071145451
73.5171071242075
73.5171071319346
73.5171071380464
73.5171071428922
73.5171071468794
73.5171071504446
73.517107154039
73.5171071581717
73.517107163294
73.5171071698423
73.5171071781224
73.5171071882069
73.5171072003286
73.5171072135709
73.5171072272497
73.5171072413359
73.5171072550002
73.5171072682278
73.5171065882605
73.5171065968025
73.5171066086332
73.5171066242183
73.5171066471667
73.5171066765906
73.5171067118645
73.5171067516494
73.5171067953925
73.5171068424388
73.5171068920608
73.5171069435892
73.5171069963253
73.5171070496144
73.5171071028453
73.5171071553923
73.5171072067169
73.5171072563535
73.5171073038509
73.5171073488746
73.5171073911188
73.5171074303507
73.5171074664104
73.5171074991813
73.5171075285907
73.5171075546386
73.5171075773687
73.5171075968246
73.5171076131519
73.5171076264669
73.5171076369734
73.5171076448605
73.5171076503757
73.5171076538099
73.5171076554398
73.5171076556144
73.5171076546976
73.5171076530969
73.5171076512488
73.5171076495608
73.5171076484985
73.5171076484403
73.5171076496918
73.5171076523839
73.5171076567785
73.517107662221
73.5171076683764
73.5171076751722
73.517107682972
73.5171076921397
73.5171071330406
73.5171071448276
73.5171071613586
73.5171071823861
73.5171072103985
73.5171072446392
73.5171072842058
73.517107327556
73.5171073741512
73.5171074233222
73.5171074743266
73.5171075265825
73.5171075794642
73.5171076323895
73.5171076847619
73.5171077360719
73.5171077858104
73.5171078335552
73.5171078789135
73.5171079215652
73.5171079612483
73.5171079977445
73.5171080309228
73.5171080606524
73.5171080869186
73.5171081096923
73.5171081290173
73.5171081449662
73.5171081576555
73.5171081672306
73.5171081738517
73.5171081777225
73.5171081790904
73.5171081782028
73.5171081753506
73.5171081708249
73.5171081650042
73.517108158223
73.5171081508743
73.5171081433655
73.5171081361041
73.5171081294393
73.5171081236622
73.5171081190201
73.5171081157605
73.5171081135195
73.517108112268
73.5171081119042
73.5171081139124
73.517108119122
73.517107678912
73.5171076938859
73.5171077150007
73.5171077413543
73.5171077743144
73.5171078132407
73.5171078570129
73.5171079038555
73.5171079532884
73.5171080045402
73.5171080569562
73.5171081099543
73.517108162996
73.5171082155575
73.517108267115
73.5171083172027
73.517108365384
73.5171084112662
73.5171084545
73.5171084947942
73.5171085319307
73.5171085657203
73.5171085960174
73.5171086227492
73.5171086458722
73.5171086653863
73.5171086813207
73.5171086937771
73.517108702843
73.5171087086637
73.517108711414
73.5171087112831
73.5171087085037
73.5171087032941
73.5171086959454
73.517108686734
73.5171086759801
73.517108664033
73.5171086512128
73.5171086378832
73.5171086244372
73.5171086111804
73.5171085984184
73.5171085864858
73.5171085756447
73.517108565793
73.5171085572219
73.517108549815
73.5171085460897
73.5171085473994
73.517108223692
73.5171082418528
73.5171082675515
73.5171082991583
73.5171083369496
73.5171083804889
73.5171084283793
73.5171084786853
73.5171085309121
73.5171085842449
73.5171086380578
73.5171086918272
73.5171087450581
73.5171087972703
73.517108848042
73.517108896951
73.5171089436044
73.5171089876676
73.5171090288204
73.5171090668009
73.5171091014345
73.5171091325319
73.5171091599914
73.5171091837256
73.5171092037344
73.5171092200035
73.5171092325909
73.5171092415549
73.5171092470264
73.5171092491219
73.5171092480159
73.5171092438977
73.517109236971
73.5171092274686
73.5171092156379
73.5171092017554
73.5171091860975
73.5171091689699
73.5171091506927
73.5171091315715
73.5171091119555
73.5171090921358
73.5171090724325
73.5171090532676
73.5171090349031
73.5171090175136
73.5171090016956
73.5171089873038
73.5171089778742
73.5171089752985
73.517108765227
73.5171087866038
73.5171088168281
73.5171088536736
73.5171088962525
73.5171089443465
73.517108996326
73.5171090500371
73.5171091050433
73.517109160457
73.517109215667
73.5171092702221
73.5171093236568
73.5171093755635
73.5171094255929
73.5171094733523
73.5171095185215
73.5171095607802
73.5171095998812
73.5171096356062
73.5171096677659
73.5171096962149
73.5171097208804
73.5171097416751
73.517109758599
73.5171097716666
73.5171097809216
73.5171097864368
73.5171097883431
73.5171097867424
73.5171097818238
73.5171097737475
73.5171097627317
73.517109748951
73.517109732682
73.5171097141429
73.5171096936101
73.5171096713602
73.5171096476406
73.5171096227568
73.5171095969999
73.5171095706755
73.5171095440746
73.5171095177211
73.517109491906
73.5171094670368
73.5171094440302
73.5171094226534
73.5171094075486
73.5171094010875
73.5171093014214
73.5171093261015
73.5171093609242
73.5171094030375
73.5171094503457
73.51710950298
73.5171095589903
73.5171096160921
73.5171096738486
73.5171097313432
73.5171097879793
73.5171098433348
73.5171098970168
73.5171099486761
73.5171099979925
73.517110044646
73.5171100883745
73.5171101289015
73.5171101660089
73.5171101995074
73.5171102292516
73.5171102551103
73.5171102770109
73.5171102949098
73.5171103087923
73.5171103187022
73.5171103246685
73.517110326793
73.5171103251778
73.5171103199536
73.5171103112516
73.5171102992754
73.517110284185
73.5171102661989
73.5171102455206
73.5171102223831
73.5171101970191
73.5171101696615
73.5171101405722
73.5171101099695
73.5171100781299
73.517110045359
73.5171100119187
73.5171099784493
73.5171099452418
73.5171099129366
73.5171098827705
73.5171098543797
73.5171098335704
73.5171098231658
73.5171098301944
73.5171098582796
73.5171098977444
73.5171099452127
73.5171099972504
73.5171100544394
73.5171101144806
73.5171101749293
73.5171102354507
73.5171102950117
73.5171103530884
73.5171104092733
73.5171104632318
73.5171105146728
73.5171105633199
73.5171106089401
73.5171106512717
73.5171106901253
73.5171107252827
73.5171107566275
73.5171107839997
73.5171108073264
73.5171108265349
73.5171108415961
73.5171108525246
73.5171108593349
73.5171108620998
73.517110860892
73.5171108557988
73.5171108469804
73.5171108345821
73.5171108187496
73.5171107996721
73.5171107775241
73.5171107525093
73.5171107248316
73.5171106947091
73.5171106623166
73.5171106279013
73.5171105916525
73.5171105538029
73.5171105146437
73.5171104744513
73.5171104339388
73.5171103933681
73.5171103536559
73.5171103163593
73.5171102808818
73.5171102542954
73.517110239889
73.5171103495231
73.5171103811881
73.5171104254405
73.517110478424
73.5171105352347
73.5171105970076
73.5171106610505
73.5171107248461
73.5171107881179
73.5171108497743
73.5171109092917
73.5171109663206
73.5171110205847
73.5171110718511
73.5171111199015
73.5171111645177
73.5171112055395
73.5171112427633
73.5171112760581
73.5171113052929
73.5171113303804
73.5171113512333
73.5171113678225
73.5171113801189
73.517111388137
73.5171113919205
73.5171113915421
73.5171113870601
73.5171113786055
73.51711136628
73.5171113502438
73.5171113306424
73.5171113076503
73.5171112814278
73.5171112521493
73.5171112200187
73.517111185196
73.5171111478558
73.5171111082018
73.5171110663796
73.5171110226074
73.5171109771327
73.5171109302464
73.5171108827781
73.5171108349314
73.5171107877977
73.5171107433707
73.51711070069
73.5171106682246
73.5171106496709
73.517110857385
73.5171108928189
73.517110942048
73.5171110007796
73.5171110623924
73.5171111288073
73.5171111968666
73.5171112639946
73.5171113300021
73.5171113937395
73.5171114547265
73.5171115126432
73.5171115672711
73.5171116184065
73.5171116659039
73.5171117095888
73.5171117493301
73.5171117850114
73.5171118165017
73.5171118437138
73.5171118665749
73.5171118850412
73.5171118990838
73.5171119087026
73.5171119139122
73.5171119147562
73.517111911322
73.5171119036677
73.5171118919243
73.5171118761791
73.5171118566068
73.5171118333237
73.51711180649
73.5171117762802
73.5171117428399
73.5171117063437
73.5171116669226
73.5171116247366
73.5171115799312
73.5171115326375
73.51711148303
73.5171114313562
73.5171113778779
73.5171113235265
73.517111268462
73.5171112139069
73.5171111623495
73.5171111122763
73.517111073772
73.5171110509109
73.5171113517863
73.5171113912947
73.5171114457771
73.5171115105186
73.5171115770063
73.5171116481652
73.5171117202262
73.5171117906575
73.5171118594299
73.5171119252627
73.5171119877341
73.517112046582
73.5171121015883
73.5171121526364
73.5171121996391
73.5171122424654
73.5171122810134
73.5171123152104
73.5171123449836
73.5171123702603
73.5171123909968
73.5171124071639
73.5171124187618
73.5171124257758
73.5171124282642
73.5171124262706
73.5171124198678
73.517112409143
73.5171123941982
73.5171123751352
73.5171123521141
73.5171123252512
73.5171122947067
73.5171122605971
73.5171122231113
73.5171121823514
73.5171121384483
73.5171120915184
73.517112041678
73.5171119890292
73.5171119337174
73.5171118759317
73.5171118159487
73.5171117548307
73.5171116926358
73.5171116306301
73.5171115719422
73.5171115142439
73.5171114694676
73.5171114420373
73.5171118307335
73.5171118746512
73.517111934736
73.5171120058367
73.5171120773157
73.5171121533349
73.5171122293686
73.5171123031178
73.5171123746259
73.5171124425542
73.517112506539
73.5171125663182
73.517112621761
73.5171126727801
73.5171127193462
73.5171127613721
73.5171127988142
73.5171128316142
73.5171128597431
73.5171128831716
73.5171129018709
73.5171129158407
73.5171129250666
73.5171129295923
73.5171129294758
73.5171129247465
73.5171129154769
73.5171129017835
73.5171128837392
73.5171128614893
73.5171128351212
73.517112804795
73.5171127706417
73.5171127327922
73.5171126913629
73.5171126464702