/*--------------------------------*- C++ -*----------------------------------*\
  =========                 |
  \\      /  F ield         | OpenFOAM: The Open Source CFD Toolbox
   \\    /   O peration     | Website:  https://openfoam.org
    \\  /    A nd           | Version:  10
     \\/     M anipulation  |
\*---------------------------------------------------------------------------*/
FoamFile
{
    format      ascii;
    class       surfaceScalarField;
    location    "3";
    object      phi;
}
// * * * * * * * * * * * * * * * * * * * * * * * * * * * * * * * * * * * * * //

dimensions      [1 0 -1 0 0 0 0];

internalField   nonuniform List<scalar> 
4900
(
-6.30712319786283e-12
6.66422884651698e-12
-7.17642541556134e-12
1.40468947711848e-12
-5.16574293294421e-12
-1.43759979561443e-12
-3.32898175654639e-12
-1.26671880534544e-12
-2.086654219867e-12
-6.813787170168e-13
-1.33017245982574e-12
-2.02716524614902e-13
-8.57692467156003e-13
7.61429293882095e-14
-5.45770179005139e-13
2.32691047828453e-13
-3.23960713706288e-13
3.19421161079673e-13
-1.54773122822221e-13
3.69072076032531e-13
-1.9032829201107e-14
3.99872644465563e-13
9.36759544915214e-14
4.20471495606354e-13
1.89340032265724e-13
4.35205723159024e-13
2.71611281243373e-13
4.46286856509513e-13
3.42883378728323e-13
4.54904200025116e-13
4.04793813870414e-13
4.6173317201004e-13
4.58549305984671e-13
4.67196719116351e-13
5.05043336821397e-13
4.71578036932185e-13
5.45036297675613e-13
4.75048478448471e-13
5.7912298612043e-13
4.77769923550908e-13
6.07857390231393e-13
4.79843587608558e-13
6.31741260781164e-13
4.8132253915049e-13
6.51252756671032e-13
4.82298033254732e-13
6.66843688386855e-13
4.8279434560762e-13
6.78987929072726e-13
4.82856776036994e-13
6.88152427546539e-13
4.82484011078889e-13
6.94840519578194e-13
4.81704073524656e-13
6.99561582307436e-13
4.80495496699846e-13
7.02868594353533e-13
4.78873257572614e-13
7.05326220212703e-13
4.76804059861379e-13
7.0759869890528e-13
4.74239793352464e-13
7.10386769919843e-13
4.7111705572353e-13
7.14505669996501e-13
4.67366209143924e-13
7.20878634743143e-13
4.62850699068012e-13
7.30692088860576e-13
4.57352303868198e-13
7.45387153051571e-13
4.50598263311679e-13
7.66903459864539e-13
4.42152034303802e-13
7.97907561872777e-13
4.31302874613276e-13
8.42377403864368e-13
4.16838939110952e-13
9.06670138089356e-13
3.96439013919213e-13
1.00171626351582e-12
3.65644051909164e-13
1.1472737585128e-12
3.15675744501141e-13
1.3815521107731e-12
2.28186367611403e-13
1.7764853342973e-12
6.96486860085763e-14
2.4563662331339e-12
-2.11647561260676e-13
3.62850471072626e-12
-6.97540077743407e-13
5.41471723653465e-12
-1.3017714329467e-12
7.42340836546637e-12
-1.5123143176612e-12
6.49745994797575e-12
1.41262571761631e-12
6.8249986073055e-12
-6.67393551651568e-12
1.38220408088051e-11
-1.10293475324064e-11
6.42623857725694e-12
-8.98076040874417e-12
-2.79641113486819e-12
-6.38192652865178e-12
-3.18669741121342e-12
-4.44568553988862e-12
-1.95317641817485e-12
-3.1524824315411e-12
-8.42041860615979e-13
-2.28215372672541e-12
-1.47354571195515e-13
-1.66378889694014e-12
2.56099321038319e-13
-1.1964517052374e-12
4.8981748990915e-13
-8.25578230876579e-13
6.32446386133705e-13
-5.20902512368234e-13
7.26316704619562e-13
-2.64769568956272e-13
7.925370135832e-13
-4.60565680205677e-14
8.41866611969981e-13
1.42629721717798e-13
8.80113318552639e-13
3.06470138819091e-13
9.10604438424039e-13
4.49247782054366e-13
9.35330270612426e-13
5.73868082125197e-13
9.55584277357691e-13
6.82602865095606e-13
9.72256225805632e-13
7.77354147580608e-13
9.85932444738379e-13
8.59712051966036e-13
9.97087855842758e-13
9.31126762071511e-13
1.00603387261279e-12
9.92887699513622e-13
1.01299098193459e-12
1.04622730911608e-12
1.01818446626144e-12
1.09229637576042e-12
1.02172372358359e-12
1.13226899116044e-12
1.02370730715306e-12
1.16729743124108e-12
1.02415173951424e-12
1.19858730982347e-12
1.02310299662288e-12
1.22734690222108e-12
1.02052517287891e-12
1.25489082940794e-12
1.01639130067483e-12
1.28257019283168e-12
1.01061072462987e-12
1.31192761801453e-12
1.00300034453109e-12
1.34461964106836e-12
9.93355914310615e-13
1.38254997132187e-12
9.81408582730664e-13
1.42789695592712e-12
9.66719262854395e-13
1.48334249659432e-12
9.48615405329889e-13
1.55215625932018e-12
9.26223863649831e-13
1.63855597926032e-12
8.9823297656605e-13
1.74812233416313e-12
8.62599488954517e-13
1.88871757618794e-12
8.15949647846005e-13
2.07198161094005e-12
7.52260009135134e-13
2.31634315588251e-12
6.60415052532756e-13
2.65307286166827e-12
5.18861716303201e-13
3.13832373468808e-12
2.84540217537213e-13
3.87534647564404e-12
-1.22754648003387e-13
5.0377631428047e-12
-8.23917822216763e-13
6.85471017534302e-12
-1.95427306470766e-12
9.38020112459372e-12
-3.25151082339985e-12
1.14518784539497e-11
-2.99427033032341e-12
6.99786115836239e-12
6.42551486627211e-12
1.41706506140447e-11
-3.98337718776803e-12
1.82894558600789e-11
-8.60048237739645e-12
1.16703714354169e-11
-8.09529320174848e-12
-2.68053082791052e-12
-6.54037405294358e-12
-4.14157952427804e-12
-5.08310427333839e-12
-2.82910756962512e-12
-3.93088179588509e-12
-1.42548775441974e-12
-3.05708890681795e-12
-4.60058178298974e-13
-2.3826524366277e-12
1.37771256183107e-13
-1.84575865350368e-12
5.05333053890966e-13
-1.40715502691289e-12
7.4313212890174e-13
-1.04121452807989e-12
9.06839889767984e-13
-7.31052553347011e-13
1.02614516363622e-12
-4.64995686913108e-13
1.11692564990872e-12
-2.34733632129555e-13
1.18824380329342e-12
-3.41596547115402e-14
1.24557417336327e-12
1.41341384227957e-13
1.2923298727076e-12
2.95384275946133e-13
1.33080434873651e-12
4.30864777539304e-13
1.36258458381061e-12
5.50202317376741e-13
1.38877677898359e-12
6.55466800981079e-13
1.41020837918199e-12
7.4851357808559e-13
1.42747109250103e-12
8.3099198174032e-13
1.44099971552375e-12
9.04474701238495e-13
1.45116791553078e-12
9.70434420825301e-13
1.45819009949795e-12
1.030349322154e-12
1.46223008252401e-12
1.08565582840873e-12
1.46334423009795e-12
1.13784760831011e-12
1.46158731433104e-12
1.18842719691203e-12
1.45690402232285e-12
1.23901712572526e-12
1.44920822971171e-12
1.2913041789818e-12
1.43832579793464e-12
1.34717919590112e-12
1.4239213880048e-12
1.40869661409057e-12
1.40560297360402e-12
1.47821167496551e-12
1.3828451067671e-12
1.5584237708092e-12
1.35483885970201e-12
1.6525852352506e-12
1.32040458567412e-12
1.76464361350027e-12
1.27796297212263e-12
1.89960002116291e-12
1.22521724801706e-12
2.06390298306646e-12
1.15870789133657e-12
2.26625338470481e-12
1.07291890285251e-12
2.51873273820169e-12
9.58516630475627e-13
2.83878884724642e-12
7.99140585706463e-13
3.25275750490945e-12
5.64428708953387e-13
3.80106400676814e-12
1.97457065050604e-13
4.54719422085267e-12
-4.0443883060944e-13
5.57407036815846e-12
-1.37997796910633e-12
6.91943306148579e-12
-2.81647115829397e-12
8.41433317582944e-12
-4.24310939781869e-12
8.96678134576597e-12
-3.02593684855669e-12
4.2665498185082e-12
1.1617057191377e-11
1.87310961998408e-11
-3.9440786812556e-12
2.26778700641509e-11
-5.90887468833916e-12
1.41838050790517e-11
-6.24316027461062e-12
-1.82399171993834e-12
-5.6913989933771e-12
-4.19747052195443e-12
-4.83939905598173e-12
-3.20526462175236e-12
-3.98306178851165e-12
-1.81878898322306e-12
-3.24144071332127e-12
-7.46121736380222e-13
-2.62386551193518e-12
-2.87940951301267e-14
-2.11132593153209e-12
4.40586890111082e-13
-1.68315662709463e-12
7.60065487047135e-13
-1.32156958282788e-12
9.87871110625255e-13
-1.01293426594954e-12
1.15769731285199e-12
-7.46974245133611e-13
1.28870630391129e-12
-5.15971204545073e-13
1.39243628745319e-12
-3.14045012485921e-13
1.4761613456069e-12
-1.36650933862577e-13
1.54457572316326e-12
1.98306048236341e-14
1.60090307238491e-12
1.58336813584855e-13
1.64739389795489e-12
2.81341413452352e-13
1.68566143812373e-12
3.90956969906982e-13
1.7168972465576e-12
4.89080251740267e-13
1.7419701134434e-12
5.77400147717811e-13
1.76153108214642e-12
6.57530249662423e-13
1.77609673103512e-12
7.30967410757716e-13
1.78600252623008e-12
7.9921696982831e-13
1.7914705485262e-12
8.63730480964968e-13
1.79260887544268e-12
9.26017609822198e-13
1.78947664246584e-12
9.87598272782233e-13
1.7819985069793e-12
1.05010337660765e-12
1.77003368883553e-12
1.11525813585565e-12
1.75329574928296e-12
1.1849598278115e-12
1.73132633766185e-12
1.26128167947728e-12
1.70353426826076e-12
1.34660482731313e-12
1.66912741057428e-12
1.44364629582857e-12
1.62693646762005e-12
1.55564788098383e-12
1.57529957425951e-12
1.68649781008545e-12
1.5119801694265e-12
1.84107476097794e-12
1.43375341160327e-12
2.02550935634116e-12
1.33593177718988e-12
2.24780396819468e-12
1.21122686244638e-12
2.51851183925365e-12
1.04781136198046e-12
2.85152037803175e-12
8.26096192796059e-13
3.2648026614824e-12
5.11702305484256e-13
3.77922307234032e-12
4.50420331731834e-14
4.41397442884034e-12
-6.74241521618202e-13
5.16300767092152e-12
-1.75787611925493e-12
5.91918454551087e-12
-3.18881218061864e-12
6.42551443907416e-12
-4.34381421925787e-12
6.1307852515283e-12
-2.30568707689322e-12
4.09442314871404e-12
1.40547361553925e-11
2.30582321221787e-11
-3.5662970098613e-12
2.6616373523849e-11
-4.35630500092657e-12
1.54109930662424e-11
-4.9980253233634e-12
-7.83052454731789e-13
-4.90144977287033e-12
-3.92052500247367e-12
-4.3957817862771e-12
-3.3553403214534e-12
-3.75935050542995e-12
-2.11097158336652e-12
-3.14977561429012e-12
-1.01796229616123e-12
-2.61273284916875e-12
-2.31935021022945e-13
-2.15227648111059e-12
3.11381333581946e-13
-1.75998091592181e-12
6.96772031420073e-13
-1.42461584005795e-12
9.79359688877233e-13
-1.13604545863678e-12
1.19380416059078e-12
-8.85959018124971e-13
1.36104996398642e-12
-6.67782431861348e-13
1.49431492209381e-12
-4.76321522449217e-13
1.60223291069791e-12
-3.07465134015025e-13
1.69053914342475e-12
-1.57876148561232e-13
1.76324209542686e-12
-2.48151160238246e-14
1.8231743979344e-12
9.4052927457877e-14
1.8723968567524e-12
2.00728441822394e-13
1.91243716057998e-12
2.97018272332104e-13
1.94441706403407e-12
3.84526800292774e-13
1.96919712253767e-12
4.64793408534963e-13
1.98742330479272e-12
5.39250711447078e-13
1.99954117881024e-12
6.09329033435846e-13
2.00583869385757e-12
6.76406017328947e-13
2.00647453572419e-12
7.41920662669777e-13
2.00150562280489e-12
8.07316398615925e-13
1.99084219321561e-12
8.74144736555278e-13
1.97428871595123e-12
9.44045607560306e-13
1.95145387973663e-12
1.01881633386993e-12
1.92176768309782e-12
1.10042021853935e-12
1.88445037851311e-12
1.19110289841492e-12
1.83846692427662e-12
1.29341356549696e-12
1.78232069327554e-12
1.41035511520957e-12
1.71393522459411e-12
1.54548826984133e-12
1.63050339884241e-12
1.70320599860262e-12
1.52802349530231e-12
1.88889154858559e-12
1.40083498073218e-12
2.10932389606634e-12
1.24033587104081e-12
2.37297299600757e-12
1.03304859001805e-12
2.69001876888848e-12
7.57755001192726e-13
3.07146496010616e-12
3.79294561407917e-13
3.5251062203976e-12
-1.58528412233271e-13
4.0456533333988e-12
-9.42430989588601e-13
4.58932388504707e-12
-2.04401162221445e-12
5.01026147900632e-12
-3.34084389463162e-12
5.07361954339266e-12
-4.11777196531726e-12
4.4594525765736e-12
-1.38329833451151e-12
3.62220140868147e-12
1.51816747800584e-11
2.68389182017403e-11
-2.66748624147556e-12
2.95697600259856e-11
-3.56911815516368e-12
1.66290150759232e-11
-4.29249946645692e-12
2.17377394532871e-13
-4.32268042002944e-12
-3.63509429534104e-12
-3.9774391003938e-12
-3.45977675882815e-12
-3.48299716718357e-12
-2.37377692028953e-12
-2.97895716615696e-12
-1.29564072968931e-12
-2.51612101807715e-12
-4.71479280559792e-13
-2.10794644520319e-12
1.24375398401558e-13
-1.75323894788625e-12
5.61373933439284e-13
-1.44577646944021e-12
8.89348182864787e-13
-1.17858815043231e-12
1.14210941320696e-12
-9.45354653322191e-13
1.3412351340392e-12
-7.40754568538872e-13
1.50090505512054e-12
-5.6039765161488e-13
1.63067960929122e-12
-4.00697798398019e-13
1.73706679144976e-12
-2.58672396272922e-13
1.82469359827212e-12
-1.31829375758993e-13
1.89687194121684e-12
-1.80167047178829e-14
1.95604328684184e-12
8.46275287117729e-14
2.0040283884575e-12
1.77792287910777e-13
2.04217863431705e-12
2.62989313340041e-13
2.07153711043122e-12
3.4166924867303e-13
2.09287333360276e-12
4.15190164602845e-13
2.1067277480092e-12
4.84899171304155e-13
2.11346109786209e-12
5.52102166548393e-13
2.11326943245917e-12
6.18156008260126e-13
2.10621603537843e-12
6.84423244770263e-13
2.09219591646561e-12
7.52377234355239e-13
2.07095365741787e-12
8.23554908590168e-13
2.04201767623134e-12
8.9965185533459e-13
2.00470409924505e-12
9.82496329930954e-13
1.95807773814915e-12
1.07417535855605e-12
1.90088292941142e-12
1.17703924417799e-12
1.831335821047e-12
1.29381078191179e-12
1.74702411296654e-12
1.42767387092095e-12
1.64466504967507e-12
1.58245014145427e-12
1.51966703876024e-12
1.76268424309627e-12
1.36565460089026e-12
1.97385353867279e-12
1.17316000067965e-12
2.22235387540882e-12
9.27807401094552e-13
2.51508496781784e-12
6.07929518536984e-13
2.85781838469409e-12
1.79504060974628e-13
3.2506994517405e-12
-4.07914065689359e-13
3.67836765116218e-12
-1.22510805307123e-12
4.0910636819191e-12
-2.30788507626233e-12
4.36066884603233e-12
-3.45242444574341e-12
4.30650342595328e-12
-3.88811067217842e-12
3.60642991107147e-12
-4.9126812230894e-13
2.68290596564823e-12
1.62824567267353e-11
2.96105100640181e-11
-1.80077917062119e-12
3.15607344073122e-11
-3.06356671554693e-12
1.80819001408552e-11
-3.77679355917658e-12
1.08613233216961e-12
-3.84549781109382e-12
-3.42598292650208e-12
-3.59602159705631e-12
-3.57859841479382e-12
-3.20732648540483e-12
-2.63831842969374e-12
-2.79023306758327e-12
-1.59244607528734e-12
-2.39224739144174e-12
-7.51464822931013e-13
-2.03104304225818e-12
-1.20460230155473e-13
-1.71031898647295e-12
3.55504073615251e-13
-1.42788787354115e-12
7.20166869277647e-13
-1.17958800459966e-12
1.00529399577968e-12
-9.60975815948299e-13
1.23218379891155e-12
-7.67960719178587e-13
1.41535077876918e-12
-5.9695260606076e-13
1.56486447786311e-12
-4.44903660957731e-13
1.68775259379875e-12
-3.09187878049614e-13
1.78908470986043e-12
-1.87569535384541e-13
1.8725528621429e-12
-7.80770998848255e-14
1.94090429444333e-12
2.1014583943194e-14
1.99620768339485e-12
1.11284888825206e-13
2.04001554339635e-12
1.9416010203626e-13
2.07352890809398e-12
2.71014509364709e-13
2.09762899805397e-12
3.43134241861687e-13
2.11294664915534e-12
4.11801709006643e-13
2.11990492162738e-12
4.78259557788346e-13
2.11873683613735e-12
5.43802117869903e-13
2.10950863900948e-12
6.09725232553346e-13
2.092104184801e-12
6.77430456939215e-13
2.06621105266477e-12
7.48366661703966e-13
2.03129466079524e-12
8.24137345371532e-13
1.98655894428077e-12
9.06448615951844e-13
1.93094460994224e-12
9.9724252136387e-13
1.862995882299e-12
1.09866679085945e-12
1.78070021402568e-12
1.21317842738965e-12
1.68137006830009e-12
1.34357993425961e-12
1.56135904182455e-12
1.49313530571285e-12
1.41565721423342e-12
1.66556682242696e-12
1.23742817658406e-12
1.86509584794071e-12
1.01675515485791e-12
2.09619667499016e-12
7.39008424999839e-13
2.36291104512402e-12
3.82980488630313e-13
2.66692314924643e-12
-8.30202429158943e-14
3.00343770610533e-12
-7.0289887834786e-13
3.35296795872572e-12
-1.53246336490929e-12
3.66885928130367e-12
-2.57926870185153e-12
3.85120215757627e-12
-3.58366885804909e-12
3.76292025389535e-12
-3.73536440992808e-12
3.07246450305925e-12
2.75533535293388e-13
1.80103567432489e-12
1.761890993016e-11
3.14304514942872e-11
-1.20982842445888e-12
3.28706380210323e-11
-2.6222101614913e-12
1.95718891988938e-11
-3.29164678213575e-12
1.80816431241514e-12
-3.40185993768612e-12
-3.27137269791417e-12
-3.23397355138774e-12
-3.70740519438344e-12
-2.93498582835144e-12
-2.90220786371298e-12
-2.59312260783635e-12
-1.9017771080155e-12
-2.2527256099058e-12
-1.06093944521607e-12
-1.93400184214561e-12
-4.09493714442189e-13
-1.64430520702857e-12
9.425496946562e-14
-1.38474701506772e-12
4.87652513722676e-13
-1.15361954453206e-12
7.995994466819e-13
-9.48181187452771e-13
1.05037816058694e-12
-7.65499900274267e-13
1.25430724666782e-12
-6.0276098947266e-13
1.4215922955062e-12
-4.57445222063116e-13
1.55954130753267e-12
-3.27282257717759e-13
1.673496608699e-12
-2.10292156378463e-13
1.76743345605336e-12
-1.04686199951239e-13
1.84433094184941e-12
-8.87221959924157e-15
1.90645668374231e-12
7.86215381038527e-14
1.95553650754765e-12
1.59140314412502e-13
1.99290252470922e-12
2.33986897546178e-13
2.01953660725485e-12
3.04383582540153e-13
2.03615152862564e-12
3.71557668504327e-13
2.0432226359924e-12
4.3669414284776e-13
2.04102145502176e-12
5.01028703738405e-13
2.02961747628826e-12
5.65800872920733e-13
2.00887991388377e-12
6.32345034442597e-13
1.97845007733825e-12
7.02033908815042e-13
1.93773906202666e-12
7.76381970778185e-13
1.88585006278003e-12
8.56982951789625e-13
1.82162329103526e-12
9.45637375031285e-13
1.74343162952206e-12
1.04429709877069e-12
1.64908742882815e-12
1.15516149527123e-12
1.53568780770483e-12
1.28065765870108e-12
1.39933940146341e-12
1.42351511690547e-12
1.23476551070244e-12
1.58666704738499e-12
1.03491514197528e-12
1.7731736712089e-12
7.89779236472778e-13
1.9857886095815e-12
4.85013518132539e-13
2.22610692760579e-12
1.00569295928941e-13
2.49256866933594e-12
-3.92147654800538e-13
2.77688683596393e-12
-1.03030853246308e-12
3.05753638984126e-12
-1.85632642119517e-12
3.29113510733767e-12
-2.85511826744935e-12
3.39943258758296e-12
-3.730216518026e-12
3.26936741832796e-12
-3.63464468042671e-12
2.61989663927776e-12
9.03128774547114e-13
1.20175484969251e-12
1.90055549598275e-11
3.25943276668023e-11
-8.63017928316351e-13
3.37520966581641e-11
-2.21102407391628e-12
2.08997507787518e-11
-2.8265628535333e-12
2.38942059631667e-12
-2.98317381578643e-12
-3.15024425689804e-12
-2.88800704469186e-12
-3.83914473709176e-12
-2.6662596137067e-12
-3.16218525708221e-12
-2.39003553042239e-12
-2.21762497953792e-12
-2.10119368934878e-12
-1.39042742039012e-12
-1.82145727682062e-12
-7.30777831131161e-13
-1.56083708842331e-12
-2.08935285194998e-13
-1.32303923002086e-12
2.06046868383352e-13
-1.10840484565665e-12
5.39677757720932e-13
-9.15688342353058e-13
8.10682104790332e-13
-7.43017387455275e-13
1.03275585278785e-12
-5.88310514431926e-13
1.21592160753666e-12
-4.49552740977047e-13
1.36754416262621e-12
-3.24837361663775e-13
1.49310204869061e-12
-2.12433315602874e-13
1.59673953429835e-12
-1.10738394224135e-13
1.68160637756577e-12
-1.82974751424322e-14
1.75011863669101e-12
6.62541844938473e-14
1.80414475249559e-12
1.44177428127091e-13
1.84512452300958e-12
2.16703595054618e-13
1.87412579960145e-12
2.84991479460027e-13
1.89193500777783e-12
3.50210107726145e-13
1.89907339581967e-12
4.13491266590287e-13
1.89584529827408e-12
4.76013193504887e-13
1.88232617191407e-12
5.38959729345448e-13
1.858369355334e-12
6.03598820525131e-13
1.82357909884707e-12
6.71231483752511e-13
1.77731702372139e-12
7.43275524834749e-13
1.71860972732409e-12
8.21219191237699e-13
1.64620653547895e-12
9.0671585295188e-13
1.55834965194291e-12
1.00152661100482e-12
1.45271920159421e-12
1.10759411446513e-12
1.3262623142551e-12
1.2269831512674e-12
1.17494147843918e-12
1.3619111435369e-12
9.93358288587051e-13
1.51458025682972e-12
7.74457291377928e-13
1.6869990091541e-12
5.0844426365649e-13
1.8804266092447e-12
1.8168402575531e-13
2.0944454029048e-12
-2.24218862013996e-13
2.32500845706251e-12
-7.34314575599904e-13
2.56142700587265e-12
-1.37917191414843e-12
2.78121820242132e-12
-2.18935941451657e-12
2.9435802512182e-12
-3.13099223021359e-12
2.9851644488727e-12
-3.88376007629861e-12
2.80551170834384e-12
-3.56253589239381e-12
2.20331228062847e-12
1.39984944463037e-12
8.4860982863241e-13
2.02468274310916e-11
3.33566341340051e-11
-6.63927398091303e-13
3.43704942152816e-11
-1.84712006376816e-12
2.19905291552671e-11
-2.40606997973009e-12
2.8524945492537e-12
-2.59881642035558e-12
-3.04906258410426e-12
-2.56287969579707e-12
-3.96452934546033e-12
-2.40515612367489e-12
-3.40921154753707e-12
-2.18524220012307e-12
-2.52732381800592e-12
-1.94219460187751e-12
-1.72383779533199e-12
-1.69823543460021e-12
-1.06576211426457e-12
-1.46508223198765e-12
-5.33977230142532e-13
-1.24833057054801e-12
-1.03708068779802e-13
-1.04995171439455e-12
2.4691855372936e-13
-8.69965197278262e-13
5.34710685645658e-13
-7.07425579476359e-13
7.7240874045453e-13
-5.60928968938167e-13
9.69607971492339e-13
-4.28937697097004e-13
1.13353374437008e-12
-3.09894226690231e-13
1.26967466205015e-12
-2.02315461987019e-13
1.38224457707819e-12
-1.04785190217836e-13
1.47450175051234e-12
-1.59921302788668e-14
1.54896824454594e-12
6.532218417213e-14
1.60761688528786e-12
1.40325827468713e-13
1.65198092940181e-12
2.10176026173382e-13
1.68319443190129e-12
2.75969374387877e-13
1.70210518641202e-12
3.38808625464718e-13
1.70928326103705e-12
3.99773573678343e-13
1.70505125796747e-12
4.59982437712155e-13
1.68949751991888e-12
5.20560169680783e-13
1.662458187922e-12
5.82703275588659e-13
1.62351218528892e-12
6.47641737756747e-13
1.57197083414701e-12
7.16693682232442e-13
1.50681323403187e-12
7.91241175761216e-13
1.42670328741877e-12
8.7278579638786e-13
1.32979758716451e-12
9.62904527423467e-13
1.21367722522718e-12
1.0632823260664e-12
1.07521108338678e-12
1.17563868884503e-12
9.10303868819287e-13
1.30170872335913e-12
7.1356794403934e-13
1.44303556178843e-12
4.78114095277877e-13
1.60070765340417e-12
1.94612326097784e-13
1.77473966408932e-12
-1.49553847797748e-13
1.96314335849295e-12
-5.70819656451536e-13
2.16008698388906e-12
-1.09049817394264e-12
2.35343705510928e-12
-1.73292593250119e-12
2.52066908014913e-12
-2.51831021077001e-12
2.62377277110525e-12
-3.39705482589972e-12
2.61049553544996e-12
-4.03401917067528e-12
2.39029798576555e-12
-3.50564359133565e-12
1.83553998352997e-12
1.78894737766788e-12
6.44053966861623e-13
2.12652535765903e-11
3.38813130717758e-11
-5.40471330497966e-13
3.48181646775897e-11
-1.54024146418494e-12
2.28473584848574e-11
-2.04277934938825e-12
3.21738763264406e-12
-2.25493742663879e-12
-2.9659066344695e-12
-2.26286836238019e-12
-4.0810239515334e-12
-2.15592372029694e-12
-3.63906509563595e-12
-1.9832221868742e-12
-2.82272116359841e-12
-1.78026812544816e-12
-2.04973152572486e-12
-1.56883191676712e-12
-1.40062345341756e-12
-1.3614783804942e-12
-8.65499936364783e-13
-1.16504899146796e-12
-4.25322829309362e-13
-9.82730688073059e-13
-6.18747926693574e-14
-8.15561354598615e-13
2.3954157458815e-13
-6.63386146557342e-13
4.90485488102023e-13
-5.25395452052335e-13
6.99931515045007e-13
-4.00492774237741e-13
8.74815650370927e-13
-2.87446387671934e-13
1.02052276786366e-12
-1.85018471376458e-13
1.14125759745937e-12
-9.19762872636511e-14
1.2403239559898e-12
-7.15212467938677e-15
1.32031062070114e-12
7.06002560604843e-14
1.38326221960521e-12
1.42360049270118e-13
1.43078166294759e-12
2.09200669841549e-13
1.46406301813785e-12
2.72152299802737e-13
1.48399754227568e-12
3.32253350320436e-13
1.49120144550651e-12
3.90523416445327e-13
1.486010047769e-12
4.48019764270694e-13
1.4685256257122e-12
5.0580286411006e-13
1.43856954686463e-12
5.64996747643452e-13
1.39570268406237e-12
6.2675453162383e-13
1.33919099126085e-12
6.92293454683906e-13
1.26798839731894e-12
7.62884913134744e-13
1.18068364030616e-12
8.39884243717384e-13
1.07538329900103e-12
9.24684426955188e-13
9.49606364215809e-13
1.01872277502302e-12
8.00206637939277e-13
1.12339450307327e-12
6.23106673706229e-13
1.23999476863654e-12
4.13041785423574e-13
1.36948923935611e-12
1.63421816789478e-13
1.51219188637174e-12
-1.34431254997678e-13
1.66712681401507e-12
-4.91909819401169e-13
1.83114640539488e-12
-9.23334048765626e-13
1.99728235787457e-12
-1.44631737365165e-12
2.15277002125596e-12
-2.07949147857943e-12
2.27584114579506e-12
-2.83415393291264e-12
2.33192005019555e-12
-3.64791375236377e-12
2.27777193374941e-12
-4.1770378251274e-12
2.03385368190583e-12
-3.46239067967909e-12
1.52562603675347e-12
2.08951003229847e-12
5.16147037696381e-13
2.20603046703507e-11
3.42551731075801e-11
-4.54255127418005e-13
3.51514589166984e-11
-1.28759443816054e-12
2.35112573457e-11
-1.73531316597851e-12
3.50743245139437e-12
-1.95156058917774e-12
-2.89615189223301e-12
-1.9893511489436e-12
-4.18374108712196e-12
-1.92118126743659e-12
-3.84538538923798e-12
-1.78722572140412e-12
-3.09417157338455e-12
-1.61884430091605e-12
-2.35564045638939e-12
-1.4366113800436e-12
-1.72075996463215e-12
-1.25323351831731e-12
-1.18744893110703e-12
-1.07625027366099e-12
-7.41823887687921e-13
-9.09682745544785e-13
-3.69182030035024e-13
-7.55340197293887e-13
-5.70000024494321e-14
-6.13711353915338e-13
2.04973239097608e-13
-4.844965256291e-13
4.24958905782662e-13
-3.66993658395856e-13
6.09489698106075e-13
-2.60269762411053e-13
7.63752218696102e-13
-1.63318788184474e-13
8.91875400642172e-13
-7.5082887276139e-14
9.97152225819575e-13
5.46343127146221e-15
1.08220489668903e-12
7.9350611787933e-14
1.14912263444588e-12
1.47565417766338e-13
1.19955434999898e-12
2.11099243178776e-13
1.23474288756022e-12
2.70907967194916e-13
1.25561467623785e-12
3.27967710810553e-13
1.26281858426973e-12
3.83228651437097e-13
1.25671094996057e-12
4.3768692826277e-13
1.23739750612777e-12
4.92332619041127e-13
1.20469453181011e-12
5.48219232888774e-13
1.15814414059524e-12
6.06412695570245e-13
1.0969830781761e-12
6.68038920060042e-13
1.02014460087528e-12
7.34248278932065e-13
9.26171761713022e-13
8.06259108532187e-13
8.13136027285586e-13
8.85278406678508e-13
6.78544219591468e-13
9.72518951708495e-13
5.19272747521428e-13
1.06907547368567e-12
3.31337311207009e-13
1.17585392456619e-12
1.09682700385453e-13
1.29332985043417e-12
-1.51884428384422e-13
1.42119096556639e-12
-4.61259065062378e-13
1.55771801290524e-12
-8.28499344872745e-13
1.69897619345543e-12
-1.26577344283992e-12
1.8374054660307e-12
-1.78719770941582e-12
1.96025477420818e-12
-2.40631606968547e-12
2.04714086295685e-12
-3.12693468682002e-12
2.0674575374852e-12
-3.87665427328438e-12
1.98548092667992e-12
-4.30730796661412e-12
1.73380983782208e-12
-3.42959363376812e-12
1.27114677154852e-12
2.32291918581869e-12
4.26501091631079e-13
2.26687951611809e-11
3.45290347348778e-11
-3.87266230095426e-13
3.54044152347188e-11
-1.08025542461514e-12
2.40254985576823e-11
-1.47592054883071e-12
3.74001769252952e-12
-1.68519744879047e-12
-2.83742984402275e-12
-1.74147731920632e-12
-4.27129297892362e-12
-1.7019236910396e-12
-4.02594611943781e-12
-1.59915792464945e-12
-3.33702883180699e-12
-1.46017781603958e-12
-2.63461799582698e-12
-1.30386032825386e-12
-2.01738345277357e-12
-1.14252293428116e-12
-1.48970666823923e-12
-9.83950508073324e-13
-1.04220826530789e-12
-8.32668640808091e-13
-6.63437679490878e-13
-6.91037220279097e-13
-3.43001937599212e-13
-5.60042030483109e-13
-7.20124055329564e-14
-4.39803680544489e-13
1.5692132328492e-13
-3.29957116557322e-13
3.49847147601153e-13
-2.29837583239309e-13
5.11684012149629e-13
-1.38652505427537e-13
6.46431332775616e-13
-5.55122215635862e-14
7.57325946698624e-13
2.04718714447638e-14
8.46991780366623e-13
9.02185123381901e-14
9.17536716752556e-13
1.54618389337652e-13
9.70639430900178e-13
2.14582391528717e-13
1.00757521116947e-12
2.70985271113555e-13
1.02930547870772e-12
3.2473966381116e-13
1.03649381252823e-12
3.76722957437021e-13
1.02952574856162e-12
4.27867430111448e-13
1.00850089547873e-12
4.79091523463331e-13
9.73238262094136e-13
5.31376487710899e-13
9.23260719514778e-13
5.85697355657197e-13
8.5779484690022e-13
6.43088446205489e-13
7.75752367049343e-13
7.04578958535888e-13
6.75660867214757e-13
7.71257163643696e-13
5.55565139029742e-13
8.44155839995355e-13
4.1300426523617e-13
9.24279054036567e-13
2.4491091922748e-13
1.0124528411655e-12
4.74537208678026e-14
1.10924879568373e-12
-1.84148153431613e-13
1.21474411581222e-12
-4.55629661051241e-13
1.32814591682156e-12
-7.74022859690891e-13
1.44721374973386e-12
-1.14801317516594e-12
1.5675483486689e-12
-1.58767553973348e-12
1.68142935123679e-12
-2.10393323188548e-12
1.77660703656279e-12
-2.70590883613541e-12
1.83449716734287e-12
-3.3912525934654e-12
1.82868098652363e-12
-4.08012435896799e-12
1.72967429188376e-12
-4.4224794491598e-12
1.48227698908869e-12
-3.40545538354855e-12
1.06379351586856e-12
2.50462151898214e-12
3.57669826531844e-13
2.31312112704473e-11
3.47313019133845e-11
-3.3168879824363e-13
3.56016534336913e-11
-9.08863257956416e-13
2.44297436983444e-11
-1.2557540011377e-12
3.9314560134424e-12
-1.45105875935156e-12
-2.78498855465861e-12
-1.51715782005604e-12
-4.34131367963176e-12
-1.49799665260421e-12
-4.17829931604012e-12
-1.41990728282932e-12
-3.5473072276405e-12
-1.30563731268273e-12
-2.88093627460963e-12
-1.17208099105021e-12
-2.2832704907719e-12
-1.03080641980392e-12
-1.76389825689199e-12
-8.89500053161246e-13
-1.31728518391078e-12
-7.52917488091527e-13
-9.3490544601945e-13
-6.23766354448538e-13
-6.08381310252912e-13
-5.03393777720802e-13
-3.30175835219254e-13
-3.92253120380101e-13
-9.37590951087234e-14
-2.90257046238143e-13
1.06376442995994e-13
-1.96975105837039e-13
2.74840077663524e-13
-1.11802393122776e-13
4.1545449991176e-13
-3.40114932334562e-14
5.31374357389499e-13
3.71604922170308e-14
6.25188862562864e-13
1.02520682107136e-13
6.99009507381335e-13
1.62864821904808e-13
7.54527821958759e-13
2.19020891203308e-13
7.93038545169694e-13
2.71787051954472e-13
8.15531543159151e-13
3.22001866202829e-13
8.22681527176924e-13
3.70475363546311e-13
8.14896383718439e-13
4.18069456682645e-13
7.9227183614586e-13
4.65629479579796e-13
7.5463223837907e-13
5.14058976821811e-13
7.01485113762478e-13
5.64247943758705e-13
6.32053559726819e-13
6.17134727553191e-13
5.45238925076383e-13
6.73638752191703e-13
4.39566762095558e-13
7.347141539839e-13
3.13079562223463e-13
8.01238675220269e-13
1.63369127036112e-13
8.74024261018824e-13
-1.25382149526552e-14
9.53669188736865e-13
-2.18285239873297e-13
1.04046877444838e-12
-4.5833071567777e-13
1.13418108610958e-12
-7.37908150013668e-13
1.23367075492707e-12
-1.06316349321601e-12
1.33637273139735e-12
-1.44142574361564e-12
1.4376977719086e-12
-1.88080738440231e-12
1.53008931542267e-12
-2.3893856142945e-12
1.602135253757e-12
-2.97253267100705e-12
1.63727402635738e-12
-3.62295713967945e-12
1.61318368440606e-12
-4.25559311114412e-12
1.50551865350293e-12
-4.51997209641807e-12
1.27029188787902e-12
-3.38621789137501e-12
8.94378690477874e-13
2.64914073624541e-12