/*--------------------------------*- C++ -*----------------------------------*\
  =========                 |
  \\      /  F ield         | OpenFOAM: The Open Source CFD Toolbox
   \\    /   O peration     | Website:  https://openfoam.org
    \\  /    A nd           | Version:  10
     \\/     M anipulation  |
\*---------------------------------------------------------------------------*/
FoamFile
{
    format      ascii;
    class       volScalarField;
    location    "3";
    object      rho;
}
// * * * * * * * * * * * * * * * * * * * * * * * * * * * * * * * * * * * * * //

dimensions      [1 -3 0 0 0 0 0];

internalField   nonuniform List<scalar> 
2500
(
1.14224096695805
1.14236793359144
1.1424608463627
1.14249895419954
1.1425126937882
1.14251746810135
1.14251906276667
1.14251957187685
1.1425197295002
1.1425197754725
1.14251979405939
1.14251980218281
1.14251980621501
1.14251981070127
1.14251981481958
1.14251981932156
1.14251982169071
1.14251982459113
1.14251982788369
1.14251983023441
1.14251983243993
1.14251983463029
1.14251983654313
1.14251983741441
1.14251983834254
1.1425198395208
1.14251983989444
1.14251984024479
1.14251984054012
1.142519840201
1.14251983976781
1.14251983917986
1.14251983785258
1.14251983606168
1.14251983437641
1.14251983260337
1.14251983054401
1.1425198286127
1.1425198241749
1.14251981715453
1.1425197992305
1.14251974406957
1.14251956706421
1.14251901214047
1.14251733539398
1.14251250145999
1.14249882993417
1.14246080472524
1.14236657597942
1.14224142780376
1.14909169196864
1.14945465628933
1.14971594889536
1.14983394237447
1.14988203325032
1.1499006873334
1.14990751457536
1.14990984189749
1.14991057887909
1.1499107957616
1.14991085813082
1.14991087572517
1.1499108805136
1.14991088306337
1.14991088499118
1.14991088687698
1.14991088794819
1.14991088921822
1.14991089071478
1.14991089192173
1.149910893314
1.14991089501507
1.14991089661613
1.14991089718173
1.14991089756524
1.1499108983555
1.14991089851029
1.14991089867177
1.14991089919997
1.14991089875911
1.14991089856695
1.14991089894768
1.14991089740839
1.14991089525258
1.14991089428781
1.14991089361259
1.14991089253634
1.14991089062118
1.14991088393673
1.14991086216762
1.14991078598663
1.14991052784
1.14990970043454
1.14990720827178
1.14990017416378
1.14988147993007
1.14983383806464
1.14971608168928
1.14944993165776
1.14908803696637
1.15467474752075
1.15509253065812
1.15538164993961
1.15551300942294
1.15556662824719
1.15558747279925
1.15559514537365
1.15559778288109
1.15559862499349
1.15559887476158
1.15559894543147
1.15559896424785
1.1555989681303
1.15559896930335
1.15559896984823
1.15559897020512
1.15559897037434
1.15559897062874
1.1555989710881
1.15559897150197
1.1555989721564
1.15559897316171
1.15559897424603
1.15559897473052
1.15559897488437
1.15559897531275
1.15559897527939
1.15559897525565
1.15559897561656
1.15559897532205
1.15559897531389
1.15559897579833
1.1555989745975
1.15559897282002
1.15559897278595
1.15559897308306
1.15559897242943
1.15559897091485
1.15559896462463
1.15559894135833
1.15559885735336
1.1555985696584
1.1555976464972
1.15559486860617
1.15558703748332
1.15556620641687
1.15551298396307
1.15538130321678
1.15508537441104
1.15465883296132
1.15830097080203
1.15862657799776
1.15882617576757
1.15891442552635
1.15894887679453
1.15896174704301
1.15896636207574
1.15896792747518
1.15896842481961
1.15896857228967
1.1589686141603
1.15896862499313
1.15896862668899
1.15896862698743
1.1589686269326
1.15896862685431
1.15896862677146
1.15896862675094
1.1589686268271
1.15896862687182
1.15896862704065
1.1589686274899
1.15896862810574
1.15896862846991
1.15896862851921
1.15896862858076
1.15896862855345
1.15896862839855
1.15896862831727
1.15896862834108
1.15896862841181
1.15896862873857
1.15896862815952
1.15896862725384
1.15896862727926
1.1589686274029
1.15896862743556
1.15896862715402
1.15896862394132
1.15896861134553
1.15896856492771
1.15896840277487
1.1589678745627
1.15896625666091
1.15896158569262
1.15894873169762
1.15891437894638
1.15882532071525
1.15861979069127
1.15827997054039
1.16028006859793
1.16047887721457
1.16058693113252
1.1606335940591
1.16065116912563
1.16065751893206
1.16065974782942
1.16066049753716
1.1606607358418
1.16066080685295
1.16066082723461
1.16066083238487
1.16066083292226
1.16066083291165
1.16066083278719
1.16066083266336
1.16066083254445
1.16066083245666
1.16066083242901
1.16066083241901
1.16066083244477
1.16066083258872
1.16066083286972
1.16066083304225
1.16066083299093
1.16066083294273
1.16066083292529
1.1606608328329
1.16066083280679
1.16066083282597
1.16066083283825
1.16066083305878
1.16066083280667
1.16066083242479
1.16066083244117
1.16066083244412
1.16066083249933
1.16066083257025
1.16066083138175
1.16066082587004
1.16066080478237
1.16066073021987
1.1606604852409
1.1606597263544
1.16065749546917
1.16065117815862
1.16063362848498
1.16058631619061
1.16047422451045
1.16026243618336
1.16122108874573
1.16132303150506
1.16137251077918
1.16139347691715
1.16140116666124
1.16140387199386
1.1614048053402
1.16140511759269
1.16140521716845
1.16140524705942
1.16140525573291
1.16140525788334
1.16140525802368
1.1614052579581
1.16140525786332
1.16140525777996
1.16140525769783
1.16140525763183
1.16140525759697
1.16140525758003
1.16140525756955
1.1614052576132
1.16140525771867
1.1614052577711
1.16140525773675
1.16140525770386
1.16140525768667
1.16140525763884
1.16140525762357
1.16140525763012
1.16140525763722
1.16140525774189
1.16140525764459
1.16140525750838
1.16140525751895
1.16140525751536
1.16140525756317
1.16140525763223
1.16140525726466
1.16140525514681
1.16140524666508
1.16140521650472
1.16140511708998
1.16140480735156
1.16140388514767
1.16140121284667
1.16139355123305
1.16137224233252
1.16132049619856
1.16120976583034
1.16162114744887
1.1616668861751
1.16168691296077
1.16169526241739
1.16169826729256
1.16169930293522
1.16169965522191
1.16169977263947
1.16169981024641
1.16169982163172
1.16169982496071
1.16169982576644
1.16169982579551
1.16169982574771
1.16169982569445
1.16169982564973
1.16169982560644
1.1616998255714
1.16169982554931
1.16169982553861
1.16169982552596
1.16169982553644
1.16169982557111
1.16169982557596
1.16169982555687
1.16169982554379
1.16169982553343
1.16169982551247
1.16169982550365
1.16169982550438
1.1616998255073
1.16169982554914
1.16169982551538
1.16169982547353
1.16169982547964
1.16169982547955
1.16169982550781
1.16169982554714
1.16169982545476
1.16169982470342
1.16169982157233
1.16169981043992
1.16169977377929
1.1616996594102
1.1616993161013
1.16169830329243
1.16169532597752
1.16168683762122
1.16166572342928
1.16161511102038
1.1617761568912
1.16179460470303
1.16180197860468
1.16180500566412
1.16180608070735
1.16180644555445
1.16180656823094
1.161806608997
1.16180662211104
1.16180662611487
1.16180662728832
1.16180662756368
1.16180662756736
1.16180662754223
1.16180662751633
1.16180662749495
1.16180662747517
1.16180662745903
1.16180662744746
1.1618066274413
1.16180662743316
1.16180662743375
1.16180662744166
1.16180662743689
1.16180662742797
1.16180662742216
1.16180662741679
1.16180662740822
1.16180662740173
1.16180662740211
1.16180662740402
1.16180662741651
1.16180662740536
1.16180662739389
1.16180662739669
1.16180662739718
1.16180662741014
1.16180662742429
1.16180662740406
1.16180662715666
1.16180662607732
1.16180662224819
1.16180660968807
1.16180657058653
1.16180645270327
1.16180610025204
1.16180504387735
1.16180197121562
1.16179413940344
1.16177335932577
1.16183168921734
1.16183850608147
1.16184102570791
1.16184204344587
1.16184240152795
1.16184252170178
1.16184256172785
1.16184257499181
1.16184257927441
1.16184258059121
1.16184258097606
1.16184258106287
1.16184258106146
1.16184258104972
1.16184258103787
1.16184258102804
1.16184258101923
1.16184258101181
1.16184258100576
1.16184258100182
1.16184258099731
1.16184258099535
1.16184258099505
1.16184258099078
1.16184258098619
1.16184258098277
1.16184258097954
1.16184258097551
1.16184258097173
1.16184258097075
1.16184258097031
1.16184258097324
1.16184258096911
1.16184258096578
1.16184258096641
1.16184258096628
1.16184258097096
1.16184258097592
1.1618425809718
1.16184258089303
1.16184258054105
1.16184257929741
1.1618425752422
1.1618425626746
1.1618425247398
1.16184241025478
1.16184206205048
1.16184103222784
1.1618383397317
1.16183052859114
1.16185028333432
1.16185262369586
1.16185343407897
1.1618537557012
1.16185386808987
1.16185390551658
1.16185391788713
1.16185392197463
1.16185392329745
1.16185392370587
1.16185392382405
1.16185392384899
1.16185392384688
1.16185392384128
1.16185392383563
1.16185392383076
1.16185392382634
1.16185392382234
1.16185392381871
1.16185392381584
1.16185392381289
1.1618539238105
1.16185392380835
1.16185392380528
1.1618539238024
1.16185392379982
1.16185392379733
1.16185392379471
1.16185392379214
1.1618539237905
1.16185392378912
1.16185392378882
1.16185392378661
1.16185392378495
1.16185392378436
1.16185392378361
1.16185392378458
1.16185392378577
1.16185392378452
1.16185392375998
1.16185392365026
1.16185392326541
1.16185392201954
1.161853918182
1.16185390661288
1.16185387149153
1.16185376351773
1.16185343957787
1.16185256972079
1.16184984348946
1.16185614555721
1.16185690010158
1.16185714795482
1.16185724445779
1.16185727799773
1.16185728911038
1.16185729276102
1.16185729396315
1.1618572943521
1.1618572944719
1.16185729450554
1.16185729451145
1.16185729450942
1.16185729450626
1.16185729450305
1.16185729450009
1.16185729449727
1.16185729449455
1.16185729449191
1.16185729448947
1.16185729448705
1.16185729448474
1.16185729448243
1.16185729447995
1.16185729447756
1.16185729447528
1.16185729447303
1.16185729447081
1.16185729446864
1.16185729446677
1.16185729446505
1.16185729446371
1.16185729446203
1.16185729446049
1.16185729445923
1.16185729445816
1.16185729445767
1.16185729445735
1.16185729445645
1.16185729444867
1.16185729441558
1.16185729430127
1.16185729393451
1.1618572928129
1.161857289442
1.16185727917802
1.16185724738431
1.16185715077352
1.16185688403221
1.16185599101975
1.16185788900441
1.16185811938067
1.16185819200001
1.16185821970599
1.16185822928905
1.16185823245414
1.1618582334886
1.16185823382751
1.16185823393645
1.16185823396925
1.16185823397753
1.16185823397789
1.16185823397599
1.16185823397371
1.16185823397138
1.1618582339691
1.16185823396684
1.16185823396457
1.16185823396229
1.16185823396004
1.1618582339578
1.16185823395556
1.16185823395332
1.16185823395105
1.16185823394882
1.16185823394662
1.16185823394446
1.16185823394234
1.16185823394028
1.16185823393834
1.1618582339365
1.1618582339348
1.16185823393312
1.16185823393153
1.16185823393011
1.16185823392887
1.16185823392785
1.16185823392698
1.16185823392605
1.16185823392325
1.16185823391333
1.16185823388044
1.1618582337764
1.16185823346093
1.16185823251707
1.1618582296412
1.16185822068755
1.16185819315847
1.16185811494548
1.16185783808267
1.16185837111953
1.16185843818023
1.16185845867257
1.16185846632884
1.16185846896417
1.16185846983257
1.16185847011476
1.16185847020618
1.16185847023475
1.16185847024252
1.16185847024355
1.16185847024237
1.16185847024054
1.16185847023857
1.16185847023654
1.16185847023449
1.16185847023241
1.1618584702303
1.16185847022815
1.16185847022598
1.1618584702238
1.16185847022161
1.16185847021941
1.1618584702172
1.16185847021502
1.16185847021285
1.16185847021072
1.16185847020863
1.16185847020659
1.16185847020463
1.16185847020274
1.16185847020095
1.16185847019923
1.16185847019761
1.16185847019613
1.16185847019477
1.16185847019356
1.1618584701925
1.16185847019152
1.16185847019015
1.16185847018693
1.16185847017755
1.1618584701489
1.16185847006316
1.16185846980814
1.16185846903194
1.16185846660723
1.16185845906799
1.16185843701854
1.16185835522359
1.16185848505952
1.16185850377331
1.16185850936479
1.1618585114103
1.16185851211033
1.16185851234014
1.16185851241391
1.16185851243698
1.16185851244337
1.16185851244423
1.16185851244327
1.1618585124417
1.16185851243991
1.16185851243804
1.16185851243612
1.16185851243415
1.16185851243214
1.16185851243008
1.16185851242798
1.16185851242585
1.16185851242369
1.16185851242152
1.16185851241934
1.16185851241715
1.16185851241498
1.16185851241283
1.1618585124107
1.16185851240862
1.16185851240658
1.16185851240461
1.16185851240271
1.16185851240089
1.16185851239915
1.16185851239751
1.16185851239598
1.16185851239457
1.1618585123933
1.16185851239216
1.16185851239115
1.16185851239015
1.16185851238879
1.16185851238592
1.16185851237811
1.16185851235547
1.16185851228881
1.16185851208637
1.16185851145236
1.16185850945894
1.16185850345742
1.16185848030247
1.16185849599171
1.1618585010207
1.16185850250024
1.16185850303014
1.16185850320988
1.16185850326814
1.16185850328607
1.16185850329089
1.16185850329138
1.16185850329042
1.16185850328896
1.1618585032873
1.16185850328554
1.16185850328372
1.16185850328184
1.16185850327991
1.16185850327792
1.16185850327589
1.16185850327381
1.1618585032717
1.16185850326955
1.16185850326739
1.16185850326522
1.16185850326304
1.16185850326088
1.16185850325873
1.16185850325661
1.16185850325452
1.16185850325249
1.16185850325051
1.16185850324859
1.16185850324676
1.16185850324501
1.16185850324335
1.1618585032418
1.16185850324036
1.16185850323905
1.16185850323787
1.16185850323684
1.16185850323592
1.16185850323503
1.16185850323389
1.16185850323162
1.16185850322572
1.16185850320883
1.16185850315774
1.16185850299724
1.16185850248664
1.16185850090437
1.16185849459487
1.16185847917241
1.16185848047861
1.16185848085904
1.16185848099217
1.16185848103642
1.16185848105004
1.16185848105349
1.16185848105361
1.16185848105261
1.16185848105121
1.16185848104964
1.16185848104798
1.16185848104625
1.16185848104445
1.1618584810426
1.16185848104068
1.16185848103871
1.16185848103669
1.16185848103463
1.16185848103253
1.1618584810304
1.16185848102824
1.16185848102608
1.16185848102391
1.16185848102174
1.1618584810196
1.16185848101747
1.16185848101539
1.16185848101335
1.16185848101136
1.16185848100945
1.1618584810076
1.16185848100584
1.16185848100417
1.1618584810026
1.16185848100114
1.1618584809998
1.1618584809986
1.16185848099753
1.16185848099661
1.16185848099582
1.16185848099509
1.16185848099422
1.16185848099259
1.16185848098841
1.16185848097595
1.16185848093658
1.16185848080959
1.16185848040447
1.16185847874339
1.1618584551256
1.16185845545435
1.16185845554947
1.16185845558165
1.16185845559166
1.16185845559404
1.16185845559387
1.16185845559285
1.1618584555915
1.16185845559002
1.16185845558845
1.16185845558681
1.1618584555851
1.16185845558333
1.1618584555815
1.1618584555796
1.16185845557765
1.16185845557564
1.16185845557359
1.1618584555715
1.16185845556937
1.16185845556723
1.16185845556506
1.1618584555629
1.16185845556074
1.16185845555859
1.16185845555647
1.16185845555439
1.16185845555234
1.16185845555035
1.16185845554843
1.16185845554657
1.1618584555448
1.16185845554311
1.16185845554153
1.16185845554005
1.16185845553869
1.16185845553746
1.16185845553637
1.16185845553542
1.16185845553462
1.16185845553396
1.1618584555334
1.1618584555328
1.16185845553172
1.16185845552878
1.16185845551944
1.16185845548874
1.16185845538779
1.16185845496412
1.16185842925323
1.16185842933341
1.16185842935648
1.16185842936368
1.1618584293653
1.16185842936496
1.16185842936396
1.16185842936269
1.16185842936131
1.16185842935983
1.16185842935829
1.16185842935668
1.161858429355
1.16185842935325
1.16185842935143
1.16185842934956
1.16185842934762
1.16185842934562
1.16185842934358
1.1618584293415
1.16185842933938
1.16185842933724
1.16185842933509
1.16185842933292
1.16185842933077
1.16185842932862
1.1618584293265
1.16185842932441
1.16185842932237
1.16185842932037
1.16185842931844
1.16185842931658
1.16185842931479
1.16185842931309
1.16185842931149
1.16185842930999
1.16185842930861
1.16185842930735
1.16185842930623
1.16185842930525
1.16185842930442
1.16185842930374
1.16185842930322
1.16185842930281
1.16185842930243
1.16185842930172
1.16185842929958
1.16185842929234
1.16185842926778
1.16185842916301
1.16185840293241
1.16185840295121
1.16185840295656
1.16185840295777
1.16185840295743
1.16185840295651
1.16185840295535
1.16185840295408
1.16185840295271
1.16185840295128
1.16185840294977
1.16185840294819
1.16185840294653
1.16185840294481
1.16185840294301
1.16185840294115
1.16185840293922
1.16185840293724
1.16185840293521
1.16185840293314
1.16185840293103
1.1618584029289
1.16185840292675
1.16185840292459
1.16185840292244
1.16185840292029
1.16185840291817
1.16185840291608
1.16185840291403
1.16185840291203
1.16185840291009
1.16185840290822
1.16185840290642
1.16185840290471
1.16185840290309
1.16185840290157
1.16185840290017
1.16185840289888
1.16185840289773
1.16185840289671
1.16185840289584
1.16185840289512
1.16185840289456
1.16185840289415
1.16185840289388
1.16185840289363
1.16185840289312
1.1618584028914
1.16185840288551
1.16185840286051
1.16185837650424
1.16185837650829
1.16185837650942
1.16185837650928
1.16185837650854
1.16185837650753
1.16185837650639
1.16185837650516
1.16185837650384
1.16185837650244
1.16185837650097
1.16185837649942
1.16185837649779
1.16185837649609
1.16185837649432
1.16185837649247
1.16185837649056
1.16185837648859
1.16185837648657
1.16185837648451
1.16185837648241
1.16185837648028
1.16185837647814
1.16185837647599
1.16185837647383
1.16185837647169
1.16185837646957
1.16185837646748
1.16185837646543
1.16185837646342
1.16185837646147
1.16185837645959
1.16185837645778
1.16185837645605
1.16185837645442
1.16185837645288
1.16185837645145
1.16185837645014
1.16185837644895
1.1618583764479
1.16185837644698
1.16185837644622
1.16185837644561
1.16185837644515
1.16185837644484
1.16185837644464
1.16185837644443
1.16185837644393
1.16185837644246
1.16185837643687
1.16185835005099
1.1618583500516
1.16185835005178
1.16185835005138
1.16185835005061
1.16185835004963
1.16185835004855
1.16185835004737
1.1618583500461
1.16185835004475
1.16185835004332
1.1618583500418
1.1618583500402
1.16185835003852
1.16185835003677
1.16185835003494
1.16185835003304
1.16185835003109
1.16185835002908
1.16185835002703
1.16185835002494
1.16185835002282
1.16185835002068
1.16185835001853
1.16185835001638
1.16185835001424
1.16185835001212
1.16185835001002
1.16185835000797
1.16185835000596
1.161858350004
1.16185835000211
1.16185835000029
1.16185834999855
1.16185834999689
1.16185834999533
1.16185834999388
1.16185834999254
1.16185834999132
1.16185834999023
1.16185834998927
1.16185834998845
1.16185834998779
1.16185834998727
1.1618583499869
1.16185834998665
1.16185834998645
1.16185834998616
1.16185834998568
1.16185834998467
1.16185832359205
1.16185832359189
1.16185832359189
1.16185832359149
1.16185832359076
1.16185832358985
1.16185832358883
1.1618583235877
1.16185832358649
1.16185832358518
1.16185832358378
1.1618583235823
1.16185832358073
1.16185832357907
1.16185832357734
1.16185832357553
1.16185832357365
1.16185832357171
1.16185832356971
1.16185832356767
1.16185832356558
1.16185832356347
1.16185832356134
1.16185832355919
1.16185832355705
1.16185832355491
1.16185832355279
1.16185832355069
1.16185832354863
1.16185832354661
1.16185832354465
1.16185832354275
1.16185832354091
1.16185832353916
1.16185832353749
1.16185832353591
1.16185832353443
1.16185832353306
1.1618583235318
1.16185832353067
1.16185832352967
1.16185832352881
1.16185832352808
1.1618583235275
1.16185832352706
1.16185832352674
1.16185832352649
1.16185832352619
1.16185832352589
1.16185832352592
1.16185829713185
1.16185829713155
1.16185829713154
1.16185829713119
1.16185829713053
1.16185829712968
1.16185829712872
1.16185829712766
1.16185829712649
1.16185829712523
1.16185829712387
1.16185829712242
1.16185829712087
1.16185829711924
1.16185829711753
1.16185829711574
1.16185829711388
1.16185829711195
1.16185829710997
1.16185829710793
1.16185829710586
1.16185829710375
1.16185829710162
1.16185829709948
1.16185829709734
1.1618582970952
1.16185829709308
1.16185829709098
1.16185829708892
1.1618582970869
1.16185829708492
1.16185829708301
1.16185829708117
1.16185829707939
1.1618582970777
1.1618582970761
1.1618582970746
1.1618582970732
1.16185829707191
1.16185829707074
1.1618582970697
1.16185829706878
1.161858297068
1.16185829706736
1.16185829706685
1.16185829706646
1.16185829706613
1.16185829706578
1.16185829706548
1.16185829706572
1.16185827067141
1.1618582706711
1.16185827067112
1.16185827067084
1.16185827067023
1.16185827066946
1.16185827066856
1.16185827066755
1.16185827066644
1.16185827066522
1.1618582706639
1.16185827066248
1.16185827066096
1.16185827065936
1.16185827065767
1.16185827065589
1.16185827065405
1.16185827065213
1.16185827065016
1.16185827064814
1.16185827064607
1.16185827064397
1.16185827064185
1.16185827063972
1.16185827063757
1.16185827063544
1.16185827063332
1.16185827063122
1.16185827062915
1.16185827062712
1.16185827062514
1.16185827062322
1.16185827062136
1.16185827061957
1.16185827061786
1.16185827061624
1.16185827061471
1.16185827061328
1.16185827061196
1.16185827061075
1.16185827060966
1.1618582706087
1.16185827060786
1.16185827060715
1.16185827060657
1.16185827060611
1.16185827060572
1.16185827060531
1.16185827060496
1.16185827060522
1.16185824421094
1.16185824421064
1.16185824421071
1.16185824421048
1.16185824420994
1.16185824420923
1.1618582442084
1.16185824420744
1.16185824420638
1.1618582442052
1.16185824420392
1.16185824420253
1.16185824420105
1.16185824419947
1.1618582441978
1.16185824419604
1.16185824419421
1.16185824419232
1.16185824419036
1.16185824418834
1.16185824418629
1.16185824418419
1.16185824418208
1.16185824417995
1.16185824417781
1.16185824417567
1.16185824417355
1.16185824417145
1.16185824416938
1.16185824416734
1.16185824416535
1.16185824416342
1.16185824416155
1.16185824415975
1.16185824415802
1.16185824415637
1.16185824415482
1.16185824415336
1.161858244152
1.16185824415076
1.16185824414962
1.16185824414861
1.16185824414771
1.16185824414694
1.1618582441463
1.16185824414577
1.16185824414531
1.16185824414483
1.16185824414444
1.16185824414468
1.16185821775046
1.16185821775019
1.1618582177503
1.16185821775014
1.16185821774966
1.16185821774901
1.16185821774824
1.16185821774734
1.16185821774632
1.16185821774519
1.16185821774395
1.16185821774259
1.16185821774114
1.16185821773958
1.16185821773794
1.1618582177362
1.16185821773439
1.16185821773251
1.16185821773056
1.16185821772856
1.16185821772651
1.16185821772442
1.16185821772231
1.16185821772019
1.16185821771805
1.16185821771592
1.16185821771379
1.16185821771169
1.16185821770961
1.16185821770757
1.16185821770558
1.16185821770363
1.16185821770175
1.16185821769993
1.16185821769818
1.16185821769652
1.16185821769494
1.16185821769345
1.16185821769206
1.16185821769077
1.16185821768959
1.16185821768852
1.16185821768757
1.16185821768674
1.16185821768603
1.16185821768543
1.16185821768491
1.16185821768437
1.16185821768393
1.16185821768414
1.16185819128999
1.16185819128974
1.1618581912899
1.16185819128979
1.16185819128938
1.16185819128879
1.16185819128808
1.16185819128723
1.16185819128627
1.16185819128518
1.16185819128397
1.16185819128266
1.16185819128123
1.1618581912797
1.16185819127808
1.16185819127636
1.16185819127456
1.1618581912727
1.16185819127076
1.16185819126877
1.16185819126673
1.16185819126465
1.16185819126255
1.16185819126042
1.16185819125829
1.16185819125616
1.16185819125404
1.16185819125193
1.16185819124985
1.1618581912478
1.1618581912458
1.16185819124384
1.16185819124195
1.16185819124011
1.16185819123835
1.16185819123666
1.16185819123505
1.16185819123353
1.16185819123211
1.16185819123078
1.16185819122956
1.16185819122844
1.16185819122743
1.16185819122654
1.16185819122577
1.1618581912251
1.16185819122451
1.16185819122391
1.16185819122342
1.16185819122361
1.16185816482951
1.16185816482929
1.16185816482949
1.16185816482945
1.1618581648291
1.16185816482857
1.16185816482791
1.16185816482712
1.16185816482621
1.16185816482516
1.161858164824
1.16185816482271
1.16185816482132
1.16185816481981
1.16185816481821
1.16185816481652
1.16185816481474
1.16185816481288
1.16185816481096
1.16185816480898
1.16185816480695
1.16185816480488
1.16185816480278
1.16185816480066
1.16185816479853
1.1618581647964
1.16185816479428
1.16185816479217
1.16185816479008
1.16185816478803
1.16185816478602
1.16185816478405
1.16185816478214
1.16185816478029
1.16185816477851
1.1618581647768
1.16185816477517
1.16185816477362
1.16185816477216
1.16185816477079
1.16185816476952
1.16185816476835
1.16185816476729
1.16185816476634
1.1618581647655
1.16185816476477
1.16185816476411
1.16185816476345
1.16185816476292
1.16185816476307
1.16185813836903
1.16185813836883
1.16185813836907
1.16185813836909
1.1618581383688
1.16185813836834
1.16185813836774
1.161858138367
1.16185813836613
1.16185813836514
1.16185813836401
1.16185813836276
1.16185813836139
1.16185813835992
1.16185813835834
1.16185813835666
1.1618581383549
1.16185813835306
1.16185813835115
1.16185813834918
1.16185813834716
1.1618581383451
1.161858138343
1.16185813834089
1.16185813833876
1.16185813833663
1.16185813833451
1.1618581383324
1.16185813833031
1.16185813832825
1.16185813832623
1.16185813832425
1.16185813832233
1.16185813832046
1.16185813831866
1.16185813831693
1.16185813831527
1.16185813831369
1.16185813831219
1.16185813831079
1.16185813830947
1.16185813830826
1.16185813830714
1.16185813830613
1.16185813830522
1.16185813830442
1.1618581383037
1.16185813830297
1.1618581383024
1.16185813830252
1.16185811190852
1.16185811190835
1.16185811190864
1.16185811190872
1.16185811190849
1.16185811190809
1.16185811190755
1.16185811190687
1.16185811190605
1.16185811190509
1.16185811190401
1.16185811190279
1.16185811190146
1.1618581119
1.16185811189845
1.16185811189679
1.16185811189505
1.16185811189322
1.16185811189132
1.16185811188936
1.16185811188735
1.1618581118853
1.16185811188321
1.1618581118811
1.16185811187898
1.16185811187685
1.16185811187472
1.16185811187261
1.16185811187052
1.16185811186845
1.16185811186642
1.16185811186444
1.1618581118625
1.16185811186062
1.1618581118588
1.16185811185704
1.16185811185536
1.16185811185375
1.16185811185222
1.16185811185077
1.16185811184942
1.16185811184815
1.16185811184697
1.1618581118459
1.16185811184493
1.16185811184406
1.16185811184328
1.16185811184249
1.16185811184186
1.16185811184196
1.16185808544798
1.16185808544784
1.16185808544818
1.16185808544832
1.16185808544815
1.16185808544781
1.16185808544734
1.16185808544671
1.16185808544594
1.16185808544503
1.16185808544398
1.1618580854428
1.16185808544149
1.16185808544007
1.16185808543853
1.1618580854369
1.16185808543517
1.16185808543336
1.16185808543148
1.16185808542953
1.16185808542752
1.16185808542548
1.1618580854234
1.16185808542129
1.16185808541917
1.16185808541704
1.16185808541491
1.1618580854128
1.1618580854107
1.16185808540863
1.1618580854066
1.1618580854046
1.16185808540265
1.16185808540075
1.16185808539891
1.16185808539713
1.16185808539543
1.16185808539379
1.16185808539222
1.16185808539074
1.16185808538933
1.16185808538802
1.16185808538679
1.16185808538566
1.16185808538462
1.16185808538368
1.16185808538283
1.16185808538197
1.1618580853813
1.16185808538136
1.1618580589874
1.16185805898729
1.16185805898768
1.16185805898789
1.16185805898779
1.16185805898751
1.1618580589871
1.16185805898652
1.1618580589858
1.16185805898493
1.16185805898393
1.16185805898278
1.1618580589815
1.1618580589801
1.16185805897859
1.16185805897698
1.16185805897527
1.16185805897347
1.1618580589716
1.16185805896966
1.16185805896767
1.16185805896563
1.16185805896355
1.16185805896145
1.16185805895933
1.16185805895721
1.16185805895508
1.16185805895296
1.16185805895086
1.16185805894879
1.16185805894674
1.16185805894473
1.16185805894277
1.16185805894086
1.161858058939
1.1618580589372
1.16185805893547
1.1618580589338
1.1618580589322
1.16185805893068
1.16185805892923
1.16185805892786
1.16185805892658
1.16185805892538
1.16185805892428
1.16185805892328
1.16185805892236
1.16185805892143
1.1618580589207
1.16185805892073
1.16185803252677
1.1618580325267
1.16185803252714
1.16185803252742
1.16185803252739
1.16185803252717
1.16185803252682
1.1618580325263
1.16185803252563
1.16185803252481
1.16185803252384
1.16185803252272
1.16185803252148
1.16185803252011
1.16185803251862
1.16185803251702
1.16185803251533
1.16185803251355
1.16185803251169
1.16185803250976
1.16185803250777
1.16185803250574
1.16185803250367
1.16185803250158
1.16185803249946
1.16185803249733
1.16185803249521
1.16185803249309
1.16185803249098
1.1618580324889
1.16185803248685
1.16185803248483
1.16185803248286
1.16185803248093
1.16185803247905
1.16185803247723
1.16185803247547
1.16185803247377
1.16185803247214
1.16185803247058
1.16185803246909
1.16185803246767
1.16185803246633
1.16185803246508
1.16185803246391
1.16185803246283
1.16185803246185
1.16185803246084
1.16185803246006
1.16185803246005
1.16185800606608
1.16185800606605
1.16185800606655
1.16185800606691
1.16185800606694
1.1618580060668
1.1618580060665
1.16185800606604
1.16185800606542
1.16185800606464
1.16185800606371
1.16185800606263
1.16185800606141
1.16185800606007
1.1618580060586
1.16185800605702
1.16185800605535
1.16185800605358
1.16185800605173
1.16185800604982
1.16185800604784
1.16185800604582
1.16185800604375
1.16185800604166
1.16185800603955
1.16185800603742
1.16185800603529
1.16185800603317
1.16185800603107
1.16185800602898
1.16185800602692
1.16185800602489
1.1618580060229
1.16185800602096
1.16185800601907
1.16185800601722
1.16185800601544
1.16185800601371
1.16185800601205
1.16185800601045
1.16185800600891
1.16185800600745
1.16185800600605
1.16185800600474
1.1618580060035
1.16185800600235
1.16185800600129
1.16185800600021
1.16185800599937
1.16185800599932
1.16185797960532
1.16185797960534
1.16185797960591
1.16185797960635
1.16185797960644
1.16185797960637
1.16185797960614
1.16185797960572
1.16185797960515
1.16185797960442
1.16185797960353
1.16185797960248
1.1618579796013
1.16185797959997
1.16185797959853
1.16185797959697
1.16185797959531
1.16185797959356
1.16185797959173
1.16185797958982
1.16185797958785
1.16185797958584
1.16185797958378
1.16185797958169
1.16185797957958
1.16185797957746
1.16185797957533
1.16185797957321
1.1618579795711
1.161857979569
1.16185797956694
1.1618579795649
1.1618579795629
1.16185797956094
1.16185797955903
1.16185797955717
1.16185797955536