/*--------------------------------*- C++ -*----------------------------------*\
  =========                 |
  \\      /  F ield         | OpenFOAM: The Open Source CFD Toolbox
   \\    /   O peration     | Website:  https://openfoam.org
    \\  /    A nd           | Version:  10
     \\/     M anipulation  |
\*---------------------------------------------------------------------------*/
FoamFile
{
    format      ascii;
    class       volScalarField;
    location    "3";
    object      T;
}
// * * * * * * * * * * * * * * * * * * * * * * * * * * * * * * * * * * * * * //

dimensions      [0 0 0 1 0 0 0];

internalField   nonuniform List<scalar> 
2500
(
305.152479752419
305.118564080063
305.093749742934
305.083573400068
305.079904537469
305.078629679963
305.078203867775
305.078067923659
305.078025834309
305.078013558229
305.078008594636
305.078006425003
305.078005347802
305.078004149348
305.078003049133
305.078001846459
305.078001213287
305.078000438244
305.077999558486
305.077998930212
305.077998340707
305.077997755248
305.077997243892
305.07799701066
305.077996762251
305.07799644706
305.07799634673
305.077996252633
305.077996173242
305.077996263284
305.077996378467
305.077996534998
305.077996888976
305.077997366777
305.077997816409
305.077998289511
305.077998839107
305.077999354553
305.07800053933
305.078002413752
305.078007199737
305.078021928833
305.078069193118
305.07821737006
305.078665099498
305.079955877285
305.083606565926
305.093760845073
305.118926671983
305.152356619048
303.333196268943
303.237412480209
303.168496595692
303.137386099713
303.124708154114
303.119790761128
303.117991075135
303.117377589098
303.117183319709
303.11712614889
303.11710970785
303.117105069474
303.117103806736
303.117103134096
303.117102625394
303.117102127753
303.117101844831
303.11710150949
303.117101114427
303.117100795702
303.11710042812
303.117099979136
303.117099556514
303.117099406843
303.117099305175
303.117099096296
303.117099054939
303.117099011829
303.117098872071
303.117098987773
303.117099037939
303.117098937119
303.11709934244
303.11709991031
303.117100164251
303.117100341903
303.117100625304
303.117101129885
303.117102891694
303.117108629873
303.117128711097
303.117196758619
303.117414863361
303.118071801472
303.119926019062
303.124854000401
303.137413582675
303.168461562258
303.238658872304
303.334161089424
301.866520078237
301.757338574342
301.68182771181
301.647532322254
301.633535737667
301.628094854629
301.626092194435
301.625403770195
301.625183968101
301.625118775171
301.625100329011
301.625095417221
301.625094403352
301.625094096657
301.625093953912
301.625093860223
301.625093815506
301.625093748549
301.625093628086
301.625093519492
301.625093348103
301.625093085127
301.62509280153
301.625092674497
301.625092633769
301.625092521394
301.62509252955
301.625092535206
301.62509244048
301.625092516845
301.625092518491
301.625092391587
301.625092704583
301.625093168122
301.625093176644
301.625093098759
301.625093269065
301.625093664132
301.625095305739
301.625101378348
301.62512330452
301.62519839628
301.625439352663
301.626164418689
301.628208463362
301.633645830094
301.647538951815
301.681918227734
301.759208072839
301.870680660263
300.921477869305
300.836910329798
300.785093777207
300.76218940048
300.753248851443
300.749908991822
300.748711397851
300.74830518096
300.748176121357
300.748137852948
300.748126987199
300.748124175634
300.748123735065
300.74812365711
300.748123670814
300.748123690597
300.748123711552
300.748123716324
300.748123696
300.748123683829
300.748123639445
300.748123522294
300.748123361909
300.748123266835
300.748123253473
300.748123236941
300.748123243476
300.748123283135
300.748123303704
300.748123297021
300.748123278183
300.748123192931
300.74812334276
300.748123577378
300.748123570409
300.748123537989
300.748123529214
300.748123602013
300.748124435479
300.748127703867
300.748139748993
300.748181826989
300.748318896195
300.748738736927
300.749950846006
300.753286488394
300.762201472247
300.785315698001
300.838672644478
300.926933726389
300.408187178552
300.35672244397
300.32875838454
300.316683755748
300.312136234103
300.310493264925
300.309916556921
300.309722576706
300.309660917241
300.309642543342
300.309637269314
300.309635936252
300.309635796713
300.309635798951
300.309635830633
300.309635862142
300.309635892369
300.309635914532
300.309635921129
300.309635923152
300.309635915917
300.309635878097
300.309635804819
300.309635759605
300.309635772319
300.30963578423
300.309635788193
300.30963581156
300.309635817795
300.309635812326
300.309635808666
300.309635751148
300.309635815946
300.309635914348
300.309635909737
300.309635908636
300.309635894049
300.309635875439
300.309636182731
300.309637608658
300.309643064758
300.309662356993
300.309725742898
300.309922097616
300.310499319627
300.312133880443
300.316674831309
300.328917498257
300.35792665111
300.412752440562
300.164738197922
300.1383892647
300.125602126501
300.120184086856
300.118196962876
300.117497877729
300.11725669214
300.117176002916
300.117150271224
300.11714254668
300.117140304905
300.117139748734
300.117139711978
300.117139728417
300.117139752394
300.117139773406
300.117139794092
300.117139810598
300.117139819051
300.117139822864
300.117139825005
300.117139813152
300.117139785326
300.11713977121
300.117139779518
300.117139787459
300.117139791353
300.117139803175
300.1171398066
300.117139804404
300.117139802086
300.117139774577
300.117139799286
300.117139834078
300.117139830972
300.117139831561
300.117139818901
300.117139800792
300.117139895553
300.117140442646
300.117142634268
300.117150427883
300.117176117486
300.117256156634
300.117494462549
300.118185011669
300.12016486595
300.125671482551
300.139044487108
300.167665076788
300.061355564523
300.049541140379
300.044368465403
300.042211954483
300.041435857855
300.041168373512
300.041077385222
300.041047058436
300.041037344951
300.04103440392
300.041033543649
300.041033335067
300.04103332707
300.041033338914
300.041033352157
300.041033363181
300.041033373826
300.041033382331
300.04103338748
300.041033389684
300.041033392383
300.041033389108
300.041033379581
300.04103337776
300.041033382126
300.041033384946
300.041033387072
300.041033391948
300.041033393706
300.041033393013
300.041033391774
300.041033380507
300.04103338879
300.041033399191
300.041033397238
300.041033396917
300.041033389313
300.041033378889
300.041033402523
300.041033596397
300.041034404955
300.041037280126
300.04104674872
300.041076287734
300.041164956898
300.041426543468
300.042195521554
300.044387907553
300.049841452034
300.062914841184
300.021313184845
300.016549229527
300.014645038133
300.013863355195
300.013585745553
300.013491530419
300.013459851167
300.01344932368
300.013445936782
300.013444902415
300.013444598927
300.013444527345
300.013444525908
300.013444531899
300.013444538079
300.013444543076
300.013444547652
300.013444551273
300.013444553711
300.013444554742
300.013444556277
300.013444555555
300.013444552944
300.013444553609
300.013444555348
300.01344455629
300.013444557126
300.013444558805
300.013444559959
300.013444559354
300.013444558376
300.01344455469
300.013444557132
300.013444559683
300.013444558583
300.013444558109
300.013444554455
300.013444550531
300.013444555527
300.01344461923
300.013444897812
300.013445886525
300.013449129903
300.013459227138
300.013489668272
300.013580682119
300.013853470719
300.014646929429
300.016669369553
300.022035623233
300.00696616672
300.005205932949
300.004555326116
300.004292530576
300.004200068103
300.004169036958
300.004158701178
300.004155275777
300.004154169491
300.004153829019
300.00415372918
300.004153706292
300.004153706172
300.004153708709
300.004153711261
300.00415371328
300.004153715025
300.0041537164
300.004153717412
300.004153717871
300.004153718471
300.004153718409
300.004153717918
300.004153718453
300.004153719075
300.004153719401
300.004153719688
300.004153720191
300.004153720644
300.004153720393
300.004153720018
300.0041537188
300.004153719426
300.004153719875
300.004153719332
300.004153719017
300.004153717496
300.004153715943
300.004153716774
300.004153736925
300.004153827675
300.004154148712
300.004155195801
300.00415844097
300.004168236393
300.004197798307
300.004287709956
300.004553625773
300.005248870244
300.007265845848
300.002158057113
300.001553751545
300.001344502481
300.00126145599
300.001232435673
300.001222771223
300.001219576555
300.001218520668
300.001218178652
300.00121807274
300.001218041766
300.001218034856
300.001218034922
300.001218035877
300.001218036831
300.001218037573
300.001218038185
300.001218038679
300.001218039067
300.001218039253
300.001218039452
300.001218039505
300.001218039492
300.001218039718
300.001218039899
300.001218040007
300.001218040103
300.001218040241
300.001218040382
300.001218040301
300.00121804017
300.001218039781
300.00121803991
300.001218039927
300.001218039695
300.001218039537
300.00121803897
300.001218038386
300.001218038472
300.001218044616
300.001218072806
300.001218172086
300.001218493751
300.001219484672
300.001222472039
300.001231540926
300.00125942104
300.001343065809
300.001567671555
300.002271612934
300.000637543305
300.00044271365
300.000378715637
300.000353797247
300.000345136479
300.000342266601
300.000341323512
300.000341012662
300.000340911785
300.000340880405
300.000340871262
300.000340869272
300.000340869321
300.000340869649
300.000340869977
300.000340870228
300.00034087043
300.000340870596
300.000340870733
300.000340870808
300.000340870871
300.000340870905
300.000340870934
300.000340871011
300.000340871063
300.000340871097
300.000340871129
300.000340871165
300.000340871203
300.000340871177
300.000340871135
300.000340871014
300.000340871003
300.000340870987
300.000340870925
300.000340870846
300.000340870653
300.000340870453
300.000340870445
300.000340872257
300.000340880652
300.00034091007
300.000341004733
300.000341294366
300.000342164863
300.000344815306
300.000353024943
300.000377971012
300.000446846003
300.000677429255
300.000180539077
300.000121053994
300.000102302816
300.000095148416
300.000092673539
300.000091855809
300.000091588252
300.000091500302
300.000091471736
300.000091462822
300.000091460235
300.000091459683
300.000091459704
300.000091459808
300.000091459912
300.000091459991
300.000091460053
300.000091460105
300.00009146015
300.000091460178
300.000091460199
300.000091460212
300.000091460226
300.000091460249
300.000091460263
300.000091460273
300.000091460284
300.000091460294
300.000091460302
300.000091460294
300.000091460281
300.00009146025
300.000091460241
300.000091460233
300.000091460208
300.000091460172
300.000091460111
300.000091460048
300.000091460041
300.00009146056
300.000091462967
300.000091471356
300.000091498173
300.000091579642
300.000091823442
300.00009256619
300.000094878307
300.000101986869
300.000122182301
300.000193670558
300.000049220812
300.000031905055
300.000026613489
300.000024636131
300.000023955241
300.000023730564
300.000023657265
300.000023633231
300.000023625424
300.000023622983
300.000023622276
300.000023622126
300.000023622132
300.000023622162
300.000023622192
300.000023622215
300.000023622233
300.000023622247
300.000023622261
300.00002362227
300.000023622276
300.000023622281
300.000023622285
300.000023622291
300.000023622294
300.000023622297
300.000023622301
300.000023622303
300.000023622305
300.000023622302
300.000023622298
300.000023622291
300.000023622287
300.000023622284
300.000023622275
300.000023622263
300.000023622245
300.000023622228
300.000023622227
300.000023622372
300.00002362304
300.00002362535
300.00002363269
300.00002365483
300.000023720746
300.000023921312
300.000024547578
300.000026494555
300.000032188107
300.000053308359
300.000012968099
300.000008135895
300.000006691877
300.000006163309
300.000005982158
300.000005922397
300.000005902933
300.000005896563
300.000005894495
300.000005893846
300.000005893657
300.000005893616
300.000005893616
300.000005893623
300.00000589363
300.000005893636
300.00000589364
300.000005893643
300.000005893646
300.000005893649
300.00000589365
300.000005893651
300.000005893652
300.000005893653
300.000005893654
300.000005893654
300.000005893655
300.000005893656
300.000005893656
300.000005893655
300.000005893654
300.000005893653
300.000005893652
300.000005893651
300.000005893648
300.000005893646
300.000005893642
300.000005893638
300.000005893639
300.00000589368
300.00000589386
300.000005894478
300.000005896425
300.000005902256
300.000005919518
300.000005971905
300.000006135765
300.000006650719
300.000008200541
300.000014179491
300.000003312786
300.000002014126
300.00000163187
300.00000149469
300.000001447913
300.000001432474
300.000001427447
300.000001425804
300.000001425269
300.0000014251
300.000001425049
300.000001425036
300.000001425034
300.000001425035
300.000001425035
300.000001425036
300.000001425036
300.000001425036
300.000001425036
300.000001425036
300.000001425036
300.000001425035
300.000001425035
300.000001425035
300.000001425035
300.000001425035
300.000001425035
300.000001425035
300.000001425035
300.000001425035
300.000001425035
300.000001425035
300.000001425035
300.000001425035
300.000001425035
300.000001425035
300.000001425035
300.000001425035
300.000001425037
300.00000142505
300.000001425098
300.00000142526
300.000001425763
300.000001427256
300.000001431647
300.000001444925
300.00000148649
300.000001618521
300.000002027229
300.000003656532
300.000000823156
300.00000048577
300.00000038734
300.000000352648
300.000000340883
300.000000336997
300.000000335729
300.000000335314
300.000000335177
300.000000335132
300.000000335117
300.000000335112
300.000000335109
300.000000335108
300.000000335107
300.000000335105
300.000000335104
300.000000335103
300.000000335102
300.000000335102
300.000000335101
300.0000003351
300.0000003351
300.000000335099
300.000000335099
300.000000335099
300.000000335099
300.000000335099
300.000000335099
300.000000335099
300.000000335099
300.000000335099
300.0000003351
300.0000003351
300.000000335101
300.000000335102
300.000000335103
300.000000335104
300.000000335106
300.000000335111
300.000000335125
300.000000335168
300.000000335296
300.00000033567
300.000000336759
300.000000340035
300.000000350294
300.000000383232
300.000000487962
300.000000916986
300.000000199764
300.000000114782
300.000000090045
300.000000081451
300.000000078554
300.000000077597
300.000000077282
300.000000077178
300.000000077141
300.000000077128
300.000000077122
300.000000077118
300.000000077116
300.000000077114
300.000000077112
300.00000007711
300.000000077109
300.000000077108
300.000000077106
300.000000077105
300.000000077105
300.000000077104
300.000000077103
300.000000077103
300.000000077102
300.000000077102
300.000000077102
300.000000077102
300.000000077102
300.000000077102
300.000000077102
300.000000077103
300.000000077103
300.000000077104
300.000000077105
300.000000077106
300.000000077107
300.000000077109
300.000000077111
300.000000077114
300.000000077119
300.000000077132
300.000000077166
300.000000077259
300.000000077525
300.000000078316
300.000000080793
300.000000088834
300.000000115001
300.000000224493
300.000000047784
300.000000026999
300.000000020887
300.000000018773
300.000000018066
300.000000017832
300.000000017754
300.000000017726
300.000000017714
300.000000017708
300.000000017704
300.000000017701
300.000000017699
300.000000017697
300.000000017695
300.000000017693
300.000000017691
300.00000001769
300.000000017689
300.000000017688
300.000000017687
300.000000017686
300.000000017685
300.000000017685
300.000000017684
300.000000017684
300.000000017684
300.000000017684
300.000000017684
300.000000017684
300.000000017684
300.000000017685
300.000000017685
300.000000017686
300.000000017687
300.000000017688
300.00000001769
300.000000017692
300.000000017694
300.000000017696
300.000000017699
300.000000017705
300.000000017715
300.00000001774
300.000000017805
300.000000017995
300.00000001859
300.00000002054
300.000000026959
300.000000054093
300.000000011626
300.000000006705
300.000000005184
300.000000004642
300.000000004464
300.000000004405
300.000000004383
300.000000004374
300.000000004368
300.000000004364
300.000000004361
300.000000004358
300.000000004356
300.000000004354
300.000000004352
300.00000000435
300.000000004348
300.000000004347
300.000000004345
300.000000004344
300.000000004343
300.000000004342
300.000000004342
300.000000004341
300.000000004341
300.00000000434
300.00000000434
300.00000000434
300.00000000434
300.00000000434
300.000000004341
300.000000004341
300.000000004342
300.000000004343
300.000000004344
300.000000004345
300.000000004346
300.000000004348
300.00000000435
300.000000004352
300.000000004355
300.000000004359
300.000000004364
300.000000004372
300.00000000439
300.000000004438
300.000000004588
300.000000005085
300.000000006665
300.000000013183
300.000000003214
300.000000002112
300.000000001697
300.000000001528
300.000000001475
300.000000001457
300.000000001449
300.000000001444
300.00000000144
300.000000001437
300.000000001434
300.000000001431
300.000000001429
300.000000001426
300.000000001424
300.000000001422
300.000000001421
300.000000001419
300.000000001418
300.000000001417
300.000000001416
300.000000001415
300.000000001414
300.000000001414
300.000000001413
300.000000001413
300.000000001413
300.000000001413
300.000000001413
300.000000001413
300.000000001413
300.000000001414
300.000000001414
300.000000001415
300.000000001416
300.000000001418
300.000000001419
300.000000001421
300.000000001423
300.000000001425
300.000000001428
300.000000001431
300.000000001434
300.000000001439
300.000000001445
300.00000000146
300.000000001508
300.000000001665
300.000000002088
300.000000003581
300.000000001296
300.000000001092
300.000000000938
300.000000000856
300.000000000832
300.000000000824
300.00000000082
300.000000000816
300.000000000812
300.000000000809
300.000000000806
300.000000000803
300.0000000008
300.000000000798
300.000000000796
300.000000000794
300.000000000792
300.000000000791
300.00000000079
300.000000000788
300.000000000787
300.000000000787
300.000000000786
300.000000000785
300.000000000785
300.000000000784
300.000000000784
300.000000000784
300.000000000784
300.000000000784
300.000000000785
300.000000000785
300.000000000786
300.000000000787
300.000000000788
300.000000000789
300.000000000791
300.000000000792
300.000000000794
300.000000000797
300.000000000799
300.000000000802
300.000000000805
300.000000000809
300.000000000813
300.00000000082
300.000000000844
300.000000000924
300.000000001076
300.000000001373
300.000000000867
300.000000000869
300.000000000775
300.000000000714
300.000000000697
300.000000000691
300.000000000687
300.000000000684
300.00000000068
300.000000000677
300.000000000674
300.000000000671
300.000000000669
300.000000000666
300.000000000664
300.000000000662
300.000000000661
300.000000000659
300.000000000658
300.000000000657
300.000000000656
300.000000000655
300.000000000654
300.000000000653
300.000000000653
300.000000000653
300.000000000652
300.000000000652
300.000000000652
300.000000000653
300.000000000653
300.000000000653
300.000000000654
300.000000000655
300.000000000656
300.000000000657
300.000000000659
300.000000000661
300.000000000663
300.000000000665
300.000000000667
300.00000000067
300.000000000673
300.000000000676
300.00000000068
300.000000000685
300.000000000704
300.000000000767
300.000000000855
300.000000000875
300.000000000773
300.000000000821
300.000000000741
300.000000000685
300.000000000668
300.000000000664
300.00000000066
300.000000000657
300.000000000653
300.00000000065
300.000000000647
300.000000000644
300.000000000642
300.000000000639
300.000000000637
300.000000000635
300.000000000634
300.000000000632
300.000000000631
300.00000000063
300.000000000629
300.000000000628
300.000000000627
300.000000000626
300.000000000626
300.000000000626
300.000000000625
300.000000000625
300.000000000625
300.000000000626
300.000000000626
300.000000000626
300.000000000627
300.000000000628
300.000000000629
300.00000000063
300.000000000632
300.000000000634
300.000000000636
300.000000000638
300.00000000064
300.000000000643
300.000000000646
300.000000000649
300.000000000652
300.000000000658
300.000000000675
300.000000000734
300.000000000808
300.000000000764
300.000000000752
300.00000000081
300.000000000734
300.000000000678
300.000000000663
300.000000000658
300.000000000655
300.000000000651
300.000000000648
300.000000000645
300.000000000642
300.000000000639
300.000000000636
300.000000000634
300.000000000632
300.00000000063
300.000000000628
300.000000000627
300.000000000625
300.000000000624
300.000000000623
300.000000000622
300.000000000622
300.000000000621
300.000000000621
300.00000000062
300.00000000062
300.00000000062
300.00000000062
300.00000000062
300.000000000621
300.000000000621
300.000000000622
300.000000000623
300.000000000624
300.000000000625
300.000000000627
300.000000000628
300.00000000063
300.000000000633
300.000000000635
300.000000000638
300.000000000641
300.000000000644
300.000000000647
300.000000000652
300.000000000669
300.000000000727
300.000000000798
300.00000000074
300.000000000748
300.000000000808
300.000000000732
300.000000000677
300.000000000662
300.000000000657
300.000000000654
300.00000000065
300.000000000647
300.000000000644
300.000000000641
300.000000000638
300.000000000635
300.000000000633
300.000000000631
300.000000000629
300.000000000627
300.000000000626
300.000000000624
300.000000000623
300.000000000622
300.000000000621
300.000000000621
300.00000000062
300.00000000062
300.000000000619
300.000000000619
300.000000000619
300.000000000619
300.000000000619
300.00000000062
300.00000000062
300.000000000621
300.000000000622
300.000000000623
300.000000000624
300.000000000626
300.000000000627
300.000000000629
300.000000000632
300.000000000634
300.000000000637
300.00000000064
300.000000000643
300.000000000646
300.000000000651
300.000000000668
300.000000000725
300.000000000796
300.000000000735
300.000000000747
300.000000000808
300.000000000732
300.000000000677
300.000000000661
300.000000000657
300.000000000653
300.00000000065
300.000000000647
300.000000000643
300.00000000064
300.000000000638
300.000000000635
300.000000000633
300.000000000631
300.000000000629
300.000000000627
300.000000000626
300.000000000624
300.000000000623
300.000000000622
300.000000000621
300.00000000062
300.00000000062
300.000000000619
300.000000000619
300.000000000619
300.000000000619
300.000000000619
300.000000000619
300.000000000619
300.00000000062
300.000000000621
300.000000000622
300.000000000623
300.000000000624
300.000000000625
300.000000000627
300.000000000629
300.000000000631
300.000000000634
300.000000000637
300.000000000639
300.000000000643
300.000000000646
300.000000000651
300.000000000668
300.000000000725
300.000000000796
300.000000000734
300.000000000747
300.000000000808
300.000000000732
300.000000000677
300.000000000661
300.000000000657
300.000000000653
300.00000000065
300.000000000646
300.000000000643
300.00000000064
300.000000000637
300.000000000635
300.000000000633
300.00000000063
300.000000000629
300.000000000627
300.000000000625
300.000000000624
300.000000000623
300.000000000622
300.000000000621
300.00000000062
300.00000000062
300.000000000619
300.000000000619
300.000000000619
300.000000000619
300.000000000619
300.000000000619
300.000000000619
300.00000000062
300.000000000621
300.000000000621
300.000000000622
300.000000000624
300.000000000625
300.000000000627
300.000000000629
300.000000000631
300.000000000634
300.000000000636
300.000000000639
300.000000000642
300.000000000646
300.000000000651
300.000000000668
300.000000000725
300.000000000796
300.000000000734
300.000000000747
300.000000000808
300.000000000732
300.000000000677
300.000000000661
300.000000000656
300.000000000653
300.000000000649
300.000000000646
300.000000000643
300.00000000064
300.000000000637
300.000000000634
300.000000000632
300.00000000063
300.000000000628
300.000000000627
300.000000000625
300.000000000624
300.000000000623
300.000000000622
300.000000000621
300.00000000062
300.000000000619
300.000000000619
300.000000000619
300.000000000618
300.000000000618
300.000000000618
300.000000000619
300.000000000619
300.00000000062
300.00000000062
300.000000000621
300.000000000622
300.000000000624
300.000000000625
300.000000000627
300.000000000629
300.000000000631
300.000000000634
300.000000000636
300.000000000639
300.000000000642
300.000000000646
300.000000000651
300.000000000668
300.000000000725
300.000000000796
300.000000000734
300.000000000747
300.000000000808
300.000000000732
300.000000000677
300.000000000661
300.000000000656
300.000000000653
300.000000000649
300.000000000646
300.000000000642
300.000000000639
300.000000000637
300.000000000634
300.000000000632
300.00000000063
300.000000000628
300.000000000626
300.000000000625
300.000000000623
300.000000000622
300.000000000621
300.00000000062
300.00000000062
300.000000000619
300.000000000619
300.000000000618
300.000000000618
300.000000000618
300.000000000618
300.000000000618
300.000000000619
300.000000000619
300.00000000062
300.000000000621
300.000000000622
300.000000000623
300.000000000625
300.000000000626
300.000000000628
300.000000000631
300.000000000633
300.000000000636
300.000000000639
300.000000000642
300.000000000645
300.000000000651
300.000000000668
300.000000000726
300.000000000797
300.000000000735
300.000000000748
300.000000000809
300.000000000733
300.000000000677
300.000000000661
300.000000000656
300.000000000652
300.000000000648
300.000000000645
300.000000000642
300.000000000639
300.000000000636
300.000000000633
300.000000000631
300.000000000629
300.000000000627
300.000000000626
300.000000000624
300.000000000623
300.000000000622
300.000000000621
300.00000000062
300.000000000619
300.000000000619
300.000000000618
300.000000000618
300.000000000618
300.000000000618
300.000000000618
300.000000000618
300.000000000618
300.000000000619
300.000000000619
300.00000000062
300.000000000621
300.000000000623
300.000000000624
300.000000000626
300.000000000628
300.00000000063
300.000000000633
300.000000000636
300.000000000639
300.000000000642
300.000000000645
300.000000000651
300.000000000668
300.000000000726
300.000000000798
300.000000000736
300.000000000749
300.00000000081
300.000000000733
300.000000000677
300.000000000661
300.000000000655
300.000000000651
300.000000000648
300.000000000644
300.000000000641
300.000000000638
300.000000000635
300.000000000632
300.00000000063
300.000000000628
300.000000000626
300.000000000625
300.000000000623
300.000000000622
300.000000000621
300.00000000062
300.000000000619
300.000000000619
300.000000000618
300.000000000618
300.000000000617
300.000000000617
300.000000000617
300.000000000617
300.000000000617
300.000000000618
300.000000000618
300.000000000619
300.00000000062
300.000000000621
300.000000000622
300.000000000624
300.000000000625
300.000000000627
300.00000000063
300.000000000632
300.000000000635
300.000000000638
300.000000000641
300.000000000645
300.000000000651
300.000000000669
300.000000000727
300.000000000799
300.000000000737
300.00000000075
300.000000000811
300.000000000733
300.000000000677
300.00000000066
300.000000000655
300.000000000651
300.000000000647
300.000000000643
300.00000000064
300.000000000637
300.000000000634
300.000000000632
300.000000000629
300.000000000627
300.000000000626
300.000000000624
300.000000000623
300.000000000621
300.00000000062
300.000000000619
300.000000000619
300.000000000618
300.000000000617
300.000000000617
300.000000000617
300.000000000616
300.000000000616
300.000000000616
300.000000000617
300.000000000617
300.000000000618
300.000000000618
300.000000000619
300.00000000062
300.000000000621
300.000000000623
300.000000000625
300.000000000627
300.000000000629
300.000000000631
300.000000000634
300.000000000637
300.000000000641
300.000000000645
300.000000000651
300.000000000669
300.000000000728
300.000000000801
300.000000000739
300.000000000752
300.000000000812
300.000000000734
300.000000000677
300.00000000066
300.000000000654
300.00000000065
300.000000000646
300.000000000642
300.000000000639
300.000000000636
300.000000000633
300.00000000063
300.000000000628
300.000000000626
300.000000000625
300.000000000623
300.000000000622
300.00000000062
300.000000000619
300.000000000618
300.000000000618
300.000000000617
300.000000000617
300.000000000616
300.000000000616
300.000000000616
300.000000000616
300.000000000616
300.000000000616
300.000000000616
300.000000000617
300.000000000617
300.000000000618
300.000000000619
300.000000000621
300.000000000622
300.000000000624
300.000000000626
300.000000000628
300.000000000631
300.000000000634
300.000000000637
300.00000000064
300.000000000644
300.000000000651
300.000000000669
300.000000000729
300.000000000802
300.000000000741
300.000000000754
300.000000000814
300.000000000735
300.000000000677
300.000000000659
300.000000000653
300.000000000649
300.000000000645
300.000000000641
300.000000000637
300.000000000634
300.000000000632
300.000000000629
300.000000000627
300.000000000625
300.000000000623
300.000000000622
300.000000000621
300.000000000619
300.000000000618
300.000000000617
300.000000000617
300.000000000616
300.000000000616
300.000000000615
300.000000000615
300.000000000615
300.000000000615
300.000000000615
300.000000000615
300.000000000615
300.000000000616
300.000000000617
300.000000000617
300.000000000618
300.00000000062
300.000000000621
300.000000000623
300.000000000625
300.000000000627
300.00000000063
300.000000000633
300.000000000636
300.00000000064
300.000000000644
300.000000000651
300.00000000067
300.00000000073
300.000000000805
300.000000000743
300.000000000756
300.000000000816
300.000000000736
300.000000000677
300.000000000659
300.000000000652
300.000000000648
300.000000000643
300.000000000639
300.000000000636
300.000000000633
300.00000000063
300.000000000628
300.000000000626
300.000000000624
300.000000000622
300.000000000621
300.000000000619
300.000000000618
300.000000000617
300.000000000616
300.000000000616
300.000000000615
300.000000000615
300.000000000614
300.000000000614
300.000000000614
300.000000000614
300.000000000614
300.000000000614
300.000000000614
300.000000000615
300.000000000616
300.000000000616
300.000000000617
300.000000000619