/*--------------------------------*- C++ -*----------------------------------*\
  =========                 |
  \\      /  F ield         | OpenFOAM: The Open Source CFD Toolbox
   \\    /   O peration     | Website:  https://openfoam.org
    \\  /    A nd           | Version:  10
     \\/     M anipulation  |
\*---------------------------------------------------------------------------*/
FoamFile
{
    format      ascii;
    class       volVectorField;
    location    "3";
    object      U;
}
// * * * * * * * * * * * * * * * * * * * * * * * * * * * * * * * * * * * * * //

dimensions      [0 1 -1 0 0 0 0];

internalField   nonuniform List<vector> 
2500
(
(-1.6566807689136e-06 -1.25242246175607e-05 1.00084816710378e-24)
(-3.89831114252434e-06 -1.49568865695398e-05 1.11018366355567e-23)
(-2.65779713242271e-06 -1.54202311500615e-05 1.1525179201842e-24)
(-1.75332611230877e-06 -1.53891865118859e-05 3.5521657246086e-25)
(-1.09892554128158e-06 -1.52773751607456e-05 2.84316302344141e-24)
(-6.7538160551803e-07 -1.51906188361732e-05 7.93804295107334e-25)
(-4.27830899484822e-07 -1.51454369280385e-05 2.84741506300515e-25)
(-2.64179675943392e-07 -1.51238174236029e-05 3.88241989919774e-25)
(-1.48887370537886e-07 -1.51144391399475e-05 1.40577720786928e-24)
(-6.32107858408591e-08 -1.51106538132633e-05 1.15900415157949e-23)
(5.13078897544481e-09 -1.51090539394303e-05 1.11524574499693e-24)
(6.14363169508631e-08 -1.51083606377912e-05 1.22120622996599e-23)
(1.090151778911e-07 -1.51080469178634e-05 1.1654437381168e-23)
(1.49818359052452e-07 -1.51079116929011e-05 9.41791991521029e-25)
(1.85083347839792e-07 -1.51078754228496e-05 1.05396736824469e-23)
(2.15656093990203e-07 -1.51078926311951e-05 1.27167233481096e-24)
(2.4214318045433e-07 -1.5107955605524e-05 1.06995018109235e-23)
(2.64992958968384e-07 -1.51080518404353e-05 1.47024811646459e-23)
(2.84570118490016e-07 -1.510816691578e-05 1.86919858140073e-24)
(3.01171046694898e-07 -1.51083038650172e-05 1.13407987515321e-23)
(3.1505870887132e-07 -1.51084531914268e-05 1.36048248157961e-24)
(3.26470807964192e-07 -1.51086212548778e-05 1.20089296169525e-24)
(3.3563575055098e-07 -1.51087925772325e-05 1.11582086194949e-23)
(3.42768124933695e-07 -1.51089685103754e-05 7.32980342658183e-25)
(3.48076992672544e-07 -1.51091492853727e-05 1.10208568988991e-24)
(3.51786927759329e-07 -1.51093322200021e-05 9.77781621274356e-24)
(3.54125681250117e-07 -1.51095125753139e-05 9.00313543438051e-25)
(3.55322412187555e-07 -1.51096999417995e-05 -2.36990081663683e-25)
(3.5562660867075e-07 -1.51098834250724e-05 8.46304074272239e-24)
(3.55293344875097e-07 -1.5110066680938e-05 5.83645645582295e-25)
(3.54592909032397e-07 -1.5110246276993e-05 -6.02212299460219e-25)
(3.53848638903158e-07 -1.51104331122439e-05 -2.73132478549195e-25)
(3.53393170525097e-07 -1.51106200360898e-05 -6.27876819942614e-25)
(3.53606323194868e-07 -1.51108056164291e-05 -5.60134454061218e-25)
(3.54958120816857e-07 -1.51110133156752e-05 5.91393014902506e-25)
(3.58018250234361e-07 -1.51112410702678e-05 9.04113859643744e-24)
(3.63516072839085e-07 -1.51115158512711e-05 -8.97531523563766e-24)
(3.72426916036911e-07 -1.51118723905304e-05 -7.31546485870927e-25)
(3.86132544713178e-07 -1.51123987123312e-05 -3.77692036343394e-25)
(4.06726768623685e-07 -1.51133255644116e-05 -2.98847775292155e-24)
(4.3771244158018e-07 -1.51152116376624e-05 -1.01449795167494e-23)
(4.84656476099318e-07 -1.51193730627211e-05 -9.3170639404963e-24)
(5.59895759728016e-07 -1.51291877210991e-05 -1.94618961095687e-24)
(6.83315137899831e-07 -1.51511604823659e-05 -9.4729664245281e-24)
(8.89775213395298e-07 -1.51957439515831e-05 -1.05481169622109e-23)
(1.27493632398708e-06 -1.52809819138162e-05 -1.92113952596486e-24)
(1.89142700518358e-06 -1.53918780779853e-05 -8.60657009031097e-24)
(2.77473377708193e-06 -1.54274565933663e-05 -1.26401701866251e-23)
(4.01402645798141e-06 -1.49496033724112e-05 -2.15968987647736e-24)
(1.71110363694699e-06 -1.24677464129409e-05 -9.79252733140247e-24)
(-6.04224886252681e-07 -1.32820574857729e-05 1.66318203971197e-24)
(-5.90308502096758e-06 -1.63442051586669e-05 5.56583447861381e-24)
(-4.45769981179301e-06 -1.73958484975044e-05 2.08334225883678e-24)
(-3.1605256860801e-06 -1.70904281916354e-05 1.43995454721136e-24)
(-2.19538592268106e-06 -1.6660181013138e-05 1.28039003622645e-23)
(-1.51978889251103e-06 -1.63567306633662e-05 1.67258120168639e-24)
(-1.09357451435198e-06 -1.61895710130233e-05 8.14405896834514e-25)
(-7.89867782310613e-07 -1.61039643609301e-05 9.89619023600138e-25)
(-5.59934493124569e-07 -1.60607131608026e-05 1.46206969364245e-24)
(-3.79538642629085e-07 -1.60377256542461e-05 2.61994027835622e-24)
(-2.31363039445383e-07 -1.60242121373988e-05 2.94924527921406e-24)
(-1.07292995613015e-07 -1.60153799293514e-05 4.6937037103877e-24)
(-1.6702860573584e-09 -1.60090891062694e-05 2.75677829755648e-24)
(8.92192653684354e-08 -1.60043504018167e-05 1.60726111964691e-24)
(1.67964981954363e-07 -1.60006509774528e-05 1.93889815919844e-24)
(2.36441653524131e-07 -1.59976904619277e-05 1.34086277969198e-24)
(2.96064008791913e-07 -1.59953157101014e-05 4.93299402158338e-24)
(3.47950895237507e-07 -1.59933913883726e-05 4.33621558046844e-24)
(3.92998974858558e-07 -1.59918454650201e-05 2.49362963685471e-24)
(4.31964264784174e-07 -1.59906203020567e-05 4.52457830944039e-24)
(4.65518775967562e-07 -1.59896789982961e-05 2.18906575839209e-24)
(4.94268431211271e-07 -1.59889777154012e-05 1.25840947601153e-25)
(5.18783888962915e-07 -1.59884994250133e-05 3.87338725324507e-24)
(5.39587568484557e-07 -1.59882232603432e-05 1.0076012696214e-24)
(5.57196550279764e-07 -1.5988136446524e-05 6.73233318119333e-25)
(5.72144788219155e-07 -1.59882351138489e-05 4.62489272409409e-24)
(5.84958244222702e-07 -1.5988511366892e-05 1.84469521147116e-25)
(5.96174269235848e-07 -1.59889804143963e-05 -3.96845492704198e-25)
(6.06365447906463e-07 -1.59896260137396e-05 2.14771013573482e-24)
(6.16123864154252e-07 -1.59904697103691e-05 -9.97040164692854e-25)
(6.26075534308483e-07 -1.59915296143684e-05 -3.60549215850544e-25)
(6.3694555462221e-07 -1.59928372507079e-05 -2.9423521091638e-24)
(6.49518976581929e-07 -1.59944230756382e-05 2.71202860930476e-25)
(6.64666198628157e-07 -1.59963295744823e-05 4.15937273148999e-25)
(6.83453195478569e-07 -1.59986594596827e-05 -8.8993849630827e-25)
(7.07161514897543e-07 -1.6001512830446e-05 2.94653178191315e-24)
(7.37392886302772e-07 -1.60050948927065e-05 -3.30885596449336e-24)
(7.76219715082146e-07 -1.60096845160199e-05 -8.91802594582122e-25)
(8.2641297242531e-07 -1.60158059285521e-05 6.53843674075931e-25)
(8.91891044570562e-07 -1.60245307869053e-05 -1.55136487057884e-23)
(9.78585071158842e-07 -1.60380804712144e-05 -4.3462648084515e-24)
(1.09503219160619e-06 -1.6061369668665e-05 -2.93004555149486e-24)
(1.25883325151436e-06 -1.61053231877721e-05 -9.69056333003934e-24)
(1.4964293921357e-06 -1.61920313785586e-05 -3.24262205396346e-24)
(1.85555093958836e-06 -1.63598303898288e-05 -4.07036925234464e-24)
(2.46863600299526e-06 -1.66642212858333e-05 -1.29902697002295e-23)
(3.37043801121495e-06 -1.71006297081031e-05 -2.10848091454989e-24)
(4.64140313097014e-06 -1.74243556702454e-05 -3.88829862212589e-24)
(6.12032103998338e-06 -1.63421223776156e-05 -9.88697844468112e-24)
(7.23882744208617e-07 -1.31600897366962e-05 -3.33845948335755e-24)
(4.99672535876833e-07 3.88919061358069e-06 1.72831964335969e-24)
(-4.11095943426677e-06 3.78826265287711e-06 -3.3754869966148e-24)
(-3.61041539505573e-06 1.83469764276092e-06 2.19227910050841e-24)
(-2.98421100261832e-06 1.82231260051725e-06 6.81256795024101e-25)
(-2.37750818293045e-06 2.14927336685383e-06 -1.02417205802126e-24)
(-1.83030989033044e-06 2.42821427229325e-06 -6.56253791952768e-26)
(-1.43027495136486e-06 2.60502631114114e-06 8.29712994351868e-25)
(-1.11260040527905e-06 2.71067300797223e-06 1.03138298553329e-24)
(-8.55720851734596e-07 2.77434495727364e-06 -3.5427565958986e-24)
(-6.46477355727447e-07 2.8148529258563e-06 -2.53790388336106e-24)
(-4.71373161072871e-07 2.84234461807221e-06 7.85619831065255e-24)
(-3.23305328236241e-07 2.8621292246618e-06 3.72903672482975e-24)
(-1.96602659089009e-07 2.87703019788861e-06 -6.75000273484291e-24)
(-8.723350233198e-08 2.88863569954178e-06 4.48618594227681e-24)
(7.7992387582743e-09 2.89789798360128e-06 -2.97880542013166e-24)
(9.07382342385919e-08 2.90539159014846e-06 1.47030865074478e-24)
(1.63325437988692e-07 2.91151375405264e-06 4.01856769734659e-24)
(2.26957854153682e-07 2.91653332627707e-06 -4.49155391307854e-24)
(2.82768350081846e-07 2.92062447909163e-06 2.23613647769328e-24)
(3.3172778927233e-07 2.92393488500411e-06 -4.79952844007336e-24)
(3.74696510748972e-07 2.92655906015977e-06 1.74207429231582e-24)
(4.12435602845662e-07 2.92857668617367e-06 -7.88107079902872e-24)
(4.45654553084825e-07 2.93003880282866e-06 3.05273143184089e-24)
(4.75029308451525e-07 2.93098266489944e-06 1.14883404656704e-24)
(5.01204624921565e-07 2.93145388261213e-06 -5.89034231682354e-24)
(5.24829127406926e-07 2.93143688041864e-06 3.68805380802454e-24)
(5.46551500996652e-07 2.93095294030135e-06 -3.0118311341556e-24)
(5.67038611863921e-07 2.92999959376198e-06 4.59997865899951e-25)
(5.86978088263388e-07 2.92856124092186e-06 1.61904804839317e-24)
(6.0709364552628e-07 2.92661302365286e-06 -4.94276926150132e-24)
(6.28169359950538e-07 2.92408851816629e-06 6.2989397298259e-24)
(6.51073509769522e-07 2.92094287476872e-06 -1.12025751388089e-23)
(6.76769084521398e-07 2.91708051570647e-06 8.31882498389276e-24)
(7.06341525800433e-07 2.91236615117575e-06 8.60176230122135e-24)
(7.41078607565371e-07 2.90660863565604e-06 -7.68367826783192e-24)
(7.825133299896e-07 2.89954478692586e-06 1.89480062018614e-24)
(8.32561189459809e-07 2.89079367862326e-06 -2.3356853468889e-24)
(8.93649259448253e-07 2.87975651863797e-06 -5.59379582745885e-25)
(9.68907911515833e-07 2.86547899550826e-06 5.69527560164757e-24)
(1.062548945074e-06 2.84634527062281e-06 -1.32903767888387e-23)
(1.18045215380224e-06 2.8194749319878e-06 -3.40629336733969e-24)
(1.33003366667231e-06 2.77946439882529e-06 -2.03226640876298e-24)
(1.52489302365715e-06 2.71590033400026e-06 -8.2137250152009e-24)
(1.7801793291154e-06 2.6092793107078e-06 -2.08831205858577e-24)
(2.11599093621443e-06 2.42969018503223e-06 -2.75812025765363e-24)
(2.60417010306883e-06 2.1426971709831e-06 -1.17694415825043e-23)
(3.1530801653438e-06 1.79400160691257e-06 -1.83213838659477e-24)
(3.75706542443043e-06 1.76514449921412e-06 -2.38816798894467e-24)
(4.32096950371973e-06 3.7562820479046e-06 -1.19617575782346e-23)
(-3.71620504609527e-07 3.96712092022668e-06 -1.92361168243135e-24)
(-6.90544347621952e-07 1.04541284610655e-05 2.2275171339563e-24)
(-2.24408870102811e-06 1.02809074997202e-05 6.09478169715444e-24)
(-2.48274007435207e-06 6.71395502935644e-06 2.66464829693035e-24)
(-2.42861921012071e-06 5.98880364025157e-06 6.90126656628891e-25)
(-2.19400547353289e-06 6.01986655220874e-06 -6.34506428672806e-25)
(-1.82205271029189e-06 6.19857792134912e-06 1.1180596602932e-24)
(-1.49729009350102e-06 6.36025568912144e-06 8.77629065198095e-25)
(-1.21138189951396e-06 6.47799706085222e-06 1.10824820494937e-24)
(-9.68499551258256e-07 6.55943748558283e-06 2.16783703857559e-24)
(-7.65703975937331e-07 6.61665189058039e-06 2.90450163970738e-24)
(-5.9382130124741e-07 6.6579928208265e-06 3.45040111949119e-24)
(-4.47398672087303e-07 6.68886689457033e-06 4.74358432757878e-24)
(-3.21508169817936e-07 6.71259921410682e-06 2.86122129844379e-24)
(-2.12454876045846e-07 6.73129662039915e-06 2.24399163709082e-24)
(-1.17391041369653e-07 6.74630899449899e-06 3.03770806625308e-24)
(-3.41207605013826e-08 6.7584995702856e-06 2.3533393109472e-24)
(3.90824564105948e-08 6.76848375280718e-06 4.97199360973197e-24)
(1.03618965737622e-07 6.77666284340857e-06 4.30692853443938e-24)
(1.60645613659699e-07 6.78334409661445e-06 3.12420849352593e-24)
(2.11153485015678e-07 6.7887424387994e-06 4.1223249720049e-24)
(2.5600947694603e-07 6.79302631009451e-06 2.5119288313076e-24)
(2.95992006410686e-07 6.79629606596612e-06 9.99269125499631e-25)
(3.3182703566225e-07 6.79866836251286e-06 4.33761382878668e-24)
(3.64202434322423e-07 6.80019512466261e-06 1.58751301520298e-24)
(3.93767911307183e-07 6.80092377332256e-06 1.29196412025667e-24)
(4.21174467641859e-07 6.80085781911334e-06 4.46808400776968e-24)
(4.47085872195483e-07 6.80003107267737e-06 7.27214705442329e-25)
(4.72163661207187e-07 6.79842281625204e-06 -7.48040297987332e-26)
(4.97100326967751e-07 6.79600745060291e-06 2.92250544466684e-24)
(5.22625948356801e-07 6.79273744912914e-06 -2.27783460896927e-25)
(5.49535151359743e-07 6.78852486133544e-06 -4.99286745916991e-25)
(5.7869517927186e-07 6.78327871754933e-06 -2.66048583147878e-24)
(6.11066629579317e-07 6.77684198377092e-06 -5.19678581789666e-26)
(6.47753219337492e-07 6.76900449793192e-06 1.39662140699133e-25)
(6.9003730260402e-07 6.75945910679821e-06 -2.73344362609827e-25)
(7.39443189162157e-07 6.7477908500046e-06 2.98413670788633e-24)
(7.97843261976717e-07 6.73342321793288e-06 -2.39449455212686e-24)
(8.67563314273501e-07 6.71548235449789e-06 -1.01859740546401e-24)
(9.51569579784674e-07 6.69262022629341e-06 1.39185127139747e-24)
(1.05370017038972e-06 6.66271679509282e-06 -1.17730045915849e-24)
(1.17900601994603e-06 6.62241419926843e-06 -3.66279536956673e-24)
(1.33309279292354e-06 6.5662510497728e-06 -3.04337483973566e-24)
(1.52487534023883e-06 6.48562818425139e-06 1.13698562776709e-24)
(1.75858485709695e-06 6.3677059009854e-06 -2.64519262238683e-24)
(2.02770144156549e-06 6.20339776685952e-06 -3.04181481798524e-24)
(2.34817918578137e-06 6.01394660597671e-06 -1.61605750804225e-25)
(2.53350351496887e-06 5.94890941035194e-06 -2.76847141435906e-24)
(2.57068006156304e-06 6.60684233630722e-06 -2.75821375954264e-24)
(2.37411159143632e-06 1.02350701228274e-05 6.16435506538493e-25)
(7.55525242315612e-07 1.04672198082296e-05 -1.3225104845448e-24)
(-1.11330297573775e-06 1.12838944613776e-05 1.57298819155062e-24)
(-1.30947418599279e-06 9.74136795662061e-06 6.83770721991952e-24)
(-1.91696609539909e-06 5.54335153486359e-06 1.8543675195977e-24)
(-2.039227470359e-06 4.50885682445397e-06 3.27780922717222e-25)
(-1.97092901407015e-06 4.42907084737845e-06 -1.08852704960326e-24)
(-1.70400731054562e-06 4.58984847105852e-06 1.5350081222771e-24)
(-1.44233768523357e-06 4.76925926760361e-06 5.95638953015507e-25)
(-1.19566075433279e-06 4.90995724682443e-06 7.5261090387649e-25)
(-9.78651014538159e-07 5.01150857392245e-06 2.49184872526716e-24)
(-7.93751865301591e-07 5.08504193598056e-06 3.50427420020808e-24)
(-6.35018500023252e-07 5.13930732742173e-06 4.57477138130986e-25)
(-4.98629373118458e-07 5.1804415415534e-06 3.05770968170908e-24)
(-3.80649223388798e-07 5.21237802739583e-06 3.57665264856744e-24)
(-2.77977443748007e-07 5.23769737477457e-06 3.5983036999492e-25)
(-1.88128394468891e-07 5.25808619146183e-06 3.6820904190006e-24)
(-1.0913233520681e-07 5.27468326680481e-06 1.65116971795737e-24)
(-3.94151400284381e-08 5.28826330739582e-06 3.34483313472802e-24)
(2.23248404403463e-08 5.29938823455241e-06 4.24722614112109e-24)
(7.71726467902766e-08 5.30845251403083e-06 2.12985295857333e-24)
(1.26064731217929e-07 5.31575688187514e-06 4.24583978342909e-24)
(1.69821628043975e-07 5.32151723517429e-06 1.74436847636178e-24)
(2.09186391513201e-07 5.32589564530702e-06 2.24508544225555e-24)
(2.44851215436671e-07 5.32902991203694e-06 2.89179749191018e-24)
(2.77463073169258e-07 5.33099768675099e-06 1.0737605211411e-24)
(3.07646413549668e-07 5.3318512472353e-06 2.02571968226203e-24)
(3.36025690372397e-07 5.33163127794831e-06 3.07808854892162e-24)
(3.63220091649605e-07 5.33035393880962e-06 1.55830236271713e-24)
(3.89860219120156e-07 5.32799318484175e-06 -8.42895503844141e-25)
(4.16605932061497e-07 5.32451975068143e-06 1.96680196068834e-24)
(4.44147710241164e-07 5.31985524411927e-06 1.30526659835765e-24)
(4.7324699748513e-07 5.31389781682068e-06 -1.2554422586995e-24)
(5.04714872019029e-07 5.30649432404758e-06 3.77636650420154e-26)
(5.39460792795061e-07 5.29745112253574e-06 -1.53022457220076e-24)
(5.78526626781566e-07 5.28647902727281e-06 -1.4271416331605e-24)
(6.2310173691144e-07 5.27317463265288e-06 1.11966519323313e-24)
(6.74594142650651e-07 5.25699755740041e-06 1.97650595751375e-24)
(7.34710047831012e-07 5.23715754375928e-06 -1.573067414265e-24)
(8.05521275058935e-07 5.21256322396687e-06 -7.4319389010299e-25)
(8.89601431745738e-07 5.18152785293395e-06 -4.54036673378367e-25)
(9.90163976390622e-07 5.14144467361643e-06 3.38777741143772e-24)
(1.11120694981378e-06 5.08834341236924e-06 -1.93815764439406e-24)
(1.25660100881364e-06 5.01602904746276e-06 -1.74092285918141e-24)
(1.43178655919803e-06 4.91554670547145e-06 4.47519338351908e-24)
(1.63502544188355e-06 4.7752232914437e-06 -1.54349416543515e-24)
(1.8484755592433e-06 4.59380677323662e-06 -1.64766082913697e-24)
(2.06966361049399e-06 4.421709661828e-06 4.12114215289661e-24)
(2.09321466862859e-06 4.45905008214141e-06 -1.64246714621121e-24)
(1.96265105923001e-06 5.41073691868431e-06 -1.70990142166243e-24)
(1.36757059241835e-06 9.68986155968521e-06 5.48135190506858e-24)
(1.12244697100563e-06 1.12919054407117e-05 -1.13142613703739e-24)
(-8.1750067264778e-07 9.9898143054292e-06 8.9630921133092e-25)
(-9.80544159724489e-07 7.42603863590085e-06 6.35797305686371e-24)
(-1.69928120451274e-06 3.30107351827281e-06 1.04081673451491e-24)
(-1.80208772806739e-06 2.22602433715406e-06 2.47318510944403e-25)
(-1.7786513895014e-06 2.13886406565937e-06 1.15647070914858e-24)
(-1.56907434763043e-06 2.31077792710747e-06 2.17273992426058e-24)
(-1.35426377077604e-06 2.51097536774398e-06 3.69027901759825e-25)
(-1.14300700032773e-06 2.67139683465923e-06 4.23324485949108e-25)
(-9.51718281213347e-07 2.7895149138967e-06 2.54354043295914e-24)
(-7.8539926733022e-07 2.87662235697314e-06 2.9462891234044e-24)
(-6.40499935692317e-07 2.94188292164125e-06 -1.21063062698022e-24)
(-5.14649148586607e-07 2.99193751174649e-06 1.36468036897651e-24)
(-4.04925304737823e-07 3.03113485238939e-06 2.99921094751192e-24)
(-3.08870029257678e-07 3.06238776509397e-06 -1.04265599588919e-24)
(-2.24415053468751e-07 3.08764220278465e-06 3.07361384040014e-24)
(-1.4986393705433e-07 3.10822566752828e-06 8.40423023504729e-25)
(-8.38227245716252e-08 3.1250784015416e-06 1.70054108494022e-24)
(-2.51161427810902e-08 3.13886568610468e-06 3.39048340124686e-24)
(2.72500360842577e-08 3.15007677924975e-06 1.13873768491676e-24)
(7.41462346139896e-08 3.15907865268984e-06 3.35122007023013e-24)
(1.16334353789364e-07 3.16614359148561e-06 9.49982711380041e-25)
(1.54515526639916e-07 3.17147845987269e-06 2.37293052019208e-24)
(1.89338665219169e-07 3.1752400425146e-06 1.4108802839622e-24)
(2.21414681571413e-07 3.17752974166543e-06 5.79075805219438e-25)
(2.51339741568414e-07 3.17842423051802e-06 2.31237039153257e-24)
(2.79700426998529e-07 3.17796846824214e-06 1.65984477542414e-24)
(3.07077646375024e-07 3.17617117095951e-06 1.94657632280446e-24)
(3.34070906895692e-07 3.17301439154418e-06 -1.62567886621416e-24)
(3.61304985183177e-07 3.16844952885261e-06 9.47882552609555e-25)
(3.89431380274101e-07 3.16238563170082e-06 1.84279213762522e-24)
(4.191620584974e-07 3.15469560006469e-06 -1.67738177109313e-24)
(4.51260935912774e-07 3.14518366507605e-06 9.27329881408292e-25)
(4.86575176718448e-07 3.13361120057348e-06 -2.0470375894666e-24)
(5.26066233222191e-07 3.11962123235781e-06 -2.03371974599934e-24)
(5.7083036018797e-07 3.102733776897e-06 1.77889855158177e-24)
(6.22131676766495e-07 3.08229251329823e-06 1.02293352460563e-24)
(6.81480273223315e-07 3.05736455151791e-06 -7.65756277338818e-25)
(7.50664156065299e-07 3.02665882817451e-06 -4.27722126445862e-25)
(8.31820796762052e-07 2.98824770186089e-06 -1.50480452983822e-24)
(9.27494485738396e-07 2.93920456866865e-06 2.84523701443038e-24)
(1.04063122063663e-06 2.8751465823701e-06 -7.49765909576881e-25)
(1.17359907799672e-06 2.7894089647688e-06 -7.49360864884593e-25)
(1.32934066748512e-06 2.67267605125432e-06 2.98941740999553e-24)
(1.50322267854854e-06 2.51328184853992e-06 -6.92331065708937e-25)
(1.67541685634215e-06 2.31165729668795e-06 -6.97592028800988e-25)
(1.84402688892262e-06 2.12740486297664e-06 3.23399815248663e-24)
(1.82651130221867e-06 2.16277682024261e-06 -6.77477124032109e-25)
(1.72315401448925e-06 3.14487843233144e-06 -6.97967767567388e-25)
(1.00077766368418e-06 7.35549224081639e-06 4.74746300691725e-24)
(8.05493306770528e-07 9.99478094748238e-06 -5.94458692974454e-25)
(-4.13800104755469e-07 8.6474997219876e-06 3.92748685431996e-25)
(-8.60986667859497e-07 5.68570980215695e-06 2.93092947279193e-24)
(-1.55105909243541e-06 1.72406448093985e-06 4.52439585287096e-25)
(-1.61264159204399e-06 6.454528506134e-07 1.02508222881242e-25)
(-1.60312535004499e-06 5.61648544036337e-07 3.98389374410297e-25)
(-1.43586857097185e-06 7.40036611636587e-07 7.46493334707629e-25)
(-1.25947145822487e-06 9.52292729803415e-07 1.45874560864217e-25)
(-1.0794765054922e-06 1.12537613820015e-06 1.58973463077484e-25)
(-9.11436649968096e-07 1.25531792692024e-06 8.74763732084273e-25)
(-7.61982634134316e-07 1.35291264061366e-06 1.48103138680598e-24)
(-6.29535568889423e-07 1.42717705496467e-06 -3.45239476068787e-25)
(-5.13015335053978e-07 1.48482807788792e-06 1.03918130276104e-24)
(-4.10463801929312e-07 1.53039293751628e-06 1.61536947780252e-24)
(-3.2004943119921e-07 1.56693689441015e-06 -2.28610906675188e-25)
(-2.401270385976e-07 1.59659307921487e-06 1.70747169578765e-24)
(-1.6926785842773e-07 1.62081225120377e-06 3.84082913658659e-25)
(-1.0626521015351e-07 1.64066179870364e-06 1.20850827435237e-24)
(-5.00746096245249e-08 1.65689196253217e-06 1.74720685301436e-24)
(2.11827050137558e-10 1.6700748339241e-06 4.91829720036015e-25)
(4.53952383649937e-08 1.6806304634036e-06 1.67921443241124e-24)
(8.61881054032456e-08 1.68887554155199e-06 3.83898344059716e-25)
(1.23246426825743e-07 1.6950649960851e-06 8.13290474788425e-25)
(1.57183411999226e-07 1.69936552905229e-06 1.05413318271097e-24)
(1.8858042606509e-07 1.70191149023045e-06 2.55723485614542e-25)
(2.1800488347195e-07 1.70279250011413e-06 8.27266210525183e-25)
(2.46013096442132e-07 1.70205424873083e-06 1.35117204171567e-24)
(2.73157732176025e-07 1.69971591180981e-06 6.66609728076577e-25)
(3.00011525079765e-07 1.69575126734687e-06 -4.68784808070284e-25)
(3.2716862817346e-07 1.69010264392835e-06 9.04269299615402e-25)
(3.55248104150428e-07 1.6826630317886e-06 6.16673315349098e-25)
(3.84922206743287e-07 1.67327263614559e-06 -5.13973197268256e-25)
(4.16905393913892e-07 1.66171877846305e-06 4.35033673224961e-25)
(4.5199259015102e-07 1.6477122242353e-06 -6.5963166116385e-25)
(4.91072454821731e-07 1.63084239085339e-06 -6.78476665607774e-25)
(5.35139470977086e-07 1.61056254513784e-06 5.92312309460164e-25)
(5.85325629008614e-07 1.58612169586507e-06 9.46880842100677e-25)
(6.42943991117824e-07 1.55648859556702e-06 -7.51296273862987e-25)
(7.09500684529981e-07 1.52023220101807e-06 -1.89794462032205e-25)
(7.86715154433239e-07 1.47527746480764e-06 -4.83725615466218e-25)
(8.76478336095127e-07 1.41852871329947e-06 9.45081516715607e-25)
(9.80756710335886e-07 1.34547784370258e-06 -9.51743869832679e-25)
(1.10061300713737e-06 1.24943067755974e-06 -9.83454009841793e-25)
(1.23701207866453e-06 1.12129751924394e-06 8.8781487466851e-25)
(1.38357633292219e-06 9.50030688531332e-07 -9.91210929579e-25)
(1.52164043294355e-06 7.37024341310324e-07 -9.79329116004706e-25)
(1.65210872200553e-06 5.45078893661998e-07 1.02475034335228e-24)
(1.62451045836848e-06 5.67119300890418e-07 -1.07051792801504e-24)
(1.56568752584895e-06 1.54245298718962e-06 -1.2114782518091e-24)
(8.6841497686103e-07 5.58511719295148e-06 1.57698511046535e-24)
(4.0000958473324e-07 8.62851044420227e-06 -9.71414535333703e-25)
(-1.59146710798143e-07 7.86016538166649e-06 1.27031355110448e-25)
(-7.69486055307932e-07 4.87675295741594e-06 9.42402341999957e-25)
(-1.3742489648952e-06 9.56142251216869e-07 1.48649600585403e-25)
(-1.42665339097669e-06 -1.59898930099845e-07 2.7032770105258e-26)
(-1.43277320785239e-06 -2.60823132244548e-07 -7.53865765082237e-26)
(-1.3045928417242e-06 -8.99225909372999e-08 2.36738068860317e-25)
(-1.16194321069615e-06 1.23631307733837e-07 5.36141689625594e-26)
(-1.00996609769941e-06 3.02268810219895e-07 5.95810749500849e-26)
(-8.62998014871801e-07 4.39498123193106e-07 2.95065400360727e-25)
(-7.28937300352544e-07 5.44659885328139e-07 4.37185460332994e-25)
(-6.07871029511616e-07 6.26043950238556e-07 -1.10122950216547e-25)
(-4.99832226462127e-07 6.90042573852845e-07 2.85895696827901e-25)
(-4.03746808231918e-07 7.41114522846963e-07 4.90944569823996e-25)
(-3.18366234098422e-07 7.82361310647903e-07 -6.77799174891342e-26)
(-2.42442982055392e-07 8.1598203894169e-07 4.85314989622547e-25)
(-1.7482415451423e-07 8.43532006641498e-07 1.30387763898088e-25)
(-1.14479242506337e-07 8.66137414681833e-07 3.5420693906726e-25)
(-6.04937345015705e-08 8.84637671834862e-07 5.18963754302573e-25)
(-1.20497787106439e-08 8.99653968531356e-07 1.6712528143485e-25)
(3.15836859234627e-08 9.11656911513062e-07 4.93314991643697e-25)
(7.10734962435635e-08 9.20999599018545e-07 1.27965900165751e-25)
(1.07032209671702e-07 9.27969002969083e-07 2.59660462010421e-25)
(1.40036982149343e-07 9.32758435391579e-07 3.00401083825707e-25)
(1.70648606535649e-07 9.35523351412279e-07 8.68008588128397e-26)
(1.9940304109379e-07 9.36361865405452e-07 2.67030177993246e-25)
(2.26832969377379e-07 9.35330467070283e-07 3.3079858718344e-25)
(2.53466729839267e-07 9.32441887312111e-07 2.08108164264982e-25)
(2.7985054045147e-07 9.27678667253992e-07 -1.37500369731397e-25)
(3.06554265992728e-07 9.20966905303817e-07 2.5833024256277e-25)
(3.34163476316838e-07 9.12184712560194e-07 1.89742438696683e-25)
(3.63315306812329e-07 9.01154470962599e-07 -1.48956561604041e-25)
(3.94687281898353e-07 8.87636448772071e-07 1.34936284890338e-25)
(4.29014812202605e-07 8.71304991293124e-07 -2.04420232967286e-25)
(4.67114382078116e-07 8.51701782093756e-07 -2.11948213351646e-25)
(5.09889504703162e-07 8.2822630795859e-07 1.77233055917487e-25)
(5.58340889409353e-07 8.00063938590209e-07 2.30905015342884e-25)
(6.13590687900726e-07 7.66112891392434e-07 -1.9120141410073e-25)
(6.7687338954041e-07 7.24866671263235e-07 -6.00034833826969e-26)
(7.49506753844621e-07 6.74185776428994e-07 -1.32835977011711e-25)
(8.32788203036078e-07 6.10955318944833e-07 5.41893508911237e-25)
(9.27810701871653e-07 5.30778642915461e-07 -2.26969103242343e-25)
(1.03451992601901e-06 4.27319169378566e-07 -2.43345380467169e-25)
(1.15227776790433e-06 2.92298265231094e-07 5.18634637095e-25)
(1.27343481946406e-06 1.16204937389019e-07 -2.54570527578879e-25)
(1.38115693457782e-06 -9.75407442892976e-08 -2.40549566280174e-25)
(1.47606546417703e-06 -2.83289021661875e-07 5.78272494306975e-25)
(1.43635329321864e-06 -2.53022000030593e-07 -2.15017762106353e-25)
(1.38526176554754e-06 7.49691625081224e-07 -2.69871395400489e-25)
(7.74284442727282e-07 4.74521232450048e-06 7.11995703722001e-25)
(1.48323304691492e-07 7.80488587887719e-06 -2.70483591977863e-25)
(-4.72416183333781e-08 7.5342504421236e-06 5.98286143731295e-26)
(-6.68579430886179e-07 4.6652572970021e-06 4.59213259722937e-25)
(-1.17854876965782e-06 6.83060483650562e-07 7.08718688592448e-26)
(-1.24420199843202e-06 -4.95501238862939e-07 2.87694070199951e-26)
(-1.26832187110403e-06 -6.31234343617787e-07 1.50939961891828e-25)
(-1.17594625804783e-06 -4.78263697108529e-07 2.08561131557409e-25)
(-1.06289306483657e-06 -2.71329055238817e-07 3.5811912878983e-26)
(-9.35956534890838e-07 -9.25508001980365e-08 4.0403211162818e-26)
(-8.08221717273849e-07 4.82999430593019e-08 2.14390804971415e-25)
(-6.88487580730134e-07 1.58527310851216e-07 2.34958929442283e-25)
(-5.78176253181945e-07 2.45327378296001e-07 -1.38340911093629e-25)
(-4.78246082208619e-07 3.14510186449907e-07 6.79296030243362e-26)
(-3.88374336475247e-07 3.70274297905145e-07 2.4878521415872e-25)
(-3.0784847398083e-07 4.15653702304167e-07 -1.2259355175576e-25)
(-2.35792206386124e-07 4.52835558321934e-07 2.133594484427e-25)
(-1.71308747811037e-07 4.83417104188225e-07 5.41610172418161e-26)
(-1.13549808103547e-07 5.08564379550464e-07 1.05145675145964e-25)
(-6.17258553002559e-08 5.29168871746003e-07 2.56514742771962e-25)
(-1.51145195892128e-08 5.45893846135948e-07 7.51813751795114e-26)
(2.69485895914218e-08 5.59245373127104e-07 2.62718275905795e-25)
(6.50802585585891e-08 5.69620349376412e-07 6.25607085124533e-26)
(9.98529807668972e-08 5.77315952920071e-07 1.99013254372594e-25)
(1.31811040405653e-07 5.82562971255832e-07 8.56212838759137e-26)
(1.61484471918151e-07 5.85526801320867e-07 3.72046651051523e-26)
(1.89384237338958e-07 5.86312925175977e-07 1.91420039727697e-25)
(2.16014554219844e-07 5.84988815310447e-07 1.02393594134052e-25)
(2.4188575083423e-07 5.81566350346432e-07 1.59823166881488e-25)
(2.67520881029546e-07 5.76025795827382e-07 -1.04999048305848e-25)
(2.93455501414563e-07 5.68283309886514e-07 6.01420091791146e-26)
(3.20253289339522e-07 5.58210059876681e-07 1.52711750428649e-25)
(3.48514251634787e-07 5.45606207269548e-07 -1.25709984393749e-25)
(3.78868608824839e-07 5.3021778990948e-07 8.00760567338585e-26)
(4.12002956121563e-07 5.11673992943071e-07 -1.30477364958378e-25)
(4.48661947926252e-07 4.89496591810818e-07 -1.23232457775264e-25)
(4.89652549319328e-07 4.63039803436723e-07 1.44312840719138e-25)
(5.35851927732671e-07 4.31448942791803e-07 5.76503927733916e-26)
(5.88196285825011e-07 3.93578359763522e-07 -4.28231209393058e-26)
(6.47661666221756e-07 3.47901998871672e-07 -2.29053113589644e-26)
(7.15201540052038e-07 2.92285114743789e-07 -1.33946144027207e-25)
(7.91579214833627e-07 2.23719851074297e-07 2.00118525684811e-25)
(8.77137015573469e-07 1.3808430325894e-07 -3.20364474607955e-26)
(9.70919839139823e-07 2.96501455471967e-08 -3.7645000523238e-26)
(1.07105745531316e-06 -1.08686063011481e-07 2.4314384252137e-25)
(1.16901283536942e-06 -2.84421546607728e-07 -4.15875200181531e-26)
(1.24990639728194e-06 -4.91231188766028e-07 -3.52965346227117e-26)
(1.31176809260643e-06 -6.60402515556842e-07 2.5978653904985e-25)
(1.25695824327414e-06 -6.02288519894087e-07 -3.31318795177155e-26)