/*--------------------------------*- C++ -*----------------------------------*\
  =========                 |
  \\      /  F ield         | OpenFOAM: The Open Source CFD Toolbox
   \\    /   O peration     | Website:  https://openfoam.org
    \\  /    A nd           | Version:  10
     \\/     M anipulation  |
\*---------------------------------------------------------------------------*/
FoamFile
{
    format      ascii;
    class       volScalarField;
    location    "3";
    object      wallHeatFlux;
}
// * * * * * * * * * * * * * * * * * * * * * * * * * * * * * * * * * * * * * //

dimensions      [1 0 -3 0 0 0 0];

internalField   uniform 0;

boundaryField
{
    back
    {
        type            calculated;
        value           uniform 0;
    }
    bottom
    {
        type            calculated;
        value           nonuniform List<scalar> 
50
(
204.77123880413
213.617556767832
220.088630505916
222.740916416118
223.696045045568
224.027123394338
224.137398360996
224.171863156413
224.181780083529
224.184529470295
224.185036744681
224.185094128325
224.185068356607
224.184963342125
224.184877288164
224.184754121942
224.184723945832
224.184659614613
224.184579195312
224.184542060755
224.184520025624
224.184520931384
224.184525549319
224.184512962521
224.184485880721
224.184479050859
224.184474888971
224.184471645351
224.184485929281
224.184477667162
224.184484974936
224.184529562434
224.184529296375
224.184522154568
224.184549469941
224.184599917721
224.184662421796
224.184684841518
224.184742147157
224.184581606926
224.183716934442
224.18032757354
224.16854211971
224.130316868519
224.014572399029
223.678495167143
222.727348565997
220.080752703582
213.517304916476
204.798289179475
)
;
    }
    left
    {
        type            calculated;
        value           uniform 0;
    }
    front
    {
        type            calculated;
        value           uniform 0;
    }
    right
    {
        type            calculated;
        value           uniform 0;
    }
    top
    {
        type            calculated;
        value           uniform 0;
    }
}


// ************************************************************************* //
