/*--------------------------------*- C++ -*----------------------------------*\
  =========                 |
  \\      /  F ield         | OpenFOAM: The Open Source CFD Toolbox
   \\    /   O peration     | Website:  https://openfoam.org
    \\  /    A nd           | Version:  10
     \\/     M anipulation  |
\*---------------------------------------------------------------------------*/
FoamFile
{
    format      ascii;
    class       volScalarField;
    location    "0";
    object      p_rgh;
}
// * * * * * * * * * * * * * * * * * * * * * * * * * * * * * * * * * * * * * //

dimensions      [1 -1 -2 0 0 0 0];

internalField   nonuniform List<scalar> 
125
(
0.238567738953861
0.238567738953861
0.238567738953861
0.238567738953861
0.238567738953861
0.253959205976571
0.253959205976571
0.253959205976571
0.253959205976571
0.253959205976571
0.269350673013832
0.269350673013832
0.269350673013832
0.269350673013832
0.269350673013832
0.284742140036542
0.284742140036542
0.284742140036542
0.284742140036542
0.284742140036542
0.300133607059252
0.300133607059252
0.300133607059252
0.300133607059252
0.300133607059252
0.238567738953861
0.238567738953861
0.238567738953861
0.238567738953861
0.238567738953861
0.253959205976571
0.253959205976571
0.253959205976571
0.253959205976571
0.253959205976571
0.269350673013832
0.269350673013832
0.269350673013832
0.269350673013832
0.269350673013832
0.284742140036542
0.284742140036542
0.284742140036542
0.284742140036542
0.284742140036542
0.300133607059252
0.300133607059252
0.300133607059252
0.300133607059252
0.300133607059252
0.238567738953861
0.238567738953861
0.238567738953861
0.238567738953861
0.238567738953861
0.253959205976571
0.253959205976571
0.253959205976571
0.253959205976571
0.253959205976571
0.269350673013832
0.269350673013832
0.269350673013832
0.269350673013832
0.269350673013832
0.284742140036542
0.284742140036542
0.284742140036542
0.284742140036542
0.284742140036542
0.300133607059252
0.300133607059252
0.300133607059252
0.300133607059252
0.300133607059252
0.238567738953861
0.238567738953861
0.238567738953861
0.238567738953861
0.238567738953861
0.253959205976571
0.253959205976571
0.253959205976571
0.253959205976571
0.253959205976571
0.269350673013832
0.269350673013832
0.269350673013832
0.269350673013832
0.269350673013832
0.284742140036542
0.284742140036542
0.284742140036542
0.284742140036542
0.284742140036542
0.300133607059252
0.300133607059252
0.300133607059252
0.300133607059252
0.300133607059252
0.238567738953861
0.238567738953861
0.238567738953861
0.238567738953861
0.238567738953861
0.253959205976571
0.253959205976571
0.253959205976571
0.253959205976571
0.253959205976571
0.269350673013832
0.269350673013832
0.269350673013832
0.269350673013832
0.269350673013832
0.284742140036542
0.284742140036542
0.284742140036542
0.284742140036542
0.284742140036542
0.300133607059252
0.300133607059252
0.300133607059252
0.300133607059252
0.300133607059252
)
;

boundaryField
{
    patch0
    {
        type            fixedFluxPressure;
        gradient        nonuniform List<scalar> 
25
(
0.238567738953861
0.238567738953861
0.238567738953861
0.238567738953861
0.238567738953861
0.253959205976571
0.253959205976571
0.253959205976571
0.253959205976571
0.253959205976571
0.269350673013832
0.269350673013832
0.269350673013832
0.269350673013832
0.269350673013832
0.284742140036542
0.284742140036542
0.284742140036542
0.284742140036542
0.284742140036542
0.300133607059252
0.300133607059252
0.300133607059252
0.300133607059252
0.300133607059252
)
;
        value           nonuniform List<scalar> 
25
(
0.238567738953861
0.238567738953861
0.238567738953861
0.238567738953861
0.238567738953861
0.253959205976571
0.253959205976571
0.253959205976571
0.253959205976571
0.253959205976571
0.269350673013832
0.269350673013832
0.269350673013832
0.269350673013832
0.269350673013832
0.284742140036542
0.284742140036542
0.284742140036542
0.284742140036542
0.284742140036542
0.300133607059252
0.300133607059252
0.300133607059252
0.300133607059252
0.300133607059252
)
;
    }
    patch1
    {
        type            fixedFluxPressure;
        gradient        nonuniform List<scalar> 0();
        value           nonuniform List<scalar> 0();
    }
    patch2
    {
        type            fixedFluxPressure;
        gradient        nonuniform List<scalar> 
25
(
0.17653071184759
0.187918954878114
0.199306875249022
0.210695371381007
0.222084063629154
0.176529142787331
0.187917284609284
0.199305546630058
0.210693966844701
0.222082089690957
0.17652796600305
0.187916240698542
0.199304218040197
0.210692562322947
0.222080609266413
0.176526985364035
0.187915405578678
0.199303332308773
0.210691625994514
0.222079622326419
0.176525416376535
0.187913735353504
0.19930156088958
0.210689753352199
0.222077648475533
)
;
        value           nonuniform List<scalar> 
25
(
0.176530319586163
0.187918537310907
0.199307318136562
0.210695371381007
0.222083570144605
0.176528946656617
0.187917493385612
0.199305546630058
0.210693966844701
0.222082089690957
0.17652796600305
0.187916240698542
0.199304218040197
0.210692562322947
0.222080609266413
0.176527181494748
0.187915196802351
0.199303332308773
0.210691625994514
0.222079622326419
0.176525612492696
0.187913526591728
0.19930156088958
0.210689753352199
0.222077648475533
)
;
    }
    patch3
    {
        type            fixedFluxPressure;
        gradient        nonuniform List<scalar> 0();
        value           nonuniform List<scalar> 0();
    }
    patch4
    {
        type            fixedFluxPressure;
        gradient        nonuniform List<scalar> 
25
(
0.227777008374687
0.227775489984197
0.227773465492646
0.227771947160363
0.22777093492914
0.227774983868585
0.227773465492646
0.227771947160363
0.227771441044752
0.227769416625961
0.227773465492646
0.227772453261423
0.22777042882808
0.227769416625961
0.227767392236274
0.227772453261423
0.227771441044752
0.227769416625961
0.227767898337333
0.227766380063258
0.22777042882808
0.227769416625961
0.227767392236274
0.22776587397675
0.227764355731779
)
;
        value           nonuniform List<scalar> 
25
(
0.227776502244524
0.227775489984197
0.227773465492646
0.227772453261423
0.22777042882808
0.227774983868585
0.22777397162281
0.227771947160363
0.22777042882808
0.227768910524901
0.227773465492646
0.227771947160363
0.22777042882808
0.227769416625961
0.227767392236274
0.227772453261423
0.22777093492914
0.227769416625961
0.227767898337333
0.227766380063258
0.22777042882808
0.227768910524901
0.227767392236274
0.22776587397675
0.227764355731779
)
;
    }
    patch5
    {
        type            fixedFluxPressure;
        gradient        nonuniform List<scalar> 
25
(
0.238567738953861
0.238567738953861
0.238567738953861
0.238567738953861
0.238567738953861
0.253959205976571
0.253959205976571
0.253959205976571
0.253959205976571
0.253959205976571
0.269350673013832
0.269350673013832
0.269350673013832
0.269350673013832
0.269350673013832
0.284742140036542
0.284742140036542
0.284742140036542
0.284742140036542
0.284742140036542
0.300133607059252
0.300133607059252
0.300133607059252
0.300133607059252
0.300133607059252
)
;
        value           nonuniform List<scalar> 
25
(
0.238567738953861
0.238567738953861
0.238567738953861
0.238567738953861
0.238567738953861
0.253959205976571
0.253959205976571
0.253959205976571
0.253959205976571
0.253959205976571
0.269350673013832
0.269350673013832
0.269350673013832
0.269350673013832
0.269350673013832
0.284742140036542
0.284742140036542
0.284742140036542
0.284742140036542
0.284742140036542
0.300133607059252
0.300133607059252
0.300133607059252
0.300133607059252
0.300133607059252
)
;
    }
    procBoundary2to0
    {
        type            processor;
        value           uniform 0.2231762719166;
    }
    procBoundary2to3
    {
        type            processor;
        value           nonuniform List<scalar> 
25
(
0.238567738953861
0.253959205976571
0.269350673013832
0.284742140036542
0.300133607059252
0.238567738953861
0.253959205976571
0.269350673013832
0.284742140036542
0.300133607059252
0.238567738953861
0.253959205976571
0.269350673013832
0.284742140036542
0.300133607059252
0.238567738953861
0.253959205976571
0.269350673013832
0.284742140036542
0.300133607059252
0.238567738953861
0.253959205976571
0.269350673013832
0.284742140036542
0.300133607059252
)
;
    }
}


// ************************************************************************* //
