/*--------------------------------*- C++ -*----------------------------------*\
  =========                 |
  \\      /  F ield         | OpenFOAM: The Open Source CFD Toolbox
   \\    /   O peration     | Website:  https://openfoam.org
    \\  /    A nd           | Version:  10
     \\/     M anipulation  |
\*---------------------------------------------------------------------------*/
FoamFile
{
    format      ascii;
    class       volScalarField;
    location    "0";
    object      T;
}
// * * * * * * * * * * * * * * * * * * * * * * * * * * * * * * * * * * * * * //

dimensions      [0 0 0 1 0 0 0];

internalField   uniform 222;

boundaryField
{
    patch0
    {
        type            zeroGradient;
    }
    patch1
    {
        type            zeroGradient;
    }
    patch2
    {
        type            fixedValue;
        value           nonuniform List<scalar> 
25
(
300.016666666667
300.018
300.018333333333
300.019666666667
300.020666666667
300.019
300.019666666667
300.021
300.021666666667
300.022666666667
300.020666666667
300.021666666667
300.023
300.023666666667
300.024666666667
300.022
300.023333333333
300.024333333333
300.025
300.026
300.024666666667
300.026
300.027
300.027666666667
300.028666666667
)
;
    }
    patch3
    {
        type            zeroGradient;
    }
    patch4
    {
        type            fixedValue;
        value           nonuniform List<scalar> 
25
(
300.022666666667
300.024
300.026666666667
300.028
300.030666666667
300.024666666667
300.026
300.028666666667
300.030666666667
300.032666666667
300.026666666667
300.028666666667
300.030666666667
300.032
300.034666666667
300.028
300.03
300.032
300.034
300.036
300.030666666667
300.032666666667
300.034666666667
300.036666666667
300.038666666667
)
;
    }
    patch5
    {
        type            zeroGradient;
    }
    procBoundary2to0
    {
        type            processor;
        value           uniform 222;
    }
    procBoundary2to3
    {
        type            processor;
        value           uniform 222;
    }
}


// ************************************************************************* //
