/*--------------------------------*- C++ -*----------------------------------*\
  =========                 |
  \\      /  F ield         | OpenFOAM: The Open Source CFD Toolbox
   \\    /   O peration     | Website:  https://openfoam.org
    \\  /    A nd           | Version:  10
     \\/     M anipulation  |
\*---------------------------------------------------------------------------*/
FoamFile
{
    format      ascii;
    class       volScalarField;
    location    "9";
    object      alphat;
}
// * * * * * * * * * * * * * * * * * * * * * * * * * * * * * * * * * * * * * //

dimensions      [1 -1 -1 0 0 0 0];

internalField   nonuniform List<scalar> 
2500
(
5.24320932761676e-15
1.03351186762652e-13
4.43795814277887e-13
7.76543639149509e-13
1.07358202518974e-12
1.32454857749854e-12
1.52572321314351e-12
1.67884139241907e-12
1.78959083620472e-12
1.86578955694707e-12
1.91571635582219e-12
1.94690763220681e-12
1.96551187603244e-12
1.97612042677572e-12
1.98191147672771e-12
1.98494189295535e-12
1.98646402248553e-12
1.98719874442817e-12
1.98753989259982e-12
1.98769234215928e-12
1.98775788594301e-12
1.9877849370386e-12
1.9877955762773e-12
1.98779945301079e-12
1.98780054439907e-12
1.98780018292431e-12
1.98779819544738e-12
1.98779283986935e-12
1.98777939406822e-12
1.98774682247012e-12
1.98767055058719e-12
1.98749795545742e-12
1.98712071851605e-12
1.98632490803089e-12
1.98470605785664e-12
1.98153432977033e-12
1.97555677368573e-12
1.96473492751475e-12
1.94594088935577e-12
1.91467577869149e-12
1.86492463039855e-12
1.7893033161165e-12
1.67965421456821e-12
1.52817567197085e-12
1.32901132980004e-12
1.08000983660254e-12
7.8419245804384e-13
4.50857532923725e-13
1.061157357087e-13
5.4615712353151e-15
5.21153033792317e-13
2.69439266705104e-11
1.18098078654584e-10
2.06765581406966e-10
2.85987552314698e-10
3.53029292033924e-10
4.06879564516994e-10
4.47966372521758e-10
4.77768182621883e-10
4.98337745999491e-10
5.11862302952037e-10
5.2034345019265e-10
5.25422356330745e-10
5.28330664050007e-10
5.29925233526711e-10
5.30763444059387e-10
5.31186425347365e-10
5.31391567922596e-10
5.31487281342713e-10
5.31530265953188e-10
5.31548842520211e-10
5.31556552272179e-10
5.31559604045014e-10
5.31560725396634e-10
5.31561045744843e-10
5.3156094565445e-10
5.3156037693827e-10
5.31558844893238e-10
5.31555014054695e-10
5.31545776628346e-10
5.31524244455014e-10
5.31475738593059e-10
5.31370189626283e-10
5.31148496559385e-10
5.30699476986786e-10
5.29823485002607e-10
5.28179450368835e-10
5.25215169129317e-10
5.20087405783072e-10
5.11589137360642e-10
4.98114311052969e-10
4.77700868839169e-10
4.48192363872535e-10
4.07538936503951e-10
3.5421650700539e-10
2.87687152042781e-10
2.08779026672372e-10
1.19949839991707e-10
2.7651486227058e-11
5.42097114140972e-13
1.85460092008492e-12
4.85713314413945e-10
1.67509550505059e-07
2.92936967674228e-07
4.04413433688412e-07
4.98480875205825e-07
5.73906137394672e-07
6.31411160435983e-07
6.73129177174581e-07
7.01951867609654e-07
7.20934320554048e-07
7.32864236612493e-07
7.40027143411017e-07
7.4414088630477e-07
7.46403588858778e-07
7.47597056148495e-07
7.48201453407589e-07
7.48495666176566e-07
7.48633464308012e-07
7.48695596824115e-07
7.48722562330603e-07
7.48733805842672e-07
7.48738280789961e-07
7.48739937132924e-07
7.48740417228101e-07
7.48740277564181e-07
7.48739451814068e-07
7.48737225248479e-07
7.4873167209766e-07
7.48718322473021e-07
7.48687298866728e-07
7.4861761736368e-07
7.4846642827975e-07
7.48149780557862e-07
7.47510244765e-07
7.46266027985146e-07
7.43937216457378e-07
7.39749113479516e-07
7.32521906617069e-07
7.20570496410626e-07
7.01655735409228e-07
6.7304186335183e-07
6.31714041184315e-07
5.74784132374085e-07
5.00058563310084e-07
4.06669511608084e-07
2.95605459653783e-07
1.69953794094093e-07
4.97397773317637e-10
1.91834744524492e-12
3.29253529965114e-12
8.68392440017311e-10
3.00793377651273e-07
5.24564764753117e-07
7.2245795889274e-07
8.88792664928806e-07
1.02175881499648e-06
1.12290951537363e-06
1.19618302958236e-06
1.24676455460298e-06
1.28006625762505e-06
1.30099692377462e-06
1.31356882231812e-06
1.32079348253218e-06
1.32477049063731e-06
1.32687016934027e-06
1.32793463920829e-06
1.32845342867654e-06
1.32869672848812e-06
1.3288065892991e-06
1.32885434560353e-06
1.3288742952494e-06
1.32888225399433e-06
1.32888521057347e-06
1.32888607686868e-06
1.32888584469387e-06
1.32888441000557e-06
1.32888052590559e-06
1.32887082835304e-06
1.32884749978441e-06
1.328793252838e-06
1.32867134135553e-06
1.32840669309463e-06
1.32785217012707e-06
1.32673176504807e-06
1.32455130790324e-06
1.32046899278433e-06
1.31312555678839e-06
1.30044999888232e-06
1.27948190784606e-06
1.24628137598907e-06
1.1960206229064e-06
1.12335025857051e-06
1.02309052170564e-06
8.91208137895907e-07
7.25919007295416e-07
5.28644162861431e-07
3.04484632523506e-07
8.85594780130549e-10
3.38454621909929e-12
4.72041114606225e-12
1.24567183287621e-09
4.30815389697164e-07
7.49327916901733e-07
1.02980253776052e-06
1.26474540630166e-06
1.45206456637701e-06
1.59429296817071e-06
1.69719333030703e-06
1.76817502380907e-06
1.81489399775864e-06
1.84425901159807e-06
1.861902447299e-06
1.87204680033014e-06
1.87763484073077e-06
1.8805874887303e-06
1.88208579569197e-06
1.88281679532249e-06
1.88316001966354e-06
1.8833152046159e-06
1.88338276437158e-06
1.88341103711905e-06
1.88342234248943e-06
1.88342655758402e-06
1.88342780524246e-06
1.88342749859022e-06
1.88342550862812e-06
1.88342009674697e-06
1.88340656924304e-06
1.88337400314673e-06
1.88329822354365e-06
1.88312780833826e-06
1.88275763792133e-06
1.88198157418671e-06
1.88041275897029e-06
1.87735828050902e-06
1.8716373573433e-06
1.86134265961172e-06
1.84356669564211e-06
1.81415006275551e-06
1.76754960287242e-06
1.69695628035715e-06
1.59479118910687e-06
1.45365101411651e-06
1.26765456914704e-06
1.03398138067896e-06
7.54241000429298e-07
4.35227174280457e-07
1.26616265517249e-09
4.8308358654254e-12
6.10203533071657e-12
1.61041157768913e-09
5.55692126075317e-07
9.64136888710465e-07
1.32242750073551e-06
1.62164567395756e-06
1.85966486577423e-06
2.0400936398904e-06
2.170491960027e-06
2.26038817256583e-06
2.31954335897733e-06
2.35672802669463e-06
2.37907673222781e-06
2.39193282692696e-06
2.39901921157356e-06
2.40276646186548e-06
2.40466967696051e-06
2.40559915516798e-06
2.4060360605711e-06
2.40623385277809e-06
2.4063200880027e-06
2.40635624064034e-06
2.40637073128807e-06
2.40637615422595e-06
2.40637777502212e-06
2.40637741102529e-06
2.40637491847228e-06
2.4063681080361e-06
2.40635106714574e-06
2.40631001776017e-06
2.40621444146948e-06
2.40599938005702e-06
2.405531966068e-06
2.40455151716105e-06
2.40256860102454e-06
2.3987062571063e-06
2.3914695696073e-06
2.37844295861328e-06
2.35594257914707e-06
2.31869488846852e-06
2.25966387602618e-06
2.17018887182695e-06
2.04059317587594e-06
1.86135405826629e-06
1.62477943239116e-06
1.32694227061851e-06
9.69439389120497e-07
5.60440110224757e-07
1.63266179685705e-09
6.22409668562766e-12
7.41528563032881e-12
1.95712317216748e-09
6.73811430868136e-07
1.16641153126331e-06
1.5970391198633e-06
1.95570441504533e-06
2.24044173131723e-06
2.45598170712985e-06
2.61161512774856e-06
2.71885629711197e-06
2.78941442854329e-06
2.83377187754567e-06
2.8604400576875e-06
2.87578835387775e-06
2.8842537075594e-06
2.88873345676421e-06
2.89101063488639e-06
2.89212381119431e-06
2.89264762872716e-06
2.89288505816498e-06
2.89298872387764e-06
2.89303226155314e-06
2.89304975457515e-06
2.89305632642772e-06
2.89305830929701e-06
2.89305790387963e-06
2.89305496006158e-06
2.89304687989736e-06
2.8930266441459e-06
2.89297787555674e-06
2.89286427150244e-06
2.89260851515795e-06
2.89205237687762e-06
2.89088527132211e-06
2.88852384389067e-06
2.88392249544773e-06
2.87529831343801e-06
2.85976950879698e-06
2.83293966275244e-06
2.78851168720139e-06
2.71807592922987e-06
2.61126297000112e-06
2.45644961936819e-06
2.24212582829327e-06
1.95886312506795e-06
1.60160281728274e-06
1.17177137577661e-06
6.78614577966826e-07
1.98003154596948e-09
7.54396617546709e-12
8.64398906579923e-12
2.28164802657184e-09
7.83925951939795e-07
1.35421898486068e-06
1.85123769725576e-06
2.26422452762786e-06
2.59151839957559e-06
2.83897565101733e-06
3.01752098840598e-06
3.14050238673573e-06
3.2214090917033e-06
3.27227939708938e-06
3.30287305105021e-06
3.32048886565793e-06
3.33021065319531e-06
3.33535891583915e-06
3.33797803214761e-06
3.33925953125569e-06
3.33986317769723e-06
3.34013711512889e-06
3.34025688902883e-06
3.3403072809228e-06
3.34032757744938e-06
3.3403352328701e-06
3.34033756449073e-06
3.3403371316744e-06
3.34033378557802e-06
3.34032456201553e-06
3.34030144624916e-06
3.34024571750262e-06
3.34011585041689e-06
3.33982335591321e-06
3.33918705325393e-06
3.33785115835604e-06
3.33514718583742e-06
3.32987659246408e-06
3.31999514570688e-06
3.30219785308321e-06
3.2714411544104e-06
3.2204977692977e-06
3.13970817119979e-06
3.01714459382854e-06
2.83940092036549e-06
2.59313121124746e-06
2.26727366615951e-06
1.85565071779889e-06
1.3594032060018e-06
7.88587169999176e-07
2.30442619965478e-09
8.77551211404269e-12
9.77688500803866e-12
2.58106588953455e-09
8.85179457429581e-07
1.52629761571676e-06
2.08352895998925e-06
2.54559727860038e-06
2.91124223640994e-06
3.18741469841948e-06
3.38655473928087e-06
3.52368043422964e-06
3.61388840642845e-06
3.67061601172703e-06
3.70474331488111e-06
3.7244027761464e-06
3.73525858619928e-06
3.74101123559233e-06
3.74394007250657e-06
3.74537435852409e-06
3.74605064042694e-06
3.74635788921701e-06
3.74649241099059e-06
3.74654910610827e-06
3.74657199702699e-06
3.74658066560583e-06
3.74658333037131e-06
3.74658288268458e-06
3.74657918030604e-06
3.74656893511793e-06
3.74654324485186e-06
3.7464812950981e-06
3.74633688880169e-06
3.74601153231873e-06
3.74530347269411e-06
3.74381637916652e-06
3.74080534660815e-06
3.73493446523792e-06
3.72392470216523e-06
3.70409068272615e-06
3.66980698776483e-06
3.61300956767047e-06
3.52291353335808e-06
3.38618552525066e-06
3.18780567853313e-06
2.91275488211572e-06
2.54846074617932e-06
2.08766943826855e-06
1.53115945646498e-06
8.89571966902565e-07
2.6031771540063e-09
9.90848346161852e-12
1.08070976719342e-11
2.85358592512572e-09
9.77081236187674e-07
1.68199664171294e-06
2.29322652297499e-06
2.79917164910916e-06
3.19902746112157e-06
3.50078166415407e-06
3.71825744742642e-06
3.86797485873959e-06
3.96646599343046e-06
4.02841342608053e-06
4.06569293207449e-06
4.08717770580867e-06
4.09904787218332e-06
4.10534203900897e-06
4.10854890389028e-06
4.11012063442136e-06
4.11086241593149e-06
4.11119978828799e-06
4.11134769266041e-06
4.11141013330946e-06
4.11143540419394e-06
4.11144501161273e-06
4.1114479921324e-06
4.11144754068964e-06
4.11144352471742e-06
4.11143237367786e-06
4.11140440069473e-06
4.11133693779071e-06
4.11117964679913e-06
4.11082515660372e-06
4.11005344333543e-06
4.10843213808615e-06
4.10514837182047e-06
4.09874401000508e-06
4.08673102818529e-06
4.06508539221816e-06
4.02766352225307e-06
3.96565595131623e-06
3.86727463140073e-06
3.71793155847653e-06
3.50116248067676e-06
3.20044236693605e-06
2.80182285057961e-06
2.29703842122589e-06
1.68646169650481e-06
9.81136545725651e-07
2.8747025362295e-09
1.09368653611717e-11
1.17315759899577e-11
3.09840109430641e-09
1.05945634075995e-06
1.82118078344692e-06
2.4803139209831e-06
3.02508068057021e-06
3.4551537432679e-06
3.77948115575317e-06
4.01312996157802e-06
4.17395482053486e-06
4.27975616790867e-06
4.34631393250665e-06
4.38638050921036e-06
4.40948123701113e-06
4.4222507582659e-06
4.42902586277055e-06
4.43248012221678e-06
4.4341744145139e-06
4.43497474487044e-06
4.435339120451e-06
4.43549906292401e-06
4.43556669546366e-06
4.43559413081697e-06
4.43560460039023e-06
4.43560787736978e-06
4.43560743115028e-06
4.43560314169796e-06
4.43559119375029e-06
4.43556121329923e-06
4.43548890600606e-06
4.43532029580453e-06
4.43494020522825e-06
4.43411253049781e-06
4.43237316376226e-06
4.42884934603256e-06
4.42197519197461e-06
4.40907837916619e-06
4.38583616855939e-06
4.34564787983674e-06
4.2790463290842e-06
4.17335793916169e-06
4.01288607939098e-06
3.77988749390628e-06
3.45649769186811e-06
3.02753238672907e-06
2.48379396311673e-06
1.82523270887668e-06
1.06315287010189e-06
3.11836745699038e-09
1.1858340896755e-11
1.25504936287396e-11
3.31553353114225e-09
1.13239167662429e-06
1.94413341699548e-06
2.64531021587766e-06
3.22407680486029e-06
3.68057853362225e-06
4.02463524745086e-06
4.2724170119305e-06
4.44295058495129e-06
4.55514532884397e-06
4.6257387250087e-06
4.66824766463181e-06
4.69276636193386e-06
4.70632625263197e-06
4.71352473901109e-06
4.71719720354532e-06
4.71899982863982e-06
4.71985203651039e-06
4.72024040655745e-06
4.72041108322156e-06
4.7204833664805e-06
4.72051275311467e-06
4.7205240073002e-06
4.72052755974554e-06
4.72052712598846e-06
4.72052260022989e-06
4.72050995698433e-06
4.72047822607084e-06
4.72040169913078e-06
4.72022323340792e-06
4.71982084986763e-06
4.7189444232857e-06
4.7171021514452e-06
4.71336898968431e-06
4.7060849461664e-06
4.69241669555321e-06
4.66778050924856e-06
4.62517628406593e-06
4.55456204571751e-06
4.4424901208045e-06
4.27229407090853e-06
4.02510996251857e-06
3.68189545874275e-06
3.22637074789899e-06
2.64849471709189e-06
1.94779991936529e-06
1.13574392493451e-06
3.33433130311734e-09
1.26736938994592e-11
1.32666694749876e-11
3.50568832204536e-09
1.19618633306688e-06
2.0514708843971e-06
2.78915433576528e-06
3.39739278607209e-06
3.87678063336989e-06
4.23791467281352e-06
4.49792990330384e-06
4.67687058043439e-06
4.79460541195859e-06
4.86869912996468e-06
4.91332894142281e-06
4.93908064481423e-06
4.95332887617686e-06
4.96089673146955e-06
4.9647599317481e-06
4.96665745625783e-06
4.9675552199265e-06
4.9679647207413e-06
4.96814488363493e-06
4.96822129574253e-06
4.9682524257429e-06
4.96826438745153e-06
4.96826819323663e-06
4.96826777746085e-06
4.96826304949964e-06
4.9682498049647e-06
4.96821656134854e-06
4.96813639250613e-06
4.9679494252338e-06
4.96752781055815e-06
4.96660931299615e-06
4.9646781954881e-06
4.96076420269053e-06
4.95312594020579e-06
4.93879078135759e-06
4.91294915862826e-06
4.86825532440598e-06
4.79416988430263e-06
4.67657516447485e-06
4.49796492550913e-06
4.23850359211405e-06
3.87812472064211e-06
3.39958973426826e-06
2.79210673681434e-06
2.0548105904753e-06
1.19923476283338e-06
3.52340287623913e-09
1.33862290428232e-11
1.38850269406942e-11
3.67011811885253e-09
1.25130697163776e-06
2.14406784124148e-06
2.91310643135873e-06
3.54662488992234e-06
4.0456301517657e-06
4.42139952460835e-06
4.69190093562686e-06
4.87805169280194e-06
5.00054156006321e-06
5.07764266490269e-06
5.12409691218948e-06
5.15091078334179e-06
5.16575292645828e-06
5.17364004308249e-06
5.17766842723525e-06
5.17964831702094e-06
5.18058571694872e-06
5.18101365561452e-06
5.18120212492594e-06
5.1812821689359e-06
5.18131484219422e-06
5.18132743595691e-06
5.18133147234419e-06
5.18133107849327e-06
5.18132617934765e-06
5.18131241979577e-06
5.1812778814536e-06
5.18119459979461e-06
5.18100037066986e-06
5.18056232945572e-06
5.17960788497782e-06
5.17760082018978e-06
5.1735321757966e-06
5.16559084532369e-06
5.15068487922068e-06
5.1238112394585e-06
5.07732806693024e-06
5.00026983422527e-06
4.87794485233579e-06
4.69212716622507e-06
4.42214773412821e-06
4.04705967209018e-06
3.54879574762649e-06
2.91590612473107e-06
2.14715853211991e-06
1.25410886088722e-06
3.68690707501502e-09
1.40012337337557e-11
1.4412084506311e-11
3.81049480389628e-09
1.29834651920917e-06
2.22298964295545e-06
3.01865987740645e-06
3.67362976349972e-06
4.1892745690343e-06
4.57745781993691e-06
4.85685692119846e-06
5.0491294814178e-06
5.17566024565206e-06
5.25531987645855e-06
5.3033282561618e-06
5.33104825163056e-06
5.34639788234557e-06
5.35455829486106e-06
5.35872836205374e-06
5.36077905485276e-06
5.36175061176665e-06
5.36219448544813e-06
5.36239015899541e-06
5.3624733674392e-06
5.36250739380031e-06
5.3625205467668e-06
5.36252479088823e-06
5.36252442152809e-06
5.36251937916866e-06
5.36250518309422e-06
5.3624695480333e-06
5.36238363335968e-06
5.36218326591674e-06
5.36173134027874e-06
5.36074650258531e-06
5.35867519512991e-06
5.3544756709695e-06
5.34627774611048e-06
5.33088832717809e-06
5.30314036270149e-06
5.25514096253378e-06
5.17556335289459e-06
5.04922923246871e-06
4.85730240157447e-06
4.5784066485131e-06
4.19084674312227e-06
3.67584806917099e-06
3.02139272599178e-06
2.22591820454357e-06
1.30096803116441e-06
3.82655971370858e-09
1.45254763857291e-11
1.48554689028905e-11
3.92878533787757e-09
1.33798478538511e-06
2.28942880611428e-06
3.10745934863686e-06
3.78042902237035e-06
4.31003372927241e-06
4.70863385569377e-06
4.99550306948907e-06
5.1929191349866e-06
5.32284836412603e-06
5.40466228698906e-06
5.45398102414056e-06
5.48246617453096e-06
5.49824506282389e-06
5.50663707036171e-06
5.51092744606977e-06
5.51303839557684e-06
5.51403909515935e-06
5.51449660441057e-06
5.51469846460069e-06
5.51478440303344e-06
5.51481960409356e-06
5.51483324693526e-06
5.51483767626154e-06
5.51483733282638e-06
5.5148321722705e-06
5.5148176104775e-06
5.51478105688912e-06
5.51469294006396e-06
5.5144874422477e-06
5.51402391243349e-06
5.51301366456505e-06
5.51088862123726e-06
5.506579566888e-06
5.49816680416633e-06
5.48237244784353e-06
5.45389192998882e-06
5.40462187679062e-06
5.32293262608589e-06
5.19323788278224e-06
4.99618973577285e-06
4.70981868956692e-06
4.3118008049475e-06
3.78276506657323e-06
3.11021013588374e-06
2.29228312317966e-06
1.34049444895442e-06
3.94434753667264e-09
1.4966732529229e-11
1.52234524345015e-11
4.02713232011367e-09
1.3709508841141e-06
2.34464492755378e-06
3.18122376228073e-06
3.86911977388122e-06
4.41030151697635e-06
4.81754373839392e-06
5.11061435333935e-06
5.31230409330616e-06
5.44506009992107e-06
5.52866817372912e-06
5.57907976781287e-06
5.6082040824551e-06
5.62434217400377e-06
5.63292835166349e-06
5.63731980583816e-06
5.63948149753499e-06
5.64050680166314e-06
5.64097585757605e-06
5.64118297564188e-06
5.64127124505471e-06
5.64130745550251e-06
5.64132152312429e-06
5.64132611587039e-06
5.64132579888519e-06
5.64132054232134e-06
5.64130567811286e-06
5.64126836488516e-06
5.64117842913112e-06
5.64096869629538e-06
5.64049558703574e-06
5.63946435399206e-06
5.63729490756314e-06
5.63289529328626e-06
5.62430480670502e-06
5.60817531469086e-06
5.57908829789688e-06
5.52876595256943e-06
5.44532760738652e-06
5.31284885729058e-06
5.1115576914818e-06
4.81899271521188e-06
4.41230812590025e-06
3.87163641639169e-06
3.18407065836224e-06
2.34750781084715e-06
1.37341458883567e-06
4.0424136500529e-09
1.53333391262091e-11
1.55245245559549e-11
4.10774229740928e-09
1.39798824401444e-06
2.38990907250033e-06
3.24167516850931e-06
3.9417921569506e-06
4.49245527384844e-06
4.9067791201916e-06
5.20493536898324e-06
5.41013333408196e-06
5.54521255610475e-06
5.63029716588132e-06
5.68160951588108e-06
5.71126152752972e-06
5.72769672430247e-06
5.73644382654246e-06
5.74091923589639e-06
5.74312317502817e-06
5.74416901965044e-06
5.74464774483016e-06
5.74485928233458e-06
5.74494952040905e-06
5.74498658889642e-06
5.74500102098227e-06
5.74500575644744e-06
5.74500546574666e-06
5.74500013270354e-06
5.74498502220815e-06
5.7449470898108e-06
5.74485567298702e-06
5.74464249327752e-06
5.74416158572219e-06
5.74311325957972e-06
5.74090761945829e-06
5.73643413457127e-06
5.72769858003816e-06
5.71129537443572e-06
5.68171278134534e-06
5.63053028007748e-06
5.54566180739873e-06
5.41090628009756e-06
5.2061446043403e-06
4.90851267359164e-06
4.49473702875596e-06
3.944542291544e-06
3.24468615277097e-06
2.39285417081969e-06
1.40046574596321e-06
4.12295097497108e-09
1.56337853758317e-11
1.57670107370012e-11
4.17278560725449e-09
1.41982329328033e-06
2.42645420936165e-06
3.29047549253571e-06
4.0004560293702e-06
4.55877525226989e-06
4.97882155951429e-06
5.28109119711403e-06
5.48912989449247e-06
5.6260927592797e-06
5.71237629869955e-06
5.76442125286487e-06
5.79450322694467e-06
5.81118097938853e-06
5.8200597414952e-06
5.82460399866761e-06
5.82684267153066e-06
5.82790545161009e-06
5.82839217508929e-06
5.82860738269356e-06
5.82869926385015e-06
5.82873705334664e-06
5.82875179469032e-06
5.82875665351928e-06
5.82875638843455e-06
5.82875099598671e-06
5.82873568861951e-06
5.82869726035107e-06
5.82860465815295e-06
5.82838872014046e-06
5.82790156900372e-06
5.82683954566264e-06
5.82460487348093e-06
5.8200720760962e-06
5.81121993747795e-06
5.79459658791636e-06
5.76461514585626e-06
5.71274000239949e-06
5.62671942565598e-06
5.49012912580256e-06
5.2825699487241e-06
4.98085271643643e-06
4.56135845315905e-06
4.00348153042752e-06
3.29370654408583e-06
2.42954373005024e-06
1.42236612407949e-06
4.18810706694708e-09
1.58763510815918e-11
1.59587489671597e-11
4.2243107465871e-09
1.4371386872014e-06
2.45543296598464e-06
3.32917269113101e-06
4.04697858120406e-06
4.61137605049369e-06
5.03596957906384e-06
5.34151143283492e-06
5.55181286324328e-06
5.69027832189916e-06
5.77751983691371e-06
5.83015123179731e-06
5.86057807597344e-06
5.87745080582203e-06
5.88643565316019e-06
5.89103552748999e-06
5.89330233823889e-06
5.89437888072349e-06
5.89487212723566e-06
5.89509034087231e-06
5.89518357517786e-06
5.89522196284219e-06
5.89523696348093e-06
5.89524192783975e-06
5.89524168737966e-06
5.89523625039099e-06
5.89522078944754e-06
5.89518197303302e-06
5.89508844304062e-06
5.89487034535747e-06
5.8943783006814e-06
5.89330552685932e-06
5.89104803400985e-06
5.88646854597185e-06
5.87752451053473e-06
5.86072743088178e-06
5.83043091673625e-06
5.77800816201686e-06
5.69107609421848e-06
5.55303339933002e-06
5.34325872628368e-06
5.0383048585187e-06
4.61427829571295e-06
4.05031047586616e-06
3.3326674566233e-06
2.45871692256352e-06
1.43978926788677e-06
4.23990289496428e-09
1.60688010896112e-11
1.61068288987762e-11
4.26417478389549e-09
1.45055151618931e-06
2.47788332669674e-06
3.35915707105305e-06
4.08303372485294e-06
4.65215096664771e-06
5.08027942957409e-06
5.38836844899552e-06
5.60043394945949e-06
5.74007289782404e-06
5.82806402310577e-06
5.88115528901649e-06
5.91185320654601e-06
5.92887958376249e-06
5.93794826100713e-06
5.94259221698251e-06
5.94488140281142e-06
5.94596892894052e-06
5.94646740307171e-06
5.94668803774611e-06
5.94678236872852e-06
5.94682124528374e-06
5.94683646041531e-06
5.94684151407539e-06
5.94684129706747e-06
5.94683582846608e-06
5.94682025183176e-06
5.94678114131537e-06
5.94668690775607e-06
5.94646717041501e-06
5.94597140317691e-06
5.94489043194345e-06
5.942615495378e-06
5.93800023480735e-06
5.92898564305672e-06
5.91205492924771e-06
5.88151567080916e-06
5.82867043886407e-06
5.74103435951953e-06
5.60186880560419e-06
5.3903799564487e-06
5.08292015434217e-06
4.65538241419854e-06
4.08669327108782e-06
3.36294764581878e-06
2.48139995607684e-06
1.4533432120328e-06
4.28016680001458e-09
1.62181393591416e-11
1.6217392580132e-11
4.29398970746693e-09
1.4605964457329e-06
2.49470214208343e-06
3.38162757810649e-06
4.11006303232381e-06
4.68272902469407e-06
5.11351930872122e-06
5.42352964569104e-06
5.63692838722483e-06
5.7774561961524e-06
5.86601652134295e-06
5.91945793530963e-06
5.95036286839234e-06
5.96750696759167e-06
5.97664010130375e-06
5.98131808145086e-06
5.98362460946898e-06
5.98472068793873e-06
5.9852232538817e-06
5.98544579539751e-06
5.9855409969124e-06
5.98558026559167e-06
5.98559565530409e-06
5.9856007836455e-06
5.98560058886424e-06
5.9855950999515e-06
5.98557944091933e-06
5.98554011879889e-06
5.98544537788709e-06
5.98522445492586e-06
5.98472598566732e-06
5.98363903865307e-06
5.98135133097618e-06
5.97670977429124e-06
5.9676431281729e-06
5.95061350686986e-06
5.9198940856553e-06
5.86673455004611e-06
5.77857366547654e-06
5.63856966267029e-06
5.42579901173844e-06
5.11646312540261e-06
4.68629402614543e-06
4.11406335366887e-06
3.38573600190829e-06
2.49847909610872e-06
1.46355426159782e-06
4.31048334178401e-09
1.6330420637269e-11
1.62954909530608e-11
4.3150833360073e-09
1.46771336584539e-06
2.50662574962898e-06
3.39756714216609e-06
4.12924715448989e-06
4.70444350554573e-06
5.13713580285457e-06
5.44852241309281e-06
5.6628788789118e-06
5.80404724278119e-06
5.89301923836571e-06
5.94671490191557e-06
5.97777080951344e-06
5.99500117045236e-06
6.00418177805685e-06
6.00888495694428e-06
6.01120440599659e-06
6.01230689855329e-06
6.01281255612478e-06
6.01303655101116e-06
6.01313242325593e-06
6.01317199834999e-06
6.01318752715659e-06
6.01319271708793e-06
6.01319254335229e-06
6.01318704412513e-06
6.01317133228359e-06
6.01313187183774e-06
6.01303679754002e-06
6.01281509063971e-06
6.01231482027979e-06
6.01122385473405e-06
6.00892748471295e-06
6.00426795020715e-06
5.99516546416028e-06
5.97806732295239e-06
5.947222425526e-06
5.89384299430127e-06
5.80531352839133e-06
5.66471876229694e-06
5.45104252556678e-06
5.14037820568027e-06
4.70834233427597e-06
4.13359508092637e-06
3.40200720848778e-06
2.51068166072151e-06
1.47085497415005e-06
4.33215559447446e-09
1.64106134513976e-11
1.6344987157136e-11
4.32847258327565e-09
1.47223887620362e-06
2.51421662036927e-06
3.40772568249514e-06
4.141486102165e-06
4.71831020532457e-06
5.15223066645313e-06
5.46450985222958e-06
5.67949057741837e-06
5.82107886259599e-06
5.91032247954051e-06
5.96418708960321e-06
5.99534409943759e-06
6.01263271380193e-06
6.02184567093524e-06
6.02656618649005e-06
6.02889461704067e-06
6.03000161796701e-06
6.03050947560827e-06
6.0307345195994e-06
6.03083088442853e-06
6.03087068949726e-06
6.03088632572621e-06
6.03089156553414e-06
6.03089141178682e-06
6.03088591128503e-06
6.03087017347046e-06
6.03083064122125e-06
6.0307353913033e-06
6.03051326404289e-06
6.03001200613671e-06
6.02891878518066e-06
6.02661744516412e-06
6.02194739100262e-06
6.01282357187489e-06
5.99568404479252e-06
5.96476241534408e-06
5.91124710299969e-06
5.82248788335139e-06
5.68152218770821e-06
5.46727393038257e-06
5.15576633804249e-06
4.7225406238635e-06
4.14618389469064e-06
3.41250469172332e-06
2.51856267070742e-06
1.47557568847183e-06
4.34617872150204e-09
1.64625054443475e-11
1.63684966218028e-11
4.33484659241099e-09
1.47440085293579e-06
2.51785482876107e-06
3.41260920691509e-06
4.14738649938029e-06
4.72501332175017e-06
5.15954571542778e-06
5.47227495810416e-06
5.68757477293324e-06
5.82938102901042e-06
5.91876808165648e-06
5.97272356394834e-06
6.00393604266456e-06
6.02125729469011e-06
6.03048877831216e-06
6.03521945175885e-06
6.0375532715187e-06
6.03866304652459e-06
6.03917229536421e-06
6.03939802349082e-06
6.03949472137178e-06
6.03953468883642e-06
6.03955040499274e-06
6.03955568472584e-06
6.03955555017213e-06
6.03955005640348e-06
6.03953431674904e-06
6.0394947735276e-06
6.03939949375524e-06
6.03917728362651e-06
6.03867579420085e-06
6.03758195501499e-06
6.0352790677552e-06
6.03060539309581e-06
6.02147363112418e-06
6.00431771062134e-06
5.97336415765728e-06
5.91979005780582e-06
5.83092827671668e-06
5.68979279247541e-06
5.47527738286616e-06
5.16336956551236e-06
4.72957181308127e-06
4.15243321443756e-06
3.41772935064382e-06
2.52249600442798e-06
1.4779388860105e-06
4.35322246763503e-09
1.64886414985759e-11
1.63673520699707e-11
4.33455659437635e-09
1.47431521505626e-06
2.51773311940967e-06
3.41247366866376e-06
4.14725456135896e-06
4.72489771027449e-06
5.15945448687728e-06
5.47221180699686e-06
5.68753972105406e-06
5.82937142581185e-06
5.91877972906503e-06
5.97275173790207e-06
6.00397627855347e-06
6.0213058316146e-06
6.03054272781946e-06
6.03527676029707e-06
6.03761257402045e-06
6.03872348801994e-06
6.03923336785546e-06
6.03945943855807e-06
6.03955632107105e-06
6.03959638858486e-06
6.03961215958262e-06
6.03961747028803e-06
6.03961735433624e-06
6.03961187493305e-06
6.03959615657906e-06
6.03955666120434e-06
6.03946149313395e-06
6.03923952818424e-06
6.03873854138214e-06
6.03764567057921e-06
6.03534454513867e-06
6.03067390325964e-06
6.02154707999727e-06
6.0043987543845e-06
5.97345619755233e-06
5.91989702008855e-06
5.83105409860713e-06
5.68994059427849e-06
5.4754484025909e-06
5.16356203004437e-06
4.72977996553887e-06
4.1526466661294e-06
3.41793277622906e-06
2.52266901225245e-06
1.47805572888796e-06
4.3536204174644e-09
1.64902862542497e-11
1.63415933004199e-11
4.32761289319489e-09
1.4719848704331e-06
2.5138550462283e-06
3.40732236019577e-06
4.14109289551294e-06
4.71796522288221e-06
5.15195823349131e-06
5.46432129855728e-06
5.67938620505696e-06
5.82105089338338e-06
5.91035841141225e-06
5.96427279406089e-06
5.99546616295949e-06
6.01277981997848e-06
6.02200911628736e-06
6.02673977668537e-06
6.02907423121987e-06
6.03018467363885e-06
6.03069443770696e-06
6.03092051636123e-06
6.0310174384478e-06
6.03105754517114e-06
6.03107334653946e-06
6.03107867950351e-06
6.03107858171681e-06
6.03107312460115e-06
6.03105745139813e-06
6.03101806432726e-06
6.03092315300729e-06
6.03070176832691e-06
6.03020203174996e-06
6.02911174034905e-06
6.02681572755316e-06
6.02215483879027e-06
6.01304593585116e-06
5.99592933022815e-06
5.9650408562454e-06
5.91157048408395e-06
5.82286797335566e-06
5.68196823017382e-06
5.4677894319535e-06
5.15634569107731e-06
4.723166235761e-06
4.14682433531387e-06
3.41311390860502e-06
2.51907974320626e-06
1.47592415831282e-06
4.34736358382239e-09
1.64673979381184e-11
1.62899764178119e-11
4.31368701836431e-09
1.46730013549698e-06
2.50603535229823e-06
3.39690618796194e-06
4.1286006680563e-06
4.70387480366416e-06
5.13668596503959e-06
5.44821115151063e-06
5.66270749227678e-06
5.80400335339267e-06
5.89308233921626e-06
5.94686155699678e-06
5.97797862705514e-06
5.99525118348078e-06
6.00445935717509e-06
6.00917966832251e-06
6.01150929744654e-06
6.01261760811067e-06
6.01312648877812e-06
6.01335223224234e-06
6.01344904539038e-06
6.01348912904011e-06
6.0135049356841e-06
6.01351028200385e-06
6.01351020215273e-06
6.01350477604919e-06
6.01348917385317e-06
6.01344996010956e-06
6.01335546070703e-06
6.01313501334047e-06
6.01263732113405e-06
6.01155131617423e-06
6.00926395903885e-06
6.00461991608549e-06
5.99554261233625e-06
5.97848311227241e-06
5.94769400588645e-06
5.8943900170124e-06
5.80595545387398e-06
5.66547059442505e-06
5.45190940964529e-06
5.14134983378604e-06
4.70938832411839e-06
4.13466220147157e-06
3.40301851459879e-06
2.51153658124203e-06
1.47142877413012e-06
4.33410068676545e-09
1.64186360842983e-11
1.62099868786826e-11
4.2921155599713e-09
1.46004018498674e-06
2.49390244566022e-06