/*--------------------------------*- C++ -*----------------------------------*\
  =========                 |
  \\      /  F ield         | OpenFOAM: The Open Source CFD Toolbox
   \\    /   O peration     | Website:  https://openfoam.org
    \\  /    A nd           | Version:  10
     \\/     M anipulation  |
\*---------------------------------------------------------------------------*/
FoamFile
{
    format      ascii;
    class       volScalarField;
    location    "9";
    object      h;
}
// * * * * * * * * * * * * * * * * * * * * * * * * * * * * * * * * * * * * * //

dimensions      [0 2 -2 0 0 0 0];

internalField   nonuniform List<scalar> 
2500
(
6077.30419287113
6075.77366101871
6067.69491431161
6060.83705427174
6056.08256093249
6053.02079821942
6051.1177146115
6049.96290527128
6049.28009378583
6048.88925890687
6048.67165247392
6048.55505958804
6048.49478975225
6048.4641940781
6048.44902919242
6048.44139621569
6048.43787239012
6048.43591410172
6048.4346293471
6048.43388587929
6048.43336096026
6048.43296002289
6048.43265322187
6048.43246693292
6048.43228697358
6048.43215442929
6048.43211891501
6048.43213730753
6048.43222554607
6048.43240630166
6048.43272800393
6048.43335933571
6048.43436792971
6048.43626363911
6048.44002974692
6048.44771675993
6048.46341418143
6048.4948340411
6048.55723109354
6048.67586093479
6048.89509226602
6049.28752128414
6049.96851104271
6051.11714497786
6053.01154267415
6056.06321017943
6060.82382024273
6067.71963933932
6075.82621366537
6077.22471840027
5385.62741273998
5370.08298105051
5346.18045947684
5326.66033279938
5313.03036447053
5304.11968510089
5298.47931684629
5294.9907485563
5292.88617833544
5291.65345327679
5290.95406730241
5290.57094711134
5290.36841767885
5290.26484092257
5290.21357428702
5290.18887806809
5290.17741999991
5290.17206622683
5290.16947172221
5290.16821207947
5290.167532042
5290.16711123421
5290.16682708898
5290.16664572981
5290.16649544695
5290.16638520527
5290.16634185078
5290.16635049628
5290.1664344964
5290.16666503418
5290.16720305711
5290.16842556925
5290.17105174335
5290.17675741552
5290.18903536979
5290.21500198197
5290.26852690152
5290.37556680363
5290.58320888962
5290.97208149515
5291.67656807067
5292.91161511888
5295.0108873952
5298.48293676861
5304.09751738918
5312.98866959252
5326.65070479801
5346.29821133992
5370.31629221884
5385.22208901594
4652.06873122092
4620.95365080468
4585.00871397143
4556.85697919732
4537.43885900695
4524.81656407594
4516.85339550472
4511.93721260666
4508.97273896604
4507.23465372528
4506.24718928775
4505.70499052977
4505.41756363827
4505.27037266321
4505.19752439481
4505.16261348821
4505.14644873773
4505.13909912812
4505.1357602536
4505.13424474204
4505.13351567012
4505.13311999263
4505.13287806272
4505.13272611637
4505.13261118502
4505.13252728731
4505.13248706308
4505.13248693522
4505.13256065934
4505.13280821934
4505.13344869688
4505.13499235786
4505.13853273757
4505.14644226946
4505.16369310914
4505.20040022123
4505.27623287029
4505.42794076657
4505.72163992681
4506.27106384783
4507.2650671825
4509.00594067718
4511.96422087713
4516.8610278256
4524.79554117595
4537.40710709444
4556.90191481403
4585.29184118028
4621.51944823277
4651.93784195629
3954.33348737288
3912.46909460819
3871.52816158085
3840.77328873925
3820.06893292391
3806.87845179466
3798.70838867082
3793.74739638882
3790.79900451832
3789.09181342106
3788.1324673956
3787.61071081405
3787.33645339942
3787.19713584447
3787.12872877133
3787.09623553313
3787.08131610547
3787.07463752752
3787.0716879604
3787.07039451661
3787.06980507417
3787.06950481788
3787.06932956412
3787.06922077379
3787.06914201472
3787.06908327064
3787.06904914514
3787.06903775656
3787.06907683085
3787.06925988639
3787.06978346282
3787.071104742
3787.07424800085
3787.08140074718
3787.09719544086
3787.13116352813
3787.20202249037
3787.34511126412
3787.62466458115
3788.15280603513
3789.11841644117
3790.82923602982
3793.77447751499
3798.72244616779
3806.87567392691
3820.07927596305
3840.91056251242
3872.00702786044
3913.42950235959
3954.95491685716
3348.85303330136
3303.38183481104
3263.54067031544
3234.77383753767
3215.90858627099
3204.15332080015
3197.01691020781
3192.75973803132
3190.26755692882
3188.84255777073
3188.05013843838
3187.62290940217
3187.39997944995
3187.28746157309
3187.23253919257
3187.20661026953
3187.19477989319
3187.1895398502
3187.18726978334
3187.18630210124
3187.18588112038
3187.18567869694
3187.18556537966
3187.18549647973
3187.18544824178
3187.18541084769
3187.18538489339
3187.1853707746
3187.18538057411
3187.18549168594
3187.18586314452
3187.18684486411
3187.18925503313
3187.19481930104
3187.20721955355
3187.23410825117
3187.29063557452
3187.40566475662
3187.63219452662
3188.06394523594
3188.86112335695
3190.28951571809
3192.78107766787
3197.03216746415
3204.1647033257
3215.95413714963
3234.98041187258
3264.15657135989
3304.65411433349
3350.28234933495
2864.17034125927
2821.52651817063
2787.05830343869
2763.06912862445
2747.74851735711
2738.41670202997
2732.86631197651
2729.61377773294
2727.73776649321
2726.67785273133
2726.09405279192
2725.78167021653
2725.61964190918
2725.53826188503
2725.49870628675
2725.48011077463
2725.47166653147
2725.4679566658
2725.46637442183
2725.46571776368
2725.46544559089
2725.46532325865
2725.46525813375
2725.46521980635
2725.46519396446
2725.46517255795
2725.46515445433
2725.46514017946
2725.46513561184
2725.4651926926
2725.46542513358
2725.46608307279
2725.46775091508
2725.47165161008
2725.48040804535
2725.49951932228
2725.53994110488
2725.6227008089
2725.78675585291
2726.10178476379
2726.68854332063
2727.75088030772
2729.62736879379
2732.87827781523
2738.43301743019
2747.8090097454
2763.2986504712
2787.71255386003
2822.93076356442
2866.15450719562
2503.43031159605
2467.72762714602
2440.64519856822
2422.42522601424
2411.08875762277
2404.33868057974
2400.40493865018
2398.14001942045
2396.85233385563
2396.13298440001
2395.74017505779
2395.53134795653
2395.42355289729
2395.36960787191
2395.34346367559
2395.33120820553
2395.32566304716
2395.32324342463
2395.32222591441
2395.32181497524
2395.32165387332
2395.32158792425
2395.32155540358
2395.32153729503
2395.32152588841
2395.3215151443
2395.32150346502
2395.32149120972
2395.32148197727
2395.32150464057
2395.32163489765
2395.32204012571
2395.32310327198
2395.3256217893
2395.33131052633
2395.34379116489
2395.37031270305
2395.42487122823
2395.53359585449
2395.7436870174
2396.13798525416
2396.85865469221
2398.14683537194
2400.41190311957
2404.35271281762
2411.14568090501
2422.63529258437
2441.24547274988
2469.07115473405
2505.59625697412
2252.24434222226
2225.02735190149
2205.43491330887
2192.66045840642
2184.91092827769
2180.39857042925
2177.82132317021
2176.36291834854
2175.54527859242
2175.09337067927
2174.84853135088
2174.71909247453
2174.65253251994
2174.6193095645
2174.60323855552
2174.59571906178
2174.59232625421
2174.59085477572
2174.59024434545
2174.5900047658
2174.58991706067
2174.58988609562
2174.58987276523
2174.58986617687
2174.58986288492
2174.58985849185
2174.58985149971
2174.58984221032
2174.58983392933
2174.58983883044
2174.58990361242
2174.59013509834
2174.5907668379
2174.59228370297
2174.59572933066
2174.60332045917
2174.61950852012
2174.65292820069
2174.71980288655
2174.84969378428
2175.09508762699
2175.54747034972
2176.36520131597
2177.82388847715
2180.40731023104
2184.95423334344
2192.82666761488
2205.92371127234
2226.17064211763
2254.2620825887
2087.77245676703
2068.63082047832
2055.45155998308
2047.1040261166
2042.16200157511
2039.34647934574
2037.76988212532
2036.89279056472
2036.40771521792
2036.14233417496
2035.99958562724
2035.92448156743
2035.88597776644
2035.86679258541
2035.85752200587
2035.85318914688
2035.85123846111
2035.85039721981
2035.85005293096
2035.84992175359
2035.84987810907
2035.84986648322
2035.84986241459
2035.84986112779
2035.84986182975
2035.84986086499
2035.84985698158
2035.84985057146
2035.84984362581
2035.84984199504
2035.84987133586
2035.84999419406
2035.85034701055
2035.85120662258
2035.8531700373
2035.85751016976
2035.86678851567
2035.88599113119
2035.92453551376
2035.99971125309
2036.14254437122
2036.4079178908
2036.89271182253
2037.7696504078
2039.35018199353
2042.18979943455
2047.22073134478
2055.81127736447
2069.51169381277
2089.4396918649
1986.05167209713
1973.51294798743
1965.20705441807
1960.08568631403
1957.12362938148
1955.47151103509
1954.56414545637
1954.0677553059
1953.7968702164
1953.65011826139
1953.57170638404
1953.53062419326
1953.50961150283
1953.49915271354
1953.49410092626
1953.49174103987
1953.49068050203
1953.49022564933
1953.49004204252
1953.48997415824
1953.48995430296
1953.48995198023
1953.48995263029
1953.48995362273
1953.48995485438
1953.48995485487
1953.48995290199
1953.48994887653
1953.4899437134
1953.48994060628
1953.48995230656
1953.4900134404
1953.49019983618
1953.49066119723
1953.49172090001
1953.49406953365
1953.4990982677
1953.50952168559
1953.53048862022
1953.5715135479
1953.64983763103
1953.79639079788
1954.06681633774
1954.56266719744
1955.47186817921
1957.13879928455
1960.15955181463
1965.44942536401
1974.13552740279
1987.30124986871
1926.39585292517
1918.68947286523
1913.75508565696
1910.78752006147
1909.10898717488
1908.19179546157
1907.69753359752
1907.43157547558
1907.28833872751
1907.2114769649
1907.17066564944
1907.14936193639
1907.13848469269
1907.13307332965
1907.13045919792
1907.12923809613
1907.1286901572
1907.12845645051
1907.12836348698
1907.12833074311
1907.12832305905
1907.12832366066
1907.12832517486
1907.12832670839
1907.12832784562
1907.12832808041
1907.12832715693
1907.12832469679
1907.12832123812
1907.1283185314
1907.12832234579
1907.12835101767
1907.1284447107
1907.12868046513
1907.12922512061
1907.1304346538
1907.13302625747
1907.13840142661
1907.14922699597
1907.17045855458
1907.21115720293
1907.28779802742
1907.43057119438
1907.6958426337
1908.19055699349
1909.11583267459
1910.83005563113
1913.90606460416
1919.0971873386
1927.25795848378
1893.10316159837
1888.63284755702
1885.85538419177
1884.2232754853
1883.31948978422
1882.83534107449
1882.57924017765
1882.44366915162
1882.37160202514
1882.33329062639
1882.31306957028
1882.30254841379
1882.29718339792
1882.29451433754
1882.2932242157
1882.29262139137
1882.29235124693
1882.29223668471
1882.2921918447
1882.29217718574
1882.29217471596
1882.29217570229
1882.29217709969
1882.29217838338
1882.29217921885
1882.2921794974
1882.29217907317
1882.29217763578
1882.29217550561
1882.29217364846
1882.29217448895
1882.29218720904
1882.29223215384
1882.29234737241
1882.29261514723
1882.29321064791
1882.29448650531
1882.29713216536
1882.30246253374
1882.31293255002
1882.33306831565
1882.37120612792
1882.44289889624
1882.57783362338
1882.83370950505
1883.32175219034
1884.24566236849
1885.9429929892
1888.88222636317
1893.65647318151
1875.36614152341
1872.90661364706
1871.41889646089
1870.56330780506
1870.09897304638
1869.85494728364
1869.72818607621
1869.66215986431
1869.62751489159
1869.60926715509
1869.59969108119
1869.59472309649
1869.59219199916
1869.59093227153
1869.59032278527
1869.59003782486
1869.58991028066
1869.58985652186
1869.58983587074
1869.58982974602
1869.58982919994
1869.58982996986
1869.58983096226
1869.58983183211
1869.5898323722
1869.58983259175
1869.58983239927
1869.58983160122
1869.58983037746
1869.58982919591
1869.58982914053
1869.58983455749
1869.58985521407
1869.58990928461
1869.59003569967
1869.59031708385
1869.59091947389
1869.59216736767
1869.59468049006
1869.59962038329
1869.60914494924
1869.62727835312
1869.66166132122
1869.72719577545
1869.85352568077
1870.09916332862
1870.57407331696
1871.46653566928
1873.05000835703
1875.6991653484
1866.31910456349
1865.03023365324
1864.26906065229
1863.83998260449
1863.61152193064
1863.4936469234
1863.43349077632
1863.40265496131
1863.38668369594
1863.37834877264
1863.37399916175
1863.37174856723
1863.3706025287
1863.37003170168
1863.36975516895
1863.36962577064
1863.36956792162
1863.36954369952
1863.36953463011
1863.3695321973
1863.36953218949
1863.36953272084
1863.36953333485
1863.36953385675
1863.36953417417
1863.36953431515
1863.3695342281
1863.36953380799
1863.36953314726
1863.36953246
1863.36953224501
1863.36953445587
1863.36954359436
1863.3695680465
1863.36962554806
1863.36975359052
1863.37002730984
1863.37059336063
1863.37173195375
1863.37396991237
1863.37829284214
1863.3865609077
1863.40236717001
1863.43286788674
1863.49262158824
1863.61102277868
1863.84467947695
1864.2934513811
1865.10816948035
1866.5082707835
1861.88939340592
1861.24376118781
1860.87053952933
1860.66402341534
1860.55603105488
1860.5012878
1860.47382811641
1860.45997360624
1860.45289036212
1860.44922781072
1860.44732696113
1860.44634578157
1860.44584625681
1860.44559717677
1860.44547632353
1860.44541971429
1860.44539443553
1860.44538392439
1860.44538010183
1860.44537918571
1860.44537928857
1860.44537961092
1860.44537995623
1860.44538024324
1860.44538041595
1860.44538049582
1860.44538045659
1860.44538024597
1860.44537990847
1860.44537953893
1860.44537936463
1860.4453802325
1860.44538414245
1860.44539483212
1860.44542010913
1860.44547639073
1860.44559645994
1860.4458441663
1860.44634145447
1860.44731812196
1860.44920684046
1860.45283369753
1860.45982137256
1860.47346849623
1860.50063253748
1860.55546291314
1860.66584611074
1860.88234131274
1861.28398421171
1861.99133289745
1859.80230647112
1859.49216497562
1859.31627872674
1859.22061536003
1859.17143413911
1859.14692131225
1859.13482988876
1859.12882397895
1859.12579306775
1859.12424033113
1859.12343882707
1859.12302602252
1859.12281584863
1859.12271090317
1859.12265989115
1859.12263596744
1859.12262529618
1859.12262089078
1859.12261933949
1859.12261901423
1859.1226191019
1859.12261927878
1859.12261945887
1859.12261960602
1859.12261969397
1859.12261973536
1859.12261971781
1859.12261961689
1859.12261945299
1859.12261926721
1859.12261916225
1859.12261949166
1859.12262111427
1859.12262564524
1859.12263641303
1859.12266037509
1859.12271136293
1859.12281623442
1859.12302621784
1859.12343799708
1859.12423466576
1859.12576971057
1859.12874897551
1859.13463616785
1859.14653838216
1859.17100146944
1859.22121237847
1859.3216907997
1859.51195601974
1859.85465157811
1858.85395774932
1858.71068724069
1858.63081451979
1858.5880581198
1858.56642519148
1858.5558154851
1858.55066633666
1858.54814781916
1858.54689324493
1858.54625648802
1858.54592956592
1858.54576153286
1858.5456759543
1858.54563315143
1858.54561230256
1858.54560251085
1858.54559814741
1858.54559635883
1858.54559574904
1858.54559564016
1858.54559569455
1858.54559578409
1858.54559587207
1858.545595943
1858.54559598517
1858.54559600511
1858.54559599737
1858.54559595108
1858.54559587518
1858.54559578715
1858.54559573204
1858.5455958542
1858.54559651079
1858.54559837795
1858.54560283434
1858.54561274048
1858.54563375425
1858.54567682009
1858.54576276802
1858.54593093983
1858.54625622183
1858.54688474342
1858.54811300619
1858.55056787809
1858.55560712604
1858.56614887376
1858.58819545307
1858.63317135486
1858.72000297368
1858.87966602184
1858.43752337211
1858.3737163682
1858.33868422359
1858.3202046566
1858.31099365196
1858.30654493686
1858.30441943343
1858.30339542374
1858.30289188729
1858.30263869877
1858.3025094005
1858.30244306831
1858.30240926655
1858.30239232727
1858.30238405669
1858.30238016554
1858.30237843242
1858.30237772636
1858.3023774932
1858.30237745858
1858.30237748654
1858.30237752856
1858.30237756891
1858.3023776011
1858.30237762012
1858.30237762911
1858.30237762577
1858.30237760545
1858.30237757198
1858.3023775326
1858.3023775065
1858.30237755162
1858.30237781198
1858.30237856237
1858.30238035869
1858.30238434454
1858.30239276908
1858.30240996316
1858.30244414474
1858.30251083432
1858.30263970725
1858.30288926329
1858.30338006312
1858.30437182817
1858.30643813267
1858.31083552948
1858.32020023501
1858.33965989622
1858.37792396028
1858.44963899245
1858.26047392319
1858.23301546089
1858.21814467373
1858.21040564171
1858.2066016776
1858.20479093653
1858.20393872997
1858.20353418185
1858.20333779485
1858.2032399684
1858.20319027442
1858.20316482415
1858.20315184413
1858.20314532429
1858.20314213193
1858.2031406263
1858.20313995518
1858.20313968272
1858.20313959459
1858.20313958327
1858.2031395959
1858.20313961401
1858.20313963119
1858.2031396448
1858.20313965278
1858.20313965652
1858.20313965512
1858.20313964666
1858.20313963271
1858.20313961625
1858.20313960521
1858.20313962248
1858.20313972447
1858.20314001986
1858.20314072718
1858.20314229187
1858.20314558468
1858.20315227342
1858.20316551088
1858.20319124647
1858.20324089864
1858.2033371952
1858.20352768723
1858.20391669137
1858.20473893036
1858.20651814751
1858.21037397595
1858.21852862831
1858.23484389633
1858.2659684997
1858.18746646285
1858.17602537716
1858.16990457404
1858.16675853042
1858.16523211241
1858.16451540097
1858.16418291043
1858.16402732558
1858.1639527502
1858.16391594684
1858.16389734841
1858.16388783733
1858.16388298039
1858.16388053358
1858.16387933096
1858.1638787614
1858.16387850647
1858.16387840257
1858.16387836865
1858.1638783639
1858.16387836848
1858.16387837528
1858.16387838177
1858.1638783869
1858.16387838987
1858.16387839124
1858.16387839067
1858.16387838741
1858.1638783821
1858.16387837591
1858.16387837209
1858.16387837951
1858.16387841968
1858.16387853448
1858.16387880784
1858.16387940906
1858.16388066705
1858.16388320806
1858.16388821063
1858.16389789514
1858.16391653624
1858.16395271996
1858.16402467322
1858.1641730895
1858.16449119452
1858.16519069887
1858.16673234121
1858.17004799989
1858.1767916574
1858.18987047633
1858.15822073926
1858.15359643883
1858.15114952034
1858.14990608357
1858.1493100046
1858.14903369974
1858.14890726246
1858.14884891249
1858.14882128966
1858.14880778213
1858.14880098989
1858.14879751979
1858.148795744
1858.14879484551
1858.14879440114
1858.14879418886
1858.14879409258
1858.14879405239
1858.14879403821
1858.14879403505
1858.14879403574
1858.14879403746
1858.14879403924
1858.14879404068
1858.14879404147
1858.14879404181
1858.14879404158
1858.14879404053
1858.14879403889
1858.14879403713
1858.14879403653
1858.14879404051
1858.14879405707
1858.14879410195
1858.14879420667
1858.14879443415
1858.14879490578
1858.14879585122
1858.1487977005
1858.14880126185
1858.148808095
1858.14882135941
1858.14884785652
1858.14890302987
1858.14902287581
1858.14929053071
1858.14989002097
1858.15120019551
1858.15390680966
1858.15923777006
1858.14682281463
1858.14500669334
1858.14405516165
1858.14357666251
1858.14334981782
1858.1432459227
1858.1431989911
1858.14317761758
1858.14316761992
1858.14316277366
1858.14316034713
1858.14315910713
1858.14315846991
1858.14315814492
1858.14315798214
1858.14315790275
1858.1431578654
1858.14315784862
1858.14315784154
1858.14315783871
1858.14315783759
1858.14315783712
1858.14315783691
1858.1431578368
1858.14315783668
1858.1431578366
1858.14315783651
1858.14315783636
1858.14315783623
1858.1431578363
1858.14315783708
1858.14315783986
1858.14315784756
1858.14315786599
1858.14315790673
1858.14315799266
1858.14315816763
1858.14315851403
1858.14315918522
1858.14316046862
1858.14316291977
1858.14316767287
1858.14317720232
1858.1431972184
1858.14324125308
1858.14334106863
1858.14356811914
1858.14407197623
1858.14512842094
1858.14723969039
1858.14249512545
1858.14180101204
1858.14144060141
1858.14126110368
1858.14117687781
1858.14113872964
1858.14112170364
1858.14111404511
1858.14111050227
1858.14110879787
1858.14110794648
1858.14110750984
1858.14110728322
1858.14110716557
1858.14110710487
1858.14110707374
1858.14110705776
1858.1411070494
1858.14110704479
1858.141107042
1858.14110704011
1858.14110703874
1858.14110703773
1858.14110703699
1858.1411070365
1858.14110703624
1858.14110703623
1858.14110703645
1858.14110703691
1858.14110703771
1858.14110703905
1858.14110704141
1858.14110704585
1858.14110705449
1858.14110707149
1858.14110710502
1858.1411071706
1858.14110729717
1858.14110753826
1858.14110799386
1858.14110885737
1858.14111052651
1858.14111388004
1858.14112097752
1858.14113677764
1858.14117310081
1858.14125695318
1858.14144576857
1858.14184732063
1858.14266098857
1858.14089221659
1858.14063368938
1858.14050057918
1858.14043488605
1858.14040435272
1858.14039066334
1858.14038461948
1858.14038193021
1858.14038069725
1858.1403801066
1858.14037981058
1858.14037965678
1858.1403795749
1858.14037953053
1858.14037950602
1858.14037949203
1858.14037948365
1858.14037947825
1858.1403794745
1858.14037947169
1858.14037946951
1858.14037946779
1858.14037946646
1858.14037946548
1858.14037946484
1858.14037946453
1858.14037946455
1858.1403794649
1858.14037946559
1858.14037946667
1858.14037946823
1858.14037947044
1858.1403794737
1858.14037947878
1858.14037948716
1858.1403795017
1858.1403795278
1858.14037957542
1858.14037966289
1858.14037982424
1858.14038012535
1858.14038070259
1858.14038186084
1858.14038432527
1858.14038986833
1858.14040277811
1858.14043299879
1858.14050200738
1858.14065080453
1858.14095637953
1858.14031238697
1858.14021843551
1858.14017047124
1858.14014701466
1858.14013620975
1858.14013140843
1858.140129307
1858.14012837883
1858.14012795466
1858.14012775033
1858.14012764594
1858.14012758959
1858.14012755765
1858.14012753865
1858.14012752671
1858.14012751871
1858.14012751297
1858.14012750862
1858.14012750516
1858.14012750236
1858.14012750006
1858.14012749821
1858.14012749677
1858.14012749571
1858.14012749502
1858.14012749469
1858.14012749472
1858.14012749512
1858.14012749591
1858.14012749709
1858.14012749872
1858.14012750087
1858.14012750371
1858.14012750752
1858.14012751281
1858.1401275206
1858.14012753274
1858.14012755259
1858.1401275863
1858.14012764522
1858.14012775133
1858.14012795033
1858.14012834556
1858.14012918619
1858.14013108988
1858.14013557219
1858.14014620004
1858.14017080105
1858.14022458986
1858.14033655618
1858.14010731296
1858.14007396716
1858.14005711636
1858.14004896368
1858.14004524194
1858.14004359916
1858.14004288277
1858.14004256573
1858.14004241893
1858.14004234588
1858.14004230625
1858.1400422828
1858.14004226776
1858.14004225738
1858.14004224973
1858.14004224379
1858.14004223898
1858.140042235
1858.14004223167
1858.14004222887
1858.14004222655
1858.14004222467
1858.14004222319
1858.14004222211
1858.1400422214
1858.14004222107
1858.14004222111
1858.14004222153
1858.14004222234
1858.14004222355
1858.1400422252
1858.14004222733
1858.14004223001
1858.14004223335
1858.14004223756
1858.14004224299
1858.14004225027
1858.14004226053
1858.1400422758
1858.14004229978
1858.14004233965
1858.14004241034
1858.14004254601
1858.14004282989
1858.14004347096
1858.14004498895
1858.14004862659
1858.14005716381
1858.14007612342
1858.14011619005
1858.14003632514
1858.14002476161
1858.14001901486
1858.14001628204
1858.1400150478
1858.1400145037
1858.14001426387
1858.14001415463
1858.14001410103
1858.14001407168
1858.14001405351
1858.14001404095
1858.14001403152
1858.14001402403
1858.14001401784
1858.14001401262
1858.14001400815
1858.14001400433
1858.14001400105
1858.14001399828
1858.14001399597
1858.14001399409
1858.14001399262
1858.14001399154
1858.14001399083
1858.1400139905
1858.14001399055
1858.14001399097
1858.14001399179
1858.14001399301
1858.14001399465
1858.14001399676
1858.14001399937
1858.14001400253
1858.14001400635
1858.14001401095
1858.14001401656
1858.14001402356
1858.14001403262
1858.14001404492
1858.14001406273
1858.14001409081
1858.14001414002
1858.14001423705
1858.14001444949
1858.14001494759
1858.14001614712
1858.14001900694
1858.14002549903
1858.14003950802
1858.14001225253
1858.14000833922
1858.14000646718
1858.14000561215
1858.14000523302
1858.14000506317
1858.14000498394
1858.14000494387
1858.14000492093
1858.14000490581
1858.14000489458
1858.14000488555
1858.14000487797
1858.14000487144
1858.14000486577
1858.14000486081
1858.1400048565
1858.14000485275
1858.14000484953
1858.1400048468
1858.14000484451
1858.14000484266
1858.1400048412
1858.14000484013
1858.14000483944
1858.14000483912
1858.14000483917
1858.14000483959
1858.1400048404
1858.14000484161
1858.14000484325
1858.14000484533
1858.14000484789
1858.14000485097
1858.14000485462
1858.14000485892
1858.14000486395
1858.14000486985
1858.14000487685
1858.14000488533
1858.14000489597
1858.14000491022
1858.14000493129
1858.140004967
1858.14000503706
1858.1400051918
1858.14000555933
1858.1400064568
1858.14000858619
1858.14001336762
1858.14000424932
1858.14000296464
1858.14000241578
1858.14000219757
1858.14000210615
1858.14000206101
1858.14000203466
1858.14000201704
1858.14000200388
1858.14000199323
1858.14000198418
1858.14000197627
1858.14000196929
1858.1400019631
1858.14000195763
1858.14000195281
1858.14000194858
1858.14000194491
1858.14000194174
1858.14000193905
1858.1400019368
1858.14000193498
1858.14000193355
1858.1400019325
1858.14000193182
1858.14000193151
1858.14000193156
1858.14000193198
1858.14000193278
1858.14000193398
1858.14000193559
1858.14000193764
1858.14000194016
1858.14000194319
1858.14000194676
1858.14000195092
1858.14000195573
1858.14000196126
1858.14000196758
1858.14000197484
1858.14000198323
1858.14000199315
1858.14000200535
1858.14000202149
1858.14000204543
1858.14000208718
1858.14000217697
1858.1400024107
1858.14000304634
1858.14000463122
1858.1400016398
1858.14000123971
1858.14000113325
1858.14000112628
1858.14000112936
1858.14000112462
1858.14000111508
1858.1400011044
1858.14000109417
1858.14000108483
1858.1400010764
1858.14000106884
1858.14000106206
1858.14000105602
1858.14000105065
1858.14000104592
1858.14000104177
1858.14000103817
1858.14000103506
1858.14000103242
1858.14000103022
1858.14000102844
1858.14000102704
1858.14000102602
1858.14000102536
1858.14000102505
1858.14000102511
1858.14000102553
1858.14000102632
1858.14000102749
1858.14000102907
1858.14000103109
1858.14000103357
1858.14000103654
1858.14000104005
1858.14000104413
1858.14000104884
1858.14000105422
1858.14000106032
1858.14000106721
1858.14000107496
1858.14000108362
1858.14000109322
1858.14000110345
1858.14000111302
1858.14000111868
1858.14000111803
1858.14000113222
1858.14000126713
1858.14000176761
1858.14000080621
1858.14000069799
1858.14000073622
1858.14000079741
1858.14000083038
1858.14000083803
1858.14000083339
1858.14000082458
1858.14000081506
1858.14000080599
1858.1400007977
1858.14000079022
1858.14000078353
1858.14000077757
1858.1400007723
1858.14000076765
1858.14000076358
1858.14000076005
1858.14000075702
1858.14000075444
1858.1400007523
1858.14000075056
1858.1400007492
1858.1400007482
1858.14000074756
1858.14000074727
1858.14000074733
1858.14000074774
1858.14000074851
1858.14000074967
1858.14000075122
1858.14000075319
1858.14000075562
1858.14000075854
1858.14000076198
1858.140000766
1858.14000077063
1858.14000077594
1858.14000078196
1858.14000078875
1858.14000079636
1858.14000080478
1858.14000081379
1858.14000082251
1858.14000082803
1858.14000082286
1858.14000079388
1858.14000073741
1858.1400007081
1858.14000084792
1858.14000054702
1858.14000053334
1858.14000061752
1858.14000069958
1858.14000074115
1858.14000075198
1858.14000074833
1858.14000073972
1858.14000073017
1858.14000072106
1858.14000071274
1858.14000070529
1858.14000069865
1858.14000069276
1858.14000068757
1858.14000068302
1858.14000067904
1858.1400006756
1858.14000067265
1858.14000067014
1858.14000066806
1858.14000066637
1858.14000066505
1858.14000066409
1858.14000066347
1858.14000066319
1858.14000066325
1858.14000066366
1858.14000066441
1858.14000066554
1858.14000066705
1858.14000066898
1858.14000067135
1858.1400006742
1858.14000067758
1858.14000068152
1858.14000068609
1858.14000069134
1858.14000069732
1858.1400007041
1858.14000071174
1858.14000072022
1858.1400007293
1858.14000073794
1858.14000074276
1858.14000073495
1858.14000069794
1858.14000061986
1858.14000053815
1858.14000056023
1858.14000047082
1858.14000048724
1858.14000058515
1858.14000067258
1858.14000071571
1858.14000072666
1858.14000072269
1858.14000071373
1858.14000070391
1858.14000069463
1858.14000068625
1858.1400006788
1858.14000067221
1858.14000066641
1858.14000066132
1858.14000065686
1858.14000065299
1858.14000064964
1858.14000064678
1858.14000064435
1858.14000064234
1858.14000064071
1858.14000063944
1858.14000063851
1858.14000063792
1858.14000063765
1858.14000063772
1858.14000063811
1858.14000063885
1858.14000063994
1858.14000064141
1858.14000064329
1858.14000064559
1858.14000064838
1858.14000065167
1858.14000065554
1858.14000066003
1858.14000066521
1858.14000067116
1858.14000067795
1858.14000068567
1858.14000069432
1858.14000070368
1858.14000071272
1858.14000071796
1858.14000071021
1858.14000067182
1858.14000058812
1858.14000049058
1858.14000047488
1858.14000045253
1858.14000047836
1858.14000057949
1858.14000066712
1858.14000070939
1858.14000071935
1858.14000071458
1858.14000070505
1858.14000069488
1858.14000068541
1858.14000067696
1858.14000066952
1858.14000066299
1858.14000065729
1858.1400006523
1858.14000064797
1858.14000064421
1858.14000064097
1858.14000063821
1858.14000063587
1858.14000063394
1858.14000063237
1858.14000063115
1858.14000063026
1858.1400006297
1858.14000062945
1858.14000062951
1858.1400006299
1858.14000063061
1858.14000063167
1858.14000063309
1858.14000063491
1858.14000063714
1858.14000063984
1858.14000064305
1858.14000064683
1858.14000065123
1858.14000065634
1858.14000066224
1858.14000066904
1858.14000067683
1858.14000068568
1858.1400006954
1858.14000070502
1858.14000071109
1858.14000070438
1858.1400006669
1858.14000058289
1858.14000048141
1858.14000045381
1858.14000045303
1858.14000048167
1858.14000058244
1858.14000066832
1858.14000070873
1858.14000071722
1858.14000071143
1858.14000070124
1858.14000069068
1858.14000068102
1858.14000067252
1858.14000066511
1858.14000065867
1858.14000065308
1858.14000064822
1858.14000064402
1858.14000064039
1858.14000063728
1858.14000063462
1858.14000063238
1858.14000063053
1858.14000062903
1858.14000062787
1858.14000062703
1858.14000062649
1858.14000062626
1858.14000062632
1858.1400006267
1858.14000062739
1858.14000062841
1858.14000062978
1858.14000063152
1858.14000063368
1858.14000063629
1858.1400006394