/*--------------------------------*- C++ -*----------------------------------*\
  =========                 |
  \\      /  F ield         | OpenFOAM: The Open Source CFD Toolbox
   \\    /   O peration     | Website:  https://openfoam.org
    \\  /    A nd           | Version:  10
     \\/     M anipulation  |
\*---------------------------------------------------------------------------*/
FoamFile
{
    format      ascii;
    class       volScalarField;
    location    "9";
    object      k;
}
// * * * * * * * * * * * * * * * * * * * * * * * * * * * * * * * * * * * * * //

dimensions      [0 2 -2 0 0 0 0];

internalField   nonuniform List<scalar> 
2500
(
5.84741953946398e-10
1.15268116933301e-08
4.94945971885846e-08
8.66012602045357e-08
1.19724301467119e-07
1.47709257756143e-07
1.70141818231837e-07
1.87215691691562e-07
1.99565151654386e-07
2.08061962514936e-07
2.13629253563317e-07
2.17107380059946e-07
2.19181940668704e-07
2.20364904685128e-07
2.2101066871367e-07
2.21348592692779e-07
2.2151832687869e-07
2.21600256021692e-07
2.21638297011076e-07
2.21655296219049e-07
2.21662604511312e-07
2.2166562050407e-07
2.21666806479785e-07
2.21667238523685e-07
2.21667359965474e-07
2.21667319462938e-07
2.21667097784227e-07
2.21666500593344e-07
2.21665001332853e-07
2.21661369410856e-07
2.21652864489894e-07
2.21633618616316e-07
2.21591552790878e-07
2.21502811297224e-07
2.21322291728849e-07
2.20968609447412e-07
2.20302047974028e-07
2.19095299376634e-07
2.16999576691355e-07
2.13513218852672e-07
2.07965516706073e-07
1.99533096383379e-07
1.87306338225145e-07
1.7041530380334e-07
1.48206920854874e-07
1.20441108024611e-07
8.74542603834136e-08
5.02821660263781e-08
1.18351465657714e-08
6.09094194689938e-10
1.44614857875103e-08
3.32262802128457e-07
1.45611460197843e-06
2.54903233729362e-06
3.52537552544172e-06
4.35154622160535e-06
5.01513538987178e-06
5.52143870304028e-06
5.88868152237286e-06
6.14215982389391e-06
6.30882502400362e-06
6.41334106240081e-06
6.47593102764906e-06
6.51177205015316e-06
6.53142321306521e-06
6.54175324743733e-06
6.54696607425658e-06
6.54949426244122e-06
6.55067383559019e-06
6.55120357428635e-06
6.55143250448821e-06
6.55152751043724e-06
6.55156511185397e-06
6.55157892491117e-06
6.55158286679724e-06
6.5515816284255e-06
6.55157461703521e-06
6.55155573468409e-06
6.55150852254055e-06
6.55139467955743e-06
6.55112931488601e-06
6.55053152420546e-06
6.5492307275867e-06
6.54649856681035e-06
6.54096484871523e-06
6.53016920550528e-06
6.50990847135508e-06
6.47337770948272e-06
6.41018577772064e-06
6.30545893834907e-06
6.13940685353961e-06
5.88785283629439e-06
5.52422490425444e-06
5.0232628276423e-06
4.3661795585789e-06
3.54632556238694e-06
2.57385418352936e-06
1.47894741772969e-06
3.4098869378116e-07
1.50426234838756e-08
5.12159837546317e-08
1.49005971713457e-06
7.39814860719235e-06
1.29353216604405e-05
1.78555464006968e-05
2.20069576004929e-05
2.53355082760783e-05
2.78732081895446e-05
2.97142415543695e-05
3.09862200787667e-05
3.18239546189526e-05
3.23504573718986e-05
3.2666584185712e-05
3.284814291333e-05
3.294800817588e-05
3.30006830459135e-05
3.30273590421567e-05
3.30403446829361e-05
3.30464266879045e-05
3.3049169032485e-05
3.30503591942589e-05
3.30508554230442e-05
3.30510529050362e-05
3.30511259868318e-05
3.3051147154358e-05
3.30511409710221e-05
3.30511045117402e-05
3.30510062259181e-05
3.30507611129309e-05
3.30501718832197e-05
3.30488025682005e-05
3.30457269998673e-05
3.30390539308425e-05
3.30250780805181e-05
3.29968512227458e-05
3.2941936539027e-05
3.28391537096266e-05
3.26543135030704e-05
3.23353496133454e-05
3.18078994520689e-05
3.09731541304316e-05
2.97103937116722e-05
2.78865836058037e-05
2.5374269284e-05
2.20766063971161e-05
1.79551523578082e-05
1.30531590666283e-05
7.50611390777977e-06
1.52591069978926e-06
5.29763389819825e-08
9.05087142194735e-08
2.65163429063538e-06
1.32224255277361e-05
2.30544042576076e-05
3.17473934281221e-05
3.90533396085789e-05
4.48934218562275e-05
4.93361060496747e-05
5.25544262089593e-05
5.47761140477118e-05
5.6238855541794e-05
5.71582336831372e-05
5.77104653566929e-05
5.80278209906011e-05
5.82025208472365e-05
5.82947557245153e-05
5.83415164365028e-05
5.83643063762956e-05
5.83749943807627e-05
5.83798205102873e-05
5.83819184099465e-05
5.83827947625474e-05
5.83831443547529e-05
5.83832742072795e-05
5.83833122367873e-05
5.83833020137939e-05
5.83832389690241e-05
5.83830683204999e-05
5.83826422830442e-05
5.83816174356454e-05
5.83792343506134e-05
5.83738787973269e-05
5.83622529441276e-05
5.83378932702169e-05
5.82886754350043e-05
5.81928921984927e-05
5.80135667080261e-05
5.76909941783156e-05
5.71342102441594e-05
5.62131900650935e-05
5.47548953907757e-05
5.25473013316729e-05
4.93554793395713e-05
4.49519377489561e-05
3.91594742024154e-05
3.1899486481945e-05
2.32337131467199e-05
1.33847298133356e-05
2.70417871749374e-06
9.3038389395341e-08
1.29242325209901e-07
3.78839827459394e-06
1.88621581056393e-05
3.28011856555293e-05
4.50731023749057e-05
5.53519429449072e-05
6.35470225467668e-05
6.97694327466258e-05
7.42713341777094e-05
7.73768545304624e-05
7.94209009815503e-05
8.07057045731914e-05
8.14776701864608e-05
8.19215306247785e-05
8.2166035727476e-05
8.22952306588919e-05
8.23607907080085e-05
8.23927766769531e-05
8.24077950679916e-05
8.24145854932053e-05
8.24175417043738e-05
8.2418778820238e-05
8.24192734857983e-05
8.24194579024026e-05
8.24195124741337e-05
8.24194990345488e-05
8.24194119389193e-05
8.24191751052664e-05
8.24185831419215e-05
8.2417158097759e-05
8.24138421559969e-05
8.24063852568079e-05
8.23901877715787e-05
8.23562299567172e-05
8.2287584748811e-05
8.21539341957349e-05
8.19036149507814e-05
8.14531766912164e-05
8.06754134279148e-05
7.93883531620109e-05
7.7349495063971e-05
7.42609713469834e-05
6.97912457279045e-05
6.36164570237246e-05
5.54792674583336e-05
4.5256018453614e-05
3.30162967287619e-05
1.90553944301543e-05
3.85074833138638e-06
1.32266943430013e-07
1.66536059682583e-07
4.88208589909501e-06
2.4253042060565e-05
4.20728309014318e-05
5.77020011360387e-05
7.07535360520064e-05
8.11354995778444e-05
8.90055281679221e-05
9.46933909862288e-05
9.86146567024792e-05
0.000101195047389102
0.000102817095594253
0.000103791992423798
0.000104352809126033
0.000104661939297711
0.000104825407572809
0.000104908433207465
0.000104948980941264
0.000104968040697096
0.000104976669313704
0.000104980431305333
0.000104982008450024
0.000104982640587687
0.000104982877147351
0.000104982947839805
0.000104982931944855
0.000104982823189766
0.000104982526061219
0.000104981782615798
0.000104979991795544
0.000104975822253994
0.000104966440235343
0.000104946049542094
0.00010490327824399
0.000104816775711106
0.000104648286605647
0.000104332599767053
0.000103764344879875
0.000102782832292986
0.000101158036222353
9.85830645676187e-05
9.46801761879268e-05
8.90273300109563e-05
8.12092039528153e-05
7.0890271780924e-05
5.78990190513808e-05
4.23042847089094e-05
2.44603725197827e-05
4.94958512659168e-06
1.69869574093574e-07
2.01894477006462e-07
5.91928840605638e-06
2.93409582914549e-05
5.07849819974748e-05
6.95290722683327e-05
8.51402015502192e-05
9.7533496168949e-05
0.000106915026831535
0.00011368916895007
0.00011835704135628
0.000121428256427723
0.000123359045748803
0.000124519869336113
0.000125187962289561
0.000125556451796085
0.000125751452659651
0.000125850577450567
0.000125899033877651
0.000125921835690577
0.000125932171052033
0.000125936683661109
0.0001259385788746
0.000125939340348243
0.00012593962641697
0.000125939712725099
0.00012593969506763
0.000125939566908514
0.000125939215155098
0.000125938334250971
0.000125936211290859
0.000125931266023259
0.000125920132855855
0.000125895924104291
0.000125845120128398
0.000125742327942018
0.000125542033843961
0.000125166630579576
0.000124490680278443
0.000123322819820148
0.000121388961288545
0.000118323074362678
0.00011367384353386
0.000106935401050819
9.76068147268023e-05
8.52777216740336e-05
6.97277847736321e-05
5.10184179828258e-05
2.9550227697382e-05
5.98862772020186e-06
2.05400982675201e-07
2.34956766948969e-07
6.88971935784171e-06
3.40827010901914e-05
5.88723103603953e-05
8.04751977355149e-05
9.8425213242383e-05
0.00011265066221594
0.000123406183272348
0.000131166580873917
0.000136511967137431
0.00014002860816499
0.000142239722804353
0.000143569507030047
0.00014433520064457
0.00014475777243815
0.00014498155016197
0.000145095394778145
0.000145151097628785
0.000145177336374405
0.000145189243669472
0.00014519444992278
0.000145196640330279
0.000145197522567853
0.00014519785532771
0.00014519795667554
0.000145197937857629
0.000145197792402616
0.000145197391463408
0.000145196386658175
0.000145193964243015
0.000145188319236548
0.000145175605293979
0.0001451479470668
0.000145089879780934
0.000144972346681401
0.00014474325154725
0.00014431373978776
0.000143540157856166
0.000142203286669176
0.000139988995769094
0.000136477445576083
0.000131150221538284
0.000123424670986791
0.000112720771411978
9.85577641612685e-05
8.06670594174223e-05
5.90977504646414e-05
3.42854676918724e-05
6.95855361890874e-06
2.38534953811717e-07
2.65460957841423e-07
7.78577043209651e-06
3.84466369306161e-05
6.6289113076578e-05
9.04874368898583e-05
0.000110552949109033
0.000126431251144702
0.0001384242364084
0.000147072091262024
0.000153026948621814
0.000156944366024452
0.000159407859646979
0.000160889902305109
0.000161743654447532
0.000162215091438061
0.000162464913259909
0.000162592104902587
0.000162654392273585
0.000162683761522097
0.000162697104603471
0.000162702946577789
0.000162705408724957
0.000162706402829056
0.000162706779287341
0.000162706895013728
0.000162706875570514
0.000162706714779156
0.00016270626984346
0.00016270515415721
0.000162702463797014
0.000162696192541478
0.000162682063068917
0.000162651313784382
0.000162586733104768
0.000162455971877239
0.000162201015475775
0.00016172289260899
0.00016086155975559
0.000159372725334782
0.000156906199843405
0.000152993643743349
0.000147056057146468
0.000138441215966533
0.000126496943075333
0.000110677309591387
9.06672741312746e-05
6.65003206959201e-05
3.86375121490767e-05
7.85251481392726e-06
2.69037080199964e-07
2.93235265166448e-07
8.60239612093629e-06
4.2412875157697e-05
7.30091693767966e-05
9.95384110268039e-05
0.000121497828931048
0.000138852703536613
0.000151949742043739
0.000161388883589872
0.000167887120558458
0.000172161979402264
0.000174850721367044
0.000176468789998235
0.000177401310489506
0.000177916521436239
0.000178189712885716
0.00017832890352444
0.000178397122931495
0.000178429319259909
0.000178443962608037
0.000178450382277959
0.000178453092471113
0.000178454189338245
0.000178454606343204
0.000178454735712186
0.000178454716117606
0.000178454541804622
0.00017845405779621
0.000178452843640893
0.000178449915453586
0.000178443088353885
0.000178427702009061
0.000178394206515383
0.000178323835357505
0.000178181306862982
0.000177903332457877
0.000177381922671452
0.000176442420015876
0.000174818172111324
0.00017212681980991
0.000167856727299716
0.000161374738049023
0.000151966270254675
0.000138914115681722
0.000121612904414005
9.970387802518e-05
7.32030165461588e-05
4.25889754150119e-05
8.66608987657514e-06
2.96758787599886e-07
3.18193710487658e-07
9.33701703404024e-06
4.59728946016343e-05
7.90247791820659e-05
0.000107624722560728
0.000131262210206714
0.000149923151548645
0.000163995806869989
0.000174133917697948
0.000181112184606574
0.000185702963388143
0.000188590945676553
0.000190329461116016
0.000191331818053648
0.000191885897072753
0.000192179874097033
0.000192329757179333
0.000192403273922642
0.000192438000940562
0.000192453811520521
0.000192460751574973
0.000192463686219445
0.000192464876668864
0.000192465330956102
0.000192465473148982
0.000192465453787369
0.000192465267662553
0.000192464749225982
0.000192463448339734
0.00019246031085033
0.000192452994689504
0.000192436502214923
0.000192400588698134
0.000192325116132357
0.000192172214842182
0.000191873939943644
0.000191314337587505
0.000190305841522624
0.000188562044810482
0.000185672162505984
0.00018108628492675
0.000174123334769269
0.000164013437232222
0.000149981465363116
0.000131368591866225
0.000107775731959145
7.92006229152974e-05
4.61333439924591e-05
9.39721099896314e-06
3.21633775359493e-07
3.40329900533215e-07
9.98935228943934e-06
4.91286759809884e-05
8.43450796067203e-05
0.000114764532338823
0.000139873378774789
0.000159677982710295
0.000174604359980812
0.00018535400980886
0.000192752368181271
0.000197619783277359
0.000200682383219035
0.000202526577727364
0.000203590289718621
0.000204178568285812
0.000204490865545571
0.000204650190841045
0.000204728395507793
0.000204765367507947
0.000204782216477099
0.000204789621085065
0.000204792757012691
0.000204794031920009
0.000204794520171684
0.000204794674291585
0.000204794655473909
0.000204794459128488
0.000204793910613826
0.000204792534001641
0.000204789213965592
0.000204781471436029
0.00020476401450491
0.000204725991803881
0.000204646067109416
0.000204484108531148
0.000204168099463083
0.000203575119805869
0.000202506310657289
0.000200657982247721
0.00019759447802466
0.000192732391182526
0.000185348675663783
0.00017462495407757
0.000159735114613969
0.000139972897705681
0.000114902690939024
8.45041612012341e-05
4.92741415188897e-05
1.00460046175441e-05
3.43671966273677e-07
3.59708005807266e-07
1.05611666950381e-05
5.18914295803316e-05
8.89937875685507e-05
0.00012099447541098
0.00014737983010267
0.000168175664800118
0.000183841664653414
0.000195121137308185
0.000202883596630586
0.000207990944339174
0.000211205137721781
0.000213141184248972
0.000214258296459629
0.000214876386688488
0.000215204681341397
0.000215372267551194
0.000215454582462757
0.000215493527598671
0.000215511291816217
0.00021551910731738
0.000215522422090814
0.000215523772517803
0.000215524291420331
0.000215524456516813
0.00021552443848069
0.000215524233380522
0.000215523658828837
0.000215522216712445
0.000215518738970521
0.000215510628293204
0.000215492338572964
0.000215452493996666
0.000215368721814637
0.000215198932213704
0.000214867583277767
0.000214245722107265
0.00021312470916114
0.000211185885288537
0.000207972050964508
0.000202870781261634
0.000195122656272405
0.000183867211492952
0.000168233970519484
0.000147475132925973
0.000121122551737977
8.91386719837912e-05
5.20236891210483e-05
1.06145433097419e-05
3.62950505873221e-07
3.76451353532786e-07
1.10559471338902e-05
5.4280029348298e-05
9.30065415947044e-05
0.00012636612444103
0.000153847070852475
0.000175493072824691
0.000191793317936938
0.000203527219712783
0.000211602132557525
0.000216915542134505
0.000220260062183338
0.000222275171848656
0.000223438314073067
0.000224082142214574
0.000224424272591024
0.000224599017399228
0.000224684901831504
0.000224725564735197
0.000224744128029927
0.000224752303528739
0.000224755775711311
0.000224757193026179
0.000224757739324342
0.000224757914416872
0.000224757897332455
0.000224757684815184
0.000224757087947091
0.000224755589727781
0.000224751977100913
0.00022474355175023
0.000224724550222696
0.000224683147953644
0.000224596084713348
0.000224419593479459
0.000224075111390496
0.000223428514705205
0.000222262779806536
0.000220246415399397
0.000216903755057566
0.000211597497909274
0.00020353703307136
0.00019182577371601
0.000175555082442129
0.000153941238235188
0.000126487570460464
9.31406141691667e-05
5.44015803780805e-05
1.11065283117755e-05
3.79602432926053e-07
3.9072948696629e-07
1.14785330856301e-05
5.63192743976166e-05
9.64280261248205e-05
0.000130942222694545
0.000159353186957388
0.000181720580167297
0.00019855901076217
0.000210678655769907
0.000219018967071371
0.000224507561310393
0.000227963000986656
0.000230045487031031
0.000231247912663142
0.000231913742140533
0.00023226772090885
0.000232448608246467
0.000232537562298238
0.000232579706069217
0.000232598960228961
0.00023260744807188
0.000232611057452372
0.000232612533433724
0.000232613103977875
0.00023261328807781
0.000232613272055987
0.000232613053330633
0.000232612437539111
0.000232610891776283
0.000232607165006046
0.000232598473553234
0.000232578870119116
0.000232536150260342
0.000232446301995169
0.000232264136885903
0.000231908530922814
0.000231240975528075
0.000230037336666294
0.000227955240128959
0.000224503358324895
0.000219023293999051
0.000210697979547267
0.00019860016844231
0.000181788776835907
0.000159449411006475
0.000131060766614902
9.65550613590641e-05
5.64329939542875e-05
1.15269292480046e-05
3.93803947914585e-07
4.02744627063847e-07
1.18347281831941e-05
5.80380947718728e-05
9.93090527669965e-05
0.000134792898063984
0.000163984414201772
0.000186957166866446
0.000204247313518953
0.000216690890046465
0.000225254242075369
0.000230890205758661
0.00023443906320728
0.000236578371111994
0.000237813976726879
0.000238498420481056
0.000238862442148166
0.000239048546573256
0.00023914011362399
0.000239183521157391
0.000239203366622564
0.000239212122750512
0.000239215850518512
0.000239217377441868
0.000239217969230237
0.000239218161362103
0.000239218146464916
0.000239217922614474
0.000239217290964652
0.000239215705372445
0.000239211883111887
0.000239202969193911
0.000239182862573639
0.000239139040862536
0.000239046862461662
0.000238859947809756
0.000238495025841151
0.000237809911127263
0.000236574506458634
0.000234437310326707
0.000230893860804428
0.000225268068450701
0.00021672067566729
0.000204298708183304
0.000187033817409341
0.000164085744834137
0.00013491221913607
9.94328654950224e-05
5.81469591538923e-05
1.18816079459771e-05
4.05761221306423e-07
4.12718400182638e-07
1.21309176313889e-05
5.94678054822823e-05
0.000101703752135119
0.00013799204423103
0.000167830919567825
0.000191305769044779
0.000208970722483954
0.000221683252473736
0.000230431952625699
0.000236190512860113
0.000239817182173859
0.000242003887055108
0.000243267213133806
0.000243967235513412
0.000244339678347298
0.000244530166561188
0.000244623934314756
0.000244668408957371
0.000244688755207623
0.000244697739373394
0.000244701568238136
0.000244703138939806
0.000244703749151514
0.000244703948371248
0.000244703934621404
0.000244703706607285
0.000244703061842054
0.000244701443305089
0.000244697542159422
0.000244688444572707
0.000244667922500349
0.000244623190679087
0.00024452908654843
0.000244338244373726
0.000243965614631824
0.00024326596527471
0.000242004257066154
0.000239821423531088
0.000236202116540498
0.000230455582866771
0.000221724171664482
0.000209033574741487
0.000191392809649635
0.000167940083810012
0.000138115533879499
0.00010182793562535
5.95746746578953e-05
1.21769502849524e-05
4.15697575875483e-07
4.20879530958614e-07
1.23737116929604e-05
6.06404915837252e-05
0.000103666997087647
0.000140614014806886
0.000170982956510076
0.000194869045168015
0.00021284115193531
0.000225774262269627
0.000234675125364543
0.000240534450872522
0.000244225162290221
0.000246450935873019
0.000247737149901425
0.000248450058723611
0.00024882948140136
0.00024902361104089
0.000249119211214294
0.000249164576771888
0.00024918534241372
0.000249194518267157
0.000249198432520369
0.000249200040438646
0.000249200666458677
0.00024920087186878
0.000249200859259079
0.000249200627927886
0.000249199972480531
0.000249198327088477
0.000249194361704708
0.000249185114617413
0.000249164254310782
0.000249118781112435
0.000249023107155346
0.000248829060993439
0.000248450139220238
0.000247738618077944
0.000246455415215819
0.000244235274076584
0.000240553938029198
0.000234708653412799
0.000225826715216822
0.000212916348186648
0.000194968020693907
0.000171102248864074
0.00014074462200367
0.000103794746505018
6.07479585003289e-05
1.24195249895387e-05
4.23841693928146e-07
4.27452999520998e-07
1.2569629848957e-05
6.15875833521353e-05
0.000105252142220964
0.000142730732125374
0.000173527507602032
0.000197745681232906
0.000215966000493218
0.000229077529483866
0.000238101609591132
0.000244042638268801
0.00024778535337589
0.000250042903747603
0.000251347767454976
0.000252071197168956
0.000252456330618936
0.00025265344654826
0.00025275055330643
0.000252796653444607
0.000252817766015432
0.000252827101060886
0.000252831086583521
0.000252832725775937
0.00025283336521021
0.000252833575971312
0.000252833564472755
0.000252833330564912
0.000252832666578284
0.000252830999677904
0.000252826982878702
0.000252817616150382
0.000252796485029094
0.000252750417715925
0.000252653484495071
0.000252456865656229
0.000252072887051569
0.000251351817167832
0.000250051314231233
0.000247801129727349
0.000244069821134614
0.000238144953180337
0.000229141673189774
0.000216054105838052
0.000197857732531616
0.00017365874449452
0.000142870885149952
0.000105386156131415
6.16978837168137e-05
1.2615782643297e-05
4.30417296719881e-07
4.32650946558149e-07
1.27248341474812e-05
6.23386549564085e-05
0.000106509125808132
0.0001444092648085
0.000175545474220838
0.000200027298777478
0.000218444858878548
0.000231698323877419
0.000240820552526296
0.000246826757870743
0.000250611026230732
0.000252894014123327
0.000254213836959993
0.00025494572404134
0.000255335459060849
0.000255534987449566
0.000255633314722011
0.000255680011821139
0.000255701407336527
0.000255710872772393
0.000255714916989589
0.000255716582128315
0.000255717232809857
0.000255717448148466
0.000255717437718049
0.000255717201878214
0.000255716531230072
0.000255714847493482
0.000255710790450301
0.000255701330044141
0.000255679986660706
0.000255633453034566
0.000255535529943934
0.000255336885849832
0.000254948921125015
0.000254220315516382
0.000252906145995418
0.00025063220827115
0.000246861362779139
0.000240873495625629
0.000231774116088691
0.000218546156109093
0.000200153189228609
0.000175690001527434
0.000144560856939605
0.000106651573720046
6.24536290515904e-05
1.2771802230183e-05
4.35634530420456e-07
4.36665414575866e-07
1.28449147210497e-05
6.2920457247796e-05
0.000107482946241958
0.000145709886162933
0.000177109425243547
0.000201795977863951
0.000220366871639859
0.000233730824178391
0.000242929572288425
0.00024898667969201
0.000252803463639385
0.000255106399200966
0.000256437980295206
0.000257176532087389
0.000257569903369335
0.000257771343873422
0.000257870641702654
0.000257917815235931
0.000257939437508164
0.000257949007960667
0.000257953099748097
0.000257954786093306
0.000257955446078845
0.000257955665291052
0.000257955655877917
0.000257955418666833
0.000257954743000417
0.000257953046506692
0.000257948958945174
0.000257939427416226
0.000257917922560677
0.000257871033358582
0.000257772353618511
0.000257572157832695
0.000257181132612891
0.000256446730404672
0.000255122031453117
0.000252829768087165
0.000249028384938952
0.000242991811928314
0.000233818077175246
0.000220481418143866
0.000201936148098455
0.000177268165073268
0.000145874309600874
0.000107635486780922
6.30415524365944e-05
1.28930872765686e-05
4.39683108277871e-07
4.39662846469164e-07
1.29347256547655e-05
6.33561752573067e-05
0.000108212495031362
0.000146684588420388
0.000178281874611521
0.000203122361383489
0.000221808716956137
0.000235256010464894
0.000244512590553684
0.000250608254046807
0.000254449728167691
0.000256767852094063
0.000258108412897163
0.000258852071112849
0.000259248238321245
0.000259451154690844
0.000259551204771675
0.000259598749279543
0.000259620549042145
0.00025963020220763
0.000259634331756108
0.000259636035110461
0.000259636702668783
0.000259636925120437
0.000259636916671424
0.000259636678579295
0.00025963599933871
0.000259634293666242
0.000259630184097304
0.000259620601139729
0.000259598979078678
0.000259551830665222
0.000259452596952824
0.000259251260520827
0.000258857977339462
0.000258119284822321
0.000256786770952682
0.000254480874041271
0.000250656726424236
0.000244583784027262
0.000235354448573985
0.000221936410655601
0.000203277000163144
0.000178455396224211
0.000146862799181806
0.000108376327657484
6.34844762066898e-05
1.29844092112052e-05
4.42727103374338e-07
4.41780145744292e-07
1.29982660151454e-05
6.36648871277098e-05
0.000108729707683453
0.000147376002201739
0.000179114028395576
0.000204064275161302
0.00022283313482797
0.000236340127272317
0.000245638250792345
0.000251761699783909
0.000255621031023055
0.000257950183588297
0.000259297293244218
0.000260044693252514
0.000260442919744938
0.000260646929164829
0.000260747539723553
0.00026079536245629
0.000260817296324915
0.000260827012533448
0.000260831171176254
0.00026083288782199
0.000260833561413809
0.000260833786537051
0.000260833779000933
0.000260833540461388
0.000260832858930073
0.000260831147257421
0.000260827023227099
0.000260817406264355
0.000260795706076379
0.000260748383349887
0.000260648773888479
0.000260446657627491
0.000260051819807717
0.000259310155084279
0.000257972198399949
0.000255656763019373
0.000251816627355071
0.000245718059269002
0.000236449441992486
0.000222973780279518
0.000204233394346843
0.000179302628055609
0.000147568598604986
0.000108905640616397
6.38011604260048e-05
1.30496925478579e-05
4.44901183473106e-07
4.43122031819646e-07
1.30385987530138e-05
6.38611923452449e-05
0.0001090589806561
0.000147816654381499
0.000179644923556723
0.00020466577822769
0.000223487912632321
0.000237033622810347
0.000246358825161335
0.000252500489297409
0.000256371602793008
0.000258708083833226
0.00026005957904806
0.000260809505941205
0.000261209135672897
0.000261413897112395
0.000261514897264983
0.000261562915558871
0.000261584944860647
0.000261594706576511
0.00026159888658628
0.000261600613207679
0.000261601291459177
0.000261601518745921
0.000261601512076833
0.00026160127348199
0.000261600590824018
0.000261598876036687
0.000261594744388332
0.000261585109191268
0.00026156336616569
0.000261515945604509
0.000261416120555929
0.000261213547976399
0.000260817784777106
0.000260074324831505
0.00025873303969354
0.000256411710113544
0.000252561608282151
0.000246446950164347
0.000237153520015399
0.0002236412791863
0.000204849280766276
0.000179848699340179
0.000148023953095027
0.000109247498945433
6.40059329946099e-05
1.30919347124749e-05
4.4630802057633e-07
4.437594054795e-07
1.30577996524492e-05
6.39549750170277e-05
0.000109216799708333
0.000148028493124536
0.000179900872518575
0.000204956547782608
0.000223805226767648
0.000237370459625591
0.00024670950351375
0.000252860622826988
0.000256737958292279
0.000259078381192972
0.000260432282536679
0.000261183625184133
0.000261584058555484
0.000261789260622085
0.000261890494546431
0.000261938633173467
0.000261960722822117
0.000261970514214103
0.000261974708670819
0.000261976442336529
0.00026197712405506
0.000261977353073645
0.000261977347237117
0.000261977108934326
0.000261976426196516
0.000261974710933169
0.00026197057798964
0.000261960939197581
0.000261939186128445
0.000261891738748274
0.000261791846580656
0.000261589116946166
0.000261193009193351
0.000260448838118932
0.000259106168178119
0.000256782288474884
0.000252927737674448
0.000246805714380731
0.000237500695578837
0.000223971093625341
0.000205154281118331
0.000180119783497968
0.000148250589213655
0.000109418119635881
6.41084440120078e-05
1.31131530529247e-05
4.47016602612088e-07
4.43728395629458e-07
1.30569266776366e-05
6.39512631745865e-05
0.000109211525235405
0.000148022620546333
0.000179895157543867
0.000204951542132048
0.000223801279622255
0.000237367731004111
0.000246707994170811
0.000252860217646457
0.00025673847507228
0.000259079614949041
0.000260434039563356
0.000261185742318035
0.000261586410488613
0.000261791758268886
0.000261893078689797
0.000261941266725041
0.000261963383745347
0.000261973189997668
0.000261977392463343
0.000261979130468957
0.000261979814566372
0.00026198004492845
0.000261980039898817
0.000261979802219144
0.000261979120405252
0.000261977407217271
0.000261973279118844
0.000261963650961464
0.000261941919693614
0.000261894514316784
0.000261794698566976
0.000261592100476055
0.000261196206931444
0.000260452365266526
0.000259110172243697
0.000256786939723195
0.000252933206821102
0.000246812136672901
0.000237508124574251
0.000223979452221505
0.000205163319361195
0.000180129050477639
0.000148259419855343
0.000109425629097707
6.41135151692992e-05
1.31143523763542e-05
4.47061212602832e-07
4.43030080440985e-07
1.30360108493703e-05
6.38501828792186e-05
0.000109043311283091
0.000147799179319885
0.000179627891564386
0.000204650841418596
0.000223476125326937
0.000237025475751064
0.000246354330881514
0.000252499309976476
0.000256373195824777
0.000258711836160696
0.000260064908701564
0.000260815921968862
0.000261216260497472
0.000261421462016605
0.000261522723484674
0.000261570891066391
0.000261593003066066
0.00026160280966375
0.000261607013846197
0.000261608753552678
0.000261609438967505
0.000261609670295106
0.000261609666053419
0.000261609429340499
0.000261608749485086
0.000261607040994916
0.000261602924033347
0.000261593321045831
0.000261571644007923
0.00026152435051548
0.000261424756531966
0.000261222581492077
0.000260827465258089
0.000260084999475157
0.000258745152339335
0.000256425771814691
0.000252578129324972
0.00024646633120106
0.000237175912726326
0.000223666439762091
0.000204876445383722
0.000179876503820306
0.000148050398902596
0.000109269942591649
6.4021057088982e-05
1.30955055925295e-05
4.46440717206196e-07
4.41630736840194e-07
1.29940627121247e-05
6.36469763599509e-05
0.000108704121921188
0.000147347364462176
0.000179086025251494
0.000204039651591006
0.000222813671363576
0.000236326677802421
0.00024563087072088
0.000251759851503063
0.000255623824501978
0.000257956601907176
0.000259306364900097
0.000260055595383972
0.000260455017696606
0.00026065977030635
0.00026076082246753
0.000260808897582455
0.000260830971263927
0.000260840763322542
0.00026084496277976
0.000260846701485458
0.000260847387129159
0.0002608476190361
0.000260847615572402
0.000260847380204683
0.000260846703429305
0.000260845002457462
0.000260840903363419
0.000260831341033264
0.000260809752672889
0.000260762645110952
0.000260663426578894
0.00026046198224932
0.000260068236673227
0.0002593282479204
0.000257992710984982
0.000255680547551146
0.000251844527630414
0.000245750725611372
0.000236487096889368
0.000223015975675156
0.000204278811185868
0.000179348955966608
0.000147612498431338
0.000108942748348047
6.38260640320019e-05
1.30555545371796e-05
4.45118775245368e-07
4.39462193901146e-07
1.29290838800852e-05
6.33320648730793e-05
0.000108177838596205