/*--------------------------------*- C++ -*----------------------------------*\
  =========                 |
  \\      /  F ield         | OpenFOAM: The Open Source CFD Toolbox
   \\    /   O peration     | Website:  https://openfoam.org
    \\  /    A nd           | Version:  10
     \\/     M anipulation  |
\*---------------------------------------------------------------------------*/
FoamFile
{
    format      ascii;
    class       volScalarField;
    location    "9";
    object      nut;
}
// * * * * * * * * * * * * * * * * * * * * * * * * * * * * * * * * * * * * * //

dimensions      [0 2 -1 0 0 0 0];

internalField   nonuniform List<scalar> 
2500
(
4.57452605688389e-15
9.01700273648211e-14
3.87184935905329e-13
6.77472028313318e-13
9.36599615312663e-13
1.15553281126762e-12
1.33102876073532e-12
1.46460230286179e-12
1.56121537970149e-12
1.62768805373831e-12
1.67124228673887e-12
1.69845244140069e-12
1.71468216090598e-12
1.72393672385052e-12
1.72898865993139e-12
1.73163230451835e-12
1.73296016655779e-12
1.73360111538522e-12
1.73389872042484e-12
1.73403171081658e-12
1.73408888720888e-12
1.73411248388574e-12
1.73412176364969e-12
1.73412514459391e-12
1.73412609568249e-12
1.73412577958522e-12
1.73412404553986e-12
1.73411937352179e-12
1.73410764411611e-12
1.73407923018951e-12
1.73401269361805e-12
1.73386212790991e-12
1.73353303802605e-12
1.73283879615702e-12
1.7314265579175e-12
1.72865963538209e-12
1.72344499726226e-12
1.71400436328434e-12
1.69760908178951e-12
1.67033452582783e-12
1.6269335352849e-12
1.56096458892846e-12
1.46531142662734e-12
1.3331682637678e-12
1.15942606990397e-12
9.42207218166555e-13
6.84144979551235e-13
3.93345889028492e-13
9.2582008375471e-14
4.76503833200369e-15
4.53659409030735e-13
2.34532695349136e-11
1.02790098832597e-10
1.79952914589394e-10
2.48890515389831e-10
3.07226915331438e-10
3.54084045874746e-10
3.89835085724002e-10
4.157667308399e-10
4.33665164314244e-10
4.45433527919405e-10
4.52813434456623e-10
4.57232897827027e-10
4.59763608306404e-10
4.61151156067666e-10
4.61880545605815e-10
4.6224861466892e-10
4.62427125548427e-10
4.62510413263187e-10
4.62547817382747e-10
4.62563982034956e-10
4.62570690570027e-10
4.62573345849887e-10
4.62574321396255e-10
4.62574599941288e-10
4.62574512673378e-10
4.62574017699864e-10
4.62572684498068e-10
4.62569350956524e-10
4.62561312721167e-10
4.62542575828244e-10
4.6250036695365e-10
4.62408520205989e-10
4.62215607305258e-10
4.61824880468723e-10
4.61062614700074e-10
4.59632024782501e-10
4.5705261015972e-10
4.52590637623225e-10
4.45195839692969e-10
4.33470758874581e-10
4.15708187272212e-10
3.90031776611691e-10
3.54657863867251e-10
3.08260077412257e-10
2.50369616327023e-10
1.81705257288787e-10
1.0440187352154e-10
2.40691812969594e-11
4.71890430465352e-13
1.61053002217652e-12
4.21748868403846e-10
1.45432728029281e-07
2.54305964281371e-07
3.5105906978557e-07
4.3269820385308e-07
4.98156824126355e-07
5.48062951218809e-07
5.84268363757465e-07
6.09282642834563e-07
6.25757066065124e-07
6.36110868132711e-07
6.42327514423574e-07
6.45897841291501e-07
6.47861661829436e-07
6.48897490282433e-07
6.49422059022283e-07
6.49677413389986e-07
6.49797011933013e-07
6.49850938319739e-07
6.49874342214108e-07
6.49884100483699e-07
6.49887984120022e-07
6.49889421463582e-07
6.49889837929666e-07
6.49889716525149e-07
6.49888999706628e-07
6.49887067097518e-07
6.49882247245165e-07
6.49870660600586e-07
6.49843734177511e-07
6.49783255500171e-07
6.49652034342238e-07
6.4937720813532e-07
6.48822142251551e-07
6.47742268188561e-07
6.45721072814651e-07
6.42086212391719e-07
6.35813767664276e-07
6.2544132285957e-07
6.09025665904817e-07
5.84192640175545e-07
5.48325899498778e-07
4.98918945928702e-07
4.34067660293719e-07
3.53017465917976e-07
2.56622587350808e-07
1.47554971377664e-07
4.31895383847801e-10
1.66588660144786e-12
2.85266811253701e-12
7.52275494834509e-10
2.60537678299573e-07
4.54315285062385e-07
6.2566399813507e-07
7.69679923751815e-07
8.84802599628025e-07
9.72379186148002e-07
1.03582003379867e-06
1.07961440762068e-06
1.10844794022894e-06
1.12657049635444e-06
1.13745583464669e-06
1.14371134373984e-06
1.14715488548541e-06
1.14897293140553e-06
1.14989462821317e-06
1.15034383675286e-06
1.15055450546432e-06
1.15064963200994e-06
1.15069098325129e-06
1.15070825705082e-06
1.15071514807866e-06
1.15071770784781e-06
1.15071845769744e-06
1.15071825642807e-06
1.1507170139631e-06
1.15071365057249e-06
1.15070525334729e-06
1.15068505320229e-06
1.15063808128832e-06
1.15053251984544e-06
1.15030336566794e-06
1.14982321631944e-06
1.14885308700497e-06
1.14696509838917e-06
1.14343037758267e-06
1.13707203114044e-06
1.12609695024285e-06
1.10794200845757e-06
1.07919610205098e-06
1.03567950297586e-06
9.72760932896997e-07
8.85955845876121e-07
7.71771676800003e-07
6.28661361295094e-07
4.57848579213425e-07
2.63735342484096e-07
7.67180055703539e-10
2.9323928129564e-12
4.08162522266852e-12
1.07694053069184e-09
3.72410685459431e-07
6.47681610396345e-07
8.90054383283616e-07
1.09307214946955e-06
1.25493550303963e-06
1.37783591182876e-06
1.46675342030478e-06
1.52809023374061e-06
1.56846154629336e-06
1.5938370292281e-06
1.60908357272901e-06
1.6178498708489e-06
1.62267884156429e-06
1.62523042288977e-06
1.62652521747057e-06
1.62715692953841e-06
1.62745353666594e-06
1.62758764449367e-06
1.62764602832628e-06
1.62767046094593e-06
1.62768023059748e-06
1.62768387297129e-06
1.62768495095592e-06
1.62768468574161e-06
1.62768296584863e-06
1.62767828874847e-06
1.62766659814094e-06
1.62763845465743e-06
1.62757296685015e-06
1.62742569689789e-06
1.62710580334356e-06
1.62643514798045e-06
1.62507942222053e-06
1.6224398426828e-06
1.617496041272e-06
1.6085998261661e-06
1.5932387680008e-06
1.56781869682699e-06
1.52754982686585e-06
1.46654866270344e-06
1.37826658651875e-06
1.25630664148576e-06
1.0955864713079e-06
8.93666275679388e-07
6.51928679216434e-07
3.76225139450126e-07
1.09466038795835e-09
4.17712652041517e-12
5.26783703676528e-12
1.3900590035037e-09
4.79602093530687e-07
8.32053124778323e-07
1.14120118047378e-06
1.39937108967307e-06
1.60473616087693e-06
1.76041224393922e-06
1.87292231419365e-06
1.95048711362202e-06
2.00152820903746e-06
2.03361266432411e-06
2.05289618620833e-06
2.06398910516979e-06
2.07010364667977e-06
2.07333700570256e-06
2.07497922396633e-06
2.07578124126953e-06
2.07615823420592e-06
2.0763289037441e-06
2.0764033138805e-06
2.07643450899631e-06
2.07644701246675e-06
2.07645169163327e-06
2.07645309003378e-06
2.07645277579537e-06
2.07645062485765e-06
2.07644474806332e-06
2.07643004352054e-06
2.07639462257355e-06
2.07631215179821e-06
2.07612658074538e-06
2.07572326266865e-06
2.07487726427606e-06
2.07316627446012e-06
2.06983360514736e-06
2.06358937378041e-06
2.05234932616238e-06
2.03293493849789e-06
2.00079611713428e-06
1.94986218770836e-06
1.87266085998121e-06
1.76084337651618e-06
1.60619385715246e-06
1.4020753880145e-06
1.14509747258182e-06
8.36629834445536e-07
4.83700990838121e-07
1.40927127244614e-09
5.37324686739792e-12
6.39391695778469e-12
1.68735287013692e-09
5.80881001943033e-07
1.00548221305143e-06
1.37664459254411e-06
1.68577567843369e-06
1.9311880325321e-06
2.11696060979787e-06
2.25110095603327e-06
2.34353268953987e-06
2.40434751853848e-06
2.44257991879029e-06
2.46556577264599e-06
2.47879484434659e-06
2.48609136733614e-06
2.48995259986901e-06
2.49191537470897e-06
2.49287486041736e-06
2.49332635811836e-06
2.49353100774455e-06
2.49362036138759e-06
2.49365788827354e-06
2.49367296616796e-06
2.4936786306465e-06
2.49368033969243e-06
2.49367999015293e-06
2.4936774526236e-06
2.49367048780043e-06
2.49365304545716e-06
2.49361100941182e-06
2.49351308913045e-06
2.49329264252464e-06
2.49281328623471e-06
2.49180731686432e-06
2.48977192425823e-06
2.4858058807331e-06
2.47837245823043e-06
2.46498780157654e-06
2.44186260642359e-06
2.40356942479981e-06
2.34286008609476e-06
2.25079745819186e-06
2.11736397973922e-06
1.93263971403751e-06
1.68849849789107e-06
1.38057875111046e-06
1.01010326490757e-06
5.85022873911584e-07
1.70711114477405e-09
6.50491992458568e-12
7.44718106775193e-12
1.96556393801663e-09
6.75282293975386e-07
1.16648948239223e-06
1.59456768141975e-06
1.95026562577164e-06
2.2321576366049e-06
2.44528865451319e-06
2.59906767212333e-06
2.7049906297982e-06
2.7746752785581e-06
2.81848985737509e-06
2.84484025070946e-06
2.8600128405234e-06
2.8683862851749e-06
2.87282052943129e-06
2.87507640156609e-06
2.87618017186462e-06
2.87670010045041e-06
2.87693604670429e-06
2.87703920985119e-06
2.87708261323989e-06
2.87710009497257e-06
2.87710668869763e-06
2.87710869694409e-06
2.87710832410764e-06
2.87710544197205e-06
2.87709749741936e-06
2.87707758720521e-06
2.87702958681543e-06
2.8769177299595e-06
2.8766658000004e-06
2.87611774407494e-06
2.87496712187802e-06
2.87263816166066e-06
2.86809855183715e-06
2.8595875901479e-06
2.84425869095795e-06
2.81776786622269e-06
2.77389034586517e-06
2.70430656814943e-06
2.59874349277136e-06
2.4456549693357e-06
2.23354682184738e-06
1.95289202527883e-06
1.59836907588181e-06
1.17095568263554e-06
6.79298618307928e-07
1.98519410021081e-09
7.56054458549119e-12
8.41862979711215e-12
2.22234984677489e-09
7.62124073761337e-07
1.31407924441208e-06
1.7938030277074e-06
2.19159779013472e-06
2.50638179968838e-06
2.74413954560268e-06
2.91558040326778e-06
3.03363310782428e-06
3.1112941515739e-06
3.1601316921673e-06
3.18951239469165e-06
3.20643754554595e-06
3.21578350267317e-06
3.22073606531345e-06
3.22325755805111e-06
3.22449236402351e-06
3.22507458941119e-06
3.22533910665977e-06
3.22545491956405e-06
3.22550372977372e-06
3.22552343713067e-06
3.22553090012686e-06
3.2255331943018e-06
3.22553280886607e-06
3.22552962134841e-06
3.22552080092502e-06
3.22549868341768e-06
3.22544534921028e-06
3.22532102630449e-06
3.22504091957274e-06
3.22443133599078e-06
3.22315106682526e-06
3.22055880980712e-06
3.21550445818718e-06
3.20602595887919e-06
3.18895052639279e-06
3.15943518232267e-06
3.11053753684294e-06
3.03297286394936e-06
2.91526253846486e-06
2.74447615122449e-06
2.50768408295699e-06
2.19406308103559e-06
1.79736791587686e-06
1.31826559887007e-06
7.65906861548611e-07
2.24139463980557e-09
8.53199308806047e-12
9.30258115539073e-12
2.45622009621429e-09
8.40998134352164e-07
1.44771176786487e-06
1.97378420181264e-06
2.40923887839545e-06
2.75338532153545e-06
3.01309854043501e-06
3.20027556527187e-06
3.32913456792698e-06
3.41390420007669e-06
3.46722136614088e-06
3.49930727771553e-06
3.51779891741132e-06
3.52801540902272e-06
3.5334327168566e-06
3.53619282554004e-06
3.53754559519777e-06
3.53818403802913e-06
3.53847441072701e-06
3.53860171051916e-06
3.53865545262316e-06
3.53867720306437e-06
3.53868547209899e-06
3.53868803742117e-06
3.53868764886825e-06
3.53868419233247e-06
3.53867459468106e-06
3.53865051851371e-06
3.53859245373416e-06
3.53845707486364e-06
3.53815196890933e-06
3.53748776410308e-06
3.53609232598671e-06
3.53326602893069e-06
3.52775387707995e-06
3.51741446516325e-06
3.49878437229312e-06
3.46657592869945e-06
3.41320700140098e-06
3.32853188484045e-06
3.19999507007122e-06
3.01342629719198e-06
2.75460310966962e-06
2.41152076262972e-06
1.97706520901029e-06
1.45155524205183e-06
8.44489319221509e-07
2.4744013002793e-09
9.41432218333409e-12
1.00963594648403e-11
2.66645942182463e-09
9.11744801032069e-07
1.56725265321278e-06
2.13447064569926e-06
2.6032697747959e-06
2.97336947511825e-06
3.25247002535497e-06
3.45353718308768e-06
3.59193563000724e-06
3.68298346447634e-06
3.74026009549696e-06
3.77473961726872e-06
3.79461909041608e-06
3.80560798479269e-06
3.81143834695786e-06
3.81441093429535e-06
3.81586896992535e-06
3.81655770028801e-06
3.81687126658058e-06
3.81700890642752e-06
3.81706710822989e-06
3.81709071799091e-06
3.81709972769645e-06
3.81710254774528e-06
3.81710216375001e-06
3.81709847241126e-06
3.81708819046548e-06
3.81706239047289e-06
3.81700016574235e-06
3.81685506675407e-06
3.81652797672798e-06
3.81581571492584e-06
3.81431889010534e-06
3.81128644371499e-06
3.80537084341223e-06
3.7942724068493e-06
3.7742711789308e-06
3.73968691612248e-06
3.68237260362805e-06
3.59142197438105e-06
3.4533273017546e-06
3.25281969284632e-06
2.97452600775745e-06
2.60537960948297e-06
2.13746549572204e-06
1.57073983838494e-06
9.14926411144796e-07
2.68364594577629e-09
1.02054843205192e-11
1.07999386190679e-11
2.85303737956468e-09
9.74421152553878e-07
1.6729145081687e-06
2.27626588157105e-06
2.77428491964221e-06
3.16709726892968e-06
3.46315272171435e-06
3.67636522441114e-06
3.82310689758794e-06
3.91964889652904e-06
3.9803935433774e-06
4.01697191238042e-06
4.03806992570406e-06
4.04973803385996e-06
4.05593223807043e-06
4.05909234668774e-06
4.06064348269648e-06
4.06137679687514e-06
4.06171098450492e-06
4.06185784972034e-06
4.06192004862212e-06
4.06194533549171e-06
4.06195501960241e-06
4.06195807645082e-06
4.06195770321173e-06
4.06195380884434e-06
4.06194292946186e-06
4.06191562535776e-06
4.06184977480687e-06
4.06169620717664e-06
4.06134996107571e-06
4.06059580698407e-06
4.05901055542861e-06
4.05579821753438e-06
4.04953039232011e-06
4.03776904154799e-06
4.01656993001433e-06
3.97990956845414e-06
3.91914698648754e-06
3.82271067076696e-06
3.67625943025951e-06
3.46356119976184e-06
3.16823045369546e-06
2.77625881899414e-06
2.27900613361461e-06
1.67606963478077e-06
9.77306040769514e-07
2.86921535452184e-09
1.09059748208722e-11
1.14155498934837e-11
3.01650941006642e-09
1.02926706081086e-06
1.76519774039326e-06
2.39993722644622e-06
2.92329567879669e-06
3.33578482658751e-06
3.64652264373442e-06
3.87025285378858e-06
4.02422247650228e-06
4.12552751241792e-06
4.18928152650592e-06
4.22768329806525e-06
4.24984138280368e-06
4.26210129209713e-06
4.26861306360122e-06
4.27193715984807e-06
4.27356988767195e-06
4.27434236984119e-06
4.27469472551193e-06
4.27484974700983e-06
4.27491549596455e-06
4.27494228184684e-06
4.27495257433418e-06
4.27495584903689e-06
4.27495549128493e-06
4.27495142309894e-06
4.27494002680226e-06
4.27491142225193e-06
4.27484244080172e-06
4.27468156445464e-06
4.27431878537916e-06
4.27352846269191e-06
4.2718668297129e-06
4.26849902893007e-06
4.26192667537245e-06
4.24959196905766e-06
4.22735651288658e-06
4.18889965256728e-06
4.12515276083487e-06
4.02396828362759e-06
3.87028298567749e-06
3.64702937455812e-06
3.33694133861042e-06
2.92518603492783e-06
2.40247763137298e-06
1.76807146931244e-06
1.03189026707942e-06
3.03175354251194e-09
1.15184398534836e-11
1.19472685233199e-11
3.15791242717712e-09
1.07667048475639e-06
1.8448321052675e-06
2.50653831592006e-06
3.05163848650719e-06
3.48099914476223e-06
3.8043236310399e-06
4.03707209865984e-06
4.19724246319306e-06
4.3026368709592e-06
4.36897726415754e-06
4.40894806920816e-06
4.43201963175859e-06
4.44479031473603e-06
4.45157665744477e-06
4.4550428159497e-06
4.45674638040831e-06
4.45755295119931e-06
4.45792116421235e-06
4.45808332964703e-06
4.45815220225582e-06
4.45818031545267e-06
4.45819115156408e-06
4.45819462461428e-06
4.45819428573357e-06
4.45819007034001e-06
4.45817823114524e-06
4.45814851316582e-06
4.45807685477085e-06
4.45790973339269e-06
4.4575328277986e-06
4.45671159129534e-06
4.45498464453962e-06
4.45148384474313e-06
4.44465085456662e-06
4.43182525606946e-06
4.40870226649493e-06
4.36870657307044e-06
4.30240306834316e-06
4.19715053322374e-06
4.0372667535617e-06
3.8049674125107e-06
3.48222914595307e-06
3.05350635702442e-06
2.50894726553046e-06
1.84749147424541e-06
1.07908142053886e-06
3.17235911879267e-09
1.20472653601147e-11
1.24005892828585e-11
3.2786568633745e-09
1.11713246514336e-06
1.91271910931728e-06
2.59733390168061e-06
3.16088654600966e-06
3.60456041260353e-06
3.93856316113368e-06
4.17896527975628e-06
4.34440150939556e-06
4.45327182125951e-06
4.52181301139189e-06
4.56312065418974e-06
4.58697165070368e-06
4.60017886770491e-06
4.60720029660049e-06
4.61078832976363e-06
4.61255279866833e-06
4.61338875127944e-06
4.61377067164877e-06
4.6139390342258e-06
4.61401062892551e-06
4.61403990609098e-06
4.61405122324755e-06
4.61405487500192e-06
4.61405455719613e-06
4.61405021861919e-06
4.61403800394674e-06
4.6140073426145e-06
4.61393341940398e-06
4.61376101807676e-06
4.61337216959525e-06
4.61252478985962e-06
4.6107425835747e-06
4.60712920487543e-06
4.60007549938527e-06
4.58683404756183e-06
4.56295898577004e-06
4.52165906916304e-06
4.45318845209633e-06
4.34448733747547e-06
4.17934858180455e-06
3.93937955580344e-06
3.6059131476311e-06
3.16279522699691e-06
2.59968531117027e-06
1.91523893278282e-06
1.11938812878355e-06
3.29248000295679e-09
1.24981592812264e-11
1.27820022584679e-11
3.38041779107957e-09
1.15123238955987e-06
1.96987573193008e-06
2.67372706387869e-06
3.25276485832054e-06
3.70844832880739e-06
4.05141261110786e-06
4.2982411780673e-06
4.46810229818188e-06
4.57989626395911e-06
4.6502907633173e-06
4.69272569041675e-06
4.71723494108732e-06
4.7308114441477e-06
4.73803211233872e-06
4.74172364615413e-06
4.74353995364675e-06
4.7444009776368e-06
4.74479462869243e-06
4.74496831365811e-06
4.74504225698579e-06
4.74507254475792e-06
4.74508428336244e-06
4.74508809445394e-06
4.74508779895539e-06
4.74508335869889e-06
4.7450708294091e-06
4.74503937789202e-06
4.74496356022725e-06
4.74478674536745e-06
4.74438791408656e-06
4.74351867454158e-06
4.74169024041642e-06
4.73798263508722e-06
4.73074410867835e-06
4.71715429658314e-06
4.69264903184733e-06
4.65025599349316e-06
4.57996876479712e-06
4.46837655573989e-06
4.29883200057102e-06
4.05243206734342e-06
3.70996875740837e-06
3.25477483835401e-06
2.67609389849901e-06
1.97233165405779e-06
1.15339178160776e-06
3.39380808983813e-09
1.28777383921154e-11
1.30985832008079e-11
3.46502890204786e-09
1.17959451041834e-06
2.01738072824047e-06
2.73719017070591e-06
3.32906989034459e-06
3.79471368028678e-06
4.14511318700138e-06
4.39727712126019e-06
4.57081508919754e-06
4.68504106733437e-06
4.75697916126207e-06
4.80035432639616e-06
4.8254134816318e-06
4.83929902529338e-06
4.84668674798328e-06
4.85046524489091e-06
4.852325208605e-06
4.85320740123468e-06
4.85361098653267e-06
4.85378919515298e-06
4.85386514396235e-06
4.85389630017356e-06
4.85390840424416e-06
4.8539123559375e-06
4.85391208319727e-06
4.8539075603421e-06
4.85389477087239e-06
4.85386266580697e-06
4.85378528324356e-06
4.85360482482172e-06
4.8531977519415e-06
4.8523104579524e-06
4.85044382190948e-06
4.84665830388452e-06
4.83926687371225e-06
4.82538872926862e-06
4.80036166586851e-06
4.75706329219522e-06
4.68527123624961e-06
4.57128381526701e-06
4.39808878856854e-06
4.14635991581862e-06
3.79644020642864e-06
3.33123525879599e-06
2.73963969597066e-06
2.01984401283996e-06
1.18171434218628e-06
3.47817738556882e-09
1.31931331799266e-11
1.33576139197992e-11
3.53438354095657e-09
1.20285687560261e-06
2.05632514860477e-06
2.78920149956693e-06
3.39159596853922e-06
3.86539738308829e-06
4.22188980189517e-06
4.47842932784386e-06
4.65498571124004e-06
4.77121054314355e-06
4.84441902292815e-06
4.88856918304247e-06
4.91408235996669e-06
4.92822352814521e-06
4.93574970782492e-06
4.93960043850697e-06
4.94149675130784e-06
4.94239661669887e-06
4.94280852130986e-06
4.94299053236235e-06
4.94306817498679e-06
4.94310006944703e-06
4.94311248709962e-06
4.9431165615878e-06
4.94311631146324e-06
4.94311172280741e-06
4.94309872143802e-06
4.94306608365264e-06
4.942987426809e-06
4.94280400277081e-06
4.94239022040085e-06
4.94148821986119e-06
4.93959044349591e-06
4.93574136866427e-06
4.92822512486144e-06
4.91411148252097e-06
4.88865803470114e-06
4.84461959900956e-06
4.77159708786361e-06
4.65565076929299e-06
4.47946977782052e-06
4.22338138531148e-06
3.86736064953501e-06
3.3939622375574e-06
2.79179220857739e-06
2.05885916955826e-06
1.20498857143096e-06
3.5474694405198e-09
1.34516246729099e-11
1.35662462565542e-11
3.59034650952291e-09
1.22164372517173e-06
2.0877685956978e-06
2.83118934822732e-06
3.442070441199e-06
3.92245918573539e-06
4.28387521940608e-06
4.54395391069372e-06
4.7229544636386e-06
4.84079998408632e-06
4.91504002451747e-06
4.95982051834403e-06
4.98570363567853e-06
5.00005349923579e-06
5.00769295936505e-06
5.01160292689019e-06
5.01352912469686e-06
5.01444356141218e-06
5.01486234779021e-06
5.01504751661217e-06
5.01512657295235e-06
5.01515908777275e-06
5.01517177151271e-06
5.01517595214407e-06
5.01517572406005e-06
5.01517108429268e-06
5.01515791353511e-06
5.0151248491029e-06
5.01504517236453e-06
5.0148593750851e-06
5.01444022074225e-06
5.0135264351396e-06
5.01160367959758e-06
5.00770357229795e-06
5.00008701953855e-06
4.98578396528431e-06
4.95998734766383e-06
4.91535296228831e-06
4.84133918007914e-06
4.7238142217689e-06
4.54522625742317e-06
4.28562286636239e-06
3.92468182190102e-06
3.44467364076014e-06
2.83396940726966e-06
2.09042687942353e-06
1.22383162807394e-06
3.60352941555949e-09
1.36603250894238e-11
1.37312185880882e-11
3.63467914448221e-09
1.23654205889408e-06
2.11270222600961e-06
2.86448484529264e-06
3.48209896662798e-06
3.96771750585014e-06
4.33304602111763e-06
4.59594016439223e-06
4.77688759840688e-06
4.89602596759915e-06
4.97109026110315e-06
5.01637533522752e-06
5.0425551827733e-06
5.05707280716561e-06
5.06480354428216e-06
5.06876136547603e-06
5.07071177346178e-06
5.07163805152034e-06
5.0720624503977e-06
5.07225020564826e-06
5.0723304262554e-06
5.07236345574736e-06
5.07237636258832e-06
5.07238063401909e-06
5.07238042712258e-06
5.07237574903192e-06
5.07236244613587e-06
5.07232904773892e-06
5.07224857271706e-06
5.07206091723515e-06
5.07163755244093e-06
5.07071451701288e-06
5.06877212632891e-06
5.06483184589668e-06
5.05713622413284e-06
5.04268369063881e-06
5.01661598158377e-06
4.97151042551062e-06
4.8967123864033e-06
4.77793777136668e-06
4.5974435696058e-06
4.33505534087183e-06
3.97021465386819e-06
3.48496579322297e-06
2.86749180900603e-06
2.115527805864e-06
1.23882267062241e-06
3.64809494154672e-09
1.38259096890585e-11
1.38586284173715e-11
3.66897874815682e-09
1.24808266839514e-06
2.13201888183793e-06
2.89028390127081e-06
3.51312141196509e-06
4.00280092380563e-06
4.37117095634811e-06
4.63625672381024e-06
4.81872199331837e-06
4.93887005274752e-06
5.01457932351273e-06
5.06026007840294e-06
5.08667316203087e-06
5.10132298721512e-06
5.10912585300418e-06
5.11312160279558e-06
5.11509126268201e-06
5.11602699125639e-06
5.11645588806701e-06
5.11664572642022e-06
5.11672689062714e-06
5.11676034076933e-06
5.11677343216366e-06
5.11677778043082e-06
5.116777593713e-06
5.11677288842227e-06
5.11675948598395e-06
5.11672583453702e-06
5.11664475415482e-06
5.11645568788461e-06
5.11602912013731e-06
5.11509903152229e-06
5.11314163197857e-06
5.1091705722701e-06
5.10141424268934e-06
5.08684672815676e-06
5.06057015788873e-06
5.0151010953957e-06
4.93969731304258e-06
4.8199565713798e-06
4.63798746383807e-06
4.37344308714149e-06
4.00558132389833e-06
3.51627015640014e-06
2.89354538513758e-06
2.13504465786042e-06
1.25048469787409e-06
3.68273859301054e-09
1.3954402146482e-11
1.39537593462548e-11
3.69463206591927e-09
1.25672551970682e-06
2.14649012066598e-06
2.90961797012467e-06
3.53637796500654e-06
4.02911089348591e-06
4.39977121048737e-06
4.66651011815905e-06
4.85012253501796e-06
4.97103538787578e-06
5.04723440962873e-06
5.09321643890362e-06
5.11980764284656e-06
5.13455875837296e-06
5.14241708379103e-06
5.14644210865709e-06
5.14842669010797e-06
5.14936977728609e-06
5.1498021947727e-06
5.14999367381001e-06
5.15007558704025e-06
5.15010937457368e-06
5.15012261618079e-06
5.15012702870523e-06
5.15012686111164e-06
5.15012213834462e-06
5.15010866500955e-06
5.15007483149427e-06
5.14999331457584e-06
5.14980322817427e-06
5.14937433555441e-06
5.14843910525773e-06
5.14647071719356e-06
5.14247703178096e-06
5.13467591357843e-06
5.12002329705496e-06
5.09359171112245e-06
5.04785221545505e-06
4.97199688016182e-06
4.85153472025244e-06
4.66846272473025e-06
4.40230412746091e-06
4.03217828986847e-06
3.53981991903986e-06
2.91315293758039e-06
2.14973988512176e-06
1.25927048193333e-06
3.7088235104302e-09
1.4051010899864e-11
1.40209568201822e-11
3.71278147829686e-09
1.26284907365991e-06
2.15674945647347e-06
2.92333272577158e-06
3.55288441196134e-06
4.04779451835217e-06
4.4200913705922e-06
4.68801445485025e-06
4.87245091925558e-06
4.99391491997623e-06
5.07046815215792e-06
5.1166689434511e-06
5.14339004922594e-06
5.158215386265e-06
5.16611455926804e-06
5.17016126568411e-06
5.17215696467549e-06
5.17310557067365e-06
5.17354064826436e-06
5.17373337781297e-06
5.17381586815352e-06
5.17384991933271e-06
5.17386328061936e-06
5.17386774613703e-06
5.1738675966515e-06
5.17386286500968e-06
5.17384934623619e-06
5.17381539370251e-06
5.17373358993107e-06
5.17354282901007e-06
5.17311238668075e-06
5.17217369874657e-06
5.17019785740166e-06
5.1661887034588e-06
5.15835674776051e-06
5.14364517514485e-06
5.11710562661798e-06
5.07117692775648e-06
4.9950044566978e-06
4.87403399063803e-06
4.69018280854524e-06
4.42288119692467e-06
4.05114914626867e-06
3.55662545224947e-06
2.92715304499248e-06
2.16023924108559e-06
1.26555217445697e-06
3.72747078150719e-09
1.41200104608182e-11
1.40635445607668e-11
3.72430191700401e-09
1.26674293553267e-06
2.16328083236758e-06
2.93207339035093e-06
3.56341511245871e-06
4.05972577857945e-06
4.43307937447612e-06
4.70177045355812e-06
4.88674404662727e-06
5.00856935828295e-06
5.085356300324e-06
5.13170245742277e-06
5.15851055407172e-06
5.17338601379241e-06
5.18131302111976e-06
5.18537464442384e-06
5.18737807131157e-06
5.18833055641791e-06
5.18876752700026e-06
5.1889611592229e-06
5.18904407339428e-06
5.18907832244884e-06
5.18909177616404e-06
5.18909628459658e-06
5.18909615230938e-06
5.18909141957075e-06
5.18907787844928e-06
5.18904386413391e-06
5.18896190925375e-06
5.18877078664287e-06
5.18833949460079e-06
5.18739886604861e-06
5.18541874838276e-06
5.18140054304195e-06
5.17355023178657e-06
5.1588030496601e-06
5.13219747886874e-06
5.08615186431383e-06
5.00978170711852e-06
4.8884920835954e-06
4.70414872010751e-06
4.4361215350093e-06
4.06336571288424e-06
3.5674571844175e-06
2.93618534273292e-06
2.16702025851026e-06
1.26961399365036e-06
3.73953662259334e-09
1.41646595816781e-11
1.40837728547136e-11
3.72978631813941e-09
1.26860316982969e-06
2.16641126483945e-06
2.93627533392364e-06
3.56849200708648e-06
4.06549335935952e-06
4.43937348213712e-06
4.70845180483605e-06
4.89369995290232e-06
5.01571281363551e-06
5.09262317223036e-06
5.13904751858026e-06
5.16590334232264e-06
5.18080688444842e-06
5.18874983250105e-06
5.19282019594204e-06
5.19482825985419e-06
5.19578313185342e-06
5.1962212994595e-06
5.19641552032985e-06
5.19649872106732e-06
5.19653310985123e-06
5.19654663233779e-06
5.19655117512283e-06
5.19655105935018e-06
5.19654633240477e-06
5.19653278969995e-06
5.19649876594312e-06
5.19641678537384e-06
5.19622559145725e-06
5.19579410020184e-06
5.19485293969206e-06
5.19287149070455e-06
5.18885017012871e-06
5.18099302452359e-06
5.16623173685549e-06
5.13959869786615e-06
5.09350250038554e-06
5.01704409565436e-06
4.89560838005472e-06
4.71103514949549e-06
4.44266359711968e-06
4.06941557395758e-06
3.57283429887196e-06
2.94068080516381e-06
2.17040462264425e-06
1.2716473623005e-06
3.74559727865763e-09
1.41871478446006e-11
1.40827883712692e-11
3.72953688135861e-09
1.26852951375166e-06
2.16630659238852e-06
2.93615878017343e-06
3.56837856529219e-06
4.06539397643806e-06
4.43929508717758e-06
4.70839757431231e-06
4.89366990367079e-06
5.01570466369003e-06
5.09263330845167e-06
5.13907187560742e-06
5.16593807827794e-06
5.18084876311169e-06
5.18879636843465e-06
5.19286962214282e-06
5.19487940174518e-06
5.19583525377817e-06
5.19627396431525e-06
5.19646847994904e-06
5.19655183954937e-06
5.19658631441831e-06
5.19659988409181e-06
5.19660445352613e-06
5.19660435375894e-06
5.19659963917374e-06
5.19658611479594e-06
5.19655213220659e-06
5.19647024774601e-06
5.19627926478193e-06
5.1958482059839e-06
5.19490787866848e-06
5.19292794553997e-06
5.18890923433692e-06
5.1810563379166e-06
5.16630158470763e-06
5.13967800640496e-06
5.09359464739995e-06
5.01715246812185e-06
4.89573566173411e-06
4.71118240417263e-06
4.44282929728562e-06
4.06959476391665e-06
3.57301803721099e-06
2.94085590260048e-06
2.17055353068225e-06
1.2717479246748e-06
3.74593976591526e-09
1.41885633372028e-11
1.40606253414393e-11
3.72356246989067e-09
1.26652446856004e-06
2.16296987175953e-06
2.93172656056846e-06
3.56307702886046e-06
4.0594292214062e-06
4.43284526538276e-06
4.70160853389209e-06
4.88665457062621e-06
5.0085456292218e-06
5.08538755815764e-06
5.13177654367143e-06
5.15861592616787e-06
5.17351293407544e-06
5.18145400048009e-06
5.18552435287766e-06
5.18753296305302e-06
5.18848840935063e-06
5.18892702028914e-06
5.1891215427691e-06
5.18920493642121e-06
5.18923944502756e-06
5.1892530408328e-06
5.18925762941899e-06
5.1892575452814e-06
5.18925284987271e-06
5.18923936434337e-06
5.18920547494e-06
5.18912381139064e-06
5.18893332769725e-06
5.18850334460754e-06
5.18756523663855e-06
5.18558970248422e-06
5.18157938296119e-06
5.17374190535809e-06
5.15901444431173e-06
5.13243739934267e-06
5.08643044910491e-06
5.01010908024085e-06
4.88887619535488e-06
4.70459258345277e-06
4.43662031939205e-06
4.06390427424383e-06
3.56800847135858e-06
2.93670972168427e-06
2.16746530285712e-06
1.26991390862049e-06
3.74055634901727e-09
1.41688701035507e-11
1.4016213487892e-11
3.711580460144e-09
1.26249366003113e-06
2.1562417037534e-06
2.92276434947166e-06
3.55232855371672e-06
4.04730564218721e-06
4.41970480852372e-06
4.68774715605944e-06
4.87230399195484e-06
4.99387770719652e-06
5.07052300431293e-06
5.11679569239274e-06
5.14356942648919e-06
5.15843107098335e-06
5.16635396325903e-06
5.1704154110521e-06
5.17241986939584e-06
5.17337348151173e-06
5.17381133236505e-06
5.17400556644538e-06
5.17408886636655e-06
5.17412335512071e-06
5.17413695546553e-06
5.17414155554334e-06
5.17414148683786e-06
5.17413681811251e-06
5.17412339367867e-06
5.17408965340868e-06
5.17400834427926e-06
5.17381866706465e-06
5.17339044298144e-06
5.17245602312864e-06
5.17048793642853e-06
5.16649211127742e-06
5.15868182205541e-06
5.14400349541113e-06
5.11751194765616e-06
5.07164815579801e-06
4.99555733253102e-06
4.87468141894425e-06
4.69092920950213e-06
4.42371769217349e-06
4.05204958274095e-06
3.55754401531245e-06
2.92802351454603e-06
2.16097506845172e-06
1.26604602125066e-06
3.72914477866022e-09
1.41269147748271e-11
1.39473892453654e-11
3.69302004059477e-09
1.2562470855878e-06