/*--------------------------------*- C++ -*----------------------------------*\
  =========                 |
  \\      /  F ield         | OpenFOAM: The Open Source CFD Toolbox
   \\    /   O peration     | Website:  https://openfoam.org
    \\  /    A nd           | Version:  10
     \\/     M anipulation  |
\*---------------------------------------------------------------------------*/
FoamFile
{
    format      ascii;
    class       volScalarField;
    location    "9";
    object      omega;
}
// * * * * * * * * * * * * * * * * * * * * * * * * * * * * * * * * * * * * * //

dimensions      [0 0 -1 0 0 0 0];

internalField   nonuniform List<scalar> 
2500
(
127825.690940477
127834.182046918
127831.928876196
127830.01597888
127828.689559254
127827.835190682
127827.304150695
127826.981649386
127826.790748465
127826.681554294
127826.620507656
127826.587761798
127826.570816423
127826.56209848
127826.557707117
127826.555392397
127826.55432796
127826.553672037
127826.553189203
127826.552903504
127826.552690786
127826.552524073
127826.552394601
127826.552319321
127826.552242865
127826.55218698
127826.552174484
127826.552184332
127826.552224119
127826.5523004
127826.552427025
127826.552670301
127826.553016377
127826.553623141
127826.554765943
127826.557018305
127826.561522986
127826.570380957
127826.588004942
127826.62128525
127826.682649119
127826.792355585
127826.982593224
127827.303150551
127827.831978238
127828.683226369
127830.01117801
127831.934765018
127834.195579052
127825.665241567
31877.407366923
14167.0141825572
14165.9033167177
14164.996121957
14164.3626713538
14163.9485489443
14163.6864137218
14163.524283059
14163.4264734867
14163.3691827808
14163.3366789244
14163.3188734712
14163.3094609455
14163.3046472296
14163.3022646198
14163.3011168656
14163.3005843528
14163.3003355365
14163.3002149566
14163.3001564147
14163.3001248098
14163.3001052526
14163.3000920465
14163.3000836181
14163.3000766337
14163.3000715099
14163.3000694953
14163.3000698974
14163.3000738009
14163.3000845158
14163.3001095204
14163.3001663368
14163.3002883883
14163.3005535594
14163.3011241762
14163.3023309713
14163.3048185352
14163.3097931999
14163.3194433355
14163.3375161314
14163.3702570373
14163.4276556572
14163.5252190087
14163.6865819575
14163.9475187042
14164.3607335919
14164.9956744989
14165.9087892188
14167.0250256595
31877.3649828867
31800.7010421432
3533.04970982818
50.8699018951417
50.8651918447676
50.8619430103406
50.8598311814699
50.8584988683244
50.8576763445856
50.8571803601951
50.8568895621409
50.8567243500221
50.8566336350495
50.856585545813
50.8565609193688
50.8565487311615
50.8565428902336
50.8565401857153
50.8565389560539
50.8565383974268
50.8565381438661
50.8565380218844
50.856537955683
50.8565379152053
50.8565378897829
50.8565378705535
50.8565378565166
50.8565378497868
50.8565378497657
50.8565378621008
50.8565379035206
50.8565380106795
50.8565382689499
50.8565388612905
50.8565401846322
50.8565430708634
50.8565492123134
50.8565618998356
50.8565872820034
50.8566364206495
50.8567283444601
50.8568946505981
50.8571859151537
50.8576808633237
50.8585001452843
50.8598276641426
50.8619376979497
50.8651993629243
50.8699492649963
3533.05628366473
31800.6873552735
31727.7407146322
3524.81811363363
50.7505310327231
50.74538545284
50.7419214190879
50.7397145273231
50.7383475987762
50.7375175780094
50.7370242842532
50.736738655082
50.7365781474397
50.7364908526366
50.7364449667783
50.7364216576317
50.7364102124785
50.7364047760494
50.7364022798855
50.7364011624941
50.7364006690018
50.7364004525951
50.7364003539748
50.7364003037383
50.7364002744161
50.7364002562141
50.7364002430367
50.7364002332082
50.7364002274988
50.7364002255936
50.7364002321315
50.7364002627591
50.7364003503593
50.736400571423
50.7364010973216
50.7364022940458
50.73640493665
50.7364106198351
50.7364224752125
50.7364464153195
50.7364931872322
50.7365815502847
50.7367431060171
50.7370293422693
50.7375221089367
50.7383499507283
50.739714062561
50.7419231495783
50.7454084200391
50.7506111515667
3524.8292723328
31727.8056965162
31664.4273198125
3517.74138555286
50.6488101499281
50.6439971878417
50.6408408535899
50.6388740869198
50.6376800981778
50.6369678331457
50.6365508677499
50.6363124519498
50.6361798727169
50.6361083932636
50.636071094974
50.6360522696666
50.6360430806299
50.6360387424729
50.6360367631365
50.6360358864257
50.6360355066203
50.6360353447166
50.6360352742816
50.6360352404134
50.6360352214538
50.6360352099258
50.6360352018549
50.6360351955985
50.6360351912561
50.6360351888941
50.6360351905341
50.6360352091248
50.6360352712743
50.6360354355264
50.6360358387721
50.6360367697287
50.6360388444107
50.636043343147
50.6360528007058
50.6360720461782
50.6361099467513
50.6361821827232
50.6363155581464
50.6365545416615
50.6369714034675
50.6376826508607
50.6388759913245
50.6408484746828
50.6440317496768
50.6489131959783
3517.7561677996
31664.5767810899
31613.7455506491
3512.14292831419
50.5690913107185
50.5650776957792
50.5625144131759
50.5609531125418
50.5600244799785
50.5594803003397
50.5591664259696
50.5589890923982
50.5588914171571
50.5588391526001
50.5588120437305
50.5587984280801
50.5587918100513
50.5587886988435
50.5587872860393
50.5587866653417
50.5587864006157
50.5587862907494
50.5587862452113
50.5587862247433
50.5587862138467
50.5587862074338
50.55878620311
50.5587861995284
50.5587861964996
50.5587861941114
50.5587861933476
50.5587862028984
50.5587862417888
50.5587863518694
50.5587866309166
50.5587872835417
50.5587887485784
50.5587919460786
50.5587987090281
50.558812555512
50.5588400034738
50.5588927107877
50.5589908810335
50.5591686200335
50.5594825742517
50.5600264819759
50.5609558422624
50.5625245341235
50.5651160969486
50.5692007729808
3512.15924383418
31613.9530316863
31576.0242648526
3508.03232140535
50.5111342827706
50.5080859096978
50.5061892117263
50.5050598602334
50.5044017081376
50.5040227658009
50.5038073238637
50.503686969913
50.5036212492009
50.5035863104524
50.5035682753176
50.5035592498019
50.5035548756277
50.5035528251691
50.5035518974095
50.5035514925819
50.5035513223414
50.5035512535862
50.5035512266314
50.5035512155968
50.5035512101553
50.5035512071252
50.5035512052165
50.5035512034189
50.5035512014649
50.5035511994146
50.5035511978703
50.5035512016626
50.5035512234567
50.5035512912562
50.503551469132
50.5035518905054
50.503552842287
50.5035549304185
50.5035593677254
50.5035684958854
50.5035866865456
50.5036218367835
50.5036878066018
50.5038083813982
50.5040239061729
50.5044028733583
50.5050622079588
50.5061987355281
50.5081210558154
50.5112347142994
3508.04793146289
31576.2507542756
31549.7588700224
3505.21253701563
50.4717825334152
50.4696452467451
50.4683486773434
50.4675937173635
50.4671625196152
50.4669185147452
50.4667817159063
50.4667061074497
50.4666651435182
50.46664348717
50.4666323510582
50.4666267925412
50.4666241037069
50.4666228456222
50.4666222779716
50.4666220317777
50.4666219296456
50.4666218895606
50.4666218748859
50.4666218697045
50.4666218674738
50.4666218663711
50.4666218658201
50.4666218650851
50.4666218639152
50.4666218623611
50.466621860976
50.4666218617965
50.4666218726358
50.4666219113665
50.4666220170637
50.4666222708511
50.466622847339
50.4666241174088
50.4666268258269
50.4666324172579
50.4666436060271
50.4666653380029
50.4667063947099
50.4667820826067
50.466918896706
50.4671629488143
50.467595179614
50.4683559226887
50.469673055112
50.471864313922
3505.22582057331
31549.9698618892
31532.5610270313
3503.39549076638
50.4466900525385
50.4452934314748
50.4444665842199
50.4439955208374
50.4437317412781
50.4435849956014
50.4435038379274
50.4434594371779
50.443435553999
50.4434229883797
50.4434165463284
50.4434133364644
50.4434117854068
50.4434110604767
50.4434107341069
50.443410593358
50.443410535754
50.4434105138059
50.443410506503
50.4434105045574
50.4434105038762
50.4434105036606
50.4434105037779
50.4434105036164
50.4434105029666
50.4434105018943
50.4434105007325
50.4434105004601
50.4434105053697
50.4434105259258
50.4434105849563
50.4434107287788
50.4434110572781
50.443411783425
50.443413335782
50.4434165485629
50.4434229974039
50.4434355750158
50.4434594723442
50.443503871835
50.4435849824256
50.4437317025082
50.443996140324
50.4444712350626
50.4453129573584
50.4467502366467
3503.40572537839
31532.7353671266
31521.9249655804
3502.29042348238
50.4315924438624
50.4307355907403
50.4302400107326
50.4299635957914
50.4298117849993
50.4297287342621
50.4296834126412
50.4296588596596
50.4296457406147
50.4296388671766
50.4296353515544
50.429633601699
50.4296327564859
50.4296323616532
50.429632184214
50.4296321081117
50.4296320773916
50.4296320660332
50.4296320627106
50.4296320623214
50.4296320624298
50.4296320625956
50.4296320628014
50.4296320628015
50.4296320624747
50.4296320618013
50.4296320609377
50.4296320604182
50.4296320623763
50.4296320726051
50.4296321037917
50.4296321809828
50.4296323582821
50.4296327512321
50.4296335925881
50.4296353365255
50.4296388444923
50.4296457083497
50.4296588127058
50.4296833324283
50.4297285771622
50.429811537671
50.4299636555433
50.4302425487985
50.430747949133
50.431632994805
3502.29765705222
31522.0556319211
31515.6875699345
3501.65352512698
50.4229851923414
50.422488690684
50.422207856351
50.4220544015671
50.4219717069245
50.4219272096415
50.4219032447946
50.4218903851038
50.4218835569894
50.4218799926788
50.4218781728136
50.421877267441
50.4218768300714
50.4218766257686
50.4218765340924
50.4218764949903
50.4218764794359
50.4218764739569
50.4218764726708
50.421876472771
50.421876473024
50.4218764732803
50.4218764734704
50.4218764735096
50.4218764733551
50.4218764729436
50.4218764723651
50.4218764719125
50.421876472551
50.4218764773486
50.4218764930249
50.4218765324695
50.4218766235963
50.4218768259634
50.4218772595638
50.4218781588807
50.4218799701002
50.4218835223387
50.4218903316028
50.4219031543286
50.421927041614
50.4219714240084
50.4220541943577
50.4222090016653
50.4224958072832
50.4230104525402
3501.65826224325
31515.7777189283
31512.2069242454
3501.30438563112
50.4183184572976
50.4180453901681
50.4178941783436
50.4178131757381
50.4177703276724
50.417747645382
50.4177355878859
50.4177291780363
50.4177257948681
50.4177240345822
50.4177231369658
50.4177226904072
50.4177224745575
50.4177223736989
50.4177223285008
50.4177223093329
50.4177223018302
50.4177222993771
50.4177222989635
50.4177222991282
50.4177222993617
50.4177222995763
50.4177222997159
50.4177222997624
50.4177222996914
50.4177222994509
50.4177222990946
50.4177222987841
50.417722298925
50.4177223010535
50.4177223085736
50.4177223278511
50.4177223726527
50.4177224722859
50.4177226857489
50.4177231283923
50.4177240202118
50.4177257719414
50.4177291408397
50.4177355216466
50.417747516509
50.4177700923404
50.4178129027587
50.4178945568626
50.4180491357016
50.4183331150722
3501.30728309108
31512.2647831486
31510.3529101649
3501.12174680919
50.4159042449601
50.4157610969545
50.4156834094141
50.415642581641
50.415621373325
50.4156103265387
50.415604530123
50.4156014771146
50.4155998749535
50.4155990437667
50.4155986202925
50.4155984095293
50.415598307557
50.4155982598805
50.415598238541
50.4155982295463
50.4155982260909
50.4155982250658
50.4155982249742
50.4155982251027
50.4155982252685
50.4155982254139
50.4155982255041
50.4155982255407
50.4155982255085
50.415598225375
50.4155982251703
50.4155982249727
50.4155982249636
50.41559822587
50.4155982293263
50.4155982383729
50.4155982595233
50.4155983066014
50.4155984073864
50.4155986161695
50.4155990366363
50.4155998631231
50.4156014566664
50.4156044905458
50.4156102431255
50.4156212076359
50.4156423437908
50.4156834412471
50.4157628981226
50.4159122154451
3501.12341287058
31510.3877339302
31509.4075937098
3501.03031317218
50.4147091582804
50.4146373695175
50.4145991459323
50.4145794243678
50.4145693597056
50.4145642006045
50.4145615284767
50.4145601339762
50.4145594062525
50.4145590297116
50.4145588379715
50.4145587424685
50.4145586962029
50.4145586745539
50.4145586648754
50.4145586608228
50.4145586593052
50.414558658898
50.4145586588966
50.4145586589853
50.4145586590878
50.414558659175
50.414558659228
50.4145586592515
50.4145586592369
50.4145586591666
50.414558659056
50.414558658941
50.4145586589051
50.414558659275
50.4145586608039
50.4145586648949
50.4145586745151
50.4145586959373
50.414558741732
50.4145588364357
50.41455902693
50.4145594013568
50.4145601246164
50.4145615079308
50.4145641524519
50.4145692554877
50.4145792528168
50.4145990624163
50.4146381553449
50.4147132390752
3501.03121868572
31509.4273745156
31508.9451036332
3500.98639899023
50.4141417019772
50.4141071499198
50.4140890818153
50.4140799227854
50.4140753285482
50.4140730105789
50.4140718255008
50.4140712127327
50.4140708947104
50.4140707305552
50.4140706469835
50.4140706053124
50.4140705850939
50.4140705756235
50.4140705713946
50.4140705696362
50.4140705689967
50.4140705688434
50.4140705688606
50.4140705689143
50.414070568972
50.4140705690199
50.4140705690487
50.414070569062
50.4140705690554
50.41407056902
50.4140705689635
50.4140705689016
50.4140705688724
50.4140705690175
50.4140705696714
50.4140705714595
50.414070575688
50.4140705851035
50.4140706051907
50.4140706466319
50.4140707298292
50.4140708932295
50.4140712092219
50.414071816018
50.4140729851063
50.4140752683777
50.4140798131509
50.4140889867565
50.4141074548702
50.4141436765226
3500.98686632962
31508.9557632796
31508.7275780315
3500.96612744858
50.4138828078503
50.413866802498
50.4138585740475
50.4138544728499
50.4138524498655
50.41385144504
50.4138509379551
50.413850678179
50.4138505440879
50.4138504750276
50.4138504398676
50.4138504223119
50.4138504137789
50.4138504097774
50.4138504079927
50.4138504072561
50.4138504069968
50.4138504069425
50.4138504069572
50.4138504069867
50.4138504070168
50.4138504070413
50.4138504070559
50.4138504070628
50.4138504070597
50.4138504070428
50.4138504070152
50.413850406984
50.4138504069663
50.4138504070211
50.4138504072922
50.4138504080497
50.4138504098504
50.4138504138582
50.413850422387
50.4138504399302
50.4138504750583
50.413850543947
50.4138506772288
50.4138509340449
50.4138514324887
50.4138524174514
50.4138544087791
50.4138585016544
50.4138669023811
50.413883713337
3500.96635739467
31508.7330516712
31508.6291284682
3500.9571274339
50.4137692716051
50.4137621180826
50.413758498717
50.4137567236393
50.4137558621608
50.4137554408076
50.4137552309201
50.4137551243958
50.413755069707
50.4137550415995
50.4137550272858
50.4137550201274
50.4137550166413
50.4137550150045
50.4137550142755
50.4137550139768
50.4137550138752
50.4137550138572
50.4137550138664
50.4137550138814
50.4137550138961
50.4137550139079
50.4137550139149
50.4137550139182
50.4137550139168
50.4137550139089
50.413755013896
50.4137550138811
50.4137550138716
50.4137550138917
50.413755014001
50.4137550143126
50.4137550150571
50.413755016713
50.4137550202265
50.4137550274287
50.4137550418041
50.4137550699347
50.413755124349
50.4137552294953
50.4137554349805
50.413755845685
50.4137566887759
50.4137584524831
50.4137621410561
50.4137696659218
3500.95723567042
31508.6318167368
31508.5863003398
3500.95329201638
50.4137215438416
50.413718452058
50.4137169109935
50.4137161667046
50.4137158111082
50.4137156397989
50.4137155555663
50.4137155132163
50.4137154915918
50.4137154805
50.4137154748491
50.4137154720183
50.4137154706369
50.4137154699875
50.4137154696988
50.4137154695814
50.4137154695429
50.4137154695374
50.4137154695423
50.4137154695494
50.4137154695562
50.4137154695616
50.4137154695647
50.4137154695661
50.4137154695654
50.4137154695619
50.4137154695561
50.4137154695492
50.4137154695445
50.4137154695515
50.4137154695944
50.4137154697191
50.4137154700183
50.4137154706834
50.4137154720904
50.4137154749638
50.413715480678
50.4137154918295
50.4137155133828
50.4137155551249
50.4137156372264
50.4137158031406
50.4137161488323
50.4137168845348
50.4137184513146
50.4137217070769
3500.9533409029
31508.5875672488
31508.5685043114
3500.95173700302
50.4137025248321
50.4137012300375
50.4137005936186
50.4137002906848
50.4137001481208
50.4137000804518
50.4137000476074
50.4137000312505
50.4137000229443
50.4137000186924
50.4137000165254
50.413700015438
50.4137000149064
50.4137000146563
50.4137000145454
50.4137000145007
50.4137000144866
50.4137000144851
50.4137000144875
50.4137000144907
50.4137000144936
50.4137000144959
50.4137000144972
50.4137000144977
50.4137000144974
50.4137000144958
50.4137000144932
50.4137000144901
50.4137000144878
50.4137000144901
50.4137000145064
50.4137000145548
50.4137000146717
50.4137000149315
50.4137000154798
50.4137000165953
50.4137000188053
50.4137000231048
50.4137000314038
50.4137000475046
50.4137000793626
50.4137001444307
50.4137002819806
50.4137005796399
50.413701224736
50.4137025890675
3500.95175824677
31508.5690788664
31508.5615877874
3500.95115460155
50.4136956022038
50.4136950758564
50.4136948204894
50.4136947005945
50.4136946449819
50.4136946189655
50.4136946065003
50.4136946003526
50.4136945972487
50.4136945956636
50.4136945948556
50.4136945944498
50.4136945942512
50.4136945941579
50.4136945941167
50.4136945941003
50.4136945940954
50.413694594095
50.4136945940962
50.4136945940975
50.4136945940987
50.4136945940996
50.4136945941001
50.4136945941002
50.4136945941
50.4136945940992
50.413694594098
50.4136945940966
50.4136945940955
50.4136945940961
50.4136945941019
50.41369459412
50.4136945941642
50.4136945942626
50.4136945944704
50.4136945948918
50.413694595724
50.4136945973381
50.4136946004489
50.4136946064928
50.4136946185191
50.413694643336
50.4136946965415
50.4136948135573
50.4136950714713
50.4136956261967
3500.95116350452
31508.5618391683
31508.5592473578
3500.95097375601
50.4136936127019
50.413693404676
50.413693304961
50.4136932587478
50.4136932376081
50.4136932278586
50.4136932232481
50.4136932209975
50.4136932198685
50.4136932192939
50.4136932190014
50.4136932188547
50.413693218783
50.4136932187496
50.4136932187349
50.4136932187294
50.4136932187278
50.4136932187279
50.4136932187283
50.4136932187289
50.4136932187293
50.4136932187296
50.4136932187297
50.4136932187297
50.4136932187295
50.4136932187291
50.4136932187285
50.4136932187278
50.4136932187271
50.4136932187271
50.4136932187289
50.4136932187351
50.413693218751
50.4136932187869
50.413693218863
50.4136932190175
50.4136932193221
50.4136932199119
50.4136932210476
50.4136932232574
50.4136932276793
50.4136932368972
50.413693256934
50.4136933016996
50.4136934019852
50.4136936211769
3500.95097736188
31508.5593537032
31508.5587732434
3500.95095370401
50.4136935741439
50.4136934940971
50.4136934561562
50.4136934387869
50.4136934309475
50.4136934273832
50.4136934257206
50.4136934249184
50.4136934245195
50.4136934243178
50.4136934242157
50.4136934241649
50.4136934241404
50.4136934241292
50.4136934241245
50.4136934241229
50.4136934241226
50.4136934241227
50.4136934241229
50.4136934241232
50.4136934241233
50.4136934241233
50.4136934241234
50.4136934241233
50.4136934241231
50.4136934241228
50.4136934241225
50.413693424122
50.4136934241215
50.4136934241212
50.4136934241215
50.4136934241233
50.4136934241284
50.4136934241406
50.413693424167
50.4136934242212
50.4136934243289
50.4136934245378
50.4136934249407
50.4136934257271
50.4136934273112
50.4136934306482
50.4136934380027
50.4136934546894
50.4136934926645
50.4136935769538
3500.95095511813
31508.5588168338
31508.5590384517
3500.95099620783
50.4136942850979
50.413694255075
50.4136942409938
50.4136942346226
50.4136942317852
50.4136942305143
50.4136942299308
50.4136942296536
50.4136942295178
50.4136942294502
50.4136942294167
50.4136942294005
50.4136942293931
50.4136942293899
50.4136942293889
50.4136942293887
50.4136942293888
50.413694229389
50.4136942293892
50.4136942293892
50.4136942293893
50.4136942293892
50.4136942293891
50.413694229389
50.4136942293889
50.4136942293887
50.4136942293884
50.413694229388
50.4136942293877
50.4136942293872
50.4136942293869
50.413694229387
50.4136942293881
50.4136942293915
50.4136942293996
50.4136942294172
50.413694229453
50.4136942295237
50.4136942296614
50.4136942299325
50.4136942304842
50.4136942316611
50.4136942342932
50.4136942403589
50.4136942543775
50.4136942859592
3500.95099674565
31508.559055793
31508.5595885853
3500.9510623947
50.4136952762173
50.4136952652335
50.4136952601339
50.4136952578533
50.4136952568519
50.4136952564113
50.4136952562134
50.4136952561218
50.4136952560785
50.4136952560579
50.4136952560484
50.4136952560443
50.4136952560429
50.4136952560426
50.4136952560429
50.4136952560432
50.4136952560435
50.4136952560437
50.4136952560438
50.4136952560439
50.4136952560439
50.4136952560438
50.4136952560437
50.4136952560436
50.4136952560434
50.4136952560432
50.413695256043
50.4136952560427
50.4136952560423
50.4136952560418
50.4136952560413
50.4136952560408
50.4136952560404
50.4136952560406
50.4136952560422
50.4136952560467
50.413695256057
50.4136952560787
50.4136952561228
50.413695256212
50.4136952563972
50.4136952568001
50.4136952577176
50.4136952598675
50.4136952649147
50.4136952764532
3500.95106259334
31508.559595292
31508.5602457002
3500.9511373196
50.4136963693807
50.4136963654621
50.4136963636618
50.4136963628669
50.4136963625238
50.4136963623767
50.4136963623133
50.4136963622857
50.413696362274
50.4136963622694
50.413696362268
50.413696362268
50.4136963622686
50.4136963622693
50.41369636227
50.4136963622704
50.4136963622708
50.4136963622711
50.4136963622712
50.4136963622712
50.4136963622712
50.4136963622711
50.4136963622711
50.4136963622709
50.4136963622708
50.4136963622706
50.4136963622703
50.41369636227
50.4136963622696
50.4136963622692
50.4136963622685
50.4136963622678
50.413696362267
50.4136963622661
50.4136963622654
50.4136963622654
50.413696362267
50.4136963622719
50.4136963622838
50.4136963623103
50.4136963623688
50.4136963625011
50.4136963628109
50.4136963635523
50.4136963653229
50.4136963694329
3500.9511373909
31508.560248226
31508.5609420023
3500.95121539063
50.4136974988084
50.4136974974491
50.4136974968327
50.413697496565
50.4136974964524
50.4136974964066
50.4136974963888
50.4136974963825
50.4136974963811
50.4136974963816
50.4136974963829
50.4136974963842
50.4136974963854
50.4136974963863
50.4136974963871
50.4136974963877
50.413697496388
50.4136974963883
50.4136974963884
50.4136974963885
50.4136974963885
50.4136974963884
50.4136974963883
50.4136974963882
50.413697496388
50.4136974963878
50.4136974963876
50.4136974963873
50.4136974963869
50.4136974963864
50.4136974963858
50.413697496385
50.413697496384
50.4136974963828
50.4136974963814
50.4136974963799
50.4136974963787
50.4136974963781
50.4136974963794
50.4136974963851
50.413697496401
50.4136974964412
50.4136974965409
50.4136974967876
50.41369749739
50.4136974988135
3500.95121541548
31508.5609429269
31508.5616523252
3500.95129456846
50.4136986408263
50.4136986403728
50.4136986401715
50.4136986400864
50.4136986400526
50.4136986400406
50.4136986400375
50.413698640038
50.4136986400397
50.4136986400417
50.4136986400435
50.4136986400452
50.4136986400465
50.4136986400475
50.4136986400482
50.4136986400488
50.4136986400492
50.4136986400494
50.4136986400496
50.4136986400496
50.4136986400496
50.4136986400495
50.4136986400495
50.4136986400494
50.4136986400492
50.413698640049
50.4136986400487
50.4136986400484
50.413698640048
50.4136986400476
50.413698640047
50.4136986400462
50.4136986400452
50.4136986400439
50.4136986400424
50.4136986400406
50.4136986400385
50.4136986400364
50.4136986400345
50.4136986400337
50.4136986400359
50.4136986400457
50.4136986400748
50.4136986401521
50.4136986403476
50.4136986408222
3500.95129457679
31508.5616526556
31508.5623675537
3500.95137412716
50.4136997871193
50.4136997869791
50.4136997869198
50.4136997868963
50.4136997868884
50.4136997868871
50.4136997868884
50.4136997868906
50.413699786893
50.4136997868953
50.4136997868971
50.4136997868987
50.4136997869
50.4136997869009
50.4136997869017
50.4136997869022
50.4136997869025
50.4136997869027
50.4136997869029
50.4136997869029
50.4136997869029
50.4136997869028
50.4136997869028
50.4136997869027
50.4136997869025
50.4136997869023
50.4136997869021
50.4136997869018
50.4136997869014
50.4136997869009
50.4136997869004
50.4136997868996
50.4136997868986
50.4136997868975
50.413699786896
50.4136997868942
50.4136997868921
50.4136997868897
50.4136997868871
50.4136997868846
50.4136997868828
50.4136997868833
50.4136997868895
50.4136997869103
50.4136997869676
50.4136997871149
3500.95137412984
31508.5623676679
31508.5630844624
3500.95145381419
50.4137009348334
50.413700934799
50.4137009347869
50.4137009347833
50.4137009347834
50.413700934785
50.4137009347873
50.4137009347897
50.413700934792
50.413700934794
50.4137009347957
50.4137009347971
50.4137009347982
50.4137009347991
50.4137009347998
50.4137009348002
50.4137009348006
50.4137009348008
50.4137009348009
50.413700934801
50.413700934801
50.4137009348009
50.4137009348008
50.4137009348008
50.4137009348006
50.4137009348004
50.4137009348002
50.4137009347999
50.4137009347995
50.4137009347991
50.4137009347985
50.4137009347978
50.4137009347969
50.4137009347958
50.4137009347945
50.4137009347928
50.4137009347909
50.4137009347887
50.4137009347862
50.4137009347836
50.413700934781
50.413700934779
50.4137009347784
50.4137009347813
50.413700934793
50.41370093483
3500.95145381496
31508.563084501
31508.5638019349
3500.95153354361
50.4137020830106
50.4137020830107
50.4137020830136
50.4137020830159
50.413702083018
50.4137020830201
50.4137020830222
50.4137020830242
50.4137020830262
50.4137020830279
50.4137020830293
50.4137020830305
50.4137020830315
50.4137020830322
50.4137020830328
50.4137020830332
50.4137020830335
50.4137020830337
50.4137020830338
50.4137020830339
50.4137020830339
50.4137020830338
50.4137020830338
50.4137020830336
50.4137020830335
50.4137020830333
50.4137020830331
50.4137020830328
50.4137020830325
50.4137020830321
50.4137020830316
50.4137020830309
50.4137020830301
50.4137020830292
50.413702083028
50.4137020830265
50.4137020830249
50.4137020830229
50.4137020830208
50.4137020830185
50.4137020830162
50.413702083014
50.4137020830118
50.4137020830095
50.4137020830069
50.4137020830079
3500.9515335438
31508.563801947
31508.5645195929
3500.95161328676
50.4137032313356
50.4137032313465
50.4137032313537
50.4137032313573
50.4137032313594
50.413703231361
50.4137032313626
50.4137032313642
50.4137032313657
50.413703231367
50.4137032313682
50.4137032313692
50.41370323137
50.4137032313706
50.4137032313712
50.4137032313715
50.4137032313718
50.4137032313719
50.413703231372
50.4137032313721
50.4137032313721
50.413703231372
50.4137032313719
50.4137032313718
50.4137032313717
50.4137032313715
50.4137032313713
50.413703231371
50.4137032313707
50.4137032313703
50.4137032313699
50.4137032313693
50.4137032313686
50.4137032313678
50.4137032313668
50.4137032313655
50.4137032313642
50.4137032313626
50.4137032313609
50.4137032313591
50.4137032313573
50.4137032313555
50.4137032313535
50.4137032313502
50.4137032313436
50.4137032313335
3500.95161328671
31508.5645195961
31508.5652373109
3500.95169303428
50.4137043797071
50.4137043797207
50.4137043797286
50.413704379732
50.4137043797336
50.4137043797346
50.4137043797356
50.4137043797367
50.4137043797378
50.4137043797387
50.4137043797396
50.4137043797404
50.413704379741
50.4137043797415
50.4137043797419
50.4137043797422
50.4137043797424
50.4137043797426
50.4137043797426
50.4137043797427
50.4137043797427
50.4137043797426
50.4137043797425
50.4137043797424
50.4137043797423
50.4137043797422
50.413704379742
50.4137043797418
50.4137043797415
50.4137043797411
50.4137043797407
50.4137043797402
50.4137043797396
50.4137043797389
50.4137043797381
50.4137043797371
50.413704379736
50.4137043797348
50.4137043797335
50.4137043797323
50.4137043797311
50.4137043797299
50.4137043797284
50.4137043797254
50.4137043797182
50.4137043797052
3500.95169303413
31508.565237309
31508.565955048
3500.95177278316
50.4137055280928
50.4137055281067
50.4137055281141
50.4137055281169
50.4137055281178
50.4137055281181
50.4137055281185
50.4137055281191
50.4137055281197
50.4137055281203
50.4137055281209
50.4137055281215
50.4137055281219
50.4137055281223
50.4137055281226
50.4137055281228
50.413705528123
50.4137055281231
50.4137055281232
50.4137055281232
50.4137055281232
50.4137055281231
50.4137055281231
50.413705528123
50.4137055281228
50.4137055281227
50.4137055281225
50.4137055281223
50.4137055281221
50.4137055281218
50.4137055281214
50.413705528121
50.4137055281205
50.4137055281199
50.4137055281193
50.4137055281185
50.4137055281177
50.4137055281169
50.413705528116
50.4137055281153
50.4137055281147
50.4137055281142
50.4137055281135
50.4137055281112
50.4137055281044
50.4137055280911
3500.95177278304
31508.5659550462
31508.566672791
3500.95185253247
50.4137066764828
50.413706676496
50.4137066765027
50.4137066765046
50.4137066765047
50.4137066765045
50.4137066765043
50.4137066765043
50.4137066765045
50.4137066765048
50.4137066765052
50.4137066765055
50.4137066765058
50.4137066765061
50.4137066765063
50.4137066765064
50.4137066765065
50.4137066765066
50.4137066765067
50.4137066765067
50.4137066765066
50.4137066765066
50.4137066765065
50.4137066765064
50.4137066765063
50.4137066765061
50.413706676506
50.4137066765058
50.4137066765056
50.4137066765054
50.4137066765051
50.4137066765047
50.4137066765044
50.4137066765039
50.4137066765034
50.4137066765029
50.4137066765024
50.4137066765019
50.4137066765014
50.4137066765012
50.4137066765012
50.4137066765015
50.4137066765014
50.4137066764999
50.4137066764939
50.4137066764812
3500.95185253239
31508.5666727901
31508.567390536
3500.95193228191
50.4137078248741
50.4137078248863
50.4137078248921
50.4137078248932
50.4137078248925
50.4137078248916
50.4137078248909
50.4137078248905
50.4137078248903
50.4137078248903
50.4137078248903
50.4137078248905
50.4137078248906
50.4137078248907
50.4137078248909
50.4137078248909
50.413707824891
50.413707824891
50.413707824891
50.413707824891
50.413707824891
50.413707824891
50.4137078248909
50.4137078248908
50.4137078248907
50.4137078248906
50.4137078248905
50.4137078248903
50.4137078248901
50.4137078248899
50.4137078248897
50.4137078248894
50.4137078248892
50.4137078248888
50.4137078248885