/*--------------------------------*- C++ -*----------------------------------*\
  =========                 |
  \\      /  F ield         | OpenFOAM: The Open Source CFD Toolbox
   \\    /   O peration     | Website:  https://openfoam.org
    \\  /    A nd           | Version:  10
     \\/     M anipulation  |
\*---------------------------------------------------------------------------*/
FoamFile
{
    format      ascii;
    class       volScalarField;
    location    "9";
    object      p;
}
// * * * * * * * * * * * * * * * * * * * * * * * * * * * * * * * * * * * * * //

dimensions      [1 -1 -2 0 0 0 0];

internalField   nonuniform List<scalar> 
2500
(
100103.677559764
100103.677560391
100103.677561228
100103.677562032
100103.677562649
100103.677563097
100103.677563406
100103.677563618
100103.677563761
100103.677563857
100103.677563922
100103.677563965
100103.677563995
100103.677564015
100103.677564029
100103.677564039
100103.677564047
100103.677564052
100103.677564056
100103.677564059
100103.677564061
100103.677564062
100103.677564063
100103.677564064
100103.677564064
100103.677564064
100103.677564064
100103.677564063
100103.677564062
100103.677564061
100103.677564059
100103.677564056
100103.677564052
100103.677564046
100103.677564039
100103.677564029
100103.677564014
100103.677563993
100103.677563963
100103.677563919
100103.677563854
100103.677563757
100103.677563613
100103.677563401
100103.677563091
100103.67756264
100103.677562018
100103.677561206
100103.677560359
100103.677559735
100103.675308896
100103.675309372
100103.675310063
100103.67531076
100103.675311309
100103.67531172
100103.675312008
100103.675312208
100103.675312344
100103.675312437
100103.6753125
100103.675312542
100103.675312571
100103.675312592
100103.675312606
100103.675312616
100103.675312623
100103.675312628
100103.675312632
100103.675312635
100103.675312637
100103.675312639
100103.67531264
100103.675312641
100103.675312641
100103.675312641
100103.675312641
100103.67531264
100103.675312639
100103.675312637
100103.675312635
100103.675312632
100103.675312628
100103.675312623
100103.675312615
100103.675312605
100103.675312591
100103.67531257
100103.67531254
100103.675312497
100103.675312434
100103.675312341
100103.675312203
100103.675312002
100103.675311712
100103.675311299
100103.675310745
100103.675310041
100103.675309342
100103.675308868
100103.673052242
100103.673052606
100103.673053092
100103.67305362
100103.673054047
100103.673054379
100103.673054616
100103.673054785
100103.673054903
100103.673054984
100103.673055039
100103.673055078
100103.673055105
100103.673055124
100103.673055138
100103.673055147
100103.673055154
100103.67305516
100103.673055164
100103.673055167
100103.673055169
100103.67305517
100103.673055171
100103.673055172
100103.673055172
100103.673055172
100103.673055172
100103.673055171
100103.67305517
100103.673055169
100103.673055167
100103.673055164
100103.67305516
100103.673055154
100103.673055147
100103.673055137
100103.673055123
100103.673055104
100103.673055077
100103.673055038
100103.673054981
100103.673054899
100103.673054781
100103.673054611
100103.673054372
100103.673054038
100103.673053606
100103.673053071
100103.673052577
100103.673052213
100103.670790072
100103.670790304
100103.670790584
100103.670790922
100103.670791203
100103.670791432
100103.670791602
100103.670791727
100103.670791816
100103.67079188
100103.670791925
100103.670791958
100103.670791981
100103.670791998
100103.670792011
100103.67079202
100103.670792027
100103.670792032
100103.670792036
100103.670792038
100103.670792041
100103.670792042
100103.670792043
100103.670792044
100103.670792044
100103.670792044
100103.670792044
100103.670792043
100103.670792042
100103.670792041
100103.670792039
100103.670792036
100103.670792032
100103.670792027
100103.67079202
100103.670792011
100103.670791998
100103.670791981
100103.670791957
100103.670791924
100103.670791878
100103.670791813
100103.670791723
100103.670791597
100103.670791426
100103.670791194
100103.670790909
100103.670790565
100103.670790278
100103.670790042
100103.668522949
100103.668523052
100103.668523154
100103.668523317
100103.668523462
100103.668523591
100103.668523694
100103.668523774
100103.668523835
100103.668523881
100103.668523916
100103.668523942
100103.668523961
100103.668523976
100103.668523986
100103.668523995
100103.668524001
100103.668524006
100103.668524009
100103.668524012
100103.668524014
100103.668524016
100103.668524017
100103.668524018
100103.668524018
100103.668524018
100103.668524018
100103.668524017
100103.668524016
100103.668524014
100103.668524012
100103.66852401
100103.668524006
100103.668524001
100103.668523995
100103.668523986
100103.668523975
100103.668523961
100103.668523941
100103.668523915
100103.66852388
100103.668523833
100103.668523771
100103.66852369
100103.668523586
100103.668523454
100103.668523306
100103.668523139
100103.668523032
100103.668522922
100103.666251693
100103.666251685
100103.666251653
100103.666251675
100103.666251707
100103.666251753
100103.666251797
100103.666251839
100103.666251875
100103.666251904
100103.666251929
100103.666251948
100103.666251963
100103.666251975
100103.666251984
100103.666251992
100103.666251997
100103.666252002
100103.666252005
100103.666252008
100103.66625201
100103.666252011
100103.666252012
100103.666252013
100103.666252013
100103.666252013
100103.666252013
100103.666252012
100103.666252011
100103.66625201
100103.666252008
100103.666252005
100103.666252002
100103.666251998
100103.666251992
100103.666251985
100103.666251975
100103.666251963
100103.666251947
100103.666251928
100103.666251903
100103.666251873
100103.666251837
100103.666251794
100103.666251748
100103.666251701
100103.666251666
100103.666251642
100103.666251671
100103.666251672
100103.663977254
100103.663977167
100103.66397705
100103.663976971
100103.663976923
100103.663976906
100103.663976906
100103.663976917
100103.663976932
100103.663976948
100103.663976963
100103.663976976
100103.663976988
100103.663976997
100103.663977005
100103.663977011
100103.663977016
100103.66397702
100103.663977023
100103.663977026
100103.663977027
100103.663977029
100103.66397703
100103.66397703
100103.663977031
100103.663977031
100103.663977031
100103.66397703
100103.663977029
100103.663977028
100103.663977026
100103.663977024
100103.663977021
100103.663977017
100103.663977012
100103.663977005
100103.663976998
100103.663976988
100103.663976976
100103.663976963
100103.663976947
100103.663976931
100103.663976916
100103.663976904
100103.663976903
100103.663976919
100103.663976966
100103.663977043
100103.663977159
100103.663977242
100103.661700537
100103.661700405
100103.661700246
100103.661700109
100103.661700011
100103.661699952
100103.661699922
100103.66169991
100103.661699909
100103.661699913
100103.661699921
100103.661699929
100103.661699937
100103.661699944
100103.66169995
100103.661699955
100103.661699959
100103.661699963
100103.661699966
100103.661699968
100103.661699969
100103.661699971
100103.661699971
100103.661699972
100103.661699972
100103.661699972
100103.661699972
100103.661699972
100103.661699971
100103.66169997
100103.661699968
100103.661699966
100103.661699963
100103.66169996
100103.661699956
100103.661699951
100103.661699944
100103.661699937
100103.661699929
100103.661699921
100103.661699913
100103.661699908
100103.661699909
100103.66169992
100103.66169995
100103.661700008
100103.661700106
100103.661700244
100103.661700404
100103.661700532
100103.659422296
100103.659422151
100103.659421982
100103.659421818
100103.659421696
100103.659421613
100103.659421563
100103.659421536
100103.659421523
100103.659421519
100103.659421521
100103.659421524
100103.659421529
100103.659421534
100103.659421538
100103.659421542
100103.659421546
100103.659421549
100103.659421551
100103.659421553
100103.659421554
100103.659421555
100103.659421556
100103.659421557
100103.659421557
100103.659421557
100103.659421557
100103.659421556
100103.659421556
100103.659421555
100103.659421553
100103.659421552
100103.659421549
100103.659421546
100103.659421543
100103.659421539
100103.659421534
100103.659421529
100103.659421525
100103.659421521
100103.659421519
100103.659421523
100103.659421535
100103.659421562
100103.659421612
100103.659421695
100103.659421818
100103.659421983
100103.659422154
100103.659422299
100103.657143103
100103.657142965
100103.657142806
100103.657142639
100103.657142509
100103.657142416
100103.657142355
100103.657142318
100103.657142298
100103.657142287
100103.657142283
100103.657142283
100103.657142285
100103.657142288
100103.657142291
100103.657142294
100103.657142297
100103.657142299
100103.657142301
100103.657142302
100103.657142304
100103.657142305
100103.657142305
100103.657142306
100103.657142306
100103.657142306
100103.657142306
100103.657142306
100103.657142305
100103.657142304
100103.657142303
100103.657142301
100103.6571423
100103.657142297
100103.657142295
100103.657142292
100103.657142289
100103.657142286
100103.657142284
100103.657142284
100103.657142288
100103.657142298
100103.657142318
100103.657142355
100103.657142416
100103.65714251
100103.657142641
100103.657142809
100103.657142971
100103.657143109
100103.65486335
100103.654863231
100103.654863092
100103.654862936
100103.65486281
100103.654862715
100103.65486265
100103.654862607
100103.654862581
100103.654862566
100103.654862558
100103.654862555
100103.654862555
100103.654862556
100103.654862557
100103.654862559
100103.654862561
100103.654862563
100103.654862564
100103.654862565
100103.654862566
100103.654862567
100103.654862568
100103.654862568
100103.654862568
100103.654862568
100103.654862568
100103.654862568
100103.654862568
100103.654862567
100103.654862566
100103.654862565
100103.654862563
100103.654862562
100103.65486256
100103.654862558
100103.654862556
100103.654862556
100103.654862556
100103.654862559
100103.654862567
100103.654862582
100103.654862608
100103.65486265
100103.654862716
100103.654862811
100103.654862938
100103.654863097
100103.654863239
100103.654863359
100103.65258329
100103.652583194
100103.652583077
100103.652582939
100103.652582823
100103.652582732
100103.652582667
100103.652582622
100103.652582592
100103.652582574
100103.652582563
100103.652582557
100103.652582555
100103.652582554
100103.652582554
100103.652582555
100103.652582556
100103.652582557
100103.652582558
100103.652582559
100103.65258256
100103.65258256
100103.652582561
100103.652582561
100103.652582562
100103.652582562
100103.652582562
100103.652582561
100103.652582561
100103.65258256
100103.65258256
100103.652582559
100103.652582558
100103.652582557
100103.652582556
100103.652582555
100103.652582555
100103.652582556
100103.652582558
100103.652582564
100103.652582575
100103.652582593
100103.652582623
100103.652582668
100103.652582734
100103.652582826
100103.652582942
100103.652583083
100103.652583202
100103.652583299
100103.650303073
100103.650302999
100103.650302904
100103.650302786
100103.650302683
100103.650302598
100103.650302535
100103.650302489
100103.650302458
100103.650302438
100103.650302425
100103.650302417
100103.650302412
100103.65030241
100103.650302409
100103.650302409
100103.650302409
100103.65030241
100103.65030241
100103.650302411
100103.650302412
100103.650302412
100103.650302413
100103.650302413
100103.650302413
100103.650302413
100103.650302413
100103.650302413
100103.650302413
100103.650302412
100103.650302412
100103.650302411
100103.650302411
100103.65030241
100103.65030241
100103.65030241
100103.650302411
100103.650302413
100103.650302418
100103.650302426
100103.650302439
100103.650302459
100103.650302491
100103.650302536
100103.6503026
100103.650302686
100103.65030279
100103.65030291
100103.650303007
100103.650303082
100103.648022783
100103.648022728
100103.648022652
100103.648022553
100103.648022463
100103.648022386
100103.648022327
100103.648022282
100103.64802225
100103.648022228
100103.648022213
100103.648022204
100103.648022198
100103.648022194
100103.648022193
100103.648022192
100103.648022191
100103.648022191
100103.648022192
100103.648022192
100103.648022192
100103.648022193
100103.648022193
100103.648022193
100103.648022193
100103.648022193
100103.648022193
100103.648022193
100103.648022193
100103.648022193
100103.648022193
100103.648022192
100103.648022192
100103.648022192
100103.648022193
100103.648022194
100103.648022196
100103.648022199
100103.648022205
100103.648022215
100103.64802223
100103.648022252
100103.648022284
100103.648022328
100103.648022388
100103.648022466
100103.648022557
100103.648022658
100103.648022735
100103.648022792
100103.645742464
100103.645742423
100103.645742363
100103.64574228
100103.645742203
100103.645742135
100103.645742079
100103.645742037
100103.645742005
100103.645741983
100103.645741967
100103.645741956
100103.645741949
100103.645741944
100103.645741941
100103.64574194
100103.645741939
100103.645741938
100103.645741938
100103.645741938
100103.645741938
100103.645741939
100103.645741939
100103.645741939
100103.645741939
100103.645741939
100103.645741939
100103.645741939
100103.645741939
100103.645741939
100103.645741939
100103.645741939
100103.645741939
100103.64574194
100103.645741941
100103.645741943
100103.645741946
100103.64574195
100103.645741957
100103.645741968
100103.645741984
100103.645742007
100103.645742039
100103.645742082
100103.645742137
100103.645742207
100103.645742285
100103.645742368
100103.64574243
100103.645742471
100103.643462135
100103.643462106
100103.643462058
100103.64346199
100103.643461924
100103.643461863
100103.643461813
100103.643461773
100103.643461742
100103.643461719
100103.643461703
100103.643461691
100103.643461683
100103.643461678
100103.643461674
100103.643461672
100103.64346167
100103.643461669
100103.643461669
100103.643461669
100103.643461669
100103.643461669
100103.643461669
100103.643461669
100103.643461669
100103.643461669
100103.643461669
100103.643461669
100103.643461669
100103.643461669
100103.64346167
100103.64346167
100103.643461671
100103.643461672
100103.643461673
100103.643461676
100103.643461679
100103.643461685
100103.643461693
100103.643461705
100103.643461721
100103.643461744
100103.643461775
100103.643461815
100103.643461866
100103.643461928
100103.643461995
100103.643462063
100103.643462112
100103.643462142
100103.641181807
100103.641181786
100103.641181748
100103.641181692
100103.641181636
100103.641181582
100103.641181537
100103.641181499
100103.64118147
100103.641181447
100103.641181431
100103.641181419
100103.64118141
100103.641181404
100103.641181399
100103.641181397
100103.641181395
100103.641181393
100103.641181393
100103.641181392
100103.641181392
100103.641181392
100103.641181392
100103.641181392
100103.641181392
100103.641181392
100103.641181392
100103.641181392
100103.641181392
100103.641181393
100103.641181393
100103.641181394
100103.641181395
100103.641181396
100103.641181398
100103.641181401
100103.641181405
100103.641181411
100103.64118142
100103.641181433
100103.641181449
100103.641181472
100103.641181502
100103.641181539
100103.641181585
100103.641181639
100103.641181696
100103.641181753
100103.641181791
100103.641181813
100103.638901483
100103.638901467
100103.638901437
100103.638901391
100103.638901343
100103.638901296
100103.638901255
100103.638901221
100103.638901193
100103.638901171
100103.638901154
100103.638901142
100103.638901133
100103.638901126
100103.638901122
100103.638901118
100103.638901116
100103.638901114
100103.638901113
100103.638901112
100103.638901112
100103.638901112
100103.638901112
100103.638901112
100103.638901112
100103.638901112
100103.638901112
100103.638901112
100103.638901112
100103.638901113
100103.638901113
100103.638901114
100103.638901115
100103.638901117
100103.63890112
100103.638901123
100103.638901128
100103.638901135
100103.638901144
100103.638901156
100103.638901173
100103.638901195
100103.638901223
100103.638901258
100103.6389013
100103.638901347
100103.638901395
100103.638901442
100103.638901472
100103.638901488
100103.636621163
100103.636621151
100103.636621127
100103.636621089
100103.636621048
100103.636621008
100103.636620971
100103.636620939
100103.636620913
100103.636620892
100103.636620876
100103.636620863
100103.636620854
100103.636620847
100103.636620842
100103.636620838
100103.636620836
100103.636620834
100103.636620832
100103.636620832
100103.636620831
100103.636620831
100103.63662083
100103.63662083
100103.63662083
100103.63662083
100103.63662083
100103.636620831
100103.636620831
100103.636620832
100103.636620832
100103.636620833
100103.636620835
100103.636620837
100103.63662084
100103.636620844
100103.636620849
100103.636620856
100103.636620865
100103.636620878
100103.636620894
100103.636620915
100103.636620942
100103.636620974
100103.636621011
100103.636621052
100103.636621093
100103.636621132
100103.636621156
100103.636621168
100103.634340847
100103.634340838
100103.634340818
100103.634340787
100103.634340753
100103.634340717
100103.634340685
100103.634340656
100103.634340631
100103.634340612
100103.634340596
100103.634340583
100103.634340574
100103.634340567
100103.634340562
100103.634340558
100103.634340555
100103.634340553
100103.634340551
100103.63434055
100103.634340549
100103.634340549
100103.634340548
100103.634340548
100103.634340548
100103.634340548
100103.634340549
100103.634340549
100103.634340549
100103.63434055
100103.634340551
100103.634340552
100103.634340554
100103.634340556
100103.634340559
100103.634340563
100103.634340569
100103.634340576
100103.634340585
100103.634340598
100103.634340614
100103.634340634
100103.634340658
100103.634340688
100103.634340721
100103.634340757
100103.634340791
100103.634340823
100103.634340843
100103.634340851
100103.632060534
100103.632060528
100103.632060512
100103.632060486
100103.632060457
100103.632060426
100103.632060397
100103.632060371
100103.632060349
100103.63206033
100103.632060315
100103.632060303
100103.632060293
100103.632060286
100103.632060281
100103.632060277
100103.632060273
100103.632060271
100103.632060269
100103.632060268
100103.632060267
100103.632060267
100103.632060266
100103.632060266
100103.632060266
100103.632060266
100103.632060267
100103.632060267
100103.632060267
100103.632060268
100103.632060269
100103.632060271
100103.632060272
100103.632060275
100103.632060278
100103.632060282
100103.632060288
100103.632060295
100103.632060305
100103.632060317
100103.632060332
100103.632060351
100103.632060374
100103.6320604
100103.632060429
100103.632060461
100103.63206049
100103.632060516
100103.632060532
100103.632060539
100103.629780225
100103.62978022
100103.629780207
100103.629780186
100103.629780161
100103.629780134
100103.629780109
100103.629780085
100103.629780065
100103.629780047
100103.629780033
100103.629780021
100103.629780012
100103.629780005
100103.629779999
100103.629779995
100103.629779992
100103.629779989
100103.629779988
100103.629779986
100103.629779985
100103.629779985
100103.629779984
100103.629779984
100103.629779984
100103.629779984
100103.629779984
100103.629779985
100103.629779985
100103.629779986
100103.629779987
100103.629779989
100103.629779991
100103.629779993
100103.629779997
100103.629780001
100103.629780007
100103.629780014
100103.629780023
100103.629780035
100103.62978005
100103.629780067
100103.629780088
100103.629780112
100103.629780138
100103.629780165
100103.62978019
100103.629780211
100103.629780224
100103.629780229
100103.627499918
100103.627499914
100103.627499904
100103.627499886
100103.627499865
100103.627499842
100103.62749982
100103.627499799
100103.62749978
100103.627499764
100103.62749975
100103.627499739
100103.62749973
100103.627499723
100103.627499718
100103.627499714
100103.62749971
100103.627499708
100103.627499706
100103.627499704
100103.627499703
100103.627499703
100103.627499702
100103.627499702
100103.627499702
100103.627499702
100103.627499702
100103.627499703
100103.627499703
100103.627499704
100103.627499705
100103.627499707
100103.627499709
100103.627499712
100103.627499715
100103.627499719
100103.627499725
100103.627499732
100103.627499741
100103.627499753
100103.627499766
100103.627499782
100103.627499801
100103.627499823
100103.627499846
100103.627499869
100103.62749989
100103.627499908
100103.627499918
100103.627499922
100103.625219613
100103.625219611
100103.625219602
100103.625219588
100103.62521957
100103.62521955
100103.62521953
100103.625219511
100103.625219494
100103.62521948
100103.625219467
100103.625219457
100103.625219448
100103.625219441
100103.625219436
100103.625219432
100103.625219428
100103.625219426
100103.625219424
100103.625219422
100103.625219421
100103.625219421
100103.62521942
100103.62521942
100103.62521942
100103.62521942
100103.62521942
100103.62521942
100103.625219421
100103.625219422
100103.625219423
100103.625219425
100103.625219427
100103.62521943
100103.625219433
100103.625219438
100103.625219443
100103.62521945
100103.625219459
100103.625219469
100103.625219482
100103.625219497
100103.625219514
100103.625219533
100103.625219553
100103.625219573
100103.625219591
100103.625219606
100103.625219614
100103.625219617
100103.62293931
100103.622939308
100103.622939301
100103.62293929
100103.622939275
100103.622939258
100103.62293924
100103.622939224
100103.622939209
100103.622939195
100103.622939183
100103.622939174
100103.622939166
100103.622939159
100103.622939154
100103.62293915
100103.622939146
100103.622939144
100103.622939142
100103.62293914
100103.622939139
100103.622939138
100103.622939138
100103.622939137
100103.622939137
100103.622939137
100103.622939138
100103.622939138
100103.622939139
100103.62293914
100103.622939141
100103.622939143
100103.622939145
100103.622939148
100103.622939151
100103.622939155
100103.622939161
100103.622939168
100103.622939176
100103.622939186
100103.622939197
100103.622939211
100103.622939227
100103.622939243
100103.622939261
100103.622939278
100103.622939293
100103.622939305
100103.622939312
100103.622939314
100103.620659008
100103.620659007
100103.620659002
100103.620658992
100103.62065898
100103.620658965
100103.62065895
100103.620658936
100103.620658922
100103.62065891
100103.620658899
100103.62065889
100103.620658883
100103.620658876
100103.620658871
100103.620658867
100103.620658864
100103.620658862
100103.62065886
100103.620658858
100103.620658857
100103.620658856
100103.620658856
100103.620658855
100103.620658855
100103.620658855
100103.620658855
100103.620658856
100103.620658857
100103.620658858
100103.620658859
100103.620658861
100103.620658863
100103.620658865
100103.620658869
100103.620658873
100103.620658878
100103.620658885
100103.620658892
100103.620658902
100103.620658912
100103.620658925
100103.620658939
100103.620658953
100103.620658969
100103.620658983
100103.620658996
100103.620659006
100103.620659011
100103.620659012
100103.618378707
100103.618378707
100103.618378703
100103.618378696
100103.618378685
100103.618378673
100103.61837866
100103.618378648
100103.618378636
100103.618378625
100103.618378615
100103.618378607
100103.6183786
100103.618378594
100103.618378589
100103.618378585
100103.618378582
100103.618378579
100103.618378577
100103.618378576
100103.618378575
100103.618378574
100103.618378573
100103.618378573
100103.618378573
100103.618378573
100103.618378573
100103.618378574
100103.618378574
100103.618378575
100103.618378577
100103.618378578
100103.61837858
100103.618378583
100103.618378586
100103.61837859
100103.618378595
100103.618378601
100103.618378609
100103.618378617
100103.618378627
100103.618378638
100103.61837865
100103.618378663
100103.618378676
100103.618378689
100103.618378699
100103.618378707
100103.618378711
100103.618378711
100103.616098408
100103.616098408
100103.616098405
100103.6160984
100103.616098391
100103.616098381
100103.61609837
100103.616098359
100103.616098349
100103.616098339
100103.61609833
100103.616098323
100103.616098316
100103.616098311
100103.616098306
100103.616098302
100103.616098299
100103.616098297
100103.616098295
100103.616098294
100103.616098292
100103.616098292
100103.616098291
100103.616098291
100103.616098291
100103.616098291
100103.616098291
100103.616098291
100103.616098292
100103.616098293
100103.616098294
100103.616098296
100103.616098298
100103.616098301
100103.616098304
100103.616098308
100103.616098312
100103.616098318
100103.616098325
100103.616098332
100103.616098341
100103.616098351
100103.616098362
100103.616098373
100103.616098384
100103.616098394
100103.616098403
100103.616098409
100103.616098412
100103.616098412
100103.613818109
100103.61381811
100103.613818108
100103.613818104
100103.613818097
100103.613818089
100103.61381808
100103.613818071
100103.613818062
100103.613818053
100103.613818045
100103.613818038
100103.613818032
100103.613818027
100103.613818023
100103.61381802
100103.613818017
100103.613818014
100103.613818013
100103.613818011
100103.61381801
100103.613818009
100103.613818009
100103.613818008
100103.613818008
100103.613818008
100103.613818009
100103.613818009
100103.61381801
100103.613818011
100103.613818012
100103.613818014
100103.613818016
100103.613818018
100103.613818021
100103.613818025
100103.613818029
100103.613818034
100103.61381804
100103.613818047
100103.613818055
100103.613818064
100103.613818073
100103.613818083
100103.613818092
100103.613818101
100103.613818107
100103.613818112
100103.613818114
100103.613818113
100103.611537811
100103.611537813
100103.611537812
100103.611537809
100103.611537804
100103.611537798
100103.61153779
100103.611537782
100103.611537774
100103.611537767
100103.61153776
100103.611537754
100103.611537748
100103.611537744
100103.61153774
100103.611537737
100103.611537734
100103.611537732
100103.61153773
100103.611537729
100103.611537728
100103.611537727
100103.611537726
100103.611537726
100103.611537726
100103.611537726
100103.611537726
100103.611537727
100103.611537727
100103.611537728
100103.61153773
100103.611537731
100103.611537733
100103.611537735
100103.611537738
100103.611537741
100103.611537746
100103.61153775
100103.611537756
100103.611537762
100103.611537769
100103.611537777
100103.611537785
100103.611537793
100103.611537801
100103.611537807
100103.611537812
100103.611537815
100103.611537816
100103.611537815
100103.609257514
100103.609257516
100103.609257516
100103.609257515
100103.609257511
100103.609257506
100103.6092575
100103.609257494
100103.609257487
100103.609257481
100103.609257475
100103.609257469
100103.609257464
100103.60925746
100103.609257457
100103.609257454
100103.609257451
100103.609257449
100103.609257448
100103.609257446
100103.609257445
100103.609257445
100103.609257444
100103.609257444
100103.609257444
100103.609257444
100103.609257444
100103.609257444
100103.609257445
100103.609257446
100103.609257447
100103.609257449
100103.60925745
100103.609257452
100103.609257455
100103.609257458
100103.609257462
100103.609257466
100103.609257471
100103.609257477
100103.609257483
100103.609257489
100103.609257496
100103.609257503
100103.609257509
100103.609257514
100103.609257518
100103.609257519
100103.609257519
100103.609257517
100103.606977216
100103.606977219
100103.606977221
100103.606977221
100103.606977219
100103.606977215
100103.60697721
100103.606977205
100103.6069772
100103.606977194
100103.606977189
100103.606977185
100103.60697718
100103.606977177
100103.606977173
100103.606977171
100103.606977168
100103.606977167
100103.606977165
100103.606977164
100103.606977163
100103.606977162
100103.606977162
100103.606977161
100103.606977161
100103.606977161
100103.606977162
100103.606977162
100103.606977163
100103.606977163
100103.606977165
100103.606977166
100103.606977168
100103.60697717
100103.606977172
100103.606977175
100103.606977178
100103.606977182
100103.606977186
100103.606977191
100103.606977196
100103.606977202
100103.606977208
100103.606977213
100103.606977218
100103.606977221
100103.606977224
100103.606977224
100103.606977223
100103.60697722
100103.60469692
100103.604696924
100103.604696926
100103.604696927
100103.604696926
100103.604696924
100103.604696921
100103.604696917
100103.604696912
100103.604696908
100103.604696904
100103.6046969
100103.604696896
100103.604696893
100103.60469689
100103.604696888
100103.604696886
100103.604696884
100103.604696882
100103.604696881
100103.60469688
100103.60469688
100103.604696879
100103.604696879
100103.604696879
100103.604696879
100103.604696879
100103.60469688
100103.60469688
100103.604696881
100103.604696882
100103.604696883
100103.604696885
100103.604696887
100103.604696889
100103.604696891
100103.604696894
100103.604696898
100103.604696901
100103.604696906
100103.60469691
100103.604696915
100103.604696919
100103.604696923
100103.604696927
100103.604696929
100103.60469693
100103.604696929
100103.604696927
100103.604696923
100103.602416624
100103.602416628
100103.602416631
100103.602416634
100103.602416634
100103.602416634
100103.602416632
100103.602416629
100103.602416625
100103.602416622
100103.602416618
100103.602416615
100103.602416612
100103.602416609
100103.602416607
100103.602416604
100103.602416603
100103.602416601
100103.6024166
100103.602416599
100103.602416598
100103.602416597
100103.602416597
100103.602416597
100103.602416596
100103.602416597
100103.602416597
100103.602416597
100103.602416598
100103.602416598
100103.602416599
100103.6024166
100103.602416602
100103.602416604
100103.602416606
100103.602416608
100103.60241661
100103.602416613
100103.602416617
100103.60241662
100103.602416624
100103.602416627
100103.602416631
100103.602416634
100103.602416636
100103.602416637
100103.602416637
100103.602416635
100103.602416632
100103.602416627
100103.600136327
100103.600136333
100103.600136337
100103.600136341
100103.600136343
100103.600136343
100103.600136342
100103.600136341
100103.600136338
100103.600136335
100103.600136333
100103.60013633
100103.600136327
100103.600136325
100103.600136323
100103.600136321
100103.60013632
100103.600136318
100103.600136317
100103.600136316
100103.600136315
100103.600136315
100103.600136314
100103.600136314
100103.600136314
100103.600136314
100103.600136314
100103.600136315
100103.600136315
100103.600136316
100103.600136317
100103.600136318
100103.600136319
100103.60013632
100103.600136322