/*--------------------------------*- C++ -*----------------------------------*\
  =========                 |
  \\      /  F ield         | OpenFOAM: The Open Source CFD Toolbox
   \\    /   O peration     | Website:  https://openfoam.org
    \\  /    A nd           | Version:  10
     \\/     M anipulation  |
\*---------------------------------------------------------------------------*/
FoamFile
{
    format      ascii;
    class       volScalarField;
    location    "9";
    object      p_rgh;
}
// * * * * * * * * * * * * * * * * * * * * * * * * * * * * * * * * * * * * * //

dimensions      [1 -1 -2 0 0 0 0];

internalField   nonuniform List<scalar> 
2500
(
103.791123971343
103.791125166987
103.791129006742
103.791132360187
103.79113474398
103.791136330809
103.791137347114
103.791137988199
103.791138384782
103.791138626373
103.791138771921
103.791138858898
103.791138910907
103.791138942601
103.791138962391
103.791138975226
103.79113898371
103.791138989662
103.791138993969
103.791138997083
103.791138999339
103.791139000983
103.791139002147
103.791139002889
103.791139003268
103.791139003326
103.791139003035
103.791139002366
103.791139001289
103.791138999703
103.791138997462
103.791138994318
103.791138989996
103.791138983943
103.791138975168
103.791138962057
103.791138941757
103.791138909364
103.791138856075
103.79113876776
103.791138620931
103.79113837803
103.79113798133
103.791137341686
103.79113632736
103.791134742045
103.791132351093
103.791128975383
103.791125115313
103.791123971707
103.79138466726
103.79139106322
103.791400856411
103.791408988298
103.791414729421
103.791418534951
103.791420971989
103.791422501439
103.791423439558
103.791424001887
103.791424331022
103.791424519601
103.791424625888
103.791424685507
103.791424719166
103.791424738636
103.791424750263
103.791424757612
103.791424762516
103.791424765892
103.791424768278
103.791424769996
103.79142477116
103.791424771931
103.791424772324
103.791424772382
103.791424772076
103.791424771407
103.791424770301
103.791424768657
103.791424766285
103.79142476288
103.791424757859
103.791424750263
103.791424738156
103.791424717972
103.791424683135
103.791424621842
103.791424513125
103.791424321811
103.791423990086
103.791423426141
103.791422489201
103.791420965048
103.791418536377
103.791414735766
103.791408977573
103.791400789778
103.791390943559
103.791384793658
103.791667335085
103.791679835471
103.791694346277
103.79170586048
103.791713866653
103.791719124958
103.791722471316
103.791724559531
103.791725833915
103.791726593554
103.791727034913
103.79172728525
103.79172742441
103.791727500837
103.791727542804
103.791727566189
103.791727579621
103.791727587755
103.791727592979
103.791727596486
103.791727598917
103.791727600648
103.791727601827
103.791727602584
103.791727602991
103.791727603049
103.791727602758
103.791727602089
103.791727600983
103.791727599324
103.791727596908
103.791727593358
103.791727587988
103.791727579519
103.79172756552
103.791727541233
103.791727497839
103.791727419317
103.791727277305
103.79172702365
103.791726579162
103.791725817733
103.791724544892
103.791722463124
103.791719126282
103.791713869447
103.791705828698
103.791694214931
103.791679585644
103.791667356418
103.791942459095
103.791959410271
103.791976044347
103.791988670797
103.791997225868
103.792002726361
103.792006161413
103.792008269302
103.792009537181
103.792010283578
103.792010712568
103.792010953723
103.792011086742
103.792011159385
103.792011199112
103.792011221245
103.792011233993
103.792011241734
103.792011246711
103.792011250101
103.792011252473
103.792011254147
103.792011255311
103.792011256068
103.792011256446
103.792011256504
103.792011256228
103.792011255558
103.792011254482
103.792011252881
103.792011250553
103.792011247133
103.792011242011
103.792011233993
103.792011220794
103.792011197918
103.792011156984
103.792011082551
103.792010947058
103.792010702964
103.792010270918
103.792009522396
103.792008254954
103.792006151081
103.792002721035
103.791997212669
103.791988602723
103.791975834174
103.791959000795
103.791942180978
103.792186640829
103.792205316713
103.792221696451
103.792233615124
103.792241469986
103.792246404657
103.792249424252
103.792251245235
103.792252325031
103.792252953717
103.792253312175
103.792253512656
103.792253623149
103.79225368367
103.792253717067
103.792253735941
103.792253747044
103.792253753956
103.792253758511
103.792253761654
103.792253763895
103.792253765496
103.792253766616
103.792253767344
103.792253767708
103.792253767766
103.792253767489
103.792253766864
103.792253765831
103.792253764303
103.792253762105
103.792253758962
103.79225375432
103.792253747219
103.792253735766
103.792253716383
103.792253682157
103.79225362037
103.792253508116
103.792253305422
103.792252944579
103.792252313913
103.792251233579
103.792249413978
103.792246394369
103.792241443502
103.79223351962
103.792221429394
103.792204776299
103.79218603042
103.792386332905
103.792404119493
103.792418474084
103.792428509696
103.792434938427
103.792438880861
103.792441243117
103.792442643098
103.79244346208
103.792443934464
103.792444202365
103.792444352133
103.792444435065
103.792444481049
103.792444506922
103.792444521969
103.792444531151
103.792444537059
103.792444541104
103.792444543942
103.792444546023
103.792444547536
103.792444548599
103.792444549283
103.792444549646
103.79244454969
103.792444549443
103.792444548846
103.792444547871
103.792444546445
103.792444544437
103.792444541585
103.792444537496
103.792444531457
103.792444522085
103.792444506718
103.792444480336
103.792444433595
103.792444349587
103.792444198407
103.792443928862
103.79244345495
103.792442635109
103.792441234866
103.792438869525
103.79243490698
103.792428405592
103.792418189987
103.792403519328
103.792385484863
103.792537987887
103.792553102961
103.792564520103
103.792572202248
103.792576983193
103.792579842222
103.792581518268
103.79258249409
103.792583057468
103.79258337988
103.792583562288
103.792583664646
103.792583721995
103.792583754461
103.792583773335
103.792583784758
103.792583792077
103.792583797011
103.792583800489
103.79258380305
103.792583804941
103.792583806324
103.792583807328
103.792583807983
103.792583808317
103.792583808361
103.792583808128
103.792583807575
103.792583806688
103.792583805378
103.792583803559
103.792583801027
103.792583797534
103.792583792529
103.792583785107
103.792583773495
103.792583754344
103.792583721472
103.792583663526
103.792583560382
103.792583377013
103.792583053611
103.792582489463
103.792581512855
103.792579832909
103.792576954598
103.792572107443
103.792564258052
103.792552523475
103.79253705361
103.792645604
103.792657286016
103.792665632398
103.792671040777
103.792674307449
103.792676208526
103.792677296762
103.792677918216
103.79267827209
103.792678473154
103.792678586906
103.792678651298
103.7926786881
103.792678709637
103.792678722704
103.792678731086
103.792678736747
103.792678740763
103.792678743732
103.792678745958
103.792678747661
103.792678748927
103.792678749829
103.792678750426
103.792678750746
103.792678750819
103.7926787506
103.792678750106
103.792678749291
103.792678748126
103.792678746497
103.792678744314
103.792678741374
103.792678737314
103.792678731596
103.792678723141
103.792678709928
103.792678688202
103.792678651094
103.79267858628
103.792678472033
103.792678270431
103.792677916106
103.792677294041
103.792676202575
103.792674286073
103.792670966039
103.792665417961
103.792656788311
103.792644724061
103.792717328746
103.792725645384
103.792731303081
103.792734829985
103.792736892268
103.792738055083
103.792738701915
103.792739062468
103.792739264172
103.792739377765
103.792739442099
103.792739479046
103.792739500801
103.792739514131
103.792739522745
103.792739528653
103.792739532917
103.792739536133
103.792739538578
103.792739540513
103.792739541997
103.792739543118
103.792739543933
103.792739544471
103.792739544777
103.792739544835
103.79273954466
103.792739544224
103.792739543511
103.792739542492
103.792739541095
103.792739539233
103.792739536802
103.792739533601
103.792739529323
103.792739523386
103.792739514698
103.792739501252
103.792739479351
103.792739442215
103.792739377648
103.792739263808
103.79273906193
103.792738701159
103.792738052362
103.792736878968
103.792734778093
103.792731145077
103.792725259016
103.792716593904
103.79276242762
103.792767931271
103.792771509296
103.792773646855
103.792774849775
103.792775500318
103.792775847716
103.792776034024
103.792776135073
103.792776190865
103.792776222355
103.792776240807
103.792776252172
103.792776259666
103.792776264949
103.792776268907
103.792776271992
103.792776274451
103.79277627643
103.792776278016
103.792776279268
103.792776280243
103.79277628097
103.792776281451
103.792776281727
103.7927762818
103.792776281654
103.792776281291
103.792776280679
103.792776279821
103.792776278628
103.792776277129
103.792776275193
103.792776272763
103.792776269693
103.79277626572
103.792776260409
103.792776252871
103.792776241418
103.792776222879
103.792776191272
103.792776135393
103.792776034403
103.792775848226
103.792775500042
103.792774843241
103.792773615045
103.79277140362
103.792767657083
103.792761871882
103.792789283048
103.792792691165
103.792794810084
103.79279601232
103.792796654787
103.792796979804
103.792797140733
103.792797219896
103.792797259259
103.792797279442
103.7927972904
103.792797296934
103.792797301357
103.792797304748
103.792797307542
103.792797309914
103.79279731198
103.792797313785
103.792797315298
103.792797316564
103.792797317597
103.792797318412
103.792797319024
103.792797319446
103.792797319693
103.792797319766
103.792797319664
103.792797319358
103.792797318863
103.792797318165
103.792797317234
103.792797316055
103.7927973146
103.792797312868
103.792797310816
103.79279730843
103.792797305636
103.792797302245
103.792797297763
103.792797291186
103.792797280199
103.792797260016
103.792797220813
103.792797141985
103.79279698107
103.792796652953
103.792795995498
103.792794745794
103.792792511987
103.792788897234
103.792804476689
103.79280646093
103.792807636768
103.792808257989
103.792808562983
103.792808697093
103.792808750703
103.792808768718
103.792808772792
103.792808772254
103.792808770886
103.792808769969
103.792808769795
103.79280877026
103.792808771133
103.792808772239
103.792808773433
103.792808774582
103.792808775659
103.792808776605
103.792808777391
103.792808778046
103.792808778555
103.792808778919
103.792808779137
103.79280877921
103.792808779137
103.792808778904
103.79280877854
103.792808778002
103.792808777318
103.792808776474
103.792808775484
103.792808774378
103.792808773229
103.792808772138
103.792808771279
103.792808770828
103.792808770973
103.79280877189
103.792808773243
103.792808773826
103.792808769969
103.792808752376
103.792808699203
103.792808564031
103.792808251019
103.792807601567
103.792806352838
103.792804228709
103.792812663683
103.792813752909
103.792814361746
103.792814647924
103.792814764733
103.792814795481
103.792814792148
103.792814777873
103.792814763059
103.792814751068
103.792814742526
103.792814736982
103.792814733708
103.792814732034
103.792814731423
103.792814731452
103.79281473186
103.792814732442
103.792814733097
103.792814733722
103.79281473429
103.79281473477
103.792814735163
103.792814735454
103.792814735643
103.792814735716
103.792814735687
103.792814735541
103.79281473528
103.79281473493
103.792814734479
103.792814733955
103.792814733402
103.792814732878
103.792814732529
103.792814732544
103.792814733184
103.792814734872
103.792814738146
103.79281474372
103.792814752276
103.792814764369
103.792814779372
103.792814794084
103.792814798056
103.792814767308
103.792814646789
103.792814345084
103.792813692911
103.792812515429
103.792816871151
103.79281743514
103.792817725116
103.792817831913
103.792817852067
103.792817831898
103.792817801252
103.792817771522
103.79281774741
103.792817729409
103.792817716792
103.792817708338
103.792817702939
103.792817699679
103.79281769786
103.792817696973
103.792817696682
103.79281769674
103.792817696973
103.792817697307
103.792817697657
103.792817697977
103.792817698253
103.792817698471
103.792817698617
103.792817698704
103.792817698704
103.792817698632
103.792817698515
103.792817698326
103.792817698108
103.792817697889
103.792817697744
103.792817697788
103.792817698151
103.792817699083
103.792817700945
103.792817704234
103.792817709676
103.79281771816
103.792817730835
103.792817748938
103.792817773268
103.792817803405
103.792817834721
103.792817855385
103.792817833877
103.792817719252
103.792817405047
103.792816788759
103.792818932314
103.792819206763
103.792819328766
103.792819347218
103.792819322727
103.792819280803
103.792819239097
103.792819203183
103.792819175113
103.792819154231
103.792819139344
103.79281912907
103.792819122187
103.792819117705
103.792819114911
103.792819113252
103.792819112336
103.792819111899
103.792819111768
103.792819111797
103.792819111928
103.792819112088
103.792819112263
103.792819112408
103.792819112525
103.792819112612
103.792819112656
103.792819112656
103.792819112641
103.792819112627
103.792819112627
103.792819112714
103.792819112961
103.7928191135
103.792819114489
103.792819116221
103.792819119073
103.792819123613
103.79281913054
103.792819140886
103.792819155846
103.792819176859
103.792819205162
103.792819241469
103.792819283772
103.792819326365
103.792819350681
103.792819328723
103.792819193943
103.792818890171
103.792819890499
103.792820014583
103.792820054077
103.792820033646
103.792819992013
103.79281994341
103.792819899041
103.792819861774
103.792819832597
103.79281981058
103.792819794529
103.792819783121
103.792819775175
103.792819769791
103.792819766197
103.792819763868
103.792819762413
103.79281976154
103.792819761045
103.792819760813
103.79281976074
103.792819760754
103.792819760813
103.7928197609
103.792819760987
103.792819761074
103.792819761147
103.79281976122
103.792819761322
103.792819761453
103.792819761686
103.792819762049
103.792819762646
103.792819763621
103.792819765178
103.792819767594
103.792819771246
103.792819776718
103.792819784721
103.792819796217
103.79281981237
103.792819834547
103.792819863942
103.792819901588
103.792819946495
103.792819995782
103.792820037765
103.792820056842
103.792820011018
103.79281987132
103.792820307382
103.792820357878
103.792820360148
103.792820325922
103.792820280549
103.792820232484
103.792820189468
103.792820153205
103.792820124436
103.792820102288
103.792820085786
103.792820073693
103.792820065035
103.792820058938
103.792820054718
103.792820051836
103.792820049901
103.792820048635
103.792820047849
103.792820047369
103.792820047092
103.792820046961
103.792820046918
103.792820046947
103.792820046991
103.792820047078
103.792820047194
103.79282004734
103.792820047544
103.792820047835
103.792820048242
103.792820048868
103.792820049784
103.792820051167
103.79282005319
103.792820056187
103.792820060495
103.792820066679
103.79282007541
103.792820087605
103.792820104238
103.79282012656
103.792820155562
103.79282019216
103.792820235671
103.792820284347
103.792820330229
103.792820364164
103.792820358925
103.792820300456
103.792820470379
103.792820487157
103.79282047473
103.792820438364
103.792820395203
103.792820350733
103.792820310788
103.792820276678
103.792820249088
103.792820227405
103.792820210845
103.792820198447
103.792820189352
103.792820182731
103.792820178016
103.792820174684
103.792820172355
103.792820170755
103.792820169678
103.792820168979
103.792820168543
103.792820168281
103.79282016815
103.792820168106
103.792820168121
103.792820168208
103.792820168354
103.792820168572
103.792820168863
103.792820169285
103.792820169881
103.792820170725
103.792820171933
103.79282017365
103.792820176081
103.792820179529
103.792820184346
103.792820191069
103.792820200266
103.792820212795
103.792820229486
103.792820251358
103.792820279181
103.792820313625
103.792820354007
103.792820399016
103.792820442672
103.792820479182
103.7928204903
103.792820469607
103.792820519811
103.792820522358
103.792820505711
103.792820471994
103.792820433286
103.792820393457
103.792820357194
103.79282032566
103.792820299641
103.792820278788
103.792820262504
103.792820250048
103.792820240706
103.79282023375
103.792820228657
103.79282022496
103.792820222312
103.792820220435
103.792820219125
103.792820218223
103.792820217626
103.792820217233
103.79282021703
103.792820216928
103.792820216928
103.792820217015
103.79282021719
103.792820217452
103.792820217845
103.792820218383
103.79282021914
103.792820220173
103.792820221628
103.792820223636
103.792820226401
103.792820230214
103.792820235423
103.792820242496
103.792820251954
103.792820264542
103.792820280971
103.792820302027
103.792820328264
103.792820360104
103.792820396775
103.792820437069
103.792820476243
103.792820510236
103.79282052636
103.792820521921
103.792820521208
103.792820518531
103.792820502073
103.792820472605
103.792820438815
103.792820403745
103.792820371222
103.792820342394
103.792820318165
103.792820298331
103.792820282557
103.792820270261
103.792820260831
103.792820253671
103.792820248331
103.792820244373
103.792820241462
103.792820239367
103.792820237853
103.792820236777
103.792820236049
103.792820235569
103.792820235263
103.792820235118
103.792820235103
103.792820235176
103.79282023538
103.7928202357
103.792820236165
103.79282023682
103.792820237708
103.79282023893
103.792820240575
103.792820242816
103.792820245857
103.792820249946
103.792820255403
103.792820262664
103.79282027224
103.792820284682
103.792820300587
103.792820320625
103.792820345101
103.792820374205
103.792820407092
103.79282044257
103.792820476752
103.792820506511
103.792820522765
103.792820524555
103.792820503819
103.792820499788
103.79282048512
103.792820460047
103.792820430972
103.792820400355
103.792820371411
103.792820345305
103.792820322909
103.792820304254
103.792820289164
103.792820277158
103.792820267801
103.792820260569
103.792820255083
103.792820250936
103.792820247836
103.792820245551
103.792820243878
103.79282024267
103.792820241826
103.792820241244
103.79282024088
103.792820240691
103.792820240647
103.792820240735
103.792820240953
103.792820241317
103.792820241855
103.792820242583
103.792820243587
103.792820244955
103.792820246774
103.792820249204
103.792820252434
103.792820256713
103.79282026233
103.792820269678
103.792820279181
103.792820291332
103.792820306582
103.792820325441
103.792820348055
103.792820374452
103.792820403716
103.792820434697
103.792820464107
103.792820489427
103.792820504008
103.792820507617
103.792820480099
103.792820476214
103.792820463757
103.792820442744
103.79282041789
103.792820391318
103.792820365707
103.792820342176
103.792820321658
103.792820304254
103.792820289935
103.792820278366
103.792820269198
103.79282026201
103.792820256465
103.792820252216
103.792820248986
103.792820246555
103.792820244766
103.792820243441
103.792820242496
103.792820241841
103.792820241433
103.7928202412
103.792820241142
103.792820241215
103.792820241462
103.792820241855
103.792820242452
103.792820243267
103.792820244373
103.792820245842
103.792820247792
103.792820250354
103.79282025373
103.79282025811
103.7928202638
103.792820271105
103.792820280418
103.792820292132
103.792820306626
103.792820324219
103.79282034497
103.792820368762
103.792820394665
103.792820421542
103.792820446673
103.792820467905
103.792820480361
103.792820484014
103.792820455026
103.792820451825
103.792820441478
103.792820423987
103.792820402872
103.792820379909
103.792820357339
103.792820336283
103.792820317583
103.792820301489
103.792820288028
103.792820276998
103.792820268121
103.792820261078
103.792820255549
103.792820251256
103.792820247952
103.792820245435
103.792820243543
103.792820242146
103.792820241128
103.792820240415
103.792820239949
103.792820239687
103.7928202396
103.792820239687
103.792820239949
103.792820240371
103.792820241011
103.792820241884
103.792820243063
103.79282024462
103.792820246672
103.79282024932
103.792820252769
103.792820257193
103.792820262868
103.792820270042
103.792820279079
103.792820290269
103.79282030389
103.792820320188
103.792820339106
103.792820360395
103.792820383242
103.792820406466
103.792820427829
103.792820445495
103.792820455841
103.792820458926
103.792820430463
103.792820428032
103.792820419607
103.792820405142
103.792820387273
103.792820367511
103.792820347735
103.792820328978
103.792820312054
103.792820297269
103.792820284725
103.792820274306
103.792820265808
103.792820258968
103.792820253526
103.792820249262
103.79282024593
103.792820243369
103.792820241419
103.792820239963
103.792820238887
103.79282023813
103.792820237621
103.79282023733
103.792820237242
103.79282023733
103.792820237592
103.792820238057
103.792820238712
103.792820239643
103.792820240866
103.792820242496
103.792820244591
103.792820247298
103.792820250761
103.792820255185
103.792820260758
103.792820267743
103.792820276387
103.792820286966
103.792820299685
103.792820314658
103.792820331801
103.792820350791
103.792820370814
103.792820390809
103.792820408897
103.792820423492
103.792820431947
103.792820434304
103.792820406918
103.792820405259
103.792820398492
103.792820386647
103.792820371615
103.792820354691
103.792820337476
103.792820320858
103.792820305651
103.792820292161
103.792820280578
103.792820270814
103.792820262752
103.792820256189
103.792820250907
103.792820246716
103.792820243412
103.792820240837
103.792820238858
103.792820237359
103.792820236253
103.792820235452
103.792820234929
103.792820234623
103.792820234521
103.792820234608
103.79282023487
103.792820235351
103.792820236034
103.792820236995
103.792820238261
103.79282023992
103.792820242044
103.792820244766
103.7928202482
103.792820252551
103.792820257964
103.792820264673
103.792820272894
103.792820282819
103.792820294577
103.792820308256
103.792820323666
103.792820340503
103.79282035795
103.792820375078
103.792820390314
103.79282040229
103.792820409071
103.792820410701
103.792820384508
103.792820383547
103.792820378236
103.792820368661
103.792820356102
103.79282034174
103.792820326824
103.792820312214
103.792820298622
103.792820286428
103.79282027579
103.792820266739
103.792820259157
103.792820252915
103.792820247836
103.792820243762
103.792820240531
103.792820237984
103.792820236005
103.792820234492
103.792820233371
103.792820232557
103.792820232004
103.792820231683
103.792820231582
103.792820231654
103.792820231931
103.792820232411
103.792820233124
103.792820234099
103.79282023538
103.792820237039
103.792820239178
103.79282024187
103.792820245246
103.792820249466
103.792820254675
103.792820261064
103.792820268791
103.792820278017
103.792820288829
103.792820301198
103.792820314979
103.792820329792
103.792820344941
103.792820359507
103.792820372226
103.792820381932
103.792820387258
103.792820388233
103.792820363087
103.792820362796
103.79282035878
103.792820351169
103.792820340823
103.79282032873
103.79282031591
103.792820303162
103.792820291128
103.79282028017
103.792820270508
103.79282026217
103.792820255112
103.792820249233
103.792820244416
103.792820240502
103.792820237373
103.79282023487
103.79282023292
103.792820231422
103.792820230286
103.792820229472
103.792820228919
103.792820228584
103.792820228467
103.792820228555
103.792820228831
103.792820229311
103.792820230025
103.792820230999
103.79282023228
103.792820233939
103.792820236034
103.792820238668
103.792820241957
103.792820246017
103.792820250979
103.792820257004
103.792820264207
103.792820272705
103.792820282542
103.792820293675
103.792820305898
103.792820318835
103.792820331859
103.792820344155
103.792820354662
103.792820362374
103.792820366449
103.792820366754
103.792820342554
103.792820342875
103.792820340022
103.792820334202
103.792820325805
103.792820315764
103.792820304865
103.792820293849
103.792820283285
103.792820273535
103.792820264818
103.792820257222
103.792820250717
103.792820245246
103.792820240706
103.79282023698
103.792820233983
103.792820231567
103.792820229661
103.792820228191
103.79282022707
103.792820226256
103.792820225703
103.792820225368
103.792820225251
103.792820225324
103.792820225601
103.792820226081
103.792820226794
103.792820227769
103.792820229035
103.792820230665
103.792820232702
103.792820235249
103.792820238406
103.792820242263
103.792820246948
103.792820252565
103.79282025923
103.792820266986
103.792820275863
103.792820285787
103.792820296527
103.792820307732
103.792820318835
103.792820329065
103.792820337607
103.792820343544
103.792820346454
103.792820346178
103.792820322706
103.792820323666
103.792820321876
103.792820317656
103.792820311035
103.792820302857
103.792820293718
103.792820284318
103.792820275135
103.792820266564
103.792820258779
103.792820251911
103.792820245973
103.792820240924
103.792820236704
103.792820233197
103.792820230345
103.792820228045
103.792820226212
103.792820224786
103.792820223694
103.79282022288
103.792820222341
103.792820222006
103.79282022189
103.792820221963
103.792820222239
103.792820222705
103.792820223418
103.792820224364
103.792820225601
103.792820227172
103.792820229151
103.792820231596
103.792820234594
103.792820238217
103.792820242597
103.792820247792
103.792820253875
103.792820260904
103.792820268834
103.792820277595
103.792820286952
103.792820296527
103.792820305855
103.792820314207
103.792820320989
103.792820325325
103.792820327188
103.792820326315
103.792820303483
103.792820305083
103.792820304297
103.792820301562
103.792820296556
103.792820290095
103.792820282571
103.79282027467
103.792820266797
103.792820259318
103.792820252464
103.792820246323
103.792820240968
103.792820236355
103.792820232455
103.79282022921
103.792820226532
103.792820224349
103.792820222603
103.792820221235
103.792820220173
103.792820219402
103.792820218863
103.792820218543
103.792820218427
103.792820218499
103.792820218761
103.792820219227
103.792820219911
103.792820220828
103.792820222021
103.792820223534
103.792820225426
103.79282022774
103.792820230548
103.792820233939
103.792820237984
103.792820242728
103.792820248244
103.79282025453
103.792820261544
103.792820269184
103.792820277216
103.792820285307
103.792820293005
103.792820299655
103.792820304807
103.792820307674
103.792820308561
103.792820307077
103.792820284725
103.792820286995
103.79282028717
103.792820285831
103.792820282324
103.792820277435
103.79282027141
103.792820264905
103.79282025827
103.792820251852
103.792820245872
103.792820240473
103.792820235685
103.792820231523
103.792820227973
103.79282022499
103.792820222501
103.792820220464
103.79282021882
103.792820217524
103.79282021652
103.792820215764
103.792820215254
103.792820214949
103.792820214832
103.792820214891
103.792820215152
103.792820215604
103.792820216258
103.792820217132
103.792820218281
103.792820219722
103.792820221497
103.792820223665
103.792820226285
103.792820229413
103.792820233095
103.792820237388
103.792820242321
103.79282024788
103.792820254021
103.792820260584
103.792820267394
103.792820274073
103.792820280272
103.792820285351
103.792820289018
103.792820290488
103.79282029043
103.79282028829
103.792820266332
103.792820269329
103.792820270464
103.792820270464
103.792820268354
103.79282026492
103.792820260293
103.792820255068
103.792820249597
103.792820244198
103.792820239076
103.792820234376
103.792820230155
103.792820226459
103.792820223272
103.792820220551
103.792820218281
103.792820216404
103.792820214876
103.792820213654
103.792820212693
103.792820211995
103.7928202115
103.792820211209
103.792820211092
103.792820211165
103.792820211398
103.79282021182
103.79282021246
103.79282021329
103.792820214367
103.79282021572
103.792820217379
103.792820219387
103.792820221803
103.792820224655
103.792820227973
103.792820231814
103.792820236165
103.792820241011
103.792820246294
103.792820251838
103.792820257484
103.792820262868
103.79282026767
103.792820271294
103.792820273578
103.792820273724
103.79282027272
103.792820269882
103.792820248244
103.792820252056
103.792820254152
103.792820255476
103.792820254675
103.792820252595
103.792820249248
103.792820245246
103.792820240851
103.792820236413
103.79282023212
103.792820228104
103.792820224451
103.792820221221
103.792820218383
103.792820215953
103.792820213901
103.792820212184
103.792820210772
103.792820209652
103.792820208764
103.792820208095
103.792820207629
103.792820207367
103.792820207251
103.792820207324
103.792820207542
103.792820207949
103.792820208546
103.792820209332
103.792820210336
103.792820211587
103.79282021313
103.792820214963
103.792820217146
103.792820219707
103.792820222676
103.792820226052
103.792820229835
103.792820233983
103.792820238436
103.792820243034
103.792820247574
103.792820251736
103.792820255272
103.792820257528
103.792820258503
103.792820257338
103.792820255418
103.79282025178
103.792820230359
103.792820235118
103.792820238203
103.792820240822
103.792820241273
103.792820240487
103.792820238319
103.792820235452
103.792820232076
103.79282022854
103.792820225033
103.792820221686
103.792820218587
103.792820215793
103.792820213333
103.792820211194
103.792820209361
103.792820207818
103.792820206538
103.792820205505
103.79282020469
103.792820204093
103.792820203656
103.792820203395
103.792820203307
103.792820203365
103.792820203569
103.792820203947
103.7928202045
103.792820205228
103.792820206159
103.792820207309
103.792820208706
103.792820210379
103.792820212329
103.792820214599
103.79282021719
103.792820220115
103.792820223345
103.792820226823
103.79282023049
103.792820234157
103.792820237679
103.79282024072
103.792820243048
103.792820244038
103.792820243762
103.792820241331
103.792820238421
103.792820233881
103.79282021262
103.792820218456
103.792820222588
103.792820226503
103.792820228162
103.792820228555
103.792820227507
103.792820225688
103.792820223272
103.792820220595
103.79282021783
103.792820215123
103.792820212577
103.792820210219
103.792820208124
103.792820206261
103.792820204661
103.792820203293
103.792820202158
103.792820201226
103.792820200499
103.792820199946
103.792820199538
103.792820199305
103.792820199218
103.792820199276
103.79282019948
103.792820199815
103.792820200324
103.792820200993
103.792820201852
103.792820202885
103.792820204137
103.792820205621
103.792820207353
103.792820209317