/*--------------------------------*- C++ -*----------------------------------*\
  =========                 |
  \\      /  F ield         | OpenFOAM: The Open Source CFD Toolbox
   \\    /   O peration     | Website:  https://openfoam.org
    \\  /    A nd           | Version:  10
     \\/     M anipulation  |
\*---------------------------------------------------------------------------*/
FoamFile
{
    format      ascii;
    class       surfaceScalarField;
    location    "9";
    object      phi;
}
// * * * * * * * * * * * * * * * * * * * * * * * * * * * * * * * * * * * * * //

dimensions      [1 0 -1 0 0 0 0];

internalField   nonuniform List<scalar> 
4900
(
-4.97144498147637e-12
4.98794109282731e-12
-7.79231558579664e-12
2.84654986760642e-12
-7.86439390650303e-12
9.94747517129171e-14
-6.44739937735553e-12
-1.39027871482286e-12
-4.76729533359828e-12
-1.65388556816795e-12
-3.3523207147728e-12
-1.38890964980341e-12
-2.3084874281852e-12
-1.01782285546746e-12
-1.57982941042446e-12
-7.02745293973718e-13
-1.08311971605504e-12
-4.70978248892477e-13
-7.46932180061751e-13
-3.10717548437539e-13
-5.19084128516244e-13
-2.02697258025198e-13
-3.63368613440668e-13
-1.30920804688995e-13
-2.55437262496295e-13
-8.35065455208666e-14
-1.79165533655132e-13
-5.22175893996318e-14
-1.24021112827454e-13
-3.14489010695623e-14
-8.31666082859209e-14
-1.75002558297945e-14
-5.21595365415191e-14
-7.97129915843133e-15
-2.80805428821434e-14
-1.33811203384313e-15
-8.96957295783997e-15
3.36074328658572e-15
6.50970166294929e-15
6.74733098272334e-15
1.93133485793343e-14
9.20232502586164e-15
3.01483977174746e-14
1.09735561014231e-14
3.95710023943561e-14
1.22112319211247e-14
4.80244064807473e-14
1.30268083334676e-14
5.5913493537215e-14
1.34582915018611e-14
6.35997866584807e-14
1.35471865790084e-14
7.14573610341648e-14
1.32798137315552e-14
7.98760619606357e-14
1.26397431060915e-14
8.93079028958837e-14
1.15636937051326e-14
1.00300903599351e-13
9.95476680908865e-15
1.13560197114603e-13
7.65623213461558e-15
1.30031584414536e-13
4.42690686096522e-15
1.51054494279367e-13
-1.26428385861361e-16
1.78583755718811e-13
-6.61785596224616e-15
2.15546422808862e-13
-1.60199435221953e-14
2.66407649166161e-13
-2.98705848467702e-14
3.38015224921583e-13
-5.05539541433419e-14
4.40894758256922e-13
-8.17507416077476e-14
5.91132475953886e-13
-1.29027321850462e-13
8.130563589163e-13
-2.00633214887675e-13
1.14288328248333e-12
-3.08466823864035e-13
1.63299752596204e-12
-4.68703793084984e-13
2.35575449282578e-12
-7.01316473334375e-13
3.39698899560629e-12
-1.01976292750864e-12
4.8178682903481e-12
-1.39930728737744e-12
6.51804066716325e-12
-1.67829275381968e-12
7.96325205834888e-12
-1.42264758517317e-12
7.89172225716152e-12
9.52573692835921e-14
5.0126395006049e-12
2.90334806546659e-12
5.02978234669649e-12
-8.30431171654642e-12
1.33155939318712e-11
-1.41797874008389e-11
8.75601262129016e-12
-1.47921929687831e-11
7.47637834657107e-13
-1.24582694782498e-11
-3.68926477276909e-12
-9.41832283673955e-12
-4.65953846255691e-12
-6.76120559629962e-12
-4.01200891539761e-12
-4.74916580901002e-12
-2.99601010003147e-12
-3.31857657380238e-12
-2.09968853672772e-12
-2.32655890009419e-12
-1.42964126263631e-12
-1.64344691477262e-12
-9.60845990820414e-13
-1.17113324671753e-12
-6.42454374916348e-13
-8.40845627163675e-13
-4.29111926639028e-13
-6.05904284575149e-13
-2.86821392845082e-13
-4.35231562704638e-13
-1.91728821985651e-13
-3.08333023667276e-13
-1.27633276171929e-13
-2.11734306119088e-13
-8.38083684301633e-14
-1.3653393255735e-13
-5.32752936828504e-14
-7.67579619484647e-14
-3.15827091391935e-14
-2.83180451271024e-14
-1.58809248710728e-14
1.16717720565487e-14
-4.34711644170628e-15
4.53202562569496e-14
4.1774904357737e-15
7.42310699405365e-14
1.04429371133991e-14
9.9688199443208e-14
1.4919326174206e-14
1.22759756478205e-13
1.79316800925886e-14
1.44399694518236e-13
1.96317910366622e-14
1.65499248367721e-13
2.01215633635853e-14
1.86948471090134e-13
1.93879963929231e-14
2.09694630260067e-13
1.73544545125092e-14
2.34804713721216e-13
1.38387438034313e-14
2.63545343955726e-13
8.54283336283789e-15
2.97515127459933e-13
9.77368126587493e-16
3.38802909424342e-13
-9.58838473413951e-15
3.90278042153287e-13
-2.43277928044214e-14
4.56022913075516e-13
-4.50670722465151e-14
5.42024926692078e-13
-7.46832181372226e-14
6.57216162820699e-13
-1.17659169347415e-13
8.1508627235181e-13
-1.80939179249417e-13
1.03613672821627e-12
-2.75218309435902e-13
1.35142207159513e-12
-4.16623727888287e-13
1.80764465910635e-12
-6.29061972426416e-13
2.47369224138279e-12
-9.46627859549151e-13
3.44826857449278e-12
-1.4153215933848e-12
4.86303992026899e-12
-2.08807588631921e-12
6.8660925588226e-12
-2.99473314688083e-12
9.53119803068675e-12
-4.03614050052026e-12
1.26066975292221e-11
-4.72501887057771e-12
1.49933737290229e-11
-3.77953366058516e-12
1.43857065497157e-11
7.34102959022665e-13
8.40674734550651e-12
8.91301694222754e-12
1.34568748451966e-11
-7.56666165282727e-12
2.09079569492064e-11
-1.40577188313626e-11
1.52833116347916e-11
-1.51917877879673e-11
1.91937052847041e-12
-1.31862314390734e-11
-5.65809522877981e-12
-1.02522268487006e-11
-7.55761438488259e-12
-7.57052013873709e-12
-6.65824016810303e-12
-5.47277650383705e-12
-5.05860159438727e-12
-3.94012135055467e-12
-3.59751999464812e-12
-2.84871861834088e-12
-2.4865968392459e-12
-2.07628995054269e-12
-1.69925252568792e-12
-1.52632114517234e-12
-1.1588581708943e-12
-1.12965633252921e-12
-7.92684629970909e-13
-8.38455144388049e-13
-5.45402930490129e-13
-6.20292950751468e-13
-3.77732862933077e-13
-4.5333811518522e-13
-2.62870603156241e-13
-3.22886749308542e-13
-1.82958672823703e-13
-2.18953934406628e-13
-1.26293754907286e-13
-1.34632869721949e-13
-8.5346846904668e-14
-6.50590033876039e-14
-5.52243384679151e-14
-6.67781352542033e-15
-3.27944121245901e-14
4.31736638658261e-14
-1.60068573954509e-14
8.65850931739156e-14
-3.53975298613782e-15
1.25254210830951e-13
5.46877227616621e-15
1.60637964998972e-13
1.15821863333711e-14
1.94031363764415e-13
1.51132417380863e-14
2.26669905102372e-13
1.62215359315854e-14
2.59779691041072e-13
1.49024351913858e-14
2.94657255969581e-13
1.10084274434575e-14
3.3274348636726e-13
4.21043173258768e-15
3.75721231665214e-13
-6.03160887040564e-15
4.25659304418296e-13
-2.05933873597274e-14
4.85204243120268e-13
-4.07827072731117e-14
5.57874863473737e-13
-6.86448506548596e-14
6.48529541948063e-13
-1.07344873010792e-13
7.6407667749689e-13
-1.61809449980443e-13
9.14519816956902e-13
-2.39616137914559e-13
1.11457726501568e-12
-3.52425092867621e-13
1.38610154640788e-12
-5.18069513291063e-13
1.76154194010733e-12
-7.63278881869605e-13
2.28882943364452e-12
-1.12744781902581e-12
3.03737312565947e-12
-1.66615936810692e-12
4.10449134232937e-12
-2.45332894920214e-12
5.61474635146025e-12
-3.56912926427772e-12
7.69760440336009e-12
-5.04826819181114e-12
1.03829254467905e-11
-6.69187872943797e-12
1.33513348088922e-11
-7.66323771877454e-12
1.54147256527088e-11
-5.81156863994857e-12
1.42978781154481e-11
1.88365478328017e-12
7.70566668970575e-12
1.55369416455765e-11
2.11831393680963e-11
-5.05765604130663e-12
2.59931056445932e-11
-1.04132931680103e-11
2.06770423600363e-11
-1.18891851948483e-11
3.43455752056655e-12
-1.08271765980673e-11
-6.6818923879186e-12
-8.81078079549147e-12
-9.53677957228525e-12
-6.80551525099728e-12
-8.62691822940783e-12
-5.14246766365436e-12
-6.68554536656469e-12
-3.865985425403e-12
-4.83834458214302e-12
-2.91406936861264e-12
-3.4033084338072e-12
-2.20956320398815e-12
-2.3690219385615e-12
-1.68561319270848e-12
-1.64854672200384e-12
-1.29161120293801e-12
-1.15290069758647e-12
-9.90934077991479e-13
-8.12758936277383e-13
-7.57698163734939e-13
-5.78096060103201e-13
-5.73720275465473e-13
-4.14401363732101e-13
-4.26203302889071e-13
-2.98429439612975e-13
-3.06067906842694e-13
-2.14755081551869e-13
-2.06756288921805e-13
-1.53328508678339e-13
-1.23453405005465e-13
-1.07511489982844e-13
-5.25159790096483e-14
-7.30018100505809e-14
8.87859769076861e-15
-4.69280710232781e-14
6.30135445993844e-14
-2.74316789294991e-14
1.11772063059679e-13
-1.32489087476482e-14
1.56808744616671e-13
-3.59146744618627e-15
1.99608869702707e-13
2.02307067610619e-15
2.41594008883313e-13
3.8154440943865e-15
2.84182841463454e-13
1.78341036357985e-15
3.28855702027249e-13
-4.28413589255706e-15
3.77244045457739e-13
-1.48680081725194e-14
4.3122115341656e-13
-3.0751123221192e-14
4.93041029929538e-13
-5.31895653423944e-14
5.65505365102181e-13
-8.40389458479232e-14
6.52221262877047e-13
-1.26149419882615e-13
7.57987034122631e-13
-1.83876079974337e-13
8.89341741337588e-13
-2.63886008327992e-13
1.05536668202383e-12
-3.76298082419783e-13
1.26886382894258e-12
-5.36494630652565e-13
1.54803414030577e-12
-7.67708531000564e-13
1.91881265830451e-12
-1.10440913388743e-12
2.41795641828441e-12
-1.59681697885948e-12
3.09637796063362e-12
-2.31467833131173e-12
4.02170430128094e-12
-3.34862826790685e-12
5.27305000694526e-12
-4.79032353936741e-12
6.91709253872876e-12
-6.66199973929901e-12
8.91891341414874e-12
-8.66308663815763e-12
1.09595239916439e-11
-9.67257292268005e-12
1.20722176168818e-11
-6.89174623344684e-12
1.06267951112272e-11
3.36291788299816e-12
5.19914711738177e-12
2.09971068446958e-11
2.64032226678044e-11
-2.20922457092688e-12
2.82310218198431e-11
-5.68399129697649e-12
2.41909782866491e-11
-7.29822738725937e-12
5.08874985500376e-12
-7.29668850591666e-12
-6.6446978674274e-12
-6.44210486158358e-12
-1.03537730144719e-11
-5.35370149735956e-12
-9.67854590724378e-12
-4.3197985255765e-12
-7.68329657878733e-12
-3.44275745733096e-12
-5.67977722621998e-12
-2.73226325012937e-12
-4.07870562961325e-12
-2.16755330002031e-12
-2.89913032437879e-12
-1.72072619792095e-12
-2.06125342720002e-12
-1.36631480220936e-12
-1.47365877904519e-12
-1.08337494268031e-12
-1.06249388108007e-12
-8.55528495367229e-13
-7.7316668759106e-13
-6.70214090662927e-13
-5.67345346740041e-13
-5.17878507979082e-13
-4.18775571573849e-13
-3.9124905220646e-13
-3.09749498400049e-13
-2.84764660706357e-13
-2.28505514867578e-13
-1.94109124141359e-13
-1.67158830907771e-13
-1.1588419238307e-13
-1.20491262720473e-13
-4.73513161916804e-14
-8.49703715714709e-14
1.37552184445254e-14
-5.82666942637178e-14
6.93627637814718e-14
-3.87787170948538e-14
1.21179073878416e-13
-2.54990873084145e-14
1.70760698416783e-13
-1.77963696911182e-14
2.1960284058892e-13
-1.53892739096519e-14
2.69193960781425e-13
-1.82739257616669e-14
3.21082406221134e-13
-2.67242543407657e-14
3.76958296604445e-13
-4.13625896344822e-14
4.3873204456022e-13
-6.31930211583228e-14
5.0863865692693e-13
-9.37967643503938e-14
5.8938869639379e-13
-1.35504226965695e-13
6.84349845074597e-13
-1.91822818442386e-13
7.97802182923311e-13
-2.68018752302798e-13
9.35283637593812e-13
-3.72016105132376e-13
1.10404153522619e-12
-5.15642054713467e-13
1.3136093392402e-12
-7.16565662117005e-13
1.57654999197999e-12
-1.00105056593053e-12
1.90928386009874e-12
-1.40742513478547e-12
2.33285652163156e-12
-1.99053941436258e-12
2.87298264733406e-12
-2.82481420733457e-12
3.55809355070041e-12
-4.00360665987875e-12
4.41021699813066e-12
-5.61216876874754e-12
5.42276256097021e-12
-7.64408951661158e-12
6.50020987974939e-12
-9.70976826298045e-12
7.36494010242461e-12
-1.05058746126288e-11
7.40269258675714e-12
-6.89682844865956e-12
5.82668416798408e-12
4.97283035485224e-12
2.32040143867576e-12
2.45357530197021e-11
2.87440882315957e-11
1.38699429326762e-13
2.81218150218055e-11
-1.45661294295673e-12
2.5825922088698e-11
-3.02629194242009e-12
6.69854462513045e-12
-3.87973881297298e-12
-5.75250199945465e-12
-4.04829023684111e-12
-1.0147769136579e-11
-3.80484274680396e-12
-9.88550725263613e-12
-3.37448096838361e-12
-8.07791654326255e-12
-2.89641575075179e-12
-6.12272506528204e-12
-2.43869424587426e-12
-4.50186584439225e-12
-2.02954057182058e-12
-3.27423564154616e-12
-1.67630551329643e-12
-2.38092096368983e-12
-1.3769270064623e-12
-1.73992454415029e-12
-1.12543651337666e-12
-1.28130191523064e-12
-9.14802396978788e-13
-9.51526536760598e-13
-7.38180351463942e-13
-7.12078024628851e-13
-5.89474981089134e-13
-5.35952647102484e-13
-4.63472257337396e-13
-4.04560176817884e-13
-3.55829562123893e-13
-3.05266994547392e-13
-2.62941225913397e-13
-2.2945072520562e-13
-1.81829132854774e-13
-1.71266240311482e-13
-1.09984533584615e-13
-1.26711425253086e-13
-4.52825654355919e-14
-9.30738520069974e-14
1.41383739145758e-14
-6.84891476116531e-14
6.99436438069795e-14
-5.17552462776996e-14
1.23678292271367e-13
-4.21210511055031e-14
1.76825553184793e-13
-3.92454677471435e-14
2.30861430434258e-13
-4.31177697265506e-14
2.87326449559387e-13
-5.40779950275114e-14
3.47860829390457e-13
-7.28491439338883e-14
4.1430848648995e-13
-1.00639961137387e-13
4.88766926934529e-13
-1.39285036853979e-13
5.73708052053419e-13
-1.91489637388624e-13
6.72079682541284e-13
-2.61236038818679e-13
7.87446802779019e-13
-3.54406809404011e-13
9.24108630531566e-13
-4.79659682064051e-13
1.08723166349318e-12
-6.49687514790503e-13
1.28287404216305e-12
-8.83050764942449e-13
1.51784226951045e-12
-1.20676153703473e-12
1.79917395711561e-12
-1.65938056829717e-12
2.13285417958736e-12
-2.2947068180287e-12
2.52104742695576e-12
-3.18334586614929e-12
2.95656847720852e-12
-4.40931082146533e-12
3.41164478264834e-12
-6.0372689849387e-12
3.81966254346108e-12
-8.02194579016254e-12
4.04556541359938e-12
-9.90520578540547e-12
3.87298076321355e-12
-1.03021866283541e-11
3.03846364363381e-12
-6.03000313656097e-12
1.50752819961712e-12
6.53723543867223e-12
-7.88080381142222e-14
2.61538149093022e-11
2.86851650373684e-11
1.66550500379808e-12
2.64856280795123e-11
1.53482812536629e-12
2.59952383910339e-11
1.44560882807544e-13
8.12740295522738e-12
-1.22414725928313e-12
-4.34666075813471e-12
-2.09685626565715e-12
-9.23931040580756e-12
-2.47321952605764e-12
-9.47446086914585e-12
-2.50967788521878e-12
-8.00759812684011e-12
-2.35581340363901e-12
-6.24340143181337e-12
-2.11417924187083e-12
-4.71088775614904e-12
-1.84559476070037e-12
-3.51072104305575e-12
-1.58258516821207e-12
-2.61229873694159e-12
-1.34063320142835e-12
-1.95067938553582e-12
-1.12549674173668e-12
-1.46564829741927e-12
-9.3775814331239e-13
-1.10885926748483e-12
-7.75457367276779e-13
-8.44333994301968e-13
-6.3558517068889e-13
-6.46120284999472e-13
-5.14872738363811e-13
-4.95884148120312e-13
-4.10199654165921e-13
-3.80845343024659e-13
-3.18732651718009e-13
-2.92092348704604e-13
-2.3797696658381e-13
-2.23442329242425e-13
-1.6574324362973e-13
-1.70586549381697e-13
-1.00107810745388e-13
-1.30548705114768e-13
-3.93438978481648e-14
-1.01267562222842e-13
1.8112582810527e-14
-8.13789643793952e-14
7.37356472650722e-14
-7.00430096394314e-14
1.28946289981823e-13
-6.68672434044743e-14
1.85155327560061e-13
-7.18315702068319e-14
2.43827787814884e-13
-8.53314441923403e-14
3.06509406977579e-13
-1.08171885195e-13
3.74903657520328e-13
-1.4171963450329e-13
4.50900877147052e-13
-1.87996887940629e-13
5.36659747142662e-13
-2.49976411980727e-13
6.34636078390869e-13
-3.31938708738386e-13
7.47615920296434e-13
-4.40094058415718e-13
8.78665770080972e-13
-5.83380556970665e-13
1.03098823714034e-12
-7.74626115013941e-13
1.20753135044433e-12
-1.03213538218272e-12
1.41018737419028e-12
-1.38186386447549e-12
1.6383240172878e-12
-1.85984787913226e-12
1.88609656553107e-12
-2.51467489676803e-12
2.13793873593826e-12
-3.40723404731177e-12
2.36113429872479e-12
-4.60439461082455e-12
2.49458201512566e-12
-6.1424446467528e-12
2.43579310978247e-12
-7.93470807762707e-12
2.03713160902247e-12
-9.47781964934548e-12
1.14884338739497e-12
-9.38458518694869e-12
-2.1677609409834e-13
-4.63393389484262e-12
-1.57290502200867e-12
7.92483704957896e-12
-1.66138194628531e-12
2.62719449421001e-11
2.70419475044593e-11
2.41014071054369e-12
2.41038889052383e-11
3.20187316466681e-12
2.52401559617329e-11
2.0667179498778e-12
9.29881968910399e-12
5.12182774109805e-13
-2.75738734377463e-12
-7.25145604956506e-13
-7.96867756157556e-12
-1.46749076335817e-12
-8.69993657093546e-12
-1.80685805989691e-12
-7.63692058341474e-12
-1.8804742634293e-12
-6.13916955249437e-12
-1.80159799086895e-12
-4.75972785210051e-12
-1.64626639352282e-12
-3.63651971920621e-12
-1.46097051732713e-12
-2.76851067817024e-12
-1.27198033899681e-12
-2.11099748828676e-12
-1.0928825165619e-12
-1.61645690078135e-12
-9.29706347758167e-13
-1.24410694312814e-12
-7.84206872403823e-13
-9.62244355715315e-13
-6.5586889812559e-13
-7.47188537237603e-13
-5.43095952681754e-13
-5.81685988668831e-13
-4.43880609365831e-13
-4.53367266329068e-13
-3.56134372916535e-13
-3.53399772091219e-13
-2.77862710192552e-13
-2.75508246474532e-13
-2.07215558063362e-13
-2.15237870827506e-13
-1.42506812856532e-13
-1.69449443790098e-13
-8.21884838841395e-14
-1.35943427268568e-13
-2.4818489911822e-14
-1.13251447273989e-13
3.09697948096435e-14
-1.00458433332908e-13
8.64972743313662e-14
-9.71281009733958e-14
1.43084932802895e-13
-1.03240821632959e-13
2.02086148901704e-13
-1.19226274367952e-13
2.64921017905722e-13
-1.4595649480472e-13
3.33113912122866e-13
-1.84904107163659e-13
4.08322117228073e-13
-2.38224146447106e-13
4.9235537751774e-13
-3.09041825039228e-13
5.87167761222256e-13
-4.01782410457076e-13
6.9479528556099e-13
-5.22735903767143e-13
8.17188955075947e-13
-6.80755695374494e-13
9.55860013348233e-13
-8.88227502427721e-13
1.11124752681259e-12
-1.16238406699254e-12
1.28149236583883e-12
-1.52688065361553e-12
1.46046805465323e-12
-2.01348516245692e-12
1.63441697106802e-12
-2.6631553027675e-12
1.77681901478899e-12
-3.52402176236664e-12
1.84070317501185e-12
-4.64250998331888e-12
1.7492439777399e-12
-6.02506288393873e-12
1.38834810380489e-12
-7.54772741301477e-12
6.21261281320186e-13
-8.68440320654494e-12
-6.38991397895454e-13
-8.09746887640263e-12
-2.20181845222763e-12
-3.0431873826635e-12
-3.30907710073998e-12
9.06096083508867e-12
-2.45250760595285e-12
2.54423627047467e-11
2.46057932788449e-11
2.57751854571024e-12
2.15525419480171e-11
3.81076144147018e-12
2.4039829617047e-11
2.95214560772315e-12
1.01894864548047e-11
1.45438449939758e-12
-1.22906099197743e-12
1.22606359991746e-13
-6.60772041395302e-12
-7.7444085924369e-13
-7.77482053172135e-12
-1.27411792222123e-12
-7.11003395597765e-12
-1.48705049001473e-12
-5.89970629615684e-12
-1.51945643815582e-12
-4.70134670024813e-12
-1.44880910908409e-12
-3.6816663695797e-12
-1.3262494024131e-12
-2.86598881774325e-12
-1.1830140913481e-12
-2.22953351185671e-12
-1.03703953402595e-12
-1.73808658875206e-12
-8.97784669483974e-13
-1.35935145722809e-12
-7.69587595544105e-13
-1.06674683074038e-12
-6.53821345734028e-13
-8.39558787256208e-13
-5.50243085545087e-13
-6.62147670306306e-13
-4.5779801647416e-13
-5.22956271190533e-13
-3.7507212640568e-13
-4.13509749729628e-13
-3.00546542986348e-13
-3.27637368570575e-13
-2.32715670346358e-13
-2.60869908155454e-13
-1.70137766135645e-13
-2.10005854544356e-13
-1.11451146905861e-13
-1.72764591322291e-13
-5.53587687678362e-14
-1.4761485433703e-13
-6.22198458158597e-16
-1.33583364896676e-13
5.39734433381834e-14
-1.30211846033638e-13
1.09635854563277e-13
-1.37474065426589e-13
1.67591874038103e-13
-1.55820691808673e-13
2.29122249014073e-13
-1.86178064730998e-13
2.95558546000426e-13
-2.30070154037222e-13
3.6830976818547e-13
-2.89731171568102e-13
4.48845132876267e-13
-3.68345753024299e-13
5.38639970910615e-13
-4.70344620024671e-13
6.39050802529749e-13
-6.01899575067562e-13
7.51065281707462e-13
-7.71494050257643e-13
8.74840869760566e-13
-9.90681786436035e-13
1.0089147043401e-12
-1.27507407583918e-12
1.1488265905385e-12
-1.64532727434196e-12
1.28497219211489e-12
-2.12806557163995e-12
1.39918999139056e-12
-2.75568849047004e-12
1.45988079439214e-12
-3.56289435971711e-12
1.41526108468722e-12
-4.57593255522899e-12
1.18681294918444e-12
-5.77452296931075e-12
6.67064296486776e-13
-7.00575352003023e-12
-2.54868671270176e-13
-7.7400455810552e-12
-1.61242902874309e-12
-6.71701946127592e-12
-3.12423125466526e-12
-1.50753515168813e-12
-3.95999089762862e-12
9.92137158001605e-12
-2.64995864433513e-12
2.41552284632695e-11
2.1969275593634e-11
2.39817540218649e-12
1.91775880827095e-11
3.73453275831324e-12
2.27318785891261e-11
3.13431617253153e-12
1.081704292712e-11
1.83180191365927e-12
9.93824956184959e-14
5.78685984987334e-13
-5.3299759239372e-12
-3.28710354868212e-13
-6.84385058721155e-12
-8.85506634767503e-13
-6.53048290800823e-12
-1.17039790318108e-12
-5.59270194125053e-12
-1.27246607106025e-12
-4.57768495456511e-12
-1.26187494714683e-12
-3.67110358469419e-12
-1.18803644374104e-12
-2.91905932979675e-12
-1.08293919423802e-12
-2.31421467777293e-12
-9.66215794516423e-13
-1.83472170029549e-12
-8.49146851737326e-13
-1.4566419429567e-12
-7.37708308133135e-13
-1.158700618748e-12
-6.34612487796017e-13
-9.23449006244001e-13
-5.40658158628849e-13
-7.37158924892191e-13
-4.55578584966483e-13
-5.8933791975698e-13
-3.78551969086528e-13
-4.72064550691074e-13
-3.08490454020495e-13
-3.79434071039433e-13
-2.44211913307241e-13
-3.0707031702157e-13
-1.84518151306281e-13
-2.51788684804409e-13
-1.28235107200965e-13
-2.11284190670724e-13
-7.42180970098295e-14
-1.83996938823202e-13
-2.13568916208639e-14
-1.68919787465397e-13
3.1441956943608e-14
-1.65579459160292e-13
8.5268695063883e-14
-1.73947223077488e-13
1.41221897200813e-13
-1.94483094545876e-13
2.00428355140799e-13
-2.28142871511932e-13
2.64031519972876e-13
-2.76467987553001e-13
3.33200196991176e-13
-3.41718288084459e-13
4.09075862882849e-13
-4.27052058400731e-13
4.926960718567e-13
-5.36795331538626e-13
5.84834819493545e-13
-6.76855791764569e-13
6.85678564628717e-13
-8.55129321265508e-13
7.94346200614254e-13
-1.08210127302969e-12
9.08018475587471e-13
-1.37144284553025e-12
1.02060284584191e-12
-1.74053622028884e-12
1.1206354070177e-12
-2.21063350847258e-12
1.18824017682857e-12
-2.80572295516544e-12
1.19100545128005e-12
-3.54797205878378e-12
1.07883690624171e-12
-4.44595594008537e-12
7.80493663770464e-13
-5.4582606837027e-12
2.05602474487981e-13
-6.41283982075077e-12
-7.24943400378505e-13
-6.7913206663742e-12
-2.00294685994326e-12
-5.42043916969605e-12
-3.32020032256991e-12
-1.70847912107959e-13
-3.90021118794443e-12
1.05215579273274e-11
-2.483927734431e-12
2.27574936057867e-11
1.94960432778261e-11
2.05737413990069e-12
1.71393955001286e-11
3.30383593627694e-12
2.15080168296452e-11
2.92128457028507e-12
1.12208786087717e-11
1.86632973667111e-12
1.17439999719608e-12
7.78721938789395e-13
-4.2234272243165e-12
-5.69211583286896e-14
-5.99020118517246e-12
-6.06234572556396e-13
-5.96389474260289e-12
-9.17415597320097e-13
-5.26481871470711e-12
-1.05881336653963e-12
-4.42004698733638e-12
-1.08904642280846e-12
-3.62502122408269e-12
-1.05215363055645e-12
-2.94044799855067e-12
-9.78238635007584e-13
-2.37294271155612e-12
-8.86822312607408e-13
-1.91124861199294e-12
-7.89836266101948e-13
-1.53902308566549e-12
-6.94146207997572e-13
-1.24005716183817e-12
-6.03355483488363e-13
-1.00016505046517e-12
-5.19032372669326e-13
-8.0765147884861e-13
-4.41541537978839e-13
-6.53227710364978e-13
-3.70555750388194e-13
-5.29661136818945e-13
-3.05371941402406e-13
-4.31422611847332e-13
-2.45103945208093e-13
-3.54318044438264e-13
-1.88786925938596e-13
-2.9524218564487e-13
-1.35424317036525e-13
-2.51921189610078e-13
-8.40282204274797e-14
-2.22787428252218e-13
-3.36146212768752e-14
-2.06830508190381e-13
1.67874309415709e-14
-2.03565806053534e-13
6.81452037325774e-14
-2.12961246709844e-13
1.2142759922469e-13
-2.35479886403227e-13
1.77609429719713e-13
-2.72084507173621e-13
2.3765462747549e-13
-3.24305977930908e-13
3.02499499997946e-13
-3.9437799024889e-13
3.72986732764197e-13
-4.8536523924812e-13
4.49772809316976e-13
-6.01407596426012e-13
5.33128047608929e-13
-7.48026218913183e-13
6.22616675526363e-13
-9.32411180032215e-13
7.1658085246215e-13
-1.163824268247e-12
8.1131571894059e-13
-1.45388930438908e-12
8.99829113215725e-13
-1.81670041819639e-12
9.70001059316204e-13
-2.26838132875374e-12
1.00206330501473e-12
-2.82527373695007e-12
9.65494370552856e-13
-3.4987961459872e-12
8.15611631165053e-13
-4.28337398648798e-12
4.92843648318363e-13
-5.12271628927149e-12
-7.22436241329311e-14
-5.83491312561205e-12
-9.2805591546863e-13
-5.92256543516468e-12
-2.03714564383773e-12
-4.29808821719364e-12
-3.10403851980484e-12
9.10046295938328e-13
-3.46681760650438e-12
1.08989347634809e-11
-2.1434010461489e-12
2.1447345656816e-11
1.73598268959679e-11
1.67638407488468e-12
1.54779150495729e-11
2.7498499559568e-12
2.04512958026586e-11
2.53620083999604e-12
1.14499889461105e-11
1.72506858442957e-12
1.99997499563445e-12
8.29381332715278e-13
-3.3142292750845e-12
1.01902685443838e-13
-5.25000637214889e-12
-4.05037854677491e-13
-5.44486929375096e-12
-7.14373193487359e-13
-4.94389478125311e-12
-8.74426490010469e-13
-4.24880683965646e-12
-9.31228928716331e-13
-3.55737427792661e-12
-9.21879098394707e-13
-2.93925934456656e-12
-8.73183811493861e-13
-2.41138429134702e-12
-8.03427321624739e-13
-1.97102173163229e-12
-7.2439058050625e-13
-1.60833717593536e-12
-6.43289939254213e-13
-1.31168653042442e-12
-5.64246699624133e-13
-1.06997776327254e-12
-4.89367042605837e-13
-8.73529049452978e-13
-4.19502255733048e-13
-7.14304734354659e-13
-3.54731336916162e-13
-5.85843352763321e-13
-2.94684235882922e-13
-4.83062957850584e-13
-2.38738088594321e-13
-4.02021684250003e-13
-1.86140806385811e-13
-3.39743559740366e-13
-1.36071124218978e-13
-2.94024122837732e-13
-8.7687007673344e-14
-2.63317189037482e-13
-4.01357130773071e-14
-2.46623210803711e-13
7.4333071118028e-15
-2.4345684440541e-13
5.58671215073622e-14
-2.53783942533584e-13
1.06007987384774e-13
-2.78063027362157e-13
1.58678827063953e-13
-3.17239331932007e-13
2.14674895886925e-13
-3.72816124266178e-13
2.74714825224205e-13
-4.46951906853706e-13
3.39379735406549e-13
-5.42573974563251e-13
4.08997049471618e-13
-6.63568999726846e-13
4.83423093462411e-13
-8.14987285266357e-13
5.61747789504859e-13
-1.00325183191921e-12
6.41765431315635e-13
-1.23632897016877e-12
7.19261703589235e-13
-1.52383291307988e-12
7.86893273303307e-13
-1.87672910975487e-12
8.32704854444662e-13
-2.30652895811416e-12
8.38167018046052e-13
-2.82300290667727e-12
7.76109183305054e-13
-3.42893341183217e-12
6.08875634397698e-13
-4.10827120188987e-12
2.89687885052202e-13
-4.79561433356431e-12
-2.30540615268087e-13
-5.30674417236562e-12
-9.74603334178997e-13
-5.17050585413079e-12
-1.88714003048787e-12
-3.37731139460703e-12
-2.7056781279121e-12
1.73743370671381e-12
-2.8986745749343e-12
1.110131645168e-11
-1.7547496645753e-12
2.03117216386745e-11
1.56092633230177e-11
1.32132466757592e-12
1.41667352387493e-11
2.20585144932133e-12
1.95771987006028e-11
2.11419190164329e-12
1.15508017603108e-11
1.51465789955214e-12
2.60792989216196e-12
8.02515569770392e-13
-2.59434994495436e-12
1.91299713476518e-13
-4.63167118374072e-12
-2.58052583193647e-13
-4.98890210613581e-12
-5.49730285688077e-13
-4.64600496972822e-12
-7.1497225673135e-13
-4.07768351865228e-12
-7.88047545196737e-13
-3.4787057463499e-12
-7.9889067904143e-13
-2.92308607740588e-12
-7.70424146126544e-13
-2.43477133266223e-12
-7.19083819437338e-13
-2.01752514172685e-12
-6.55983235363604e-13
-1.66683810707142e-12
-5.88287187404205e-13
-1.37501342747227e-12
-5.20355692230296e-13
-1.13376266983664e-12
-4.5464179426564e-13
-9.353079029574e-13
-3.92347944052257e-13
-7.72863372488488e-13
-3.33875422868557e-13
-6.40765212658811e-13
-2.7913522068968e-13
-5.34422072354306e-13
-2.27735781413078e-13
-4.50192513354327e-13
-1.79118983769069e-13
-3.85268293660574e-13
-1.32626852522089e-13
-3.37543832889686e-13
-8.75572215549012e-14
-3.05518125518224e-13
-4.31833525970839e-14
-2.88217010596796e-13
1.22612051319818e-15
-2.85160309960031e-13
4.64003131206789e-14
-2.9631323770716e-13
9.30533340981742e-14
-3.22119738553505e-13
1.41869841734965e-13
-3.63497088667572e-13
1.93484855027432e-13
-4.2189928666415e-13
2.48419717458124e-13
-4.99372666215475e-13
3.07025693688993e-13
-5.98674452659557e-13
3.69351659431935e-13
-7.2338972447699e-13
4.34934363104805e-13
-8.78056507567814e-13
5.02506687887351e-13
-1.06829438222967e-12
5.69530162803429e-13
-1.30079869220451e-12
6.31548624519e-13
-1.58326556245065e-12
6.81282365985864e-13
-1.92383768635203e-12
7.07458477120615e-13
-2.33003404084356e-12
6.93420773701875e-13
-2.80624516496841e-12
6.15940729803541e-13
-3.34868799251925e-12
4.44652062828886e-13
-3.93418456812344e-12
1.44761607639835e-13
-4.49291778647791e-12
-3.15397407674832e-13
-4.84379494433103e-12
-9.39518573145555e-13
-4.54359215956634e-12
-1.66365350443366e-12
-2.65022914851063e-12
-2.26572385001442e-12
2.34291507730003e-12
-2.33549467422956e-12
1.11748680979855e-11
-1.3884767294926e-12
1.93677618315355e-11
1.42216281698221e-11
1.02025522456651e-12
1.31522418151313e-11
1.73295299362133e-12
1.8869337554732e-11
1.72364448543969e-12
1.15638912303328e-11
1.29426755665992e-12
3.04061476661168e-12
7.41496042702198e-13
-2.03873166020656e-12
2.39710918597711e-13
-4.12749033232509e-12
-1.48436380913778e-13
-4.59874460142771e-12
-4.14578416282306e-13
-4.37816942803913e-12
-5.76548689986909e-13
-3.91428661432049e-12
-6.58555238556255e-13
-3.39551233218577e-12
-6.83876581598946e-13
-2.89680370082305e-12
-6.71495361410786e-13
-2.44641239472308e-12
-6.35722929242344e-13
-2.05277607328294e-12
-5.86698750033968e-13
-1.71555754813401e-12
-5.31256074054703e-13
-1.43036333416853e-12
-4.73777880952744e-13
-1.19135460241428e-12
-4.16896466336646e-13
-9.92499810443512e-13
-3.62058228506945e-13
-8.28198108063853e-13
-3.09908821608291e-13
-6.93583115778114e-13
-2.60587394626798e-13
-5.84569991885597e-13
-2.13901342618774e-13
-4.97847477182365e-13
-1.69466442177447e-13
-4.30798707957235e-13
-1.26774812243411e-13
-3.81441851064184e-13
-8.525856112705e-14
-3.48337158300672e-13
-4.43087281835444e-14
-3.30550849615801e-13
-3.31509095135255e-15
-3.2760601855437e-13
3.83414781728028e-14
-3.39476806211133e-13
8.12520688252096e-14
-3.66581843146979e-13
1.2597069730409e-13
-4.09800026543827e-13
1.7297878510097e-13
-4.70515943328019e-13
2.22630851337074e-13
-5.50648636073929e-13
2.7507423380737e-13
-6.52748550897547e-13
3.30132339554886e-13
-7.80078273138863e-13
3.87102553670586e-13
-9.36649818145807e-13
4.44470034506062e-13
-1.1272708953257e-12
4.99530092506475e-13
-1.35744768797696e-12
5.47805554719028e-13
-1.63310456164335e-12