/*--------------------------------*- C++ -*----------------------------------*\
  =========                 |
  \\      /  F ield         | OpenFOAM: The Open Source CFD Toolbox
   \\    /   O peration     | Website:  https://openfoam.org
    \\  /    A nd           | Version:  10
     \\/     M anipulation  |
\*---------------------------------------------------------------------------*/
FoamFile
{
    format      ascii;
    class       volScalarField;
    location    "9";
    object      rho;
}
// * * * * * * * * * * * * * * * * * * * * * * * * * * * * * * * * * * * * * //

dimensions      [1 -3 0 0 0 0 0];

internalField   nonuniform List<scalar> 
2500
(
1.14617542067044
1.14618116222257
1.14621146930778
1.14623719754577
1.14625503538281
1.14626652275283
1.14627366301283
1.14627799583455
1.14628055774528
1.14628202416422
1.14628284062891
1.14628327808886
1.14628350422327
1.14628361901934
1.14628367591859
1.14628370455786
1.14628371777943
1.14628372512705
1.14628372994753
1.14628373273707
1.14628373470661
1.14628373621095
1.14628373736209
1.14628373806106
1.14628373873628
1.14628373923359
1.14628373936684
1.14628373929782
1.14628373896674
1.14628373828853
1.14628373708147
1.14628373471266
1.14628373092835
1.14628372381553
1.14628370968491
1.1462836808429
1.14628362194555
1.14628350405711
1.14628326994132
1.14628282483867
1.14628200227735
1.14628052987723
1.14627797480172
1.14627366515005
1.14626655747884
1.14625510798372
1.1462372471961
1.14621137655024
1.14618096507847
1.14617571880445
1.14877598351985
1.14883456357334
1.14892465320923
1.14899823589272
1.14904962074092
1.14908321640073
1.14910448312298
1.14911763698692
1.14912557254577
1.1491302207488
1.1491328579214
1.14913430255678
1.1491350662382
1.14913545679741
1.14913565010982
1.14913574323254
1.14913578643783
1.14913580662548
1.14913581640869
1.14913582115849
1.14913582372274
1.14913582530951
1.14913582638096
1.14913582706482
1.1491358276315
1.14913582804719
1.14913582821067
1.14913582817807
1.14913582786131
1.149135826992
1.14913582496325
1.14913582035346
1.14913581045084
1.14913578893627
1.14913574263942
1.1491356447264
1.14913544289863
1.14913503928088
1.14913425632113
1.14913278999521
1.14913013359015
1.14912547663239
1.14911756105131
1.14910446947397
1.14908329998137
1.14904977793717
1.14899827218844
1.14892420936258
1.14883368428286
1.14877751092852
1.1515469407882
1.15166477210047
1.15180092386999
1.15190757913218
1.15198115785879
1.15202899103108
1.15205917012411
1.15207780243459
1.15208903806745
1.15209562567541
1.15209936834979
1.15210142339463
1.15210251280473
1.15210307069122
1.15210334680259
1.15210347912288
1.152103540391
1.15210356824774
1.15210358090287
1.15210358664704
1.15210358941041
1.15210359091013
1.15210359182712
1.15210359240304
1.15210359283866
1.15210359315665
1.15210359330911
1.15210359330959
1.15210359303015
1.15210359209182
1.15210358966425
1.15210358381339
1.15210357039451
1.15210354041554
1.15210347503089
1.15210333590258
1.15210304847976
1.15210247347317
1.15210136028992
1.1520992778605
1.15209551040315
1.15208891222866
1.15207770007173
1.15205914119811
1.15202907070227
1.15198127818008
1.15190740887389
1.15179985131845
1.15166262923736
1.15154743640872
1.15419500964062
1.15435428374328
1.15451008704167
1.1546271543144
1.15470597804282
1.1547562012484
1.15478731123308
1.15480620252881
1.15481743020126
1.1548239313985
1.15482758474039
1.15482957168204
1.15483061610575
1.15483114665393
1.15483140716151
1.15483153090222
1.15483158771841
1.1548316131518
1.15483162438438
1.1548316293101
1.15483163155483
1.15483163269829
1.1548316333657
1.15483163378001
1.15483163407994
1.15483163430365
1.15483163443361
1.15483163447697
1.15483163432816
1.15483163363103
1.15483163163713
1.15483162660541
1.15483161463522
1.1548315873961
1.15483152724673
1.1548313978895
1.15483112804466
1.15483058313498
1.15482951854356
1.15482750728742
1.15482383009033
1.15481731507656
1.1548060994031
1.15478725770346
1.15475621182566
1.15470593866301
1.15462663173408
1.15450826444267
1.15435062935574
1.15419264572779
1.15650283613646
1.15667652704646
1.15682875523746
1.15693869468239
1.15701080417282
1.15705574139403
1.15708302367723
1.15709929933141
1.15710882743629
1.15711427556261
1.15711730520117
1.15711893862276
1.15711979095107
1.15712022114132
1.15712043112653
1.15712053026087
1.15712057549211
1.15712059552646
1.15712060420566
1.15712060790544
1.15712060951501
1.15712061028895
1.15712061072221
1.15712061098565
1.15712061117008
1.15712061131305
1.15712061141228
1.15712061146625
1.15712061142878
1.15712061100395
1.15712060958373
1.15712060583028
1.15712059661543
1.15712057534146
1.15712052793141
1.15712042512756
1.15712020900617
1.15711976921445
1.15711890312299
1.15711725241385
1.15711420458145
1.1571087434828
1.15709921774642
1.15708296534783
1.15705569787999
1.1570106300508
1.15693790513379
1.15682640165026
1.1566716664828
1.15649737727965
1.158356890718
1.15852030282889
1.15865241951818
1.1587443878266
1.15880313073853
1.1588389140842
1.15886019840046
1.15887267139505
1.15887986574684
1.15888393047023
1.15888616932999
1.15888736731383
1.15888798869169
1.15888830078403
1.15888845247982
1.15888852379369
1.15888855617743
1.15888857040482
1.15888857647276
1.15888857899108
1.15888858003488
1.15888858050404
1.15888858075381
1.1588885809008
1.15888858099991
1.15888858108201
1.15888858115143
1.15888858120617
1.15888858122368
1.15888858100476
1.15888858011333
1.15888857759011
1.1588885711939
1.15888855623468
1.15888852265369
1.15888844936186
1.15888829434425
1.15888797696085
1.15888734781048
1.15888613967802
1.15888388947217
1.15887981545614
1.15887261927477
1.15886015251371
1.15883885151999
1.15880289878441
1.15874350782981
1.15864991149526
1.158514920994
1.15834928847067
1.15974068466757
1.15987782212305
1.15998186997725
1.16005187970804
1.16009544403315
1.16012138510768
1.16013650332104
1.16014520806996
1.16015015708161
1.16015292180362
1.16015443151865
1.16015523412193
1.1601556484205
1.16015585575248
1.16015595623499
1.16015600333765
1.16015602464993
1.16015603394954
1.16015603786026
1.16015603943969
1.16015604005889
1.16015604031237
1.16015604043738
1.16015604050698
1.16015604055083
1.16015604059212
1.16015604063701
1.16015604068411
1.16015604071958
1.16015604063247
1.16015604013182
1.16015603857434
1.16015603448822
1.16015602480853
1.16015600294442
1.16015595497635
1.16015585304357
1.16015564335367
1.16015522548242
1.16015441802088
1.1601529025835
1.16015013278842
1.16014518187408
1.16013647655476
1.16012133117949
1.16009522527745
1.16005107248498
1.15997956358436
1.15987266091661
1.15973236610558
1.16070617689555
1.16081089118584
1.16088628257202
1.16093544374138
1.16096526903611
1.16098263626628
1.16099255584712
1.16099816918445
1.16100131626845
1.16100305566309
1.16100399805247
1.16100449626486
1.16100475245544
1.16100488033133
1.16100494218903
1.16100497113178
1.16100498419081
1.1610049898546
1.16100499220419
1.16100499312636
1.16100499346396
1.16100499358316
1.16100499363448
1.16100499365985
1.16100499367252
1.16100499368943
1.16100499371634
1.1610049937521
1.16100499378396
1.16100499376509
1.16100499351572
1.16100499262471
1.1610049901931
1.16100498435462
1.16100497109228
1.16100494187382
1.16100487956558
1.16100475093249
1.1610044935305
1.16100399357828
1.16100304905457
1.16100130783242
1.16099816039739
1.16099254597343
1.16098260262791
1.16096510236545
1.16093480407568
1.16088440156625
1.16080649212592
1.1606984146199
1.16133922546308
1.16141294912691
1.16146371424921
1.16149587036483
1.16151490872002
1.16152575534578
1.16153182917778
1.16153520819563
1.16153707696938
1.16153809936391
1.16153864931103
1.16153893865405
1.16153908699241
1.16153916090459
1.16153919662013
1.16153921331279
1.16153922082797
1.16153922406894
1.16153922539536
1.16153922590075
1.16153922606891
1.16153922611371
1.1615392261294
1.16153922613436
1.16153922613166
1.16153922613538
1.16153922615034
1.16153922617504
1.16153922620179
1.16153922620806
1.16153922609501
1.16153922562167
1.1615392242624
1.16153922095066
1.16153921338645
1.16153919666577
1.1615391609203
1.16153908694095
1.16153893844626
1.16153864882708
1.16153809855415
1.16153707618861
1.16153520849902
1.16153183007051
1.16152574108146
1.16151480163151
1.16149542078425
1.16146232859686
1.16140955625383
1.16133280458048
1.1617310820956
1.16177940630153
1.16181141940385
1.16183115938444
1.16184257674622
1.16184894499685
1.16185244255519
1.16185435596429
1.1618554001335
1.1618559658128
1.16185626806439
1.1618564264226
1.16185650741958
1.16185654773478
1.16185656720779
1.1618565763044
1.16185658039245
1.16185658214578
1.16185658285355
1.16185658311524
1.16185658319179
1.16185658320075
1.16185658319826
1.16185658319444
1.1618565831897
1.1618565831897
1.16185658319722
1.16185658321274
1.16185658323263
1.1618565832446
1.16185658319949
1.16185658296383
1.16185658224531
1.1618565804669
1.16185657638207
1.16185656732883
1.16185654794469
1.16185650776583
1.16185642694523
1.16185626880775
1.16185596689458
1.16185540198154
1.16185435958373
1.16185244825339
1.16184894362024
1.16184251827272
1.16183087466993
1.1618104852174
1.16177700678747
1.16172626644677
1.16196100493568
1.16199071658334
1.16200974171794
1.16202118382993
1.16202765588774
1.1620311924097
1.16203309820099
1.16203412369363
1.1620346759927
1.16203497236014
1.16203512972252
1.16203521186651
1.16203525380757
1.16203527467302
1.16203528475275
1.16203528946116
1.16203529157395
1.16203529247511
1.16203529283358
1.16203529295985
1.16203529298949
1.16203529298718
1.16203529298135
1.16203529297545
1.16203529297106
1.16203529297016
1.16203529297372
1.16203529298321
1.16203529299654
1.16203529300697
1.16203529299225
1.16203529288169
1.16203529252041
1.16203529161136
1.16203528951123
1.16203528484742
1.16203527485456
1.16203525412868
1.16203521238686
1.16203513052109
1.16203497359314
1.1620346780776
1.16203412756603
1.16203310472112
1.16203119718507
1.16202762949289
1.162021019823
1.16200915959091
1.16198914461809
1.16195768121582
1.16208934804324
1.16210658678721
1.16211729769657
1.16212359179291
1.16212707719886
1.16212894430327
1.16212993195062
1.1621304547778
1.16213073270348
1.16213088045077
1.16213095843296
1.16213099900763
1.16213101969773
1.16213102999093
1.16213103496628
1.16213103729107
1.16213103833289
1.16213103877471
1.16213103894765
1.16213103900419
1.16213103901373
1.16213103900993
1.16213103900455
1.1621310389996
1.16213103899638
1.16213103899531
1.16213103899695
1.16213103900249
1.1621310390107
1.16213103901786
1.16213103901462
1.16213103896555
1.16213103879222
1.16213103834787
1.16213103731519
1.16213103501864
1.1621310300983
1.16213101989535
1.16213099933887
1.16213095896142
1.16213088130816
1.1621307342303
1.16213045774832
1.16212993737503
1.16212895059544
1.16212706847404
1.16212350545929
1.16211695984222
1.16210562510147
1.16208721435922
1.16215772334897
1.1621672090087
1.16217294676128
1.16217624657737
1.16217803742117
1.16217897858028
1.16217946747357
1.16217972212383
1.16217985574271
1.16217992612063
1.16217996305363
1.16217998221414
1.16217999197607
1.16217999683458
1.16217999918524
1.16218000028428
1.1621800007762
1.16218000098354
1.1621800010632
1.16218000108683
1.16218000108894
1.16218000108598
1.16218000108215
1.1621800010788
1.16218000107672
1.16218000107588
1.16218000107662
1.1621800010797
1.16218000108442
1.16218000108897
1.16218000108918
1.16218000106829
1.16218000098861
1.16218000078007
1.16218000029251
1.16217999920727
1.16217999688397
1.16217999207111
1.16217998237851
1.16217996332634
1.162179926592
1.16217985665505
1.16217972404667
1.16217947129303
1.16217898406319
1.16217803668736
1.16217620505713
1.16217276302798
1.16216665597423
1.16215643898812
1.16219258934308
1.16219756040964
1.16220049620928
1.16220215114404
1.1622030323081
1.16220348694766
1.1622037189676
1.16220383790003
1.16220389950043
1.16220393164777
1.16220394842394
1.16220395710432
1.16220396152449
1.16220396372612
1.16220396479267
1.16220396529175
1.16220396551487
1.16220396560829
1.16220396564327
1.16220396565266
1.16220396565269
1.16220396565065
1.16220396564829
1.16220396564628
1.16220396564505
1.16220396564451
1.16220396564485
1.16220396564647
1.16220396564902
1.16220396565167
1.1622039656525
1.16220396564397
1.16220396560873
1.16220396551442
1.16220396529264
1.1622039647988
1.1622039637431
1.16220396155989
1.16220395716844
1.1622039485368
1.16220393186354
1.16220389997407
1.16220383901009
1.16220372137013
1.16220349090241
1.16220303423339
1.16220213302846
1.16220040213552
1.16219725981659
1.16219185974852
1.16220964807157
1.16221213828836
1.16221357781644
1.16221437435679
1.16221479088738
1.16221500203396
1.16221510794667
1.16221516138371
1.16221518870377
1.16221520283016
1.16221521016165
1.16221521394598
1.16221521587259
1.16221521683325
1.16221521729936
1.16221521751768
1.16221521761517
1.16221521765571
1.16221521767045
1.16221521767399
1.16221521767359
1.16221521767235
1.16221521767102
1.16221521766992
1.16221521766925
1.16221521766895
1.1622152176691
1.16221521766991
1.16221521767122
1.16221521767264
1.16221521767332
1.16221521766997
1.1622152176549
1.16221521761367
1.16221521751619
1.16221521729914
1.16221521683606
1.1622152158807
1.16221521396272
1.16221521019579
1.16221520291109
1.16221518892238
1.16221516197094
1.1622151093338
1.1622150045614
1.16221479307881
1.16221436732666
1.16221353229661
1.1622119831471
1.16220925488988
1.16221767157403
1.16221886781127
1.16221954621746
1.16221991519795
1.16222010489319
1.1622201994405
1.16222024607755
1.16222026924239
1.16222028093251
1.16222028692129
1.16222029001257
1.16222029160465
1.16222029241522
1.16222029281994
1.16222029301666
1.16222029310891
1.16222029315005
1.16222029316703
1.16222029317301
1.16222029317426
1.16222029317392
1.16222029317324
1.16222029317255
1.16222029317198
1.16222029317164
1.16222029317149
1.16222029317156
1.16222029317195
1.16222029317258
1.1622202931733
1.16222029317371
1.16222029317245
1.1622202931662
1.16222029314873
1.16222029310722
1.16222029301483
1.16222029281821
1.16222029241378
1.16222029160395
1.16222029001582
1.16222028694319
1.16222028102266
1.16222026953174
1.16222024682481
1.16222020091756
1.16222010656211
1.16221991289529
1.16221952534277
1.16221879147585
1.16221746967562
1.16222130295455
1.1622218555619
1.16222216363816
1.1622223285531
1.16222241199277
1.16222245291484
1.16222247277509
1.16222248248883
1.16222248732751
1.16222248978328
1.16222249104406
1.16222249169204
1.16222249202203
1.16222249218705
1.16222249226742
1.16222249230515
1.16222249232196
1.16222249232885
1.16222249233119
1.1622224923316
1.16222249233139
1.16222249233105
1.16222249233071
1.16222249233043
1.16222249233027
1.1622224923302
1.16222249233023
1.16222249233041
1.16222249233071
1.16222249233105
1.16222249233127
1.16222249233081
1.16222249232829
1.16222249232111
1.16222249230394
1.16222249226577
1.16222249218477
1.16222249201873
1.16222249168732
1.16222249103881
1.16222248978436
1.16222248736035
1.16222248262316
1.16222247315491
1.16222245371857
1.16222241305863
1.16222232802348
1.16222215454772
1.16222181963034
1.16222120379553
1.1622228827069
1.16222312881684
1.16222326393909
1.16222333521617
1.16222337074343
1.16222338790205
1.16222339609987
1.16222340004919
1.16222340199106
1.16222340296739
1.16222340346591
1.16222340372162
1.16222340385189
1.16222340391715
1.162223403949
1.16222340396397
1.16222340397063
1.16222340397333
1.16222340397422
1.16222340397435
1.16222340397424
1.16222340397407
1.16222340397391
1.16222340397379
1.16222340397372
1.16222340397369
1.1622234039737
1.16222340397378
1.16222340397392
1.16222340397408
1.16222340397419
1.16222340397402
1.16222340397303
1.16222340397016
1.16222340396326
1.16222340394793
1.16222340391549
1.16222340384925
1.16222340371752
1.16222340346043
1.16222340296355
1.16222340200124
1.1622234001085
1.16222339628356
1.16222338831408
1.1622233713534
1.16222333523331
1.16222326017591
1.16222311258782
1.16222283597582
1.16222353912997
1.16222364504004
1.16222370239797
1.16222373224781
1.16222374691963
1.16222375390339
1.16222375719002
1.16222375875004
1.16222375950723
1.16222375988432
1.1622237600758
1.16222376017383
1.16222376022378
1.16222376024885
1.16222376026111
1.16222376026687
1.16222376026943
1.16222376027046
1.16222376027079
1.16222376027082
1.16222376027077
1.16222376027069
1.16222376027062
1.16222376027057
1.16222376027054
1.16222376027053
1.16222376027054
1.16222376027057
1.16222376027063
1.16222376027071
1.16222376027076
1.1622237602707
1.16222376027033
1.16222376026921
1.16222376026652
1.16222376026053
1.16222376024789
1.16222376022217
1.16222376017122
1.1622237600721
1.16222375988078
1.1622237595096
1.16222375877515
1.16222375727509
1.16222375410405
1.16222374724189
1.16222373237002
1.1622237009171
1.16222363798766
1.1622235179369
1.1622237942526
1.16222383838199
1.16222386199037
1.16222387412464
1.1622238800118
1.16222388277583
1.1622238840579
1.16222388465768
1.16222388494505
1.16222388508677
1.16222388515833
1.16222388519487
1.1622238852135
1.16222388522286
1.16222388522743
1.16222388522959
1.16222388523054
1.16222388523091
1.16222388523103
1.16222388523104
1.16222388523101
1.16222388523098
1.16222388523095
1.16222388523093
1.16222388523092
1.16222388523092
1.16222388523092
1.16222388523094
1.16222388523097
1.162223885231
1.16222388523102
1.16222388523101
1.16222388523088
1.16222388523046
1.16222388522944
1.16222388522717
1.16222388522238
1.16222388521267
1.16222388519348
1.16222388515627
1.16222388508455
1.16222388494522
1.16222388466797
1.16222388409585
1.16222388286926
1.16222388017161
1.16222387422573
1.16222386143724
1.16222383542645
1.16222378498015
1.16222388058162
1.16222389841797
1.16222390785581
1.16222391265159
1.16222391495039
1.16222391601578
1.16222391650313
1.16222391672789
1.16222391683418
1.16222391688606
1.16222391691209
1.16222391692534
1.16222391693208
1.16222391693546
1.16222391693711
1.16222391693788
1.16222391693822
1.16222391693835
1.16222391693839
1.16222391693839
1.16222391693837
1.16222391693836
1.16222391693835
1.16222391693835
1.16222391693834
1.16222391693834
1.16222391693835
1.16222391693836
1.16222391693837
1.16222391693839
1.1622239169384
1.1622239169384
1.16222391693836
1.16222391693822
1.16222391693785
1.16222391693702
1.16222391693527
1.16222391693171
1.16222391692469
1.16222391691109
1.16222391688491
1.16222391683396
1.16222391673202
1.16222391651951
1.16222391605759
1.16222391502558
1.16222391271362
1.16222390766043
1.16222389722091
1.1622238766589
1.16222389806979
1.16222390507471
1.16222390874472
1.1622239105901
1.16222391146477
1.1622239118652
1.16222391204593
1.1622239121281
1.16222391216643
1.16222391218492
1.16222391219412
1.16222391219877
1.16222391220112
1.16222391220229
1.16222391220286
1.16222391220312
1.16222391220323
1.16222391220326
1.16222391220327
1.16222391220327
1.16222391220326
1.16222391220326
1.16222391220325
1.16222391220325
1.16222391220325
1.16222391220325
1.16222391220326
1.16222391220326
1.16222391220327
1.16222391220328
1.16222391220329
1.1622239122033
1.16222391220329
1.16222391220325
1.16222391220314
1.16222391220286
1.16222391220225
1.162223912201
1.16222391219851
1.1622239121937
1.16222391218441
1.16222391216628
1.16222391212976
1.16222391205283
1.16222391188328
1.16222391149859
1.16222391062312
1.16222390867994
1.16222390460527
1.16222389646193
1.16222388828732
1.16222389096455
1.16222389235457
1.16222389304671
1.16222389337134
1.16222389351822
1.16222389358363
1.16222389361293
1.16222389362638
1.16222389363277
1.1622238936359
1.16222389363746
1.16222389363823
1.16222389363861
1.16222389363878
1.16222389363885
1.16222389363887
1.16222389363888
1.16222389363888
1.16222389363887
1.16222389363887
1.16222389363887
1.16222389363887
1.16222389363887
1.16222389363887
1.16222389363887
1.16222389363887
1.16222389363888
1.16222389363889
1.16222389363889
1.1622238936389
1.16222389363891
1.16222389363892
1.16222389363892
1.16222389363889
1.16222389363881
1.16222389363863
1.16222389363822
1.1622238936374
1.16222389363577
1.16222389363259
1.16222389362634
1.16222389361362
1.16222389358649
1.16222389352581
1.16222389338598
1.16222389306279
1.16222389233472
1.16222389078601
1.16222388764765
1.16222386799511
1.16222386899225
1.16222386950557
1.16222386975879
1.16222386987635
1.16222386992893
1.16222386995202
1.16222386996217
1.16222386996674
1.16222386996885
1.16222386996985
1.16222386997032
1.16222386997054
1.16222386997063
1.16222386997067
1.16222386997067
1.16222386997067
1.16222386997066
1.16222386997065
1.16222386997065
1.16222386997064
1.16222386997064
1.16222386997064
1.16222386997064
1.16222386997065
1.16222386997065
1.16222386997065
1.16222386997066
1.16222386997066
1.16222386997067
1.16222386997068
1.16222386997069
1.1622238699707
1.16222386997072
1.16222386997072
1.16222386997072
1.16222386997068
1.16222386997058
1.16222386997034
1.16222386996984
1.16222386996882
1.16222386996677
1.1622238699625
1.16222386995321
1.16222386993206
1.16222386988249
1.16222386976614
1.16222386950013
1.1622238689263
1.1622238677477
1.16222384375679
1.16222384411915
1.16222384430407
1.16222384439441
1.16222384443592
1.16222384445424
1.16222384446215
1.16222384446554
1.162223844467
1.16222384446764
1.16222384446791
1.16222384446802
1.16222384446805
1.16222384446805
1.16222384446803
1.16222384446802
1.162223844468
1.16222384446799
1.16222384446798
1.16222384446798
1.16222384446798
1.16222384446797
1.16222384446797
1.16222384446798
1.16222384446798
1.16222384446798
1.16222384446798
1.16222384446799
1.162223844468
1.162223844468
1.16222384446801
1.16222384446802
1.16222384446804
1.16222384446805
1.16222384446807
1.16222384446809
1.16222384446811
1.16222384446811
1.16222384446807
1.16222384446796
1.16222384446768
1.16222384446707
1.16222384446573
1.16222384446268
1.16222384445553
1.16222384443844
1.16222384439762
1.16222384430287
1.16222384409548
1.16222384366363
1.16222381807301
1.16222381820162
1.16222381826655
1.16222381829789
1.1622238183121
1.16222381831827
1.16222381832087
1.16222381832192
1.16222381832233
1.16222381832248
1.16222381832251
1.1622238183225
1.16222381832247
1.16222381832244
1.16222381832241
1.16222381832239
1.16222381832237
1.16222381832236
1.16222381832235
1.16222381832234
1.16222381832234
1.16222381832234
1.16222381832234
1.16222381832234
1.16222381832234
1.16222381832235
1.16222381832235
1.16222381832235
1.16222381832236
1.16222381832237
1.16222381832238
1.16222381832239
1.1622238183224
1.16222381832242
1.16222381832244
1.16222381832247
1.1622238183225
1.16222381832254
1.16222381832257
1.16222381832258
1.16222381832255
1.16222381832242
1.16222381832205
1.16222381832113
1.16222381831883
1.16222381831314
1.16222381829925
1.16222381826643
1.16222381819337
1.16222381803884
1.16222379187206
1.16222379191666
1.16222379193878
1.16222379194923
1.16222379195388
1.16222379195584
1.16222379195662
1.16222379195689
1.16222379195696
1.16222379195695
1.16222379195691
1.16222379195687
1.16222379195682
1.16222379195679
1.16222379195676
1.16222379195673
1.16222379195672
1.1622237919567
1.16222379195669
1.16222379195669
1.16222379195669
1.16222379195668
1.16222379195668
1.16222379195669
1.16222379195669
1.16222379195669
1.16222379195669
1.1622237919567
1.1622237919567
1.16222379195671
1.16222379195672
1.16222379195673
1.16222379195675
1.16222379195676
1.16222379195679
1.16222379195682
1.16222379195685
1.16222379195689
1.16222379195694
1.16222379195699
1.16222379195703
1.16222379195705
1.162223791957
1.16222379195677
1.1622237919561
1.16222379195432
1.16222379194982
1.16222379193887
1.16222379191388
1.16222379185985
1.16222376549016
1.16222376550526
1.16222376551245
1.16222376551568
1.16222376551705
1.16222376551759
1.16222376551777
1.1622237655178
1.16222376551777
1.16222376551772
1.16222376551767
1.16222376551762
1.16222376551757
1.16222376551754
1.16222376551751
1.16222376551748
1.16222376551747
1.16222376551746
1.16222376551745
1.16222376551744
1.16222376551744
1.16222376551744
1.16222376551744
1.16222376551744
1.16222376551744
1.16222376551744
1.16222376551745
1.16222376551745
1.16222376551746
1.16222376551746
1.16222376551747
1.16222376551748
1.1622237655175
1.16222376551752
1.16222376551754
1.16222376551756
1.1622237655176
1.16222376551764
1.16222376551769
1.16222376551774
1.1622237655178
1.16222376551786
1.1622237655179
1.16222376551789
1.16222376551775
1.16222376551727
1.16222376551595
1.16222376551255
1.16222376550437
1.16222376548593
1.1622237390463
1.16222373905126
1.16222373905336
1.16222373905416
1.16222373905443
1.16222373905452
1.16222373905451
1.16222373905448
1.16222373905442
1.16222373905437
1.16222373905432
1.16222373905427
1.16222373905423
1.1622237390542
1.16222373905417
1.16222373905415
1.16222373905414
1.16222373905413
1.16222373905412
1.16222373905411
1.16222373905411
1.16222373905411
1.16222373905411
1.16222373905411
1.16222373905411
1.16222373905411
1.16222373905412
1.16222373905412
1.16222373905413
1.16222373905413
1.16222373905414
1.16222373905415
1.16222373905417
1.16222373905418
1.1622237390542
1.16222373905423
1.16222373905426
1.1622237390543
1.16222373905434
1.16222373905439
1.16222373905445
1.16222373905451
1.16222373905457
1.16222373905462
1.16222373905463
1.16222373905456
1.16222373905429
1.16222373905344
1.16222373905101
1.16222373904489
1.16222371258163
1.16222371258319
1.1622237125836
1.16222371258359
1.16222371258353
1.16222371258347
1.16222371258343
1.16222371258338
1.16222371258333
1.16222371258328
1.16222371258324
1.1622237125832
1.16222371258317
1.16222371258314
1.16222371258312
1.1622237125831
1.16222371258309
1.16222371258308
1.16222371258307
1.16222371258306
1.16222371258306
1.16222371258306
1.16222371258306
1.16222371258306
1.16222371258306
1.16222371258307
1.16222371258307
1.16222371258307
1.16222371258308
1.16222371258308
1.16222371258309
1.1622237125831
1.16222371258311
1.16222371258313
1.16222371258315
1.16222371258317
1.1622237125832
1.16222371258323
1.16222371258327
1.16222371258331
1.16222371258336
1.16222371258341
1.16222371258347
1.16222371258352
1.16222371258357
1.16222371258362
1.16222371258368
1.16222371258366
1.16222371258315
1.1622237125812
1.16222368611013
1.16222368611057
1.16222368611043
1.16222368611018
1.16222368611001
1.16222368610993
1.16222368610988
1.16222368610984
1.1622236861098
1.16222368610977
1.16222368610973
1.1622236861097
1.16222368610968
1.16222368610965
1.16222368610963
1.16222368610962
1.16222368610961
1.1622236861096
1.16222368610959
1.16222368610959
1.16222368610959
1.16222368610959
1.16222368610959
1.16222368610959
1.16222368610959
1.16222368610959
1.1622236861096
1.1622236861096
1.1622236861096
1.16222368610961
1.16222368610962
1.16222368610963
1.16222368610964
1.16222368610965
1.16222368610967
1.16222368610969
1.16222368610971
1.16222368610974
1.16222368610977
1.1622236861098
1.16222368610984
1.16222368610989
1.16222368610993
1.16222368610997
1.16222368611002
1.16222368611009
1.16222368611024
1.16222368611048
1.16222368611059
1.16222368611002
1.16222365963641
1.1622236596365
1.16222365963619
1.16222365963587
1.16222365963569
1.16222365963561
1.16222365963558
1.16222365963555
1.16222365963553
1.1622236596355
1.16222365963548
1.16222365963546
1.16222365963544
1.16222365963542
1.1622236596354
1.16222365963539
1.16222365963538
1.16222365963538
1.16222365963537
1.16222365963537
1.16222365963537
1.16222365963537
1.16222365963537
1.16222365963537
1.16222365963537
1.16222365963537
1.16222365963537
1.16222365963538
1.16222365963538
1.16222365963539
1.16222365963539
1.1622236596354
1.16222365963541
1.16222365963542
1.16222365963544
1.16222365963545
1.16222365963547
1.16222365963549
1.16222365963552
1.16222365963555
1.16222365963558
1.16222365963561
1.16222365963563
1.16222365963566
1.16222365963569
1.16222365963576
1.16222365963593
1.16222365963623
1.16222365963653
1.16222365963641
1.16222363316199
1.16222363316197
1.16222363316162
1.1622236331613
1.16222363316113
1.16222363316106
1.16222363316104
1.16222363316104
1.16222363316103
1.16222363316101
1.162223633161
1.16222363316098
1.16222363316097
1.16222363316096
1.16222363316095
1.16222363316094
1.16222363316093
1.16222363316093
1.16222363316092
1.16222363316092
1.16222363316092
1.16222363316092
1.16222363316092
1.16222363316092
1.16222363316092
1.16222363316092
1.16222363316093
1.16222363316093
1.16222363316093
1.16222363316094
1.16222363316094
1.16222363316095
1.16222363316096
1.16222363316097
1.16222363316098
1.16222363316099
1.16222363316101
1.16222363316103
1.16222363316104
1.16222363316106
1.16222363316108
1.1622236331611
1.16222363316111
1.16222363316112
1.16222363316114
1.1622236331612
1.16222363316135
1.16222363316166
1.16222363316201
1.16222363316203
1.16222360668735
1.16222360668731
1.16222360668695
1.16222360668665
1.16222360668649
1.16222360668645
1.16222360668645
1.16222360668645
1.16222360668646
1.16222360668646
1.16222360668645
1.16222360668645
1.16222360668644
1.16222360668643
1.16222360668642
1.16222360668642
1.16222360668641
1.16222360668641
1.16222360668641
1.1622236066864
1.1622236066864
1.1622236066864
1.1622236066864
1.16222360668641
1.16222360668641
1.16222360668641
1.16222360668641
1.16222360668641
1.16222360668642
1.16222360668642
1.16222360668643
1.16222360668643
1.16222360668644
1.16222360668645
1.16222360668646
1.16222360668647
1.16222360668648
1.16222360668649
1.1622236066865
1.16222360668651
1.16222360668652
1.16222360668653
1.16222360668653
1.16222360668652
1.16222360668652
1.16222360668656
1.1622236066867
1.16222360668699
1.16222360668735
1.1622236066874
1.16222358021264
1.1622235802126
1.16222358021226
1.16222358021198
1.16222358021185
1.16222358021182
1.16222358021183
1.16222358021186
1.16222358021187
1.16222358021188
1.16222358021189
1.16222358021189
1.16222358021189
1.16222358021188
1.16222358021188
1.16222358021188
1.16222358021187
1.16222358021187
1.16222358021187
1.16222358021187
1.16222358021187
1.16222358021187
1.16222358021187
1.16222358021187
1.16222358021187
1.16222358021188
1.16222358021188
1.16222358021188
1.16222358021188
1.16222358021189
1.16222358021189
1.1622235802119
1.1622235802119
1.16222358021191
1.16222358021191
1.16222358021192