/*--------------------------------*- C++ -*----------------------------------*\
  =========                 |
  \\      /  F ield         | OpenFOAM: The Open Source CFD Toolbox
   \\    /   O peration     | Website:  https://openfoam.org
    \\  /    A nd           | Version:  10
     \\/     M anipulation  |
\*---------------------------------------------------------------------------*/
FoamFile
{
    format      ascii;
    class       volScalarField;
    location    "9";
    object      T;
}
// * * * * * * * * * * * * * * * * * * * * * * * * * * * * * * * * * * * * * //

dimensions      [0 0 0 1 0 0 0];

internalField   nonuniform List<scalar> 
2500
(
304.20068119561
304.199157368597
304.191114012656
304.184286195014
304.179552529801
304.176504179828
304.174609433106
304.173459682667
304.172779862391
304.172390739652
304.172174086493
304.172058004369
304.171997998559
304.171967536916
304.171952438463
304.171944838924
304.171941330536
304.171939380826
304.1719381017
304.171937361489
304.171936838869
304.171936439688
304.171936134231
304.171935948758
304.171935769587
304.171935637624
304.171935602265
304.171935620577
304.171935708429
304.171935888393
304.171936208686
304.171936837252
304.171937841427
304.171939728832
304.171943478442
304.17195113178
304.171966760436
304.171998042653
304.172060166362
304.172178276518
304.172396547457
304.172787257352
304.173465263882
304.174608865968
304.176494964829
304.179533263819
304.184273018959
304.19113862937
304.199209691025
304.200602069295
303.512034461111
303.496558125299
303.472760314095
303.453325699721
303.439755440532
303.430883796397
303.425268137043
303.421794851211
303.419699500533
303.418472175704
303.417775853547
303.4173944117
303.417192769493
303.417089646478
303.417038604428
303.417014016396
303.417002608522
303.416997278203
303.416994695064
303.416993440939
303.416992763881
303.416992344917
303.416992062016
303.416991881451
303.416991731827
303.416991622068
303.416991578904
303.416991587511
303.416991671143
303.416991900671
303.416992436337
303.416993653494
303.416996268163
303.417001948841
303.417014173009
303.417040025868
303.41709331631
303.417199887299
303.417406619763
303.417793788824
303.418495189238
303.419724825885
303.421814901827
303.425271741108
303.430861725796
303.439713928308
303.453316113897
303.472877550119
303.496790414395
303.511630912999
302.781689298308
302.750710524497
302.71492305254
302.686894642769
302.66756158802
302.654994587889
302.647066303768
302.642171657314
302.639220170217
302.637489699049
302.636506560422
302.635966736887
302.635680569134
302.635534022962
302.635461493822
302.63542673585
302.635410641913
302.6354033245
302.635400000252
302.63539849138
302.635397765502
302.635397371558
302.635397130688
302.635396979407
302.635396864979
302.635396781449
302.635396741401
302.635396741274
302.635396814675
302.63539706115
302.635397698822
302.635399235721
302.635402760591
302.635410635473
302.635427810742
302.63546435705
302.635539857497
302.635690900803
302.635983313348
302.636530330394
302.637519979274
302.639253226481
302.642198547269
302.647073902654
302.654973657085
302.667529975204
302.686939381535
302.715204939447
302.751273843322
302.781558982434
302.087010640554
302.045329644174
302.004568062108
301.9739479179
301.95333426217
301.940201564909
301.932067292583
301.927128033043
301.924192557266
301.922492844903
301.921537701509
301.921018230599
301.920745174631
301.920606467388
301.920538359987
301.920506009093
301.920491155023
301.920484505702
301.920481569057
301.920480281279
301.920479694419
301.920479395478
301.920479220992
301.920479112678
301.920479034264
301.920478975777
301.920478941801
301.920478930462
301.920478969366
301.920479151619
301.920479672902
301.920480988393
301.920484117882
301.920491239294
301.920506964796
301.920540784078
301.920611332627
301.920753794568
301.921032123239
301.92155795105
301.922519331383
301.924222656342
301.927154995535
301.932081288498
301.94019879921
301.953344559899
301.974084590315
302.005044830606
302.046285844643
302.087629347727
301.484182629731
301.438910628048
301.39924399673
301.37060318353
301.351820575738
301.34011680685
301.333011658909
301.328773136232
301.326291872689
301.32487311606
301.324084168099
301.323658810635
301.323436857278
301.323324832311
301.32327015053
301.323244335195
301.323232556644
301.323227339556
301.323225079434
301.323224115991
301.323223696854
301.323223495318
301.323223382497
301.323223313899
301.323223265872
301.323223228642
301.323223202801
301.323223188744
301.323223198501
301.323223309126
301.323223678957
301.323224656376
301.323227055987
301.323232595879
301.32324494181
301.323271712715
301.323327992408
301.323442517679
301.323668055084
301.324097914413
301.324891600316
301.326313735283
301.328794382385
301.333026849327
301.340128139512
301.35186592707
301.37080885292
301.399857199681
301.440177334064
301.485605684324
301.001623199183
300.959166186948
300.92484896798
300.900964883139
300.885711387253
300.876420452041
300.870894376719
300.867656090933
300.865788297982
300.864733027411
300.864151784938
300.863840770825
300.863679452319
300.863598428798
300.863559046482
300.863540532432
300.863532125181
300.863528431567
300.863526856254
300.863526202473
300.863525931492
300.863525809696
300.863525744856
300.863525706697
300.863525680968
300.863525659655
300.863525641631
300.863525627419
300.863525622871
300.863525679702
300.863525911125
300.863526566182
300.863528226718
300.863532110325
300.8635408284
300.863559855956
300.863600100662
300.863682497819
300.863845834182
300.864159483038
300.864743671167
300.865801354349
300.867669622455
300.870906290139
300.876436695968
300.885771614641
300.901193399513
300.92550035231
300.960564280729
301.003598673034
300.642463472318
300.606917191503
300.579953403592
300.561813247724
300.550526441281
300.543805934468
300.539889425179
300.537634427938
300.536352383369
300.535636185185
300.535245096633
300.535037184345
300.534929861507
300.5348761528
300.534850123134
300.534837921352
300.534832400485
300.534829991462
300.534828978409
300.53482856927
300.534828408874
300.534828343214
300.534828310836
300.534828292807
300.53482828145
300.534828270753
300.534828259125
300.534828246923
300.534828237731
300.534828260295
300.534828389982
300.534828793435
300.534829851924
300.534832359408
300.534838023224
300.534850449188
300.534876854543
300.534931174062
300.535039422396
300.535248593207
300.535641164132
300.536358676516
300.53764121403
300.539896359139
300.543819905235
300.550583115198
300.562022394051
300.580551048138
300.608254833467
300.644619929285
300.392377879552
300.365280119376
300.345773509865
300.333055016335
300.325339434765
300.320846844314
300.318280887266
300.316828871315
300.316014813413
300.315564885184
300.31532111843
300.31519224659
300.315125978216
300.315092900801
300.315076900195
300.315069413642
300.315066035697
300.315064570665
300.315063962909
300.315063724378
300.315063637058
300.315063606228
300.315063592956
300.315063586397
300.315063583119
300.315063578745
300.315063571784
300.315063562535
300.31506355429
300.31506355917
300.315063623668
300.31506385414
300.315064483112
300.315065993332
300.315069423866
300.315076981739
300.315093098885
300.315126372163
300.315192953889
300.315322275771
300.315566594611
300.316016995569
300.316831144281
300.318283441335
300.320855545829
300.325382550123
300.333220497426
300.34626016654
300.366418401153
300.394386780753
300.228626500166
300.209568718119
300.196447192337
300.188136226719
300.183215851827
300.180412663626
300.178842973044
300.17796972378
300.177486773415
300.177222554933
300.177080431728
300.177005656678
300.176967321552
300.176948220416
300.176938990448
300.17693467657
300.17693273443
300.176931896874
300.176931554093
300.17693142349
300.176931380037
300.176931368462
300.176931364411
300.17693136313
300.176931363829
300.176931362868
300.176931359002
300.17693135262
300.176931345705
300.176931344081
300.176931373293
300.176931495613
300.176931846884
300.176932702731
300.176934657544
300.176938978664
300.176948216364
300.176967334858
300.177005710388
300.177080556803
300.177222764209
300.1774869752
300.177969645383
300.178842742341
300.180416350053
300.183243527912
300.188252420694
300.196805333895
300.210445732589
300.230286431566
300.127351326262
300.114867530852
300.106598023116
300.101499090317
300.09855000934
300.09690512847
300.09600173781
300.095507522208
300.095237823792
300.095091714717
300.09501364634
300.094972744119
300.09495182348
300.094941410507
300.094936380851
300.094934031302
300.09493297541
300.09493252255
300.094932339748
300.094932272161
300.094932252392
300.09493225008
300.094932250727
300.094932251715
300.094932252941
300.094932252942
300.094932250998
300.09493224699
300.094932241849
300.094932238756
300.094932250405
300.094932311271
300.09493249685
300.09493295619
300.09493401125
300.094936349595
300.0949413563
300.094951734056
300.09497260914
300.095013454349
300.095091435316
300.095237346473
300.095506587353
300.096000266027
300.096905484049
300.098565112788
300.101572632233
300.106839332302
300.115487382918
300.128595429977
300.067956842817
300.060284222287
300.055371451271
300.052416885764
300.050745706068
300.049832532319
300.049340435681
300.049075642648
300.048933033381
300.048856508328
300.048815875796
300.048794665409
300.048783835815
300.048778448158
300.048775845478
300.048774629725
300.048774084187
300.048773851504
300.048773758948
300.048773726347
300.048773718697
300.048773719296
300.048773720803
300.04877372233
300.048773723462
300.048773723696
300.048773722777
300.048773720327
300.048773716884
300.048773714189
300.048773717987
300.048773746533
300.048773839816
300.048774074537
300.048774616807
300.048775821041
300.048778401292
300.048783752914
300.048794531059
300.048815669608
300.048856189967
300.048932495049
300.049074642766
300.049338752124
300.049831299277
300.05075252158
300.052459234997
300.055521768821
300.060690150676
300.068815171728
300.034809997609
300.030359266783
300.027593970721
300.025969011833
300.025069185369
300.024587157581
300.024332178592
300.024197201465
300.024125450045
300.024087306478
300.024067174005
300.024056698938
300.024051357425
300.024048700057
300.024047415587
300.024046815404
300.024046546443
300.024046432382
300.024046387739
300.024046373144
300.024046370685
300.024046371667
300.024046373058
300.024046374336
300.024046375168
300.024046375445
300.024046375023
300.024046373592
300.024046371471
300.024046369622
300.024046370459
300.024046383123
300.024046427871
300.024046542585
300.024046809187
300.024047402079
300.024048672347
300.024051306417
300.024056613435
300.024067037585
300.024087085141
300.024125055882
300.024196434584
300.024330778199
300.024585533159
300.025071437864
300.025991300646
300.027681195728
300.030607553129
300.035360885286
300.017150678538
300.014701925176
300.01322072527
300.012368884712
300.011906584076
300.011663627323
300.011537421422
300.011471684453
300.01143719125
300.011419023452
300.011409489328
300.011404543107
300.011402023098
300.011400768888
300.011400162072
300.01139987836
300.011399751375
300.011399697851
300.011399677291
300.011399671193
300.011399670649
300.011399671416
300.011399672404
300.01139967327
300.011399673807
300.011399674026
300.011399673834
300.01139967304
300.011399671821
300.011399670645
300.01139967059
300.011399675983
300.011399696549
300.011399750383
300.011399876244
300.011400156396
300.011400756147
300.011401998574
300.011404500687
300.01140941894
300.011418901781
300.011436955748
300.011471188094
300.011536435459
300.011662211948
300.011906773525
300.012379603063
300.013268155784
300.014844691713
300.017482243477
300.008143274157
300.006860049436
300.006102210924
300.005675012549
300.005447552699
300.005330194069
300.00527030145
300.005239600718
300.005223699418
300.005215401008
300.005211070452
300.005208829716
300.005207688698
300.005207120372
300.005206845051
300.005206716219
300.005206658624
300.005206634508
300.005206625478
300.005206623056
300.005206623048
300.005206623577
300.005206624188
300.005206624708
300.005206625024
300.005206625164
300.005206625078
300.005206624659
300.005206624002
300.005206623317
300.005206623103
300.005206625304
300.005206634403
300.005206658748
300.005206715998
300.005206843479
300.005207115999
300.005207679571
300.005208813176
300.00521104133
300.005215345323
300.005223577168
300.005239314188
300.005269681289
300.005329173226
300.005447055733
300.005679688846
300.006126494804
300.006937643847
300.008331611692
300.003732968345
300.003090164464
300.002718577787
300.002512966363
300.002405447088
300.002350943648
300.002323604258
300.00230981044
300.002302758226
300.002299111719
300.002297219197
300.002296242315
300.002295744979
300.00229549699
300.002295376666
300.002295320305
300.002295295137
300.002295284672
300.002295280866
300.002295279954
300.002295280056
300.002295280377
300.002295280721
300.002295281007
300.002295281179
300.002295281258
300.002295281219
300.00229528101
300.002295280673
300.002295280306
300.002295280132
300.002295280996
300.002295284889
300.002295295532
300.002295320698
300.002295376733
300.002295496276
300.002295742898
300.002296238007
300.002297210396
300.002299090841
300.00230270181
300.002309658874
300.002323246213
300.002350291256
300.002404881435
300.002514781074
300.00273032787
300.003130211282
300.003834461268
300.001655024364
300.001346241513
300.001171125773
300.001075881481
300.00102691571
300.001002510267
300.000990471813
300.000984492213
300.00098147458
300.000979928645
300.000979130652
300.000978719656
300.000978510403
300.000978405917
300.000978355129
300.00097833131
300.000978320685
300.000978316299
300.000978314755
300.000978314431
300.000978314518
300.000978314694
300.000978314873
300.00097831502
300.000978315107
300.000978315149
300.000978315131
300.000978315031
300.000978314868
300.000978314683
300.000978314578
300.000978314906
300.000978316522
300.000978321033
300.000978331753
300.00097835561
300.000978406375
300.000978510787
300.00097871985
300.000979129826
300.000979923005
300.000981451325
300.000984417538
300.00099027894
300.001002129014
300.001026484936
300.001076475885
300.001176514137
300.001365945858
300.001707140161
300.000710830097
300.000568187217
300.000488664396
300.0004460953
300.00042455714
300.000413993912
300.00040886732
300.000406359836
300.000405110758
300.00040447679
300.0004041513
300.000403984003
300.0004038988
300.000403856184
300.000403835427
300.000403825678
300.000403821334
300.000403819553
300.000403818946
300.000403818837
300.000403818891
300.000403818981
300.000403819068
300.000403819139
300.000403819181
300.000403819201
300.000403819193
300.000403819147
300.000403819071
300.000403818984
300.000403818929
300.00040381905
300.000403819704
300.000403821563
300.000403826
300.000403835863
300.000403856784
300.000403899662
300.000403985233
300.000404152668
300.000404476525
300.000405102293
300.000406325175
300.000408769293
300.000413786466
300.000424282033
300.000446232032
300.000491010907
300.00057746214
300.000736425749
300.000296220004
300.000232692521
300.000197813843
300.00017941523
300.000170244576
300.000165815349
300.000163699157
300.000162679633
300.000162178303
300.000161926223
300.000161797492
300.00016173145
300.000161697796
300.000161680931
300.000161672697
300.000161668823
300.000161667097
300.000161666394
300.000161666162
300.000161666128
300.000161666155
300.000161666197
300.000161666237
300.000161666269
300.000161666288
300.000161666297
300.000161666294
300.000161666274
300.000161666241
300.000161666201
300.000161666175
300.00016166622
300.000161666479
300.000161667227
300.000161669015
300.000161672983
300.000161681371
300.00016169849
300.000161732522
300.000161798919
300.000161927227
300.00016217569
300.00016266434
300.00016365176
300.000165709013
300.000170087146
300.000179410827
300.000198785241
300.000236881681
300.000308282549
300.00011994616
300.000092607986
300.000077802343
300.000070097214
300.000066309914
300.000064507105
300.000063658632
300.000063255856
300.000063060329
300.000062962931
300.000062913455
300.000062888116
300.000062875193
300.000062868702
300.000062865524
300.000062864025
300.000062863356
300.000062863085
300.000062862997
300.000062862986
300.000062862999
300.000062863017
300.000062863034
300.000062863047
300.000062863055
300.000062863059
300.000062863058
300.000062863049
300.000062863035
300.000062863019
300.000062863008
300.000062863025
300.000062863127
300.000062863421
300.000062864125
300.000062865683
300.000062868961
300.000062875621
300.0000628888
300.000062914423
300.000062963858
300.000063059732
300.00006324939
300.00006363669
300.000064455327
300.00006622675
300.000070065687
300.000078184616
300.000094428411
300.000125416666
300.000047258525
300.00003586756
300.00002977357
300.000026641309
300.000025121577
300.000024408006
300.000024076972
300.000023922068
300.00002384782
300.000023811178
300.000023792661
300.000023783191
300.000023778356
300.000023775919
300.000023774722
300.000023774155
300.000023773901
300.000023773798
300.000023773764
300.000023773759
300.000023773764
300.000023773771
300.000023773777
300.000023773782
300.000023773785
300.000023773787
300.000023773786
300.000023773783
300.000023773777
300.000023773771
300.000023773768
300.000023773775
300.000023773815
300.000023773929
300.000023774201
300.0000237748
300.000023776052
300.000023778582
300.000023783563
300.000023793205
300.000023811764
300.00002384779
300.000023919428
300.000024067194
300.000024383905
300.000025080345
300.000026615234
300.000029916368
300.000036630483
300.000049652007
300.000018140919
300.000013536877
300.000011100677
300.000009862688
300.00000926922
300.000008994126
300.000008868242
300.000008810148
300.000008782646
300.000008769198
300.000008762435
300.00000875898
300.000008757212
300.000008756318
300.000008755875
300.000008755664
300.000008755568
300.000008755528
300.000008755514
300.000008755511
300.000008755511
300.000008755513
300.000008755515
300.000008755516
300.000008755517
300.000008755518
300.000008755517
300.000008755516
300.000008755515
300.000008755513
300.000008755512
300.000008755516
300.000008755533
300.000008755577
300.000008755682
300.000008755908
300.000008756378
300.000008757319
300.00000875916
300.000008762706
300.000008769509
300.000008782715
300.000008809096
300.000008864028
300.000008983349
300.000009249831
300.000009846695
300.000011151131
300.000013845888
300.000019153495
300.000006792926
300.00000498476
300.000004037397
300.000003560994
300.000003335143
300.000003231703
300.000003184977
300.000003163697
300.000003153743
300.000003148918
300.000003146502
300.000003145268
300.000003144634
300.00000314431
300.000003144148
300.000003144069
300.000003144032
300.000003144015
300.000003144008
300.000003144005
300.000003144004
300.000003144003
300.000003144003
300.000003144003
300.000003144003
300.000003144003
300.000003144003
300.000003144003
300.000003144003
300.000003144003
300.000003144003
300.000003144006
300.000003144014
300.000003144032
300.000003144073
300.000003144158
300.000003144333
300.000003144677
300.000003145346
300.000003146623
300.000003149064
300.000003153796
300.000003163284
300.000003183212
300.000003227054
300.000003326432
300.000003552488
300.000004054138
300.000005105955
300.000007207975
300.000002484195
300.000001793122
300.000001434291
300.000001255579
300.000001171722
300.000001133741
300.00000111679
300.000001109165
300.000001105637
300.000001103941
300.000001103093
300.000001102658
300.000001102433
300.000001102315
300.000001102255
300.000001102224
300.000001102208
300.0000011022
300.000001102195
300.000001102192
300.00000110219
300.000001102189
300.000001102188
300.000001102187
300.000001102187
300.000001102187
300.000001102187
300.000001102187
300.000001102187
300.000001102188
300.000001102189
300.000001102192
300.000001102196
300.000001102205
300.000001102222
300.000001102255
300.00000110232
300.000001102446
300.000001102686
300.00000110314
300.000001104
300.000001105662
300.000001109
300.000001116067
300.000001131798
300.000001167962
300.000001251447
300.000001439435
300.000001839228
300.000002649332
300.000000888308
300.000000630913
300.000000498386
300.000000432981
300.000000402581
300.000000388952
300.000000382935
300.000000380257
300.00000037903
300.000000378441
300.000000378147
300.000000377994
300.000000377912
300.000000377868
300.000000377843
300.00000037783
300.000000377821
300.000000377816
300.000000377812
300.000000377809
300.000000377807
300.000000377805
300.000000377804
300.000000377803
300.000000377803
300.000000377802
300.000000377802
300.000000377803
300.000000377803
300.000000377804
300.000000377806
300.000000377808
300.000000377811
300.000000377816
300.000000377825
300.000000377839
300.000000377865
300.000000377913
300.000000378
300.00000037816
300.00000037846
300.000000379035
300.000000380188
300.000000382642
300.00000038816
300.000000401014
300.000000431102
300.000000499808
300.000000647954
300.00000095219
300.000000311018
300.000000217479
300.000000169724
300.000000146371
300.000000135613
300.000000130833
300.000000128741
300.000000127816
300.000000127394
300.000000127191
300.000000127087
300.000000127031
300.000000126999
300.00000012698
300.000000126968
300.00000012696
300.000000126954
300.00000012695
300.000000126947
300.000000126944
300.000000126941
300.00000012694
300.000000126938
300.000000126937
300.000000126936
300.000000126936
300.000000126936
300.000000126937
300.000000126937
300.000000126939
300.00000012694
300.000000126942
300.000000126945
300.000000126949
300.000000126954
300.000000126962
300.000000126974
300.000000126994
300.000000127027
300.000000127086
300.000000127192
300.00000012739
300.000000127783
300.00000012862
300.000000130516
300.000000134978
300.00000014556
300.000000170053
300.000000223606
300.000000335082
300.000000106843
300.000000073643
300.000000056866
300.000000048749
300.000000045044
300.000000043408
300.000000042695
300.000000042379
300.000000042233
300.00000004216
300.000000042121
300.000000042098
300.000000042083
300.000000042072
300.000000042065
300.000000042059
300.000000042054
300.00000004205
300.000000042047
300.000000042044
300.000000042042
300.00000004204
300.000000042038
300.000000042037
300.000000042036
300.000000042036
300.000000042036
300.000000042037
300.000000042037
300.000000042039
300.00000004204
300.000000042042
300.000000042045
300.000000042048
300.000000042053
300.000000042058
300.000000042065
300.000000042075
300.000000042091
300.000000042114
300.000000042154
300.000000042225
300.00000004236
300.000000042642
300.000000043281
300.000000044792
300.000000048414
300.000000056913
300.00000007579
300.000000115681
300.000000036166
300.000000024653
300.000000018932
300.000000016211
300.000000014982
300.00000001444
300.000000014201
300.000000014093
300.000000014039
300.00000001401
300.000000013992
300.000000013979
300.00000001397
300.000000013963
300.000000013956
300.000000013951
300.000000013947
300.000000013943
300.00000001394
300.000000013937
300.000000013935
300.000000013933
300.000000013931
300.00000001393
300.00000001393
300.000000013929
300.000000013929
300.00000001393
300.00000001393
300.000000013932
300.000000013933
300.000000013935
300.000000013938
300.000000013941
300.000000013945
300.00000001395
300.000000013955
300.000000013962
300.000000013971
300.000000013983
300.000000014001
300.000000014029
300.000000014078
300.000000014175
300.000000014386
300.000000014882
300.000000016076
300.000000018924
300.000000025387
300.000000039335
300.000000012199
300.000000008303
300.000000006439
300.000000005588
300.00000000521
300.000000005041
300.000000004962
300.000000004922
300.000000004899
300.000000004884
300.000000004873
300.000000004864
300.000000004857
300.00000000485
300.000000004844
300.000000004839
300.000000004835
300.000000004831
300.000000004828
300.000000004826
300.000000004823
300.000000004821
300.00000000482
300.000000004819
300.000000004818
300.000000004818
300.000000004818
300.000000004818
300.000000004819
300.00000000482
300.000000004822
300.000000004824
300.000000004827
300.00000000483
300.000000004833
300.000000004838
300.000000004843
300.000000004849
300.000000004855
300.000000004864
300.000000004874
300.000000004889
300.00000000491
300.000000004945
300.000000005015
300.000000005169
300.000000005535
300.000000006428
300.000000008549
300.000000013309
300.000000004231
300.000000002952
300.000000002405
300.000000002188
300.000000002097
300.000000002052
300.000000002026
300.000000002008
300.000000001995
300.000000001984
300.000000001975
300.000000001968
300.000000001961
300.000000001955
300.000000001949
300.000000001944
300.00000000194
300.000000001936
300.000000001933
300.000000001931
300.000000001928
300.000000001926
300.000000001925
300.000000001924
300.000000001923
300.000000001923
300.000000001923
300.000000001924
300.000000001924
300.000000001926
300.000000001927
300.000000001929
300.000000001932
300.000000001935
300.000000001938
300.000000001942
300.000000001947
300.000000001953
300.000000001959
300.000000001966
300.000000001975
300.000000001984
300.000000001997
300.000000002013
300.000000002036
300.000000002078
300.000000002167
300.0000000024
300.000000003033
300.000000004611
300.000000001633
300.000000001234
300.000000001128
300.000000001121
300.000000001124
300.00000000112
300.00000000111
300.0000000011
300.000000001089
300.00000000108
300.000000001072
300.000000001064
300.000000001057
300.000000001051
300.000000001046
300.000000001041
300.000000001037
300.000000001034
300.000000001031
300.000000001028
300.000000001026
300.000000001024
300.000000001022
300.000000001021
300.000000001021
300.000000001021
300.000000001021
300.000000001021
300.000000001022
300.000000001023
300.000000001025
300.000000001027
300.000000001029
300.000000001032
300.000000001035
300.00000000104
300.000000001044
300.00000000105
300.000000001056
300.000000001063
300.00000000107
300.000000001079
300.000000001088
300.000000001099
300.000000001108
300.000000001114
300.000000001113
300.000000001127
300.000000001262
300.00000000176
300.000000000803
300.000000000695
300.000000000733
300.000000000794
300.000000000827
300.000000000834
300.00000000083
300.000000000821
300.000000000811
300.000000000802
300.000000000794
300.000000000787
300.00000000078
300.000000000774
300.000000000769
300.000000000764
300.00000000076
300.000000000757
300.000000000754
300.000000000751
300.000000000749
300.000000000747
300.000000000746
300.000000000745
300.000000000744
300.000000000744
300.000000000744
300.000000000744
300.000000000745
300.000000000746
300.000000000748
300.00000000075
300.000000000752
300.000000000755
300.000000000759
300.000000000763
300.000000000767
300.000000000773
300.000000000779
300.000000000785
300.000000000793
300.000000000801
300.00000000081
300.000000000819
300.000000000824
300.000000000819
300.00000000079
300.000000000734
300.000000000705
300.000000000844
300.000000000545
300.000000000531
300.000000000615
300.000000000697
300.000000000738
300.000000000749
300.000000000745
300.000000000736
300.000000000727
300.000000000718
300.00000000071
300.000000000702
300.000000000696
300.00000000069
300.000000000685
300.00000000068
300.000000000676
300.000000000673
300.00000000067
300.000000000667
300.000000000665
300.000000000663
300.000000000662
300.000000000661
300.000000000661
300.00000000066
300.00000000066
300.000000000661
300.000000000661
300.000000000663
300.000000000664
300.000000000666
300.000000000668
300.000000000671
300.000000000675
300.000000000679
300.000000000683
300.000000000688
300.000000000694
300.000000000701
300.000000000709
300.000000000717
300.000000000726
300.000000000735
300.000000000739
300.000000000732
300.000000000695
300.000000000617
300.000000000536
300.000000000558
300.000000000469
300.000000000485
300.000000000583
300.00000000067
300.000000000713
300.000000000723
300.00000000072
300.000000000711
300.000000000701
300.000000000692
300.000000000683
300.000000000676
300.000000000669
300.000000000663
300.000000000658
300.000000000654
300.00000000065
300.000000000647
300.000000000644
300.000000000642
300.000000000639
300.000000000638
300.000000000637
300.000000000636
300.000000000635
300.000000000635
300.000000000635
300.000000000635
300.000000000636
300.000000000637
300.000000000639
300.00000000064
300.000000000643
300.000000000646
300.000000000649
300.000000000653
300.000000000657
300.000000000662
300.000000000668
300.000000000675
300.000000000683
300.000000000691
300.000000000701
300.00000000071
300.000000000715
300.000000000707
300.000000000669
300.000000000586
300.000000000488
300.000000000473
300.000000000451
300.000000000476
300.000000000577
300.000000000664
300.000000000706
300.000000000716
300.000000000711
300.000000000702
300.000000000692
300.000000000682
300.000000000674
300.000000000667
300.00000000066
300.000000000654
300.000000000649
300.000000000645
300.000000000641
300.000000000638
300.000000000635
300.000000000633
300.000000000631
300.00000000063
300.000000000628
300.000000000627
300.000000000627
300.000000000627
300.000000000627
300.000000000627
300.000000000628
300.000000000629
300.00000000063
300.000000000632
300.000000000634
300.000000000637
300.00000000064
300.000000000644
300.000000000648
300.000000000653
300.000000000659
300.000000000666
300.000000000674
300.000000000683
300.000000000692
300.000000000702
300.000000000708
300.000000000701
300.000000000664
300.00000000058
300.000000000479
300.000000000452
300.000000000451
300.00000000048
300.00000000058
300.000000000665
300.000000000706
300.000000000714
300.000000000708
300.000000000698
300.000000000688
300.000000000678
300.00000000067
300.000000000662
300.000000000656
300.00000000065
300.000000000645
300.000000000641
300.000000000638
300.000000000634
300.000000000632
300.00000000063
300.000000000628
300.000000000626
300.000000000625
300.000000000624
300.000000000624
300.000000000624
300.000000000624
300.000000000624
300.000000000625
300.000000000626
300.000000000627
300.000000000629
300.000000000631
300.000000000633
300.000000000637
300.00000000064
300.000000000644
300.000000000649