/*--------------------------------*- C++ -*----------------------------------*\
  =========                 |
  \\      /  F ield         | OpenFOAM: The Open Source CFD Toolbox
   \\    /   O peration     | Website:  https://openfoam.org
    \\  /    A nd           | Version:  10
     \\/     M anipulation  |
\*---------------------------------------------------------------------------*/
FoamFile
{
    format      ascii;
    class       volVectorField;
    location    "9";
    object      U;
}
// * * * * * * * * * * * * * * * * * * * * * * * * * * * * * * * * * * * * * //

dimensions      [0 1 -1 0 0 0 0];

internalField   nonuniform List<vector> 
2500
(
(-1.14698355426037e-06 -1.21304599990797e-06 1.53851269207756e-25)
(-3.14405922762202e-06 -1.70594576291276e-06 1.8360873378095e-24)
(-3.64266150532499e-06 -1.90936680984373e-06 1.85502603088378e-25)
(-3.20653003630332e-06 -2.01575940846025e-06 -1.22203309976458e-25)
(-2.43146475788379e-06 -2.03803884847335e-06 -7.07455371932944e-25)
(-1.73483067119021e-06 -2.02830199170544e-06 -7.46878732940614e-25)
(-1.19717210981125e-06 -2.00969837195858e-06 -3.10090680484206e-25)
(-8.19810211547406e-07 -1.99290189151127e-06 -2.94898185952567e-25)
(-5.60325494605218e-07 -1.97953562546269e-06 -4.40756085267305e-25)
(-3.85227214927019e-07 -1.96976685378412e-06 1.90483799255471e-24)
(-2.6672591369466e-07 -1.96286746286197e-06 1.36472761970381e-24)
(-1.86234676954576e-07 -1.95819322774956e-06 3.18405348521068e-24)
(-1.30837074691643e-07 -1.955119311652e-06 3.23949598282884e-24)
(-9.204902050852e-08 -1.95315406680541e-06 1.08081714224229e-24)
(-6.42890914506606e-08 -1.95192354164213e-06 2.51812060950854e-24)
(-4.39351397474904e-08 -1.95116233072149e-06 6.88850988943154e-25)
(-2.86421519478139e-08 -1.95068859558488e-06 2.47480858126915e-24)
(-1.68809115739814e-08 -1.95039515844301e-06 2.09787867811857e-24)
(-7.63538807335256e-09 -1.95021316047399e-06 4.84209186358426e-25)
(-2.13032038202987e-10 -1.9500924547945e-06 1.70218878926574e-24)
(5.86802187041891e-09 -1.95001526270203e-06 -2.21812747811688e-26)
(1.09547436750572e-08 -1.94996983359949e-06 -2.23727442546948e-25)
(1.53143421550256e-08 -1.94994032661093e-06 2.84569810694002e-24)
(1.91670407711036e-08 -1.9499235974407e-06 2.37294334577394e-25)
(2.26876655347024e-08 -1.94992695167674e-06 -1.45827897163823e-25)
(2.60403802777236e-08 -1.9499332638465e-06 2.71262654733005e-24)
(2.93879801085076e-08 -1.9499491395261e-06 1.07894406332744e-25)
(3.28901215061149e-08 -1.94998090701526e-06 8.55306741256951e-25)
(3.67283798724923e-08 -1.95002437024752e-06 1.93846101308928e-24)
(4.11157494601443e-08 -1.95009469339869e-06 -8.70877639087653e-26)
(4.63149061103288e-08 -1.95018899588054e-06 1.69498503258726e-25)
(5.26799007536287e-08 -1.95032603389698e-06 -1.81452423467494e-25)
(6.06883821413146e-08 -1.95053323825584e-06 6.75092467631428e-25)
(7.10231339133628e-08 -1.95085182033783e-06 6.81290718358984e-25)
(8.47073551499709e-08 -1.95134635254169e-06 -4.2923562420769e-26)
(1.03282119929311e-07 -1.95213629771354e-06 2.11691157621324e-24)
(1.29089392088905e-07 -1.9534020921803e-06 -2.65334269367718e-24)
(1.65762402754079e-07 -1.95538096678263e-06 -2.24395533315291e-25)
(2.1887480404649e-07 -1.95846312653232e-06 2.27449892838276e-26)
(2.96888348179106e-07 -1.96312952188913e-06 -1.33717098889927e-24)
(4.12713936615395e-07 -1.96999351921131e-06 -3.5665216562048e-24)
(5.84960523729117e-07 -1.97970917617121e-06 -3.2224950527094e-24)
(8.41564190578211e-07 -1.99306143586228e-06 -2.06858880257002e-24)
(1.21670486544487e-06 -2.00998943258889e-06 -3.56062628771745e-24)
(1.75433874573288e-06 -2.02905266724621e-06 -4.39229037684073e-24)
(2.4562840985667e-06 -2.03965055767541e-06 -2.16425437213458e-24)
(3.24330995940628e-06 -2.01788965851389e-06 -4.0657730254215e-24)
(3.69195155205859e-06 -1.90973804573037e-06 -3.86280199956685e-24)
(3.17873922332888e-06 -1.70166303029951e-06 -1.67559367425587e-24)
(1.15111871301719e-06 -1.21184691332401e-06 -1.98624711293264e-24)
(-1.68380636088086e-06 -1.17989755757842e-06 -1.00809131548844e-25)
(-5.65759216457118e-06 -2.38689794129028e-06 -1.84756029901531e-25)
(-6.78507139603973e-06 -3.5985888007902e-06 -8.998090152254e-26)
(-6.13082537553802e-06 -4.2524910488142e-06 -4.6251315243905e-25)
(-4.75252473948303e-06 -4.38507033713583e-06 -2.2986633260748e-24)
(-3.45863296804805e-06 -4.28339875922218e-06 -2.24234496650534e-24)
(-2.43340390521952e-06 -4.12991697882282e-06 -8.80602354647452e-25)
(-1.69918099457016e-06 -3.99527776430481e-06 -8.86767039599735e-25)
(-1.18638964924003e-06 -3.89418449041779e-06 -1.9691464172209e-24)
(-8.34681191665191e-07 -3.82306700548236e-06 1.3511567455641e-25)
(-5.92428594702246e-07 -3.77460366258108e-06 2.56515432041213e-24)
(-4.24338924990909e-07 -3.74220495406285e-06 2.56337939749654e-24)
(-3.05787023597825e-07 -3.72079248766283e-06 1.2681677731366e-24)
(-2.20489954650901e-07 -3.70671876705982e-06 1.81947738257361e-24)
(-1.5768791039936e-07 -3.69744873483911e-06 5.50773929762521e-25)
(-1.10326017194758e-07 -3.69127971356075e-06 7.21558434459706e-25)
(-7.37788309609973e-08 -3.68710393938037e-06 1.56388648029314e-24)
(-4.49714171167983e-08 -3.68422239019664e-06 6.2783178090889e-25)
(-2.18103744683941e-08 -3.68219160445355e-06 8.36644577320791e-26)
(-2.84146949977766e-09 -3.68072563892708e-06 -3.55010259920626e-25)
(1.29760002439561e-08 -3.67966306446114e-06 -7.32522069516331e-25)
(2.64285942407114e-08 -3.67889852775549e-06 -1.37630835973159e-24)
(3.81270776773585e-08 -3.6783588567185e-06 8.83595036207909e-25)
(4.85706414502744e-08 -3.67799726908346e-06 -4.79752179253481e-26)
(5.81944885077793e-08 -3.67780665224788e-06 -1.23462817677776e-24)
(6.73957069140248e-08 -3.67775532208724e-06 5.8653330194832e-25)
(7.65500144059712e-08 -3.67785824686764e-06 -4.32480200840624e-25)
(8.60541935743186e-08 -3.6781196414914e-06 1.90041647536137e-24)
(9.63358985008102e-08 -3.6785656103688e-06 1.38041768252738e-24)
(1.07895653230228e-07 -3.67924416434177e-06 -9.31217071525444e-25)
(1.21338975915001e-07 -3.68021492780234e-06 5.09622726241988e-25)
(1.3744241551272e-07 -3.68157978705071e-06 -5.69782241164399e-25)
(1.57246237799717e-07 -3.68352979745199e-06 1.93598025019872e-24)
(1.82192989071113e-07 -3.68633130296031e-06 1.9207793844929e-24)
(2.14376180980873e-07 -3.69042911469425e-06 -7.62928646289888e-25)
(2.56882475934426e-07 -3.69653612465366e-06 4.42877507344127e-25)
(3.14356810407965e-07 -3.70575453677164e-06 -1.01830149443171e-24)
(3.93860559796423e-07 -3.71975836789992e-06 -4.27596697239194e-26)
(5.06140865783777e-07 -3.74107615874341e-06 4.82300517940972e-25)
(6.6748839579801e-07 -3.77335355063603e-06 -2.67155355874217e-24)
(9.02531142417639e-07 -3.82166278265017e-06 -4.06512572275692e-24)
(1.24666129432427e-06 -3.89268034369509e-06 -4.05979970746378e-24)
(1.75187420085003e-06 -3.99403755883523e-06 -4.27167701006808e-24)
(2.47989876547058e-06 -4.13002356286517e-06 -4.19757247294837e-24)
(3.50335829647053e-06 -4.28705908978532e-06 -4.40493367721971e-24)
(4.80588617106975e-06 -4.39462383436497e-06 -4.5242046343286e-24)
(6.20621996097202e-06 -4.26538151447805e-06 -4.14246805786556e-24)
(6.88528947486209e-06 -3.59942959411791e-06 -4.04061598688553e-24)
(5.73507657074273e-06 -2.36167541905282e-06 -3.39320644891858e-24)
(1.69703708260208e-06 -1.15999932173209e-06 -1.78211938146498e-24)
(-1.24264743424416e-06 1.24636610481712e-06 -4.52208874218243e-25)
(-5.53970254089154e-06 -2.55974908096092e-07 -2.48136616878049e-24)
(-6.85895313615997e-06 -2.60737506648718e-06 -4.58994406436131e-25)
(-6.39455423377722e-06 -3.89725713505297e-06 -6.25809989142255e-25)
(-5.09422888798504e-06 -4.17120944648176e-06 -3.11224151237098e-24)
(-3.81176188131032e-06 -3.96478828944757e-06 -3.50872686032567e-24)
(-2.75868167742451e-06 -3.64982320479791e-06 -1.1575227209086e-24)
(-1.98360179690486e-06 -3.37169873189514e-06 -1.21493552337178e-24)
(-1.4279690042292e-06 -3.16341615933126e-06 -3.80965510092562e-24)
(-1.03664025861099e-06 -3.01746872370007e-06 -2.37713584702891e-24)
(-7.59350250053904e-07 -2.9183673850135e-06 3.38289045826221e-24)
(-5.60997431204376e-07 -2.85203684820222e-06 1.25409059594177e-24)
(-4.16601034365741e-07 -2.8078824835816e-06 -1.37962551954546e-24)
(-3.09369392914862e-07 -2.77842587140905e-06 2.3384707256193e-24)
(-2.28002016310802e-07 -2.75860003630574e-06 -1.62870810305114e-24)
(-1.64928581527857e-07 -2.74504625746509e-06 1.44248343555036e-25)
(-1.15048433412417e-07 -2.73560342720668e-06 1.62338352367617e-25)
(-7.48676413597093e-08 -2.72887896742741e-06 -2.14489740357616e-24)
(-4.1942663995285e-08 -2.72399787684102e-06 -6.73216452513896e-25)
(-1.4517224071997e-08 -2.72040115656368e-06 -3.0831349583782e-24)
(8.70737396024787e-09 -2.71773825448112e-06 -1.38836992991713e-24)
(2.87365072936408e-08 -2.71576676436552e-06 -2.74180093379456e-24)
(4.6375510612282e-08 -2.71435873891114e-06 -6.57895577239515e-25)
(6.22934106147841e-08 -2.71340038448782e-06 -4.91230480034506e-25)
(7.70778953450662e-08 -2.7128510130139e-06 -2.64345786818561e-24)
(9.12709522813644e-08 -2.71268494223081e-06 -1.0263333654419e-24)
(1.05398968862222e-07 -2.71290651240095e-06 -1.420596583878e-24)
(1.20003835149465e-07 -2.71352745422328e-06 2.71666165176958e-24)
(1.3566367348856e-07 -2.71461221852848e-06 1.15835302998727e-25)
(1.5304966495248e-07 -2.71624336747955e-06 -2.4647473463653e-24)
(1.72956790094102e-07 -2.71858534836591e-06 1.08833097959674e-24)
(1.96374612739201e-07 -2.72184872245969e-06 -1.26730311045012e-24)
(2.24596482838807e-07 -2.72639881005646e-06 3.08140867012092e-24)
(2.59369775012556e-07 -2.73279562644513e-06 3.01716353995171e-24)
(3.03134279006001e-07 -2.74192903924635e-06 -1.93708175802179e-24)
(3.5939115030362e-07 -2.75518624682899e-06 -7.1109639781223e-25)
(4.33249023072702e-07 -2.77473409189366e-06 1.28969093806921e-25)
(5.32293275080092e-07 -2.80392248478721e-06 3.28395136192155e-25)
(6.67827533849206e-07 -2.84779686434336e-06 1.52862515335806e-24)
(8.56671210985123e-07 -2.91384496207322e-06 -4.20810681434471e-24)
(1.12384259080742e-06 -3.01269033277824e-06 -3.00065659566759e-24)
(1.50463160562859e-06 -3.15859425286616e-06 -3.1054714512828e-24)
(2.0497530120614e-06 -3.36764543639637e-06 -5.52713345608374e-24)
(2.81586079522754e-06 -3.64877116777523e-06 -3.21457307692692e-24)
(3.86475957009492e-06 -3.9711929299201e-06 -3.55222420630671e-24)
(5.15431307055456e-06 -4.18982420808407e-06 -5.89815956806164e-24)
(6.47728961059404e-06 -3.92332818372596e-06 -3.32629427777525e-24)
(6.97114094781906e-06 -2.61091217322294e-06 -3.00101556135373e-24)
(5.6381083214637e-06 -2.07537059871343e-07 -4.9302075212133e-24)
(1.26683352159659e-06 1.29793387419066e-06 -1.24673189563427e-24)
(-6.23778606887173e-07 3.63105576671302e-06 -4.96014942341737e-25)
(-3.99916460894017e-06 2.26197959787574e-06 -2.91218536812035e-24)
(-5.21698565481534e-06 -1.06320501848106e-06 -4.23361319287553e-25)
(-5.12167428659674e-06 -2.95062500369897e-06 -3.17187123963013e-25)
(-4.26977112588891e-06 -3.41378125054382e-06 -1.56019943128819e-24)
(-3.34457560698208e-06 -3.16632941405418e-06 -2.265766618481e-24)
(-2.53180755360189e-06 -2.74276061395303e-06 -8.58069821396201e-25)
(-1.90292687611306e-06 -2.35697576472906e-06 -9.43212549115961e-25)
(-1.43010051600757e-06 -2.06379061686029e-06 -2.64501529834636e-24)
(-1.08168018999334e-06 -1.85599763445313e-06 -2.83604469798927e-24)
(-8.23500511571222e-07 -1.7133861697236e-06 1.89328482667224e-24)
(-6.3063455324384e-07 -1.61669515674812e-06 -7.2392572697038e-25)
(-4.84381413471295e-07 -1.55130758226687e-06 -2.04125867841861e-24)
(-3.7166323463635e-07 -1.50684268059629e-06 9.37880140022913e-25)
(-2.83306081120403e-07 -1.47625793785302e-06 -2.09157000748946e-24)
(-2.12885287048983e-07 -1.45487462731522e-06 -1.49767853719302e-25)
(-1.55871480213988e-07 -1.43962870402398e-06 -1.49337259024564e-24)
(-1.09018096453767e-07 -1.42854747999233e-06 -2.44516250710244e-24)
(-6.99612745045991e-08 -1.42034529796063e-06 -7.5093771046304e-25)
(-3.69302960129122e-08 -1.41421417698986e-06 -3.10638768930175e-24)
(-8.5608262701257e-09 -1.40961061679185e-06 -1.20130111543537e-24)
(1.62215385276851e-08 -1.40617274460056e-06 -1.96351551004474e-24)
(3.8302430631964e-08 -1.4036813277674e-06 -1.71223134147108e-24)
(5.84380470775684e-08 -1.40198843118047e-06 -4.79236923240836e-25)
(7.72916139437367e-08 -1.40100616477684e-06 -1.74450687507518e-24)
(9.54902719012875e-08 -1.40069183856403e-06 -1.9486859811943e-24)
(1.1364072862876e-07 -1.40104209701999e-06 -9.47860088451615e-25)
(1.32363356259739e-07 -1.40210851850127e-06 1.53092242901967e-24)
(1.5231861814163e-07 -1.4039684553828e-06 -1.34235866027891e-24)
(1.74252964358184e-07 -1.40676716153519e-06 -1.57839731032294e-24)
(1.99043170403587e-07 -1.41074015787457e-06 4.00723150802132e-25)
(2.27760867703686e-07 -1.41623572518764e-06 -7.47843324224378e-25)
(2.61749471610289e-07 -1.42378652528649e-06 2.06647470259757e-24)
(3.02765287736701e-07 -1.43422009712266e-06 2.02241376178825e-24)
(3.53171824246142e-07 -1.44883664333706e-06 -1.28516385485785e-24)
(4.16209148725314e-07 -1.46961503889223e-06 -1.62011132546608e-24)
(4.9640621523871e-07 -1.49961101374542e-06 1.59089376459083e-24)
(6.00201550838166e-07 -1.54350181736654e-06 4.11285434937187e-25)
(7.36774516462822e-07 -1.60832796522382e-06 5.37883334644871e-25)
(9.19253033141028e-07 -1.70449093741391e-06 -3.23661675628662e-24)
(1.16639464787496e-06 -1.8466860983283e-06 -7.63643040184445e-25)
(1.50333950035788e-06 -2.05447086651741e-06 -8.15209742405068e-25)
(1.96465866157963e-06 -2.34893359426563e-06 -4.1940036561891e-24)
(2.58325825703483e-06 -2.73936450774275e-06 -8.91042302373468e-25)
(3.38962689238808e-06 -3.17423331455487e-06 -1.6452448450255e-24)
(4.31796833265645e-06 -3.44035596393896e-06 -4.63302484947182e-24)
(5.18771299563777e-06 -2.9902012693105e-06 -1.43327532966391e-24)
(5.31126199173181e-06 -1.07381544635448e-06 -9.54755963954268e-25)
(4.09497900579049e-06 2.32719346355788e-06 -3.99471735752705e-24)
(6.55122489472434e-07 3.71245754629656e-06 2.36496093914537e-26)
(-7.55029841335117e-08 5.41491532663817e-06 -2.09829662924248e-25)
(-2.03775806427243e-06 4.41358382956572e-06 -1.51359417010991e-24)
(-3.01302941044096e-06 4.8390369679629e-07 6.66513837357104e-27)
(-3.2927446203347e-06 -1.85955326977019e-06 1.40528439448606e-25)
(-2.99319481855116e-06 -2.53541634192368e-06 1.15905006973625e-25)
(-2.53676447030255e-06 -2.3294220639148e-06 -1.14407433789971e-24)
(-2.05966665734955e-06 -1.87724877563385e-06 -3.75427649382906e-25)
(-1.64808665506952e-06 -1.44325047180722e-06 -4.33665981683014e-25)
(-1.30898792313098e-06 -1.1043041598207e-06 -1.51839220812826e-24)
(-1.03920740606256e-06 -8.58847810859763e-07 -1.35768035514323e-24)
(-8.25399096098414e-07 -6.87021597238137e-07 1.51848818440599e-24)
(-6.56142170639048e-07 -5.68140035503632e-07 3.28960642412986e-25)
(-5.21306060834956e-07 -4.85989058176397e-07 -7.37903986670937e-25)
(-4.13029171998978e-07 -4.28863406587009e-07 7.63586002949466e-25)
(-3.2526222367392e-07 -3.88666741270514e-07 -9.62801645144235e-25)
(-2.53385874619259e-07 -3.59946662154057e-07 1.81397479198379e-25)
(-1.93893813297509e-07 -3.39048204268255e-07 -1.89220106611977e-25)
(-1.44099505879118e-07 -3.23598813824298e-07 -9.29371445009292e-25)
(-1.01942217226819e-07 -3.11999351588234e-07 -1.16918859542106e-25)
(-6.57999020558706e-08 -3.03219864700033e-07 -1.31257880566366e-24)
(-3.43644547331861e-08 -2.96556755063423e-07 -5.00446662628492e-25)
(-6.58248288249757e-09 -2.91566790312323e-07 -1.00734874584329e-24)
(1.84337405084397e-08 -2.87923362402089e-07 -6.66839673646418e-25)
(4.14632685762126e-08 -2.85444288037514e-07 -5.03527786008576e-26)
(6.32043402380557e-08 -2.84003183074156e-07 -8.11742935586288e-25)
(8.43090743973779e-08 -2.83537353799565e-07 -8.21281081043243e-25)
(1.0540788748854e-07 -2.84058390772462e-07 -4.52682681058947e-25)
(1.27155793528308e-07 -2.85616776107263e-07 1.00137135510198e-24)
(1.50244099067431e-07 -2.88331988297842e-07 -5.54306713284479e-25)
(1.75437103345377e-07 -2.92396193164562e-07 -9.76019163047135e-25)
(2.0361600677431e-07 -2.98118794712361e-07 1.82843274409813e-25)
(2.35828977640944e-07 -3.05953016942672e-07 -6.07506919409756e-25)
(2.73362552653495e-07 -3.16590673884304e-07 1.24773065581181e-24)
(3.17820527218939e-07 -3.31084542080141e-07 1.23296117663872e-24)
(3.71258218054721e-07 -3.51024207013753e-07 -7.89564099818523e-25)
(4.36353044274018e-07 -3.78820350437742e-07 -8.23296957540981e-25)
(5.16596745354568e-07 -4.18096543113057e-07 5.83917045553282e-25)
(6.16606396855083e-07 -4.74321150549594e-07 2.05738563527855e-25)
(7.42437693406435e-07 -5.55586186924442e-07 7.40627475388591e-26)
(9.01991674305998e-07 -6.73663284531712e-07 -3.13289652123917e-24)
(1.10544141170087e-06 -8.44852208577517e-07 -1.09156850915863e-24)
(1.36439328631222e-06 -1.09026409086065e-06 -1.06857787527301e-24)
(1.69242932204372e-06 -1.43085047001712e-06 -3.62668848966879e-24)
(2.09352564180623e-06 -1.87073098059403e-06 -1.1699246783542e-24)
(2.56245971368598e-06 -2.33723537498834e-06 -1.44468356939321e-24)
(3.01728574733777e-06 -2.56741243743134e-06 -4.36305570393805e-24)
(3.32724583317823e-06 -1.91061446908432e-06 -1.29355426790221e-24)
(3.07035647958866e-06 4.62987389748577e-07 -1.05835791121261e-24)
(2.11041603676018e-06 4.48610241038163e-06 -3.888914720269e-24)
(1.0614207294021e-07 5.51860327148908e-06 -3.82812785465544e-25)
(2.98288548651097e-07 6.43244337441739e-06 8.3744867330408e-26)
(-3.05000996372683e-07 5.88432229349291e-06 -9.90744392469081e-25)
(-1.00693512422557e-06 1.75061011656805e-06 4.11988871015419e-25)
(-1.56101033596625e-06 -8.6491526171474e-07 3.59782843866851e-25)
(-1.73824015953819e-06 -1.73637182485378e-06 -3.48078089608803e-25)
(-1.70402515223664e-06 -1.62773900459199e-06 -8.19825541560337e-25)
(-1.54204504286106e-06 -1.21127143375127e-06 1.82049730837997e-26)
(-1.34201449756807e-06 -7.80455929066179e-07 1.36473846598007e-26)
(-1.13873846842562e-06 -4.31178486554815e-07 -8.41491296210937e-25)
(-9.53074848822269e-07 -1.70938074670416e-07 -5.72422817740978e-25)
(-7.90290971406996e-07 1.58748364369486e-08 1.71052958305119e-24)
(-6.51283743400187e-07 1.48330139539727e-07 7.99953303228607e-25)
(-5.33972304084953e-07 2.42095842092877e-07 -8.74803807157631e-26)
(-4.35518859993797e-07 3.08864662623051e-07 1.10024805968462e-24)
(-3.52960448408211e-07 3.56919570242672e-07 -4.5499344219431e-25)
(-2.83541764313771e-07 3.91991857233104e-07 5.91107829247681e-25)
(-2.24877269742045e-07 4.1797707463302e-07 5.52826224697124e-25)
(-1.74942593860826e-07 4.37500663200134e-07 -5.19052812685063e-26)
(-1.32056420544046e-07 4.52331437844552e-07 5.21758045856959e-25)
(-9.4826456062883e-08 4.6367117224387e-07 -4.53253770112647e-25)
(-6.20851005404931e-08 4.72338617302343e-07 1.7078362203959e-25)
(-3.28474395656446e-08 4.78864446572452e-07 -4.06148966706321e-25)
(-6.26306507773799e-09 4.83629131220061e-07 1.33920835922911e-25)
(1.84169859257445e-08 4.86883491321668e-07 3.70100619422441e-25)
(4.18846421289722e-08 4.88770967455718e-07 -3.78752644421178e-25)
(6.47804155649035e-08 4.89346564563484e-07 -8.65885457483312e-27)
(8.77358996138657e-08 4.88623113891225e-07 -2.51662506900885e-25)
(1.11400817118275e-07 4.86539798537356e-07 9.8389303768849e-25)
(1.36450766107769e-07 4.82937029618476e-07 -4.97045454582059e-26)
(1.63627847283823e-07 4.77584502017038e-07 -7.43952675409608e-25)
(1.93772539905503e-07 4.70111327345883e-07 4.73618322779563e-25)
(2.27860940162366e-07 4.5997018529601e-07 -9.04162724440189e-25)
(2.67036552194257e-07 4.46352984416021e-07 8.84341497388831e-25)
(3.12681692524886e-07 4.28057219172943e-07 8.93515715959509e-25)
(3.66459785515309e-07 4.03297042331505e-07 -7.85730536831442e-25)
(4.30373238146953e-07 3.69441435007204e-07 -3.52598296878822e-25)
(5.06791831840969e-07 3.22592266964474e-07 1.75689547820489e-25)
(5.98453213358015e-07 2.57017910721061e-07 2.36242654222956e-26)
(7.08302195976918e-07 1.64429130888539e-07 3.75783780465212e-25)
(8.39209416697205e-07 3.30675583291457e-08 -2.07252341427963e-24)
(9.932498754236e-07 -1.52874748203659e-07 -8.38728402286087e-25)
(1.16960270283547e-06 -4.12919609813577e-07 -8.34968453457759e-25)
(1.3630570893218e-06 -7.63909925867156e-07 -2.1890394915023e-24)
(1.55306308412673e-06 -1.20118885514513e-06 -8.71711226671403e-25)
(1.70561330819124e-06 -1.63375932190413e-06 -9.8601564015759e-25)
(1.7337704436688e-06 -1.77044483737508e-06 -2.50061189359146e-24)
(1.55904781451114e-06 -9.23585736521129e-07 -9.32987535552919e-25)
(1.02010677055595e-06 1.71892501830662e-06 -8.08582677378115e-25)
(3.41999501037216e-07 5.95538372117596e-06 -2.54383214584862e-24)
(-2.75648385390023e-07 6.54819026046571e-06 -2.63871855933901e-25)
(4.89959199673744e-07 6.7048705695895e-06 3.35497864039397e-25)
(8.99869364421721e-07 6.5849825693074e-06 1.85691142998455e-25)
(4.4122214695932e-07 2.5726975859667e-06 7.16902551865112e-25)
(-2.48756904905e-07 -1.44376023946663e-07 4.8380249138822e-25)
(-7.44006997722893e-07 -1.17018403885529e-06 1.8652684980904e-25)
(-1.00980790372456e-06 -1.18384008118028e-06 9.85348435354317e-26)
(-1.0852080841224e-06 -8.42408647332169e-07 3.03143286537154e-25)
(-1.05230750779307e-06 -4.49599007467724e-07 3.42721856786111e-25)
(-9.61847144819216e-07 -1.15435669364512e-07 1.8817774959361e-25)
(-8.4981115025994e-07 1.42339039953584e-07 2.46454480946652e-25)
(-7.34463424181733e-07 3.32926712317025e-07 1.07568383998519e-24)
(-6.25689555492352e-07 4.71807582199124e-07 8.6954802531044e-25)
(-5.27573338068203e-07 5.72676587318893e-07 5.47701519055051e-25)
(-4.41256908922413e-07 6.46262333798961e-07 8.8630420458194e-25)
(-3.66341064733745e-07 7.00411984830857e-07 3.88686169333922e-25)
(-3.01696697704378e-07 7.40719167475698e-07 8.57643398745351e-25)
(-2.45959506902334e-07 7.71087881829856e-07 8.55182687698091e-25)
(-1.97747230051489e-07 7.94229143618444e-07 7.48199670496522e-25)
(-1.55788491307134e-07 8.12007654045508e-07 9.67885460217784e-25)
(-1.18938683757203e-07 8.25716658761888e-07 5.00293198734433e-25)
(-8.61969483347995e-08 8.36244355922052e-07 6.70151580314987e-25)
(-5.66909935882746e-08 8.44211429720739e-07 4.53168269329821e-25)
(-2.96330723745116e-08 8.50039653541969e-07 5.35061400469479e-25)
(-4.32114825838944e-09 8.54003589105125e-07 6.52297012019392e-25)
(1.98860407623842e-08 8.56276979473448e-07 4.58083236217233e-25)
(4.36124476263923e-08 8.56934862210446e-07 4.09828213388727e-25)
(6.74673736310393e-08 8.55986649531448e-07 3.00033642776429e-25)
(9.20578576735105e-08 8.53353749852903e-07 5.17671018412365e-25)
(1.18029266270617e-07 8.4886848739141e-07 9.38966874709583e-26)
(1.46080183731866e-07 8.42250222673721e-07 -1.09226266310423e-25)
(1.76972332287712e-07 8.33087718251387e-07 2.98073647347243e-26)
(2.11569870204628e-07 8.20761636642923e-07 -3.70078921053238e-25)
(2.50863230654917e-07 8.04388668734236e-07 9.4440926536563e-26)
(2.95971053797401e-07 7.82672265833289e-07 1.75717732424034e-25)
(3.48147498050358e-07 7.53730809877404e-07 -1.34021198460472e-25)
(4.0875049792453e-07 7.14858871732075e-07 -1.53325174146533e-25)
(4.79110108097238e-07 6.62144762897085e-07 1.07879916833655e-25)
(5.60334199777108e-07 5.89996492754705e-07 -1.20868556557972e-25)
(6.52790774953582e-07 4.90556382970594e-07 -5.00709449190926e-26)
(7.5532349784083e-07 3.53035286250842e-07 -6.70483808212399e-25)
(8.63792097906223e-07 1.63563676157897e-07 -4.29791481119277e-25)
(9.68294046862638e-07 -9.37570335615439e-08 -3.72735161872684e-25)
(1.05040150617576e-06 -4.29389379176657e-07 -7.53255206647527e-25)
(1.07403223271064e-06 -8.28601535882285e-07 -4.06991991817175e-25)
(9.88487303201808e-07 -1.18669073710702e-06 -3.91571150018342e-25)
(7.13220670671018e-07 -1.20325314344947e-06 -8.65435700183859e-25)
(2.13760843206017e-07 -2.06529905381159e-07 -3.66470658882996e-25)
(-4.68804848742683e-07 2.53159933250794e-06 -2.27786719223731e-25)
(-9.0066680803942e-07 6.64774041457154e-06 -6.51149286067726e-25)
(-4.7897850206442e-07 6.82218261321893e-06 2.44806597838274e-25)
(5.45679873108284e-07 6.41957983179901e-06 4.65581998402861e-25)
(1.54455591233037e-06 6.6548781677113e-06 9.93850524448384e-25)
(1.27686465549046e-06 2.97467254869697e-06 8.39666245500419e-25)
(5.75494696732893e-07 2.86838575830443e-07 5.13313289301267e-25)
(-7.22999051229575e-08 -8.42265109026772e-07 4.2058953429507e-25)
(-5.04732467530667e-07 -9.76872710196996e-07 5.49876791141929e-25)
(-7.2769671842697e-07 -7.2586930751446e-07 4.38268196478956e-25)
(-8.07492792521655e-07 -3.89033870627609e-07 4.87383330652792e-25)
(-7.99074755470082e-07 -8.49569634554852e-08 7.16649812302399e-25)
(-7.44384284582076e-07 1.59194245925003e-07 7.58604377678209e-25)
(-6.68585376649891e-07 3.4572090609508e-07 6.62322889950947e-25)
(-5.86793865704714e-07 4.85639681028586e-07 8.26994353864286e-25)
(-5.07063405705994e-07 5.8997928002397e-07 9.06375513506325e-25)
(-4.33284700086488e-07 6.679361892008e-07 6.73414030286328e-25)
(-3.66953894307663e-07 7.26540050543858e-07 8.34033891417331e-25)
(-3.08212874344004e-07 7.70980247614393e-07 8.99303572173858e-25)
(-2.56551485620236e-07 8.04993706027503e-07 1.03344932978383e-24)
(-2.1115740554261e-07 8.31240838115029e-07 1.19530329938922e-24)
(-1.71135645679119e-07 8.51612187996112e-07 1.11016165184987e-24)
(-1.35605512866769e-07 8.67433567354886e-07 1.06168415703689e-24)
(-1.03735898104952e-07 8.79650207456119e-07 8.73047560062796e-25)
(-7.47665403228697e-08 8.88922729313038e-07 8.40877643223586e-25)
(-4.80083257212725e-08 8.95708726973706e-07 7.54791399476524e-25)
(-2.28224596840947e-08 9.00311005857008e-07 7.25107730925447e-25)
(1.397084697605e-09 9.02914953693498e-07 8.18292241642825e-25)
(2.52210895800917e-08 9.03627833146527e-07 7.14415311063473e-25)
(4.92162393441998e-08 9.0243774136963e-07 5.3247479198726e-25)
(7.3956413512451e-08 8.99261724083362e-07 2.12238427343568e-25)
(1.00029390611402e-07 8.93916926417968e-07 2.60825217170064e-25)
(1.28068253268899e-07 8.86096985728041e-07 2.22035172083269e-25)
(1.58754290388547e-07 8.75349134383214e-07 -1.27674764846722e-25)
(1.92832991530713e-07 8.61021460963256e-07 -1.38142859797431e-25)
(2.31112220538219e-07 8.42178814791085e-07 -3.28890891845978e-25)
(2.74456463571657e-07 8.17477983237842e-07 -2.3406010024841e-25)
(3.23739834826324e-07 7.85043759752667e-07 1.69615200237268e-25)
(3.79740466436204e-07 7.42188300977066e-07 1.2082334377787e-25)
(4.42933324695529e-07 6.85189226490175e-07 -5.64575721536127e-26)
(5.13144350471769e-07 6.08861974425534e-07 -1.94138266285096e-25)
(5.88824364076453e-07 5.0616292366497e-07 -1.85388465007774e-25)
(6.66042247905348e-07 3.67833365368801e-07 7.35648910755019e-26)
(7.36646688567441e-07 1.82698344085394e-07 -1.85005915303622e-25)
(7.85406668373993e-07 -6.06520823479429e-08 -1.73509133872454e-25)
(7.86837201892764e-07 -3.65732588112141e-07 1.01497592993419e-25)
(6.98624624077417e-07 -7.08395149407152e-07 -1.41348138560948e-25)
(4.65375449161736e-07 -9.75717284688198e-07 -1.47260452559858e-25)
(2.15240439330784e-08 -8.72158374202767e-07 1.12276821670161e-25)
(-6.34992083494992e-07 2.24439351285393e-07 -1.2326571596221e-25)
(-1.33489775038928e-06 2.92602644707167e-06 3.64113108514213e-27)
(-1.57668242088709e-06 6.70443444124715e-06 3.53859809307583e-25)
(-5.45958175292986e-07 6.52940610903565e-06 2.13196326413674e-25)
(5.2042579945807e-07 5.81631455697154e-06 4.77281694252329e-25)
(1.74496476348849e-06 6.32987989389918e-06 1.33168783221863e-24)
(1.61585586942974e-06 3.07872156415535e-06 8.03609598189072e-25)
(9.87837997390922e-07 5.02659520460435e-07 5.05429951039199e-25)
(3.16756876758314e-07 -6.81757118149006e-07 8.08787818303111e-25)
(-1.74085213121304e-07 -9.20148290085809e-07 8.63247501502605e-25)
(-4.68398818707906e-07 -7.58069630082613e-07 4.68639559198985e-25)
(-6.12777237995328e-07 -4.82451548887515e-07 5.03463812270919e-25)
(-6.57797635584133e-07 -2.15182042082599e-07 1.02854966969478e-24)
(-6.44311683517461e-07 9.14962899664623e-09 9.57002004344532e-25)
(-5.99394220199002e-07 1.86610408162411e-07 2.33882387570057e-25)
(-5.40247095392884e-07 3.23760012253601e-07 6.31950308144468e-25)
(-4.76979649145192e-07 4.28757428296431e-07 9.83757168544725e-25)
(-4.15114352019436e-07 5.09061284072337e-07 3.30107197338697e-25)
(-3.5740528712289e-07 5.70673278338869e-07 9.59523152818994e-25)
(-3.04926742273335e-07 6.18219888469484e-07 7.73424535988452e-25)
(-2.57842169245714e-07 6.55149444976204e-07 9.05689212687694e-25)
(-2.1581326296589e-07 6.83988254851056e-07 1.27096231528311e-24)
(-1.78288703185189e-07 7.06577159879626e-07 1.02192604543104e-24)
(-1.44618215892786e-07 7.24245279877634e-07 1.22223922280006e-24)
(-1.14140977705328e-07 7.37958159668912e-07 8.55144114127322e-25)
(-8.62300352513835e-08 7.48390042083095e-07 9.97614926499618e-25)
(-6.02766707498778e-08 7.56022939854469e-07 7.05088730556385e-25)
(-3.57134246111841e-08 7.61187538128964e-07 6.53967912326122e-25)
(-1.19946914619753e-08 7.64087347437089e-07 9.8722089076767e-25)
(1.140560783496e-08 7.64813204297866e-07 7.22468458020694e-25)
(3.50024378898982e-08 7.63376649201816e-07 6.50951034041603e-25)
(5.93190174171136e-08 7.59676938565304e-07 -1.09506156250187e-25)
(8.48904963480166e-08 7.53521458748708e-07 2.31616090291442e-25)
(1.12281295037489e-07 7.44583652633513e-07 4.5397978085679e-25)
(1.42079228292649e-07 7.32400880155431e-07 -2.7981021112059e-25)
(1.74903002133848e-07 7.16284544421087e-07 9.65025681822207e-26)
(2.11392192265177e-07 6.95284976524016e-07 -6.00525078553312e-25)
(2.52177766188677e-07 6.6807330867458e-07 -5.45431946728335e-25)
(2.9778357406788e-07 6.32806207742361e-07 3.92289042848499e-25)
(3.48511181799333e-07 5.86955279533827e-07 2.01071287736747e-25)
(4.04166526206908e-07 5.27069139925853e-07 -7.13768796430745e-26)
(4.63631487155788e-07 4.48543757063893e-07 -2.09475137991778e-25)
(5.24087645499892e-07 3.45346216106557e-07 -3.23268418942826e-25)
(5.79945608897415e-07 2.10011667942039e-07 4.62624165296703e-25)
(6.20967551176514e-07 3.42297010530868e-08 -3.83659543453946e-28)
(6.29783356118967e-07 -1.88894031898829e-07 2.02135161266857e-26)