/*--------------------------------*- C++ -*----------------------------------*\
  =========                 |
  \\      /  F ield         | OpenFOAM: The Open Source CFD Toolbox
   \\    /   O peration     | Website:  https://openfoam.org
    \\  /    A nd           | Version:  10
     \\/     M anipulation  |
\*---------------------------------------------------------------------------*/
FoamFile
{
    format      ascii;
    class       volScalarField;
    location    "9";
    object      wallHeatFlux;
}
// * * * * * * * * * * * * * * * * * * * * * * * * * * * * * * * * * * * * * //

dimensions      [1 0 -3 0 0 0 0];

internalField   uniform 0;

boundaryField
{
    back
    {
        type            calculated;
        value           uniform 0;
    }
    bottom
    {
        type            calculated;
        value           nonuniform List<scalar> 
50
(
66.4504290855457
66.8475693335243
68.9449707881815
70.7249720201034
71.9586121429438
72.7526869599009
73.2462658685358
73.5452878368899
73.7216947740652
73.8228095269736
73.878641434769
73.9084866239851
73.9238804512268
73.9314795456841
73.935115149496
73.936750615437
73.9375134031234
73.9378173763757
73.9379189982728
73.9379660766619
73.9379788176611
73.9379806700319
73.9379785478975
73.9379834514462
73.9379812637649
73.9379804337777
73.9379848187339
73.9379888321556
73.9379941934906
73.9379954480583
73.9379806643964
73.9379419328287
73.9378007330357
73.9374539441391
73.9366483506613
73.9348546501592
73.9310151820549
73.9230347817388
73.9072476125962
73.8768108837146
73.8203038917254
73.7189013557876
73.5426782514333
73.2448466420613
72.7539143533096
71.9618925073427
70.7263403235553
68.9366758239368
66.8318302230505
66.4691639163556
)
;
    }
    left
    {
        type            calculated;
        value           uniform 0;
    }
    front
    {
        type            calculated;
        value           uniform 0;
    }
    right
    {
        type            calculated;
        value           uniform 0;
    }
    top
    {
        type            calculated;
        value           uniform 0;
    }
}


// ************************************************************************* //
