/*--------------------------------*- C++ -*----------------------------------*\
  =========                 |
  \\      /  F ield         | OpenFOAM: The Open Source CFD Toolbox
   \\    /   O peration     | Website:  https://openfoam.org
    \\  /    A nd           | Version:  10
     \\/     M anipulation  |
\*---------------------------------------------------------------------------*/
FoamFile
{
    format      ascii;
    class       volScalarField;
    location    "1.6";
    object      alphat;
}
// * * * * * * * * * * * * * * * * * * * * * * * * * * * * * * * * * * * * * //

dimensions      [1 -1 -1 0 0 0 0];

internalField   nonuniform List<scalar> 
2500
(
5.92756507247084e-13
2.18434486342265e-12
5.94092212195767e-12
7.90863343896851e-12
8.64268713329667e-12
8.86373880799596e-12
8.92051875087804e-12
8.93340855940515e-12
8.93605915427813e-12
8.9365608770845e-12
8.93664595488973e-12
8.93665437464522e-12
8.93665137813486e-12
8.9366474766975e-12
8.93664344430031e-12
8.93663985597571e-12
8.9366369820435e-12
8.93663463128202e-12
8.93663260908853e-12
8.93663079986125e-12
8.93662918265733e-12
8.93662774591215e-12
8.93662647019025e-12
8.93662531751972e-12
8.93662432479163e-12
8.93662350964792e-12
8.93662282881919e-12
8.93662231645828e-12
8.93662199025249e-12
8.93662192372281e-12
8.93662224336308e-12
8.9366229262118e-12
8.93662355100191e-12
8.93662404267661e-12
8.93662513686028e-12
8.93662652025405e-12
8.93662820454329e-12
8.93662974046366e-12
8.93662710170308e-12
8.93659543986879e-12
8.93641377825346e-12
8.93553036027342e-12
8.93150439216877e-12
8.91440496317142e-12
8.84765941468743e-12
8.61275992899163e-12
7.88779942043855e-12
6.0077368179238e-12
2.2749745462796e-12
6.13121750231161e-13
1.36225107790097e-11
3.97799787875578e-10
1.36643484049638e-09
1.90069314853939e-09
2.11053805622491e-09
2.1765188062014e-09
2.19407694933461e-09
2.19818036014983e-09
2.19904483902859e-09
2.1992118384737e-09
2.19924101509887e-09
2.19924453870509e-09
2.19924389264575e-09
2.19924292285514e-09
2.19924192302082e-09
2.19924102764251e-09
2.19924028990665e-09
2.19923967634418e-09
2.19923914577883e-09
2.19923867602092e-09
2.19923825980716e-09
2.19923789192884e-09
2.19923756846135e-09
2.19923727442343e-09
2.19923702045344e-09
2.19923681578491e-09
2.19923664268684e-09
2.19923651468419e-09
2.19923643966257e-09
2.19923643568736e-09
2.19923652685692e-09
2.19923668830916e-09
2.19923685124263e-09
2.19923698418531e-09
2.19923726537173e-09
2.19923760362539e-09
2.19923800931998e-09
2.19923833234856e-09
2.19923721650561e-09
2.19922631406831e-09
2.19916678529191e-09
2.19888212959181e-09
2.19760584508667e-09
2.19229092899997e-09
2.17202907455305e-09
2.10275117957095e-09
1.89648243316996e-09
1.38509296695138e-09
4.19749486354488e-10
1.51313015548763e-11
3.34959709023345e-11
6.34581844934153e-09
1.74302966415493e-06
2.43516084671726e-06
2.71351592395554e-06
2.80406235026073e-06
2.8289938165484e-06
2.8350066540811e-06
2.83630996462315e-06
2.83656840044803e-06
2.83661511083801e-06
2.83662170885331e-06
2.83662134746462e-06
2.83662031605638e-06
2.83661921188334e-06
2.83661821287437e-06
2.83661737491177e-06
2.83661667146128e-06
2.83661606106681e-06
2.83661551878139e-06
2.83661503557347e-06
2.83661460479239e-06
2.83661422199359e-06
2.83661388262226e-06
2.83661358660761e-06
2.83661333710692e-06
2.83661313427399e-06
2.83661297671076e-06
2.83661287152629e-06
2.83661285871687e-06
2.83661292583758e-06
2.83661307869649e-06
2.83661326629018e-06
2.83661342859829e-06
2.83661371116742e-06
2.83661402855627e-06
2.83661445176535e-06
2.83661471177077e-06
2.8366126651822e-06
2.8365959682554e-06
2.8365087872329e-06
2.83609668207662e-06
2.83427108849984e-06
2.82677736579581e-06
2.7987013281364e-06
2.70466791177659e-06
2.43094669185269e-06
1.76435692165273e-06
6.65036409101522e-09
3.68305133741964e-11
5.06288151716526e-11
1.04151775779763e-08
2.85117357419107e-06
3.95164574186671e-06
4.39494978661005e-06
4.54082705425151e-06
4.58163329539583e-06
4.59164916764215e-06
4.59386029862763e-06
4.59430708945684e-06
4.59438978974883e-06
4.59440242519458e-06
4.59440259013736e-06
4.59440126852289e-06
4.5943997727593e-06
4.59439840511225e-06
4.594397245643e-06
4.59439626260711e-06
4.59439540322333e-06
4.59439463673724e-06
4.59439394789557e-06
4.59439332811288e-06
4.59439277389831e-06
4.59439228068972e-06
4.59439184717077e-06
4.59439147589046e-06
4.59439116777239e-06
4.59439092095072e-06
4.59439074121575e-06
4.59439066500917e-06
4.59439069890521e-06
4.59439090755434e-06
4.59439108850854e-06
4.59439128972342e-06
4.59439157394241e-06
4.59439200175377e-06
4.5943924866662e-06
4.59439271284884e-06
4.59438924617271e-06
4.59436344069308e-06
4.59422943021047e-06
4.59359013460809e-06
4.59073340394248e-06
4.57891365572489e-06
4.53433267412385e-06
4.38426210858403e-06
3.94574206323466e-06
2.87266529919067e-06
1.07340454463258e-08
5.40952316514963e-11
6.29284837900542e-11
1.34584923862314e-08
3.67727199960202e-06
5.07312674902435e-06
5.63742905854289e-06
5.82501099490572e-06
5.87819224197679e-06
5.89144551847286e-06
5.89441936799018e-06
5.89503073280136e-06
5.89514643859702e-06
5.89516522233791e-06
5.89516639982543e-06
5.89516515255168e-06
5.89516359928756e-06
5.89516215323387e-06
5.89516090867486e-06
5.89515983953244e-06
5.8951588963155e-06
5.89515804852843e-06
5.89515727988579e-06
5.89515658225837e-06
5.89515595254838e-06
5.89515538687881e-06
5.89515488473446e-06
5.89515444735521e-06
5.89515407477424e-06
5.89515376707697e-06
5.89515352763714e-06
5.89515337516508e-06
5.89515335591157e-06
5.89515346675197e-06
5.89515361070411e-06
5.89515379078795e-06
5.89515403540479e-06
5.89515440712097e-06
5.8951548080647e-06
5.8951548020684e-06
5.8951500764159e-06
5.89511817498913e-06
5.89495311239278e-06
5.8941592422925e-06
5.89058458176492e-06
5.87568926617812e-06
5.81917196859265e-06
5.62809402036931e-06
5.06829264625423e-06
3.69592089422486e-06
1.3737107769888e-08
6.61213113299696e-11
7.09077179792352e-11
1.55228274283354e-08
4.247306500794e-06
5.84657038712814e-06
6.49591205936471e-06
6.71366003994702e-06
6.77609321915178e-06
6.79185340767865e-06
6.79543952759987e-06
6.79618797892671e-06
6.79633234580657e-06
6.79635693434588e-06
6.79635937640185e-06
6.79635841013021e-06
6.79635700517346e-06
6.79635566031682e-06
6.79635448010818e-06
6.79635344926114e-06
6.79635252881477e-06
6.79635169287321e-06
6.79635092750256e-06
6.79635022620986e-06
6.79634958610333e-06
6.79634900507003e-06
6.79634848266134e-06
6.79634801933122e-06
6.79634761513713e-06
6.79634727099594e-06
6.79634698892089e-06
6.79634677814099e-06
6.79634667030599e-06
6.79634667364032e-06
6.79634675687802e-06
6.79634686579895e-06
6.79634704272746e-06
6.79634728189139e-06
6.79634752653493e-06
6.79634720440787e-06
6.79634140233378e-06
6.79630554178223e-06
6.7961204120911e-06
6.79522469758741e-06
6.79116834590044e-06
6.77417580086168e-06
6.70941820423369e-06
6.48983268861474e-06
5.84565874143196e-06
4.26597176664553e-06
1.57746093236314e-08
7.39053417278266e-11
7.571629291015e-11
1.68195565626139e-08
4.61549515599854e-06
6.34835986485908e-06
7.05494146761333e-06
7.29360781310665e-06
7.36266908802065e-06
7.38028714360472e-06
7.38434288315228e-06
7.38520022295269e-06
7.38536819148319e-06
7.38539792195159e-06
7.38540169686237e-06
7.38540103682012e-06
7.38539986692291e-06
7.38539870316889e-06
7.3853976573152e-06
7.38539672552141e-06
7.38539588093462e-06
7.38539510441678e-06
7.38539438563223e-06
7.38539372007367e-06
7.38539310559767e-06
7.38539254136154e-06
7.38539202703761e-06
7.38539156302987e-06
7.38539114947377e-06
7.38539078750177e-06
7.3853904783066e-06
7.38539022638446e-06
7.38539004620727e-06
7.38538995743313e-06
7.38538994451586e-06
7.38539000508411e-06
7.38539008739706e-06
7.38539019421537e-06
7.38539027410751e-06
7.38538959691435e-06
7.38538294698329e-06
7.3853446811819e-06
7.38514703152335e-06
7.38418705183911e-06
7.3798221282398e-06
7.36146789594973e-06
7.29130768056813e-06
7.05294237948853e-06
6.35322922040452e-06
4.63773550248288e-06
1.70713743406812e-08
7.86691258299901e-11
7.84472792574315e-11
1.75839503872495e-08
4.8398484026002e-06
6.65649863825761e-06
7.39997380152329e-06
7.65254128173411e-06
7.72615192306534e-06
7.74508807133973e-06
7.74948825329982e-06
7.75042817943853e-06
7.75061466838773e-06
7.75064863119386e-06
7.75065350334609e-06
7.75065324701985e-06
7.75065232395494e-06
7.75065135323575e-06
7.75065045614132e-06
7.7506496389016e-06
7.75064888544373e-06
7.75064818333937e-06
7.750647525831e-06
7.75064691036661e-06
7.75064633576142e-06
7.75064580199797e-06
7.75064530903807e-06
7.75064485747699e-06
7.75064444753576e-06
7.75064408021906e-06
7.75064375630251e-06
7.75064347824582e-06
7.75064325227701e-06
7.75064308896447e-06
7.75064299405504e-06
7.75064295154784e-06
7.75064293977903e-06
7.7506429401783e-06
7.75064288519e-06
7.7506418559602e-06
7.75063473604125e-06
7.75059502095417e-06
7.75038987949277e-06
7.74939121442736e-06
7.7448381497611e-06
7.72564396538527e-06
7.6521235274619e-06
7.40203210441345e-06
6.66766180319327e-06
4.86773163869199e-06
1.78538958365924e-08
8.14514376337042e-11
7.99232015953265e-11
1.8010965300989e-08
4.96967247025163e-06
6.83658762123249e-06
7.60285661793212e-06
7.8642842584427e-06
7.94088932858985e-06
7.96072172895245e-06
7.96536383690371e-06
7.9663636792682e-06
7.96656406846452e-06
7.96660127758014e-06
7.96660704335334e-06
7.96660714822184e-06
7.96660643977095e-06
7.96660563742036e-06
7.96660487281605e-06
7.96660416005858e-06
7.96660349136163e-06
7.96660285980843e-06
7.96660226163293e-06
7.96660169589482e-06
7.96660116228932e-06
7.96660066140877e-06
7.96660019352317e-06
7.96659975942066e-06
7.96659935938775e-06
7.9665989943114e-06
7.96659866469474e-06
7.96659837201873e-06
7.96659811896019e-06
7.96659791060075e-06
7.96659775020087e-06
7.96659763328721e-06
7.96659754825209e-06
7.9665974750587e-06
7.96659728390742e-06
7.96659604895876e-06
7.96658864018126e-06
7.9665480470659e-06
7.96633861250684e-06
7.96531773651644e-06
7.96065544855135e-06
7.94096853755368e-06
7.86546215600456e-06
7.60841381484417e-06
6.8534762053743e-06
5.00352407088559e-06
1.83051091124897e-08
8.30122861205799e-11
8.06877948976172e-11
1.82387949416512e-08
5.04144022769012e-06
6.93728136118831e-06
7.71707718808403e-06
7.98393109204251e-06
8.06242968021762e-06
8.08284727249192e-06
8.08765243737158e-06
8.08869395282831e-06
8.08890432882237e-06
8.08894392137468e-06
8.0889503649266e-06
8.08895075077203e-06
8.08895020853554e-06
8.0889495369467e-06
8.08894887695234e-06
8.08894824829666e-06
8.08894764893183e-06
8.08894707593088e-06
8.08894652775731e-06
8.08894600467257e-06
8.08894550705898e-06
8.08894503594679e-06
8.08894459185887e-06
8.08894417573155e-06
8.0889437879003e-06
8.08894342917308e-06
8.08894309985315e-06
8.08894280091761e-06
8.08894253349932e-06
8.08894230008959e-06
8.08894210235976e-06
8.08894193929144e-06
8.08894180392422e-06
8.08894167260906e-06
8.08894139291048e-06
8.08894003497369e-06
8.08893243929274e-06
8.08889133837708e-06
8.08867954698214e-06
8.0876464859243e-06
8.08292368252911e-06
8.06296111877135e-06
7.98633568915655e-06
7.72535072303148e-06
6.95875712228885e-06
5.08044504826266e-06
1.85552418637007e-08
8.38575490068233e-11
8.10697057903673e-11
1.83556323112212e-08
5.07954616942708e-06
6.99140719741017e-06
7.77893464165135e-06
8.04898975028137e-06
8.12864144615577e-06
8.14942683405203e-06
8.15433772159747e-06
8.15540709662665e-06
8.15562435526416e-06
8.15566562843469e-06
8.15567256043968e-06
8.15567315232383e-06
8.15567272869181e-06
8.15567215143858e-06
8.15567156820219e-06
8.15567100250813e-06
8.15567045596297e-06
8.15566992826779e-06
8.15566941939975e-06
8.15566893045003e-06
8.15566846227508e-06
8.15566801620228e-06
8.15566759293341e-06
8.15566719350463e-06
8.15566681828141e-06
8.15566646801874e-06
8.15566614288691e-06
8.15566584358238e-06
8.15566557053127e-06
8.1556653250165e-06
8.15566510775401e-06
8.15566491850936e-06
8.15566475199494e-06
8.15566458241852e-06
8.15566424946673e-06
8.15566281800414e-06
8.15565511041721e-06
8.15561372845532e-06
8.15540069553529e-06
8.15436122912711e-06
8.14960632024471e-06
8.12949613447582e-06
8.05226703530808e-06
7.78914814982299e-06
7.01621785657349e-06
5.12244946782049e-06
1.86892157410038e-08
8.43012404275321e-11
8.12545116897673e-11
1.84135255904447e-08
5.09907225619413e-06
7.01950126525051e-06
7.81129798786848e-06
8.08317743125247e-06
8.1635072358813e-06
8.18451573696633e-06
8.1894927461901e-06
8.19058007342031e-06
8.19080189776671e-06
8.19084431207213e-06
8.19085158613915e-06
8.19085232376695e-06
8.19085197687361e-06
8.19085146464783e-06
8.19085093550879e-06
8.19085041526116e-06
8.19084990766644e-06
8.19084941402051e-06
8.19084893525124e-06
8.19084847297903e-06
8.19084802836103e-06
8.19084760291088e-06
8.19084719744291e-06
8.19084681305324e-06
8.19084645012149e-06
8.19084610936753e-06
8.19084579087346e-06
8.19084549517413e-06
8.1908452223531e-06
8.19084497311767e-06
8.190844747642e-06
8.19084454571546e-06
8.19084436250861e-06
8.19084417117045e-06
8.19084380850796e-06
8.19084233601153e-06
8.19083456590365e-06
8.19079303539054e-06
8.19057937395483e-06
8.18953667119581e-06
8.18476539185732e-06
8.16457921925089e-06
8.0870370098733e-06
7.82280506051973e-06
7.04655539110539e-06
5.1446543540184e-06
1.87588320464055e-08
8.45277646097773e-11
8.13414771676189e-11
1.84413613798413e-08
5.10876818688049e-06
7.03363747694332e-06
7.82771864298192e-06
8.10060532708885e-06
8.18132129993448e-06
8.20246079523925e-06
8.20747780426109e-06
8.20857631311305e-06
8.20880106278093e-06
8.20884422585756e-06
8.20885174214253e-06
8.208852585237e-06
8.20885227329411e-06
8.20885180482297e-06
8.20885131356337e-06
8.20885082613098e-06
8.20885034742837e-06
8.20884987964533e-06
8.20884942426455e-06
8.20884898321647e-06
8.20884855783408e-06
8.20884814973605e-06
8.20884775979971e-06
8.20884738915272e-06
8.20884703817787e-06
8.20884670756816e-06
8.20884639734969e-06
8.20884610795842e-06
8.20884583930296e-06
8.20884559180977e-06
8.20884536535249e-06
8.20884515959981e-06
8.20884496980021e-06
8.20884476865368e-06
8.20884439194966e-06
8.20884289937011e-06
8.20883509759201e-06
8.20879349301409e-06
8.20857952606541e-06
8.20753524734324e-06
8.2027559157842e-06
8.18253199568981e-06
8.1048329728196e-06
7.84003995893107e-06
7.06210779166214e-06
5.15605908296822e-06
1.87940459540624e-08
8.46405693110733e-11
8.13813976811894e-11
1.84543930022233e-08
5.11345023087543e-06
7.04055630826019e-06
7.83582551753528e-06
8.10925249588023e-06
8.19018201728209e-06
8.21139615046707e-06
8.21643662718996e-06
8.21754188628239e-06
8.21776845207317e-06
8.21781209033029e-06
8.21781976553604e-06
8.21782067269908e-06
8.21782039630398e-06
8.21781995855863e-06
8.21781949466031e-06
8.21781903175465e-06
8.21781857530949e-06
8.21781812798029e-06
8.21781769155851e-06
8.21781726813673e-06
8.21781685914126e-06
8.21781646623974e-06
8.21781609034096e-06
8.21781573258287e-06
8.21781539334513e-06
8.2178150732993e-06
8.21781477243379e-06
8.21781449112228e-06
8.21781422917672e-06
8.21781398687789e-06
8.2178137639396e-06
8.21781355992613e-06
8.2178133700981e-06
8.21781316707153e-06
8.21781278643684e-06
8.21781128698726e-06
8.2178034720883e-06
8.21776183389951e-06
8.21754772525475e-06
8.21650270558263e-06
8.21171953965658e-06
8.19147745055872e-06
8.11370228506376e-06
7.84863485772908e-06
7.06987430724228e-06
5.161767972823e-06
1.88114334794545e-08
8.46954909675113e-11
8.13993277230589e-11
1.84603489427165e-08
5.11565515746868e-06
7.04385964432933e-06
7.83973103025255e-06
8.11344035230626e-06
8.19448485097838e-06
8.21574036252952e-06
8.22079422659705e-06
8.22190344589039e-06
8.2221311080904e-06
8.22217504084096e-06
8.22218281499662e-06
8.22218377105286e-06
8.22218352400574e-06
8.22218310951675e-06
8.22218266685084e-06
8.2221822236052e-06
8.22218178552727e-06
8.22218135549794e-06
8.22218093548824e-06
8.22218052766102e-06
8.22218013347692e-06
8.22217975462266e-06
8.22217939201494e-06
8.22217904679085e-06
8.22217871932229e-06
8.2221784102599e-06
8.22217811956733e-06
8.22217784757356e-06
8.22217759403494e-06
8.2221773591495e-06
8.22217714254305e-06
8.22217694372207e-06
8.22217675799098e-06
8.22217655812181e-06
8.22217617998374e-06
8.22217468199206e-06
8.22216686496007e-06
8.22212521466464e-06
8.22191104483614e-06
8.22086568920519e-06
8.21608074976892e-06
8.19583015269373e-06
8.11801899681827e-06
7.85282084161909e-06
7.07366270811865e-06
5.16456031774295e-06
1.88198328386477e-08
8.47216922075332e-11
8.14072407895955e-11
1.84630107979946e-08
5.11667002136071e-06
7.04540167312136e-06
7.84157133082136e-06
8.11542477540481e-06
8.19652970425218e-06
8.21780759247751e-06
8.2228689007962e-06
8.22398038425958e-06
8.22420869309431e-06
8.22425280662336e-06
8.22426064498078e-06
8.22426163843331e-06
8.22426141589159e-06
8.22426102075678e-06
8.2242605961676e-06
8.22426017006737e-06
8.22425974834322e-06
8.22425933397825e-06
8.22425892910252e-06
8.22425853588741e-06
8.2242581557866e-06
8.22425779048314e-06
8.22425744089103e-06
8.22425710813757e-06
8.22425679258646e-06
8.22425649486811e-06
8.22425621492451e-06
8.2242559530511e-06
8.22425570896388e-06
8.22425548280712e-06
8.22425527415511e-06
8.22425508248562e-06
8.22425490318921e-06
8.22425470935306e-06
8.22425433745897e-06
8.22425284585779e-06
8.22424503284373e-06
8.22420338149753e-06
8.22398918891832e-06
8.22294368747961e-06
8.21815794870463e-06
8.19790345759724e-06
8.12007566758889e-06
7.85481661110723e-06
7.0754718296112e-06
5.16589763087468e-06
1.88238091537539e-08
8.47339823211006e-11
8.14106608379909e-11
1.84641742623618e-08
5.11712710427015e-06
7.04610657759186e-06
7.84242099774876e-06
8.11634650523773e-06
8.19748252398385e-06
8.21877224736478e-06
8.22383760138997e-06
8.2249503505043e-06
8.22517903449238e-06
8.22522325965805e-06
8.22523114235707e-06
8.22523216620485e-06
8.22523196541583e-06
8.22523158805004e-06
8.22523118038398e-06
8.22523077055875e-06
8.22523036450368e-06
8.22522996521645e-06
8.22522957511589e-06
8.22522919632091e-06
8.22522883022853e-06
8.22522847850238e-06
8.22522814204772e-06
8.22522782198036e-06
8.22522751865066e-06
8.22522723266996e-06
8.22522696396059e-06
8.22522671278652e-06
8.22522647882879e-06
8.22522626218864e-06
8.22522606240104e-06
8.22522587892707e-06
8.22522570725063e-06
8.22522552083904e-06
8.22522515694716e-06
8.22522367405032e-06
8.22521586799728e-06
8.22517422106776e-06
8.22496002377013e-06
8.22391446350821e-06
8.21912837278343e-06
8.19887212847246e-06
8.12103677614876e-06
7.85574984203071e-06
7.07631904201585e-06
5.16652561756495e-06
1.88256559420735e-08
8.47396680713829e-11
8.14121279677544e-11
1.84646717725593e-08
5.11732850119858e-06
7.04642227440295e-06
7.84280574740184e-06
8.11676667451253e-06
8.19791840351158e-06
8.21921426830374e-06
8.22428177788943e-06
8.22539522171484e-06
8.22562412220603e-06
8.22566841865433e-06
8.22567633479558e-06
8.22567738502905e-06
8.22567720461518e-06
8.22567684469354e-06
8.22567645389172e-06
8.2256760603727e-06
8.22567566997113e-06
8.22567528555015e-06
8.22567491024846e-06
8.2256745460355e-06
8.22567419415783e-06
8.22567385623731e-06
8.22567353316825e-06
8.22567322605127e-06
8.2256729352247e-06
8.2256726612796e-06
8.22567240411597e-06
8.22567216396616e-06
8.2256719404749e-06
8.22567173369928e-06
8.225671543135e-06
8.22567136821591e-06
8.22567120448071e-06
8.2256710256885e-06
8.22567066973422e-06
8.22566919522589e-06
8.2256613964989e-06
8.22561975619552e-06
8.22540556231358e-06
8.22435998198365e-06
8.21957373942866e-06
8.19931670985747e-06
8.12147794144758e-06
7.85617837675274e-06
7.07670847503938e-06
5.16681489411434e-06
1.88264977934097e-08
8.47422803255334e-11
8.14127908658532e-11
1.84648811705272e-08
5.11741497759659e-06
7.0465605048109e-06
7.84297649939283e-06
8.11695463520177e-06
8.19811420102642e-06
8.21941320563704e-06
8.22448184558426e-06
8.22559566600501e-06
8.22582469281627e-06
8.22586903793059e-06
8.22587698183872e-06
8.22587805600697e-06
8.22587789549034e-06
8.22587755328475e-06
8.22587717982609e-06
8.2258768031069e-06
8.22587642861103e-06
8.22587605864528e-06
8.22587569820182e-06
8.22587534888629e-06
8.2258750115786e-06
8.2258746878155e-06
8.22587437847489e-06
8.22587408464244e-06
8.22587380664355e-06
8.22587354504521e-06
8.2258732997281e-06
8.22587307088637e-06
8.22587285812599e-06
8.22587266145478e-06
8.22587248032298e-06
8.22587231411449e-06
8.22587215834123e-06
8.22587198681666e-06
8.22587163759673e-06
8.22587016928799e-06
8.22586237680087e-06
8.2258207436994e-06
8.22560655665416e-06
8.22456097296621e-06
8.21977466582439e-06
8.199517278408e-06
8.12167694611258e-06
7.85637164196069e-06
7.07688406825712e-06
5.16694538165096e-06
1.88268740284057e-08
8.47433882968968e-11
8.14130709289098e-11
1.84649707284005e-08
5.11745073697086e-06
7.04661926248005e-06
7.84305049037989e-06
8.11703697181802e-06
8.19820042799564e-06
8.21950102295656e-06
8.22457024937149e-06
8.22568427321822e-06
8.22591337607672e-06
8.22595775722365e-06
8.22596572585418e-06
8.22596682229534e-06
8.22596668132918e-06
8.22596635710423e-06
8.22596600150185e-06
8.22596564212696e-06
8.22596528363601e-06
8.22596492664117e-06
8.22596458063303e-06
8.22596424635263e-06
8.22596392386362e-06
8.22596361452599e-06
8.22596331919102e-06
8.22596303893078e-06
8.22596277405326e-06
8.225962525101e-06
8.22596229193193e-06
8.22596207470345e-06
8.22596187297487e-06
8.2259616867029e-06
8.22596151528307e-06
8.22596135802571e-06
8.22596121032642e-06
8.22596104576315e-06
8.22596070198686e-06
8.22595923763219e-06
8.22595145018134e-06
8.22590982402084e-06
8.22569564458696e-06
8.22465006385858e-06
8.21986372855553e-06
8.19960616732894e-06
8.12176508094331e-06
7.85645709570501e-06
7.07696145990147e-06
5.1670026828798e-06
1.88270383629228e-08
8.47438511804624e-11
8.14131591107579e-11
1.84649947294417e-08
5.11746341629633e-06
7.04664298621371e-06
7.84308144494627e-06
8.11707201758623e-06
8.19823741283395e-06
8.21953880744462e-06
8.22460833643075e-06
8.22572247143891e-06
8.22595162235711e-06
8.22599603185523e-06
8.2260040228275e-06
8.22600513963347e-06
8.22600501746173e-06
8.22600471123182e-06
8.22600437392568e-06
8.22600403251336e-06
8.22600369012042e-06
8.22600334314418e-06
8.22600301063869e-06
8.22600269137538e-06
8.22600238389694e-06
8.22600208925546e-06
8.2260018082568e-06
8.22600154195923e-06
8.22600129064752e-06
8.22600105483724e-06
8.22600083436769e-06
8.22600062935726e-06
8.22600043931837e-06
8.22600026415256e-06
8.22600010319997e-06
8.22599995568525e-06
8.22599981683233e-06
8.2259996598045e-06
8.22599932155322e-06
8.22599786093169e-06
8.22599007843789e-06
8.22594845883675e-06
8.2257342865931e-06
8.2246887107807e-06
8.21990236182811e-06
8.19964470405271e-06
8.12180321294906e-06
7.85649389560152e-06
7.07699445237241e-06
5.16702684891925e-06
1.88271062567344e-08
8.47440595101362e-11
8.14130996582517e-11
1.8464972383955e-08
5.11746569979314e-06
7.04665098415189e-06
7.84309354850647e-06
8.11708628558937e-06
8.19825264203231e-06
8.21955441578523e-06
8.22462409415293e-06
8.22573828985954e-06
8.22596747170125e-06
8.22601190332632e-06
8.22601991300394e-06
8.22602104696119e-06
8.22602094164687e-06
8.22602065258681e-06
8.22602033344883e-06
8.22602001037424e-06
8.22601968450251e-06
8.2260193454667e-06
8.22601902655275e-06
8.22601872227732e-06
8.22601842979763e-06
8.22601814994904e-06
8.22601788350136e-06
8.22601763149795e-06
8.22601739419435e-06
8.22601717207896e-06
8.22601696497205e-06
8.22601677296193e-06
8.22601659551016e-06
8.22601643246772e-06
8.22601628312392e-06
8.22601614662554e-06
8.22601601802388e-06
8.22601587005792e-06
8.22601553901066e-06
8.22601408398204e-06
8.22600630768605e-06
8.22596469483546e-06
8.22575052971247e-06
8.22470496002965e-06
8.21991860378341e-06
8.19966088225202e-06
8.12181914264677e-06
7.85650912396286e-06
7.07700779112896e-06
5.16703558719127e-06
1.88271183837919e-08
8.47441304501042e-11
8.14127752853478e-11
1.84649413195089e-08
5.11746424811516e-06
7.04665196976977e-06
7.84309718634311e-06
8.11709121430465e-06
8.19825828314475e-06
8.21956030979002e-06
8.22463007529377e-06
8.22574430250227e-06
8.22597350112828e-06
8.2260179469704e-06
8.22602596887906e-06
8.22602711413682e-06
8.22602702125464e-06
8.22602674608266e-06
8.22602644254978e-06
8.22602613610682e-06
8.22602582706915e-06
8.22602550411572e-06
8.22602520105722e-06
8.2260249114759e-06
8.22602463356361e-06
8.22602436824401e-06
8.22602411628449e-06
8.22602387871756e-06
8.2260236557608e-06
8.22602344787486e-06
8.22602325486625e-06
8.22602307679984e-06
8.22602291309652e-06
8.22602276357135e-06
8.22602262748031e-06
8.22602250391642e-06
8.22602238780227e-06
8.22602225156687e-06
8.22602193101466e-06
8.22602048539645e-06
8.22601271865668e-06
8.22597111530021e-06
8.22575695978297e-06
8.22471139865498e-06
8.21992504036599e-06
8.19966727585187e-06
8.12182536903175e-06
7.85651483498118e-06
7.07701197366321e-06
5.16703713334904e-06
1.88271042034248e-08
8.47439992376054e-11
8.14123948832819e-11
1.84649164479847e-08
5.11746144894089e-06
7.04665055382132e-06
7.84309704572718e-06
8.11709203048621e-06
8.19825960880394e-06
8.21956182918397e-06
8.22463166158639e-06
8.22574591280125e-06
8.22597512782343e-06
8.22601958989808e-06
8.22602762589303e-06
8.22602878430494e-06
8.2260287055832e-06
8.22602844446321e-06
8.22602815571056e-06
8.22602786470186e-06
8.22602757307257e-06
8.22602727552324e-06
8.226026990477e-06
8.22602671700049e-06
8.22602645479571e-06
8.22602620498722e-06
8.22602596836006e-06
8.22602574593174e-06
8.22602553788605e-06
8.22602534465927e-06
8.22602516602975e-06
8.22602500202789e-06
8.2260248520504e-06
8.22602471586922e-06
8.22602459269991e-06
8.22602448157845e-06
8.22602437732698e-06
8.22602425217511e-06
8.22602394163156e-06
8.22602250497082e-06
8.22601474667581e-06
8.2259731510005e-06
8.22575900196981e-06
8.22471344348223e-06
8.21992707496874e-06
8.19966925576461e-06
8.12182716143584e-06
7.8565160290153e-06
7.07701189979858e-06
5.16703611613369e-06
1.88270867399697e-08
8.47437285556668e-11
8.14122455893349e-11
1.84648948746907e-08
5.11745816515018e-06
7.04664808779056e-06
7.84309555683439e-06
8.11709118064989e-06
8.1982589645424e-06
8.21956131936689e-06
8.22463120241528e-06
8.22574547741537e-06
8.22597471231134e-06
8.22601919485718e-06
8.226027248821e-06
8.22602842410722e-06
8.22602836249034e-06
8.22602811643678e-06
8.22602784250536e-06
8.22602756617588e-06
8.22602729089712e-06
8.22602701564266e-06
8.2260267491511e-06
8.22602649282427e-06
8.22602624725359e-06
8.22602601372409e-06
8.22602579301756e-06
8.22602558613142e-06
8.22602539325433e-06
8.22602521481074e-06
8.22602505055474e-06
8.22602490048061e-06
8.22602476394387e-06
8.22602464065161e-06
8.22602452977096e-06
8.22602443028017e-06
8.2260243369203e-06
8.22602422182808e-06
8.2260239203639e-06
8.2260224917183e-06
8.22601474044434e-06
8.22597315056935e-06
8.22575900554737e-06
8.2247134461418e-06
8.21992706194846e-06
8.19966917597495e-06
8.121826871358e-06
7.85651521768275e-06
7.07701051971895e-06
5.16703400997883e-06
1.8827069182251e-08
8.47435804790395e-11
8.14121479066762e-11
1.84648748483968e-08
5.1174546163824e-06
7.04664501878396e-06
7.84309326977314e-06
8.11708939704099e-06
8.19825738629634e-06
8.21955983151904e-06
8.22462974816518e-06
8.22574404019549e-06
8.22597329118406e-06
8.22601779121732e-06
8.22602586065916e-06
8.22602705065358e-06
8.22602700406832e-06
8.22602677171796e-06
8.2260265116507e-06
8.22602624915255e-06
8.22602598864728e-06
8.22602573124269e-06
8.22602548133651e-06
8.22602524088328e-06
8.22602501087838e-06
8.2260247926941e-06
8.22602458710267e-06
8.22602439508537e-06
8.22602421685008e-06
8.22602405283127e-06
8.22602390277711e-06
8.22602376664872e-06
8.22602364373246e-06
8.22602353365169e-06
8.22602343553786e-06
8.22602334834101e-06
8.22602326675632e-06
8.22602316295901e-06
8.22602287229772e-06
8.22602145374762e-06
8.22601371154669e-06
8.22597212970394e-06
8.22575799220569e-06
8.22471243881354e-06
8.21992605303512e-06
8.19966813325175e-06
8.12182569680538e-06
7.85651368920789e-06
7.07700843246801e-06
5.16703145512791e-06
1.88270525229667e-08
8.47434602583056e-11
8.14120627088645e-11
1.84648542847568e-08
5.11745056534468e-06
7.04664116515579e-06
7.84309005310256e-06
8.11708660682026e-06
8.19825478347769e-06
8.21955730155122e-06
8.2246272448999e-06
8.22574155159811e-06
8.22597081752568e-06
8.22601533411014e-06
8.2260234184867e-06
8.22602462267113e-06
8.22602459035989e-06
8.22602437172732e-06
8.22602412598905e-06
8.22602387790544e-06
8.22602363220154e-06
8.22602339087147e-06
8.22602315658956e-06
8.2260229313588e-06
8.22602271633615e-06
8.22602251293628e-06
8.22602232192776e-06
8.2260221442876e-06
8.22602198026029e-06
8.22602183030799e-06
8.22602169418894e-06
8.22602157181716e-06
8.22602146235106e-06
8.22602136526764e-06
8.22602127966974e-06
8.22602120451803e-06
8.22602113448665e-06
8.22602104192457e-06
8.22602076228796e-06
8.22601935408795e-06
8.22601162077387e-06
8.22597004661125e-06
8.22575591753278e-06
8.2247103744357e-06
8.21992399799566e-06
8.19966607041657e-06
8.12182356076305e-06
7.85651132276812e-06
7.07700566949039e-06
5.16702852454856e-06
1.88270362453551e-08
8.47433796099085e-11
8.14119747754157e-11
1.8464830481543e-08
5.11744531518954e-06
7.04663570376904e-06
7.84308506013648e-06
8.11708197529606e-06
8.19825032062748e-06
8.21955290259629e-06
8.22462286929145e-06
8.2257371894437e-06
8.22596646946368e-06
8.22601100182602e-06
8.2260191011625e-06
8.22602031940486e-06
8.22602030027196e-06
8.22602009488117e-06
8.22601986347175e-06
8.22601962991913e-06
8.22601939888481e-06
8.22601917266727e-06
8.22601895328755e-06
8.22601874270104e-06
8.22601854212322e-06
8.22601835298973e-06
8.22601817607986e-06
8.22601801239098e-06
8.22601786222455e-06
8.22601772610081e-06
8.22601760379879e-06
8.22601749514952e-06
8.22601739907264e-06
8.22601731478938e-06
8.22601724138598e-06
8.22601717791192e-06
8.22601711906381e-06
8.22601703755967e-06
8.22601676910951e-06
8.22601537132397e-06
8.22600764627154e-06
8.22596607900651e-06
8.22575195931008e-06
8.22470643239853e-06
8.21992008249686e-06
8.19966219018912e-06
8.12181970412835e-06
7.85650743066659e-06
7.07700170726824e-06
5.16702489634763e-06
1.88270191608513e-08
8.47433136993681e-11
8.14118622949953e-11
1.84647982386156e-08
5.11743718603925e-06