/*--------------------------------*- C++ -*----------------------------------*\
  =========                 |
  \\      /  F ield         | OpenFOAM: The Open Source CFD Toolbox
   \\    /   O peration     | Website:  https://openfoam.org
    \\  /    A nd           | Version:  10
     \\/     M anipulation  |
\*---------------------------------------------------------------------------*/
FoamFile
{
    format      ascii;
    class       volScalarField;
    location    "1.6";
    object      h;
}
// * * * * * * * * * * * * * * * * * * * * * * * * * * * * * * * * * * * * * //

dimensions      [0 2 -2 0 0 0 0];

internalField   nonuniform List<scalar> 
2500
(
7106.43694000324
7020.24562619628
6992.96357092893
6987.48806673299
6986.48239002964
6986.2933403687
6986.25716848219
6986.24877427905
6986.24528251856
6986.24392468792
6986.24204073542
6986.24077297383
6986.239992369
6986.23898391418
6986.23804615201
6986.23698789252
6986.23645233778
6986.23577215341
6986.23500327257
6986.23445693828
6986.23385081006
6986.2330027848
6986.23219432508
6986.23219245478
6986.23216227119
6986.23164192806
6986.2316166518
6986.23150996933
6986.23116209688
6986.23146371817
6986.23177890126
6986.23183432219
6986.23215011709
6986.23260838731
6986.23308687313
6986.23346166721
6986.23387519911
6986.23421956958
6986.23494628325
6986.23563153355
6986.23647702705
6986.2377291448
6986.24056721648
6986.25054072113
6986.29700799417
6986.51173007406
6987.56428761831
6993.07142054416
7020.76576700021
7106.45574667096
4397.71671555992
4255.12606479365
4172.27284919539
4151.32737095857
4146.51921735433
4145.46100184047
4145.2415673557
4145.19871856379
4145.19046026238
4145.18889183672
4145.18814919501
4145.18776019702
4145.18760868353
4145.18737908755
4145.18716081616
4145.18690704152
4145.18674819128
4145.18657021521
4145.18640109459
4145.18621466799
4145.18579696649
4145.1851636964
4145.18440897573
4145.18447182037
4145.1845748728
4145.18410168575
4145.18428939858
4145.18430209223
4145.18389243895
4145.18434689247
4145.18448426141
4145.18396788314
4145.18467929324
4145.18566934461
4145.18596539203
4145.18607009836
4145.18614400547
4145.18620500503
4145.18637461362
4145.18655025488
4145.18712794091
4145.18966418292
4145.20179781434
4145.25992580774
4145.52654055379
4146.68501433989
4151.57701780827
4172.33764604129
4256.58423261847
4402.15130315855
2869.96614605386
2765.89301286381
2702.1849089063
2684.51558085094
2680.36147214586
2679.42777624949
2679.22945304136
2679.1900300972
2679.18268948765
2679.18151066138
2679.18110640447
2679.18096405232
2679.18108080438
2679.1811089406
2679.18115285081
2679.18118911706
2679.18119888771
2679.1811544461
2679.18111913215
2679.18110293824
2679.18094425399
2679.18069535267
2679.18043875302
2679.18033672159
2679.18035476159
2679.18033006926
2679.18026730681
2679.18032465916
2679.18040627148
2679.18051704673
2679.1804693821
2679.18021630692
2679.18055357831
2679.1811382814
2679.18128245577
2679.18120227443
2679.1811059626
2679.18106446651
2679.18101607942
2679.18092351104
2679.18124113896
2679.18340033476
2679.19358513215
2679.24252229003
2679.46708516125
2680.44517178811
2684.59499530882
2702.14421034886
2767.17833067001
2877.62904109496
2206.75664643686
2154.5151547418
2128.16274488475
2120.31526049494
2118.49510979804
2118.09230944385
2118.00662583979
2117.98929909177
2117.98602398782
2117.9855952764
2117.98548151833
2117.98542251624
2117.98550059659
2117.98555801886
2117.9856142941
2117.98566496007
2117.98567035228
2117.98565004663
2117.98567009469
2117.98567339554
2117.98562632217
2117.98556383287
2117.98547061552
2117.98543266345
2117.98545883482
2117.98546301372
2117.98542148784
2117.98545430132
2117.98552984781
2117.98555400407
2117.98553482745
2117.98544419901
2117.98556337808
2117.98578144906
2117.98583556234
2117.98578870674
2117.98573231204
2117.98571604389
2117.98568950289
2117.98562944551
2117.98563311967
2117.98638318589
2117.99032439762
2118.00932140297
2118.09844639808
2118.50012862398
2120.28831221192
2128.12861380731
2155.21531025293
2212.48149657978
1965.56096178088
1944.65972091244
1936.12888226028
1933.36664308532
1932.71934634716
1932.57677055628
1932.54635052816
1932.54010199191
1932.5389083787
1932.53876995491
1932.53873695866
1932.53871987793
1932.53875589889
1932.53878769177
1932.53881677286
1932.53884111892
1932.53884347327
1932.53883503845
1932.5388512081
1932.53885389356
1932.5388410628
1932.53882970791
1932.53879673666
1932.53879497188
1932.53881009121
1932.53880873503
1932.53879410045
1932.53880495859
1932.53883587749
1932.53884313004
1932.53883790035
1932.53881167177
1932.53884685106
1932.53891073106
1932.53891765835
1932.53890505932
1932.5388947776
1932.53887698723
1932.53885811376
1932.53884384466
1932.53881614718
1932.53902835522
1932.54030885235
1932.54650617552
1932.5759229296
1932.71161494017
1933.33412057678
1936.09113688899
1944.92786702443
1968.49923905791
1888.44743291201
1881.29058523371
1878.8997199164
1878.0583094784
1877.85625278584
1877.81159449543
1877.80203944624
1877.80005537237
1877.7996728705
1877.79963147173
1877.79962356921
1877.79962023171
1877.79963442806
1877.79964722251
1877.79965813717
1877.79966610439
1877.7996671395
1877.79966435234
1877.79967078812
1877.79967159578
1877.79966789276
1877.79966639043
1877.79965802471
1877.7996606835
1877.79966548004
1877.79966476559
1877.79966080578
1877.79966328527
1877.79967305394
1877.79967807022
1877.79967599932
1877.79966855186
1877.79967862674
1877.79969351976
1877.79969329586
1877.79969017592
1877.79968755211
1877.79967967947
1877.79966821724
1877.79966113958
1877.79965436764
1877.79970937853
1877.80008282452
1877.80191580449
1877.8106396843
1877.85141985255
1878.0413904613
1878.87833421011
1881.37085992359
1889.64939258811
1866.10327650347
1863.91811954757
1863.30581450023
1863.07413589526
1863.0167218321
1863.00391545028
1863.00116879307
1863.00059500364
1863.00048335311
1863.00047138623
1863.00047019056
1863.00047055843
1863.00047543042
1863.00047965867
1863.00048306977
1863.0004853358
1863.00048584723
1863.00048500086
1863.00048709587
1863.00048737911
1863.00048602648
1863.0004858949
1863.00048443295
1863.00048585297
1863.00048708837
1863.0004869321
1863.00048662856
1863.00048635827
1863.00048847345
1863.00049102603
1863.00049042451
1863.00048879004
1863.00049116193
1863.00049424472
1863.00049372101
1863.00049293021
1863.00049220565
1863.00048952378
1863.00048530433
1863.00048304829
1863.00048177514
1863.00049410572
1863.00059579546
1863.00110070378
1863.00349958002
1863.01478265376
1863.06761234662
1863.29729220033
1863.93752114173
1866.52395272717
1860.11320301876
1859.50250497942
1859.3544759928
1859.29528931361
1859.28011801016
1859.27668918188
1859.27595195288
1859.27579760962
1859.27576748881
1859.27576447392
1859.27576446456
1859.27576469061
1859.27576606887
1859.27576729338
1859.27576824695
1859.27576884423
1859.27576906453
1859.27576882155
1859.27576936576
1859.2757695521
1859.27576928667
1859.27576928254
1859.2757690044
1859.27576946265
1859.27576975681
1859.27576965109
1859.27576966799
1859.27576945389
1859.2757700134
1859.27577080444
1859.27577079063
1859.27577058314
1859.27577098071
1859.27577142168
1859.27577117136
1859.27577097528
1859.27577077758
1859.27576996908
1859.27576872633
1859.27576811896
1859.27576813477
1859.27577081611
1859.27579675503
1859.27592786857
1859.27654929356
1859.27947674837
1859.29316481466
1859.35168926694
1859.50614521166
1860.24440036691
1858.60551382998
1858.44647104333
1858.41201659091
1858.39774451475
1858.39396298305
1858.39309465677
1858.39290736089
1858.39286816439
1858.39286052229
1858.3928597893
1858.39285982969
1858.39285992702
1858.39286030466
1858.39286062816
1858.39286087477
1858.39286102429
1858.39286110282
1858.39286103856
1858.39286115994
1858.39286125638
1858.3928612453
1858.3928612477
1858.39286119096
1858.39286130545
1858.39286134993
1858.39286128139
1858.3928613189
1858.392861324
1858.39286144883
1858.39286160581
1858.39286161736
1858.39286158687
1858.39286161829
1858.39286165298
1858.39286157588
1858.39286150686
1858.39286148339
1858.3928613292
1858.39286107987
1858.39286095906
1858.39286093012
1858.39286143926
1858.39286777971
1858.39290015238
1858.39305320978
1858.39377343161
1858.39712389631
1858.41120399971
1858.44687369929
1858.64293228304
1858.24533979764
1858.20624638771
1858.19843868185
1858.19515134912
1858.19425320419
1858.19404331343
1858.19399783906
1858.19398833629
1858.19398648837
1858.19398631651
1858.1939863348
1858.19398636539
1858.19398645963
1858.19398653861
1858.19398659837
1858.19398663403
1858.19398665803
1858.19398664279
1858.19398666579
1858.19398669822
1858.19398670875
1858.19398671582
1858.1939867107
1858.19398672671
1858.19398672631
1858.19398670823
1858.19398672491
1858.19398673716
1858.19398676024
1858.19398678537
1858.19398677915
1858.19398676402
1858.19398677067
1858.19398677769
1858.19398675199
1858.19398674018
1858.19398673837
1858.19398670651
1858.19398666182
1858.1939866302
1858.19398661613
1858.19398671875
1858.19398820728
1858.19399585129
1858.19403191181
1858.19420116596
1858.19498312833
1858.19821680529
1858.20619304918
1858.25527415292
1858.16299878083
1858.15384232612
1858.15210989651
1858.15138045606
1858.1511756622
1858.15112691226
1858.1511162866
1858.15111406906
1858.15111363851
1858.1511135976
1858.15111360241
1858.15111361022
1858.15111363157
1858.15111364933
1858.15111366268
1858.15111367053
1858.15111367676
1858.15111367341
1858.15111367641
1858.15111368483
1858.15111369011
1858.15111369285
1858.15111369296
1858.15111369412
1858.15111369359
1858.15111368937
1858.15111369307
1858.15111369749
1858.15111370132
1858.15111370302
1858.15111370132
1858.15111369776
1858.15111369787
1858.15111369954
1858.15111369282
1858.15111369151
1858.15111369044
1858.15111368442
1858.15111367721
1858.15111366944
1858.15111366595
1858.1511136882
1858.15111402575
1858.15111576037
1858.15112392473
1858.15116212133
1858.15133728578
1858.15205160737
1858.15379024038
1858.16548554149
1858.14486808089
1858.14280959131
1858.14243217913
1858.14227525178
1858.14223015896
1858.14221922288
1858.14221682029
1858.14221631854
1858.14221622068
1858.14221620977
1858.14221620939
1858.14221621044
1858.14221621454
1858.14221621778
1858.14221622015
1858.14221622136
1858.14221622242
1858.14221622132
1858.1422162212
1858.14221622292
1858.14221622417
1858.1422162247
1858.14221622463
1858.14221622462
1858.14221622447
1858.14221622306
1858.14221622374
1858.14221622472
1858.14221622527
1858.14221622518
1858.14221622486
1858.1422162238
1858.1422162241
1858.14221622427
1858.14221622242
1858.14221622338
1858.14221622334
1858.14221622227
1858.14221622135
1858.1422162201
1858.14221621942
1858.14221622529
1858.14221630094
1858.14221668153
1858.14221846557
1858.14222677967
1858.14226463255
1858.14241726365
1858.14278818159
1858.1454606126
1858.14100328837
1858.14055656099
1858.14047564897
1858.14044273172
1858.14043309609
1858.14043071592
1858.14043018711
1858.14043007551
1858.14043005268
1858.14043004882
1858.1404300476
1858.14043004687
1858.14043004682
1858.14043004673
1858.14043004654
1858.14043004619
1858.14043004589
1858.14043004516
1858.14043004463
1858.14043004461
1858.14043004453
1858.14043004435
1858.14043004411
1858.14043004387
1858.14043004358
1858.14043004312
1858.14043004312
1858.14043004317
1858.14043004319
1858.14043004315
1858.14043004309
1858.14043004281
1858.14043004301
1858.14043004323
1858.14043004309
1858.14043004364
1858.14043004405
1858.14043004432
1858.14043004465
1858.14043004509
1858.14043004582
1858.14043004837
1858.14043006558
1858.14043014738
1858.14043052593
1858.14043227887
1858.14044020644
1858.140471917
1858.14054965064
1858.14113866608
1858.14020244998
1858.14010844458
1858.14009124372
1858.14008445287
1858.14008244295
1858.14008193757
1858.14008182286
1858.14008179735
1858.14008179099
1858.14008178882
1858.14008178739
1858.14008178621
1858.14008178526
1858.14008178441
1858.14008178363
1858.14008178289
1858.14008178223
1858.14008178153
1858.14008178092
1858.14008178048
1858.14008178007
1858.14008177968
1858.14008177933
1858.14008177901
1858.14008177871
1858.14008177842
1858.14008177826
1858.14008177816
1858.14008177809
1858.14008177806
1858.14008177806
1858.14008177807
1858.14008177824
1858.14008177848
1858.14008177872
1858.14008177917
1858.14008177967
1858.14008178025
1858.14008178094
1858.14008178179
1858.14008178285
1858.1400817845
1858.14008178929
1858.14008180753
1858.14008188677
1858.14008224707
1858.14008386623
1858.14009032856
1858.1401064787
1858.14023227441
1858.14004058873
1858.14002134604
1858.14001759168
1858.14001617505
1858.14001576024
1858.14001565419
1858.14001562858
1858.14001562162
1858.14001561881
1858.14001561703
1858.14001561555
1858.14001561424
1858.14001561309
1858.14001561206
1858.14001561112
1858.14001561027
1858.1400156095
1858.14001560879
1858.14001560815
1858.14001560759
1858.14001560709
1858.14001560664
1858.14001560624
1858.14001560589
1858.14001560558
1858.14001560532
1858.14001560512
1858.14001560498
1858.1400156049
1858.14001560487
1858.14001560489
1858.14001560497
1858.14001560515
1858.1400156054
1858.14001560572
1858.14001560616
1858.1400156067
1858.14001560735
1858.14001560814
1858.14001560909
1858.14001561022
1858.14001561164
1858.14001561385
1858.14001561892
1858.14001563628
1858.14001570976
1858.14001603786
1858.14001736901
1858.14002082587
1858.14004694771
1858.14000858896
1858.14000475625
1858.14000378975
1858.14000345585
1858.14000336673
1858.14000334369
1858.14000333685
1858.14000333385
1858.14000333181
1858.14000333012
1858.14000332862
1858.14000332728
1858.14000332607
1858.14000332497
1858.14000332398
1858.14000332309
1858.14000332228
1858.14000332154
1858.14000332087
1858.14000332027
1858.14000331974
1858.14000331926
1858.14000331884
1858.14000331847
1858.14000331815
1858.14000331789
1858.14000331768
1858.14000331753
1858.14000331744
1858.14000331741
1858.14000331744
1858.14000331754
1858.14000331772
1858.14000331798
1858.14000331833
1858.14000331878
1858.14000331933
1858.14000332001
1858.14000332083
1858.1400033218
1858.14000332294
1858.14000332429
1858.14000332595
1858.14000332832
1858.14000333315
1858.14000334905
1858.14000341973
1858.14000373282
1858.14000461967
1858.14000989962
1858.14000238593
1858.14000165226
1858.14000125389
1858.14000113426
1858.14000111034
1858.14000110427
1858.14000110138
1858.14000109924
1858.14000109739
1858.14000109573
1858.14000109422
1858.14000109286
1858.14000109162
1858.1400010905
1858.14000108948
1858.14000108856
1858.14000108772
1858.14000108696
1858.14000108627
1858.14000108565
1858.1400010851
1858.1400010846
1858.14000108416
1858.14000108378
1858.14000108345
1858.14000108318
1858.14000108297
1858.14000108281
1858.14000108272
1858.14000108269
1858.14000108272
1858.14000108283
1858.14000108301
1858.14000108328
1858.14000108363
1858.1400010841
1858.14000108467
1858.14000108536
1858.14000108618
1858.14000108716
1858.14000108829
1858.14000108961
1858.14000109113
1858.14000109291
1858.14000109519
1858.14000109971
1858.14000112013
1858.1400012354
1858.14000161042
1858.14000264105
1858.14000120433
1858.1400010805
1858.14000079613
1858.14000071835
1858.14000070736
1858.14000070477
1858.14000070275
1858.14000070084
1858.14000069905
1858.14000069741
1858.14000069591
1858.14000069453
1858.14000069328
1858.14000069214
1858.1400006911
1858.14000069015
1858.14000068929
1858.14000068851
1858.14000068781
1858.14000068717
1858.1400006866
1858.14000068609
1858.14000068564
1858.14000068524
1858.14000068491
1858.14000068463
1858.14000068441
1858.14000068425
1858.14000068415
1858.14000068412
1858.14000068416
1858.14000068427
1858.14000068445
1858.14000068473
1858.14000068509
1858.14000068556
1858.14000068614
1858.14000068684
1858.14000068767
1858.14000068865
1858.14000068977
1858.14000069106
1858.14000069252
1858.14000069412
1858.14000069583
1858.14000069806
1858.14000070875
1858.14000078617
1858.14000106064
1858.14000124406
1858.14000098258
1858.14000097653
1858.14000071482
1858.14000064521
1858.14000063684
1858.14000063504
1858.14000063326
1858.14000063144
1858.1400006297
1858.14000062807
1858.14000062657
1858.14000062519
1858.14000062392
1858.14000062277
1858.14000062171
1858.14000062074
1858.14000061987
1858.14000061907
1858.14000061835
1858.1400006177
1858.14000061711
1858.14000061659
1858.14000061613
1858.14000061572
1858.14000061538
1858.1400006151
1858.14000061487
1858.14000061471
1858.14000061461
1858.14000061458
1858.14000061462
1858.14000061473
1858.14000061492
1858.1400006152
1858.14000061557
1858.14000061605
1858.14000061663
1858.14000061734
1858.14000061817
1858.14000061914
1858.14000062026
1858.14000062152
1858.14000062293
1858.14000062445
1858.14000062597
1858.14000062766
1858.1400006364
1858.14000070657
1858.14000096137
1858.14000097917
1858.14000094138
1858.14000095775
1858.14000070061
1858.14000063266
1858.1400006249
1858.14000062334
1858.14000062167
1858.14000061991
1858.1400006182
1858.14000061659
1858.14000061509
1858.14000061371
1858.14000061243
1858.14000061126
1858.14000061019
1858.14000060921
1858.14000060832
1858.14000060751
1858.14000060677
1858.14000060611
1858.14000060551
1858.14000060498
1858.14000060451
1858.1400006041
1858.14000060375
1858.14000060346
1858.14000060324
1858.14000060307
1858.14000060297
1858.14000060294
1858.14000060297
1858.14000060309
1858.14000060328
1858.14000060357
1858.14000060394
1858.14000060443
1858.14000060502
1858.14000060572
1858.14000060656
1858.14000060752
1858.14000060863
1858.14000060987
1858.14000061124
1858.1400006127
1858.14000061412
1858.14000061562
1858.14000062389
1858.14000069259
1858.14000094341
1858.14000092935
1858.14000093368
1858.1400009543
1858.14000069817
1858.14000063064
1858.14000062307
1858.14000062163
1858.14000062003
1858.14000061831
1858.14000061663
1858.14000061504
1858.14000061355
1858.14000061216
1858.14000061088
1858.1400006097
1858.14000060862
1858.14000060763
1858.14000060673
1858.1400006059
1858.14000060516
1858.14000060448
1858.14000060388
1858.14000060334
1858.14000060286
1858.14000060244
1858.14000060209
1858.1400006018
1858.14000060157
1858.1400006014
1858.1400006013
1858.14000060126
1858.1400006013
1858.14000060142
1858.14000060162
1858.14000060191
1858.14000060229
1858.14000060277
1858.14000060337
1858.14000060408
1858.14000060491
1858.14000060587
1858.14000060697
1858.14000060819
1858.14000060952
1858.14000061093
1858.14000061228
1858.14000061367
1858.14000062177
1858.14000069009
1858.14000093998
1858.14000091984
1858.14000093213
1858.14000095359
1858.14000069776
1858.14000063038
1858.14000062292
1858.14000062155
1858.14000062001
1858.14000061833
1858.14000061667
1858.14000061509
1858.1400006136
1858.14000061222
1858.14000061093
1858.14000060974
1858.14000060865
1858.14000060766
1858.14000060675
1858.14000060591
1858.14000060516
1858.14000060448
1858.14000060387
1858.14000060332
1858.14000060284
1858.14000060242
1858.14000060206
1858.14000060177
1858.14000060153
1858.14000060136
1858.14000060126
1858.14000060123
1858.14000060127
1858.14000060139
1858.14000060159
1858.14000060188
1858.14000060226
1858.14000060275
1858.14000060335
1858.14000060406
1858.14000060489
1858.14000060585
1858.14000060693
1858.14000060814
1858.14000060944
1858.14000061081
1858.1400006121
1858.14000061342
1858.14000062142
1858.14000068958
1858.14000093917
1858.14000091783
1858.14000093171
1858.14000095337
1858.14000069768
1858.14000063038
1858.14000062299
1858.14000062167
1858.14000062017
1858.14000061852
1858.14000061688
1858.14000061531
1858.14000061383
1858.14000061244
1858.14000061115
1858.14000060996
1858.14000060887
1858.14000060786
1858.14000060695
1858.14000060611
1858.14000060535
1858.14000060466
1858.14000060405
1858.1400006035
1858.14000060301
1858.14000060259
1858.14000060223
1858.14000060193
1858.1400006017
1858.14000060153
1858.14000060142
1858.14000060139
1858.14000060144
1858.14000060156
1858.14000060176
1858.14000060205
1858.14000060244
1858.14000060293
1858.14000060353
1858.14000060424
1858.14000060508
1858.14000060603
1858.1400006071
1858.14000060829
1858.14000060958
1858.14000061091
1858.14000061216
1858.14000061343
1858.14000062135
1858.14000068943
1858.14000093885
1858.14000091727
1858.14000093152
1858.14000095324
1858.14000069763
1858.14000063039
1858.14000062304
1858.14000062176
1858.14000062028
1858.14000061865
1858.14000061703
1858.14000061546
1858.14000061399
1858.1400006126
1858.14000061131
1858.14000061012
1858.14000060902
1858.14000060801
1858.14000060709
1858.14000060625
1858.14000060549
1858.1400006048
1858.14000060418
1858.14000060363
1858.14000060314
1858.14000060272
1858.14000060235
1858.14000060206
1858.14000060182
1858.14000060165
1858.14000060155
1858.14000060152
1858.14000060156
1858.14000060168
1858.14000060189
1858.14000060218
1858.14000060257
1858.14000060307
1858.14000060367
1858.14000060438
1858.14000060522
1858.14000060617
1858.14000060724
1858.14000060842
1858.14000060969
1858.140000611
1858.14000061222
1858.14000061345
1858.14000062133
1858.14000068935
1858.14000093868
1858.14000091703
1858.14000093139
1858.14000095312
1858.14000069758
1858.14000063036
1858.14000062303
1858.14000062177
1858.14000062031
1858.14000061869
1858.14000061707
1858.14000061551
1858.14000061403
1858.14000061265
1858.14000061136
1858.14000061016
1858.14000060907
1858.14000060806
1858.14000060713
1858.14000060629
1858.14000060553
1858.14000060484
1858.14000060422
1858.14000060367
1858.14000060318
1858.14000060276
1858.1400006024
1858.1400006021
1858.14000060187
1858.1400006017
1858.1400006016
1858.14000060157
1858.14000060161
1858.14000060173
1858.14000060194
1858.14000060224
1858.14000060263
1858.14000060312
1858.14000060373
1858.14000060444
1858.14000060527
1858.14000060622
1858.14000060729
1858.14000060847
1858.14000060973
1858.14000061103
1858.14000061224
1858.14000061345
1858.14000062131
1858.1400006893
1858.14000093857
1858.1400009169
1858.14000093127
1858.14000095301
1858.14000069749
1858.14000063029
1858.14000062296
1858.14000062169
1858.14000062024
1858.14000061862
1858.140000617
1858.14000061544
1858.14000061396
1858.14000061258
1858.14000061129
1858.1400006101
1858.140000609
1858.14000060799
1858.14000060707
1858.14000060624
1858.14000060547
1858.14000060479
1858.14000060417
1858.14000060362
1858.14000060313
1858.14000060271
1858.14000060235
1858.14000060206
1858.14000060183
1858.14000060166
1858.14000060156
1858.14000060153
1858.14000060158
1858.1400006017
1858.14000060191
1858.14000060221
1858.1400006026
1858.14000060309
1858.1400006037
1858.14000060441
1858.14000060525
1858.1400006062
1858.14000060726
1858.14000060844
1858.1400006097
1858.140000611
1858.14000061221
1858.14000061342
1858.14000062128
1858.14000068926
1858.14000093852
1858.14000091685
1858.14000093118
1858.14000095289
1858.14000069739
1858.14000063017
1858.14000062282
1858.14000062154
1858.14000062007
1858.14000061844
1858.14000061682
1858.14000061526
1858.14000061378
1858.14000061239
1858.14000061111
1858.14000060992
1858.14000060883
1858.14000060782
1858.14000060691
1858.14000060607
1858.14000060532
1858.14000060463
1858.14000060402
1858.14000060347
1858.14000060299
1858.14000060257
1858.14000060222
1858.14000060193
1858.1400006017
1858.14000060153
1858.14000060143
1858.14000060141
1858.14000060145
1858.14000060158
1858.14000060179
1858.14000060209
1858.14000060248
1858.14000060297
1858.14000060358
1858.14000060429
1858.14000060513
1858.14000060608
1858.14000060715
1858.14000060833
1858.1400006096
1858.14000061091
1858.14000061213
1858.14000061335
1858.14000062123
1858.14000068924
1858.14000093853
1858.14000091687
1858.1400009311
1858.14000095277
1858.14000069725
1858.14000063
1858.14000062262
1858.1400006213
1858.1400006198
1858.14000061816
1858.14000061652
1858.14000061495
1858.14000061348
1858.14000061209
1858.14000061081
1858.14000060963
1858.14000060854
1858.14000060754
1858.14000060664
1858.14000060581
1858.14000060506
1858.14000060438
1858.14000060377
1858.14000060323
1858.14000060276
1858.14000060234
1858.14000060199
1858.1400006017
1858.14000060148
1858.14000060132
1858.14000060122
1858.1400006012
1858.14000060124
1858.14000060137
1858.14000060158
1858.14000060188
1858.14000060227
1858.14000060277
1858.14000060337
1858.14000060409
1858.14000060492
1858.14000060588
1858.14000060695
1858.14000060814
1858.14000060943
1858.14000061076
1858.140000612
1858.14000061326
1858.14000062118
1858.14000068924
1858.14000093859
1858.14000091697
1858.14000093106
1858.14000095266
1858.1400006971
1858.14000062979
1858.14000062235
1858.14000062098
1858.14000061944
1858.14000061777
1858.14000061612
1858.14000061454
1858.14000061306
1858.14000061168
1858.1400006104
1858.14000060922
1858.14000060814
1858.14000060716
1858.14000060626
1858.14000060544
1858.1400006047
1858.14000060403
1858.14000060343
1858.1400006029
1858.14000060243
1858.14000060202
1858.14000060168
1858.14000060139
1858.14000060117
1858.14000060101
1858.14000060092
1858.1400006009
1858.14000060095
1858.14000060108
1858.14000060129
1858.14000060158
1858.14000060198
1858.14000060247
1858.14000060307
1858.14000060379
1858.14000060462
1858.14000060558
1858.14000060667
1858.14000060787
1858.14000060918
1858.14000061054
1858.14000061182
1858.14000061314
1858.14000062112
1858.14000068925
1858.14000093871
1858.14000091714
1858.14000093106
1858.14000095257
1858.14000069693
1858.14000062954
1858.14000062201
1858.14000062057
1858.14000061898
1858.14000061727
1858.1400006156
1858.14000061401
1858.14000061252
1858.14000061114
1858.14000060987
1858.14000060871
1858.14000060764
1858.14000060666
1858.14000060577
1858.14000060497
1858.14000060424
1858.14000060358
1858.14000060299
1858.14000060247
1858.14000060201
1858.14000060161
1858.14000060127
1858.140000601
1858.14000060078
1858.14000060063
1858.14000060054
1858.14000060052
1858.14000060057
1858.1400006007
1858.1400006009
1858.1400006012
1858.14000060159
1858.14000060208
1858.14000060268
1858.1400006034
1858.14000060424
1858.1400006052
1858.1400006063
1858.14000060752
1858.14000060885
1858.14000061025
1858.1400006116
1858.14000061298
1858.14000062105
1858.14000068928
1858.1400009389
1858.14000091741
1858.14000093111
1858.14000095251
1858.14000069675
1858.14000062925
1858.14000062161
1858.14000062008
1858.14000061843
1858.14000061667
1858.14000061496
1858.14000061336
1858.14000061187
1858.1400006105
1858.14000060923
1858.14000060808
1858.14000060702
1858.14000060606
1858.14000060519
1858.1400006044
1858.14000060368
1858.14000060304
1858.14000060246
1858.14000060195
1858.1400006015
1858.14000060111
1858.14000060078
1858.14000060051
1858.1400006003
1858.14000060015
1858.14000060007
1858.14000060005
1858.1400006001
1858.14000060023
1858.14000060044
1858.14000060073
1858.14000060112
1858.14000060161
1858.14000060221
1858.14000060292
1858.14000060376
1858.14000060473
1858.14000060584
1858.14000060708
1858.14000060845
1858.1400006099
1858.14000061131
1858.14000061279
1858.14000062098
1858.14000068934
1858.14000093918
1858.14000091778
1858.14000093125
1858.1400009525
1858.14000069657
1858.14000062892
1858.14000062114
1858.1400006195
1858.14000061777
1858.14000061596
1858.14000061422
1858.1400006126
1858.14000061111
1858.14000060974
1858.14000060849
1858.14000060734
1858.14000060631
1858.14000060536
1858.14000060451
1858.14000060373
1858.14000060304
1858.14000060241
1858.14000060185
1858.14000060135
1858.14000060091
1858.14000060053
1858.14000060021
1858.14000059995
1858.14000059974
1858.1400005996
1858.14000059952
1858.1400005995
1858.14000059956
1858.14000059969
1858.14000059989
1858.14000060018
1858.14000060057
1858.14000060105
1858.14000060165
1858.14000060236
1858.1400006032
1858.14000060418
1858.1400006053
1858.14000060656
1858.14000060797
1858.14000060948
1858.14000061097
1858.14000061256
1858.14000062089
1858.14000068943
1858.14000093955
1858.14000091828
1858.14000093149
1858.14000095256
1858.14000069639
1858.14000062855
1858.1400006206
1858.14000061883
1858.140000617
1858.14000061513
1858.14000061336
1858.14000061172
1858.14000061023
1858.14000060887
1858.14000060763
1858.1400006065
1858.14000060549
1858.14000060456
1858.14000060373
1858.14000060297
1858.14000060229
1858.14000060168
1858.14000060114
1858.14000060066
1858.14000060023
1858.14000059986
1858.14000059955
1858.1400005993
1858.1400005991
1858.14000059897
1858.14000059889
1858.14000059888
1858.14000059893
1858.14000059906
1858.14000059926
1858.14000059955
1858.14000059993
1858.14000060041
1858.140000601
1858.14000060171
1858.14000060255
1858.14000060353
1858.14000060466
1858.14000060595
1858.1400006074
1858.14000060898
1858.14000061057
1858.1400006123
1858.1400006208
1858.14000068955
1858.14000094004
1858.14000091894
1858.14000093187
1858.14000095273
1858.14000069622
1858.14000062813
1858.14000061998
1858.14000061806
1858.14000061613
1858.14000061419
1858.14000061238
1858.14000061073
1858.14000060924
1858.14000060788
1858.14000060666
1858.14000060556
1858.14000060456
1858.14000060366
1858.14000060285
1858.14000060212
1858.14000060146
1858.14000060087
1858.14000060035
1858.14000059988
1858.14000059947
1858.14000059912
1858.14000059882
1858.14000059858
1858.14000059839
1858.14000059826
1858.14000059819
1858.14000059818
1858.14000059823
1858.14000059836
1858.14000059856
1858.14000059884
1858.14000059922
1858.14000059969
1858.14000060027
1858.14000060098
1858.14000060181
1858.14000060279
1858.14000060394
1858.14000060525
1858.14000060675
1858.1400006084
1858.1400006101
1858.14000061198
1858.1400006207
1858.14000068973
1858.14000094068
1858.14000091978
1858.14000093244
1858.14000095302
1858.14000069607
1858.14000062768
1858.14000061928
1858.14000061719
1858.14000061514
1858.14000061313
1858.14000061128
1858.14000060962
1858.14000060813
1858.14000060679
1858.14000060559
1858.14000060452
1858.14000060355
1858.14000060267
1858.14000060189
1858.14000060118
1858.14000060055
1858.14000059998
1858.14000059947
1858.14000059902
1858.14000059863
1858.14000059829
1858.14000059801
1858.14000059777
1858.1400005976
1858.14000059747
1858.14000059741
1858.1400005974
1858.14000059745
1858.14000059758
1858.14000059778
1858.14000059806
1858.14000059842