/*--------------------------------*- C++ -*----------------------------------*\
  =========                 |
  \\      /  F ield         | OpenFOAM: The Open Source CFD Toolbox
   \\    /   O peration     | Website:  https://openfoam.org
    \\  /    A nd           | Version:  10
     \\/     M anipulation  |
\*---------------------------------------------------------------------------*/
FoamFile
{
    format      ascii;
    class       volScalarField;
    location    "1.6";
    object      k;
}
// * * * * * * * * * * * * * * * * * * * * * * * * * * * * * * * * * * * * * //

dimensions      [0 2 -2 0 0 0 0];

internalField   nonuniform List<scalar> 
2500
(
6.66937244470143e-08
2.45764667817416e-07
6.68325002691993e-07
8.89656524070702e-07
9.72226233949585e-07
9.97091571159319e-07
1.00347860775527e-06
1.00492854587335e-06
1.0052266903445e-06
1.00528312023913e-06
1.00529267690618e-06
1.00529361482807e-06
1.00529327208767e-06
1.00529282579338e-06
1.00529236534704e-06
1.00529195389106e-06
1.00529162676019e-06
1.00529135735434e-06
1.00529112421027e-06
1.00529091673966e-06
1.0052907306533e-06
1.00529056365001e-06
1.00529041507706e-06
1.00529028501887e-06
1.00529017269275e-06
1.005290077653e-06
1.00529000073197e-06
1.00528994230322e-06
1.00528990358993e-06
1.00528989772964e-06
1.00528993547927e-06
1.00529001284856e-06
1.00529008516197e-06
1.00529014338725e-06
1.00529026961418e-06
1.00529042793074e-06
1.0052906204402e-06
1.00529079569637e-06
1.00529050425549e-06
1.00528694760771e-06
1.00526651842194e-06
1.00516715041238e-06
1.0047142826348e-06
1.0027908059243e-06
9.95282784136264e-07
9.68859819711922e-07
8.87313211791271e-07
6.75841709822295e-07
2.55962295534453e-07
6.89851162304275e-08
3.75939302624348e-07
4.87455422971972e-06
1.67348685268914e-05
2.3274773726934e-05
2.58435928527706e-05
2.66513430504154e-05
2.68663026311604e-05
2.6916540982022e-05
2.69271249913664e-05
2.69291696078335e-05
2.69295267415138e-05
2.69295698187482e-05
2.69295618808464e-05
2.69295499649832e-05
2.69295376832076e-05
2.6929526674152e-05
2.69295176122232e-05
2.69295100673671e-05
2.69295035403502e-05
2.69294977548251e-05
2.69294925838982e-05
2.69294879665784e-05
2.69294838715077e-05
2.69294802818241e-05
2.69294771898929e-05
2.69294745994238e-05
2.69294725127701e-05
2.69294709472539e-05
2.69294699555589e-05
2.69294699871106e-05
2.69294711274494e-05
2.69294730124196e-05
2.69294751333311e-05
2.69294769364356e-05
2.69294804316549e-05
2.69294845917091e-05
2.69294895721032e-05
2.69294935379607e-05
2.69294799042098e-05
2.69293464354675e-05
2.69286176124787e-05
2.69251324760497e-05
2.69095066266573e-05
2.68444361857372e-05
2.65963780254328e-05
2.57482704582831e-05
2.32232499564024e-05
1.69633837601035e-05
5.14357056620148e-06
4.17589465123938e-07
9.15113661783093e-07
1.92499032878792e-05
7.61070810782946e-05
0.000106315637310882
0.000118464964060699
0.000122417226139484
0.000123505499483389
0.00012376796988195
0.000123824862533066
0.0001238361441071
0.000123838183012595
0.000123838470945488
0.000123838455263657
0.000123838410257916
0.000123838362088225
0.000123838318503255
0.000123838281927228
0.000123838251179032
0.000123838224500757
0.000123838200811501
0.000123838179584506
0.000123838160572288
0.000123838143648467
0.000123838128747218
0.000123838115837183
0.00012383810492275
0.000123838096014462
0.00012383808918096
0.000123838084654032
0.000123838084183821
0.000123838087073234
0.000123838093537331
0.000123838102001766
0.000123838109565126
0.000123838122017591
0.00012383813580625
0.000123838154201456
0.000123838165516572
0.000123838076126956
0.000123837347110848
0.000123833541304828
0.000123815551786243
0.000123735860136277
0.000123408746427592
0.000122183211210074
0.000118078748504623
0.000106131709085241
7.70382867359271e-05
2.01739074998311e-05
1.00626474125006e-06
1.37712315626779e-06
3.14665229156517e-05
0.000124020173142438
0.000171879498871082
0.000191159000088218
0.000197503426139947
0.000199278181743329
0.000199713799250784
0.000199809968063303
0.000199829400664275
0.000199832997563104
0.000199833547063389
0.000199833554340409
0.000199833496931909
0.00019983343194698
0.000199833372526784
0.000199833322101053
0.000199833279315035
0.000199833241960568
0.000199833208624342
0.000199833178598372
0.000199833151555585
0.000199833127323871
0.000199833105818778
0.000199833086994806
0.000199833070848713
0.000199833057389255
0.000199833046694376
0.000199833038974044
0.000199833035688561
0.000199833037134554
0.00019983304608673
0.000199833054112349
0.000199833063150247
0.000199833075581103
0.000199833094123672
0.00019983311513717
0.000199833124950336
0.000199832974128912
0.000199831851636652
0.000199826022851801
0.000199798217677977
0.000199673969383674
0.000199159894470376
0.000197220960801343
0.000190694144195612
0.00017162268363898
0.000124954990540652
3.24300428359122e-05
1.47146685830516e-06
1.70894291678818e-06
4.06044807769052e-05
0.000159750126523529
0.000220385597086708
0.000244898835380379
0.000253047451999684
0.000255357675762707
0.00025593340778629
0.000256062594332745
0.000256089152720833
0.000256094179101632
0.000256094995066641
0.000256095046278847
0.000256094992148114
0.000256094924719712
0.00025609486194032
0.000256094807876501
0.000256094761414459
0.000256094720464403
0.000256094683636861
0.000256094650220944
0.000256094619892409
0.000256094592477463
0.00025609456789747
0.00025609454610573
0.00025609452709943
0.000256094510885457
0.000256094497533421
0.000256094487180662
0.000256094480565679
0.00025609447971669
0.000256094484483482
0.000256094490793043
0.000256094498720976
0.000256094509355513
0.000256094525478222
0.00025609454287451
0.000256094542579876
0.000256094337254229
0.000256092951379087
0.000256085780756077
0.000256051294180656
0.000255896007628655
0.000255248942819697
0.000252793794173664
0.000244493293909134
0.000220175547502546
0.000160560242048522
4.14451414462984e-05
1.7956852409866e-06
1.9246491806848e-06
4.68129232610509e-05
0.000184443831537589
0.000253892159967153
0.000282089981439906
0.000291545768699706
0.000294256958103551
0.00029494135229389
0.000295097081506074
0.000295129583488463
0.000295135852713559
0.000295136920482333
0.000295137026557205
0.000295136984619668
0.000295136923627799
0.000295136865239678
0.000295136813987613
0.000295136769213913
0.000295136729252263
0.000295136692949058
0.00029513665970143
0.000295136629240593
0.00029513660142324
0.000295136576192679
0.000295136553512043
0.00029513653338608
0.000295136515821739
0.00029513650087782
0.000295136488643425
0.000295136479495751
0.000295136474804642
0.000295136474930604
0.000295136478560742
0.000295136483315618
0.000295136490994138
0.000295136501369572
0.000295136511983885
0.000295136497975407
0.000295136245988978
0.000295134688698987
0.000295126649284591
0.000295087752310143
0.000294911602907611
0.000294173692407793
0.000291361561806072
0.000281825970926406
0.000253852542383551
0.00018525436431368
4.75722591301049e-05
2.00602972545568e-06
2.05486373325506e-06
5.07176845372726e-05
0.000200412083475778
0.000275655379923641
0.000306336104274817
0.000316699326839939
0.00031969806454975
0.000320463065561529
0.000320639171580135
0.000320676398526967
0.000320683691968257
0.000320684982909615
0.000320685146831018
0.000320685118178285
0.000320685067384707
0.000320685016855045
0.000320684971440708
0.000320684930975826
0.000320684894303598
0.000320684860582942
0.000320684829365476
0.000320684800461599
0.000320684773772839
0.000320684749271595
0.000320684726937136
0.000320684706784454
0.000320684688822097
0.000320684673099637
0.00032068465967388
0.000320684648735921
0.000320684640906513
0.000320684637043757
0.00032068463648334
0.000320684639115276
0.000320684642683703
0.00032068464731559
0.000320684650778399
0.000320684621363204
0.000320684332599469
0.000320682671031593
0.000320674088781081
0.000320632405053656
0.00032044287377749
0.000319645906726454
0.000316599450650661
0.000306249296809485
0.000275866802638095
0.000201377782940147
5.14770223772367e-05
2.13500659731828e-06
2.12889539853301e-06
5.30210858151624e-05
0.000210148353457549
0.000289027994835881
0.000321309969487631
0.000332276547965632
0.00033547275120784
0.000336294966351489
0.000336486024028218
0.000336526836008406
0.000336534933436452
0.000336536408115421
0.00033653661966803
0.000336536608539109
0.000336536568459058
0.000336536526308639
0.00033653648735384
0.00033653645186502
0.000336536419147123
0.000336536388657986
0.000336536360104019
0.00033653633337604
0.000336536308421437
0.000336536285241737
0.000336536263833294
0.000336536244221448
0.000336536226416982
0.000336536210462745
0.000336536196394671
0.000336536184318358
0.000336536174501921
0.000336536167405611
0.000336536163280743
0.000336536161431293
0.000336536160914959
0.000336536160927065
0.000336536158534177
0.000336536113837893
0.000336535804680286
0.000336534080228144
0.000336525172894833
0.000336481810440238
0.000336284114518783
0.000335450695284371
0.000332258408455001
0.000321399340360615
0.000289512699987646
0.000211359051873271
5.38350566797031e-05
2.2104239095172e-06
2.16892724287419e-06
5.43082905344671e-05
0.00021578403167746
0.000296845779864065
0.000330117299794532
0.000341468529493951
0.000344794733945116
0.00034565585997578
0.000345857421057767
0.000345900834378013
0.000345909535309988
0.000345911150935267
0.000345911401285479
0.000345911405837643
0.000345911375074716
0.000345911340234024
0.000345911307031764
0.000345911276080065
0.000345911247041637
0.00034591121961571
0.000345911193638605
0.000345911169069807
0.000345911145895943
0.00034591112414329
0.000345911103823042
0.000345911084969342
0.000345911067595151
0.000345911051738679
0.000345911037422133
0.000345911024709626
0.000345911013716984
0.000345911004665091
0.000345910997695757
0.00034591099261461
0.000345910988917371
0.000345910985734305
0.000345910977429562
0.000345910923802615
0.000345910602106706
0.000345908839541536
0.000345899745852919
0.000345855419243641
0.000345652981934728
0.000344798173057282
0.000341519673768204
0.000330358593656013
0.000297579083665156
0.000217253872722892
5.51952196655255e-05
2.25275827176332e-06
2.1896713665862e-06
5.49951778578407e-05
0.000218899899606199
0.000301217527493254
0.000335076346945588
0.000346663172556552
0.000350071589848764
0.000350958123946637
0.000351166764734594
0.000351211987450891
0.000351221121999441
0.000351222841111463
0.00035122312088982
0.000351223137641361
0.000351223114094997
0.000351223084931689
0.000351223056271439
0.000351223028971522
0.000351223002943242
0.000351222978059481
0.000351222954253486
0.000351222931536685
0.000351222909925688
0.000351222889465333
0.00035122287017826
0.000351222852105143
0.000351222835260688
0.000351222819679902
0.000351222805376
0.000351222792391397
0.00035122278077521
0.000351222770635669
0.000351222762045415
0.000351222754960176
0.000351222749077647
0.000351222743371085
0.000351222731221701
0.000351222672254989
0.000351222342444648
0.000351220557833257
0.000351211361822286
0.000351166506191729
0.000350961441543282
0.000350094664826082
0.000346767580262458
0.000335435584495253
0.000302150006961946
0.000220593492867665
5.59493556979669e-05
2.27569096657441e-06
2.20003440049789e-06
5.53474591605205e-05
0.000220554406017279
0.000303567602846498
0.000337762123132452
0.000349487942951988
0.000352946427559885
0.000353848931184994
0.000354062162414847
0.000354108594785874
0.000354118028177123
0.000354119820261161
0.00035412012124785
0.00035412014694537
0.000354120128548637
0.00035412010348126
0.000354120078153753
0.000354120053587616
0.000354120029852684
0.000354120006936016
0.000354119984836633
0.000354119963601947
0.000354119943269176
0.00035411992389599
0.000354119905512878
0.000354119888164846
0.00035411987186781
0.000354119856654549
0.000354119842532466
0.00035411982953181
0.000354119817671085
0.000354119807006003
0.000354119797567664
0.000354119789345883
0.000354119782111041
0.000354119774743262
0.0003541197602817
0.000354119698122654
0.000354119363453615
0.000354117566639774
0.000354108316724029
0.000354063182983239
0.000353856724357932
0.000352983538072224
0.000349630242848801
0.000338205594513108
0.000304644883945254
0.000222417271372668
5.63533081635675e-05
2.28773041815484e-06
2.20504941692918e-06
5.55220223302137e-05
0.000221402226459123
0.00030478744545475
0.000339167338070414
0.000350972370608104
0.000354460298736555
0.000355372489949819
0.000355588592187141
0.000355635804043766
0.000355645435678249
0.000355647277310306
0.000355647593149207
0.000355647625174805
0.000355647610109971
0.000355647587866015
0.000355647564887356
0.000355647542294474
0.000355647520250738
0.000355647498812454
0.000355647478019939
0.000355647457943582
0.000355647438633657
0.000355647420155913
0.000355647402545732
0.000355647385850726
0.000355647370087405
0.000355647355287036
0.000355647341453196
0.000355647328609117
0.000355647316758436
0.000355647305931866
0.000355647296136976
0.000355647287364615
0.00035564727940508
0.000355647271092503
0.000355647255341006
0.000355647191400396
0.000355646854016845
0.000355645050753087
0.000355635773547439
0.000355590499284762
0.000355383329855101
0.000354506844222534
0.000351139953754577
0.000339666976166844
0.000305962138150915
0.000223381405582089
5.65632195783169e-05
2.29387753178609e-06
2.20740949123352e-06
5.56059568432752e-05
0.000221823231886363
0.000305401251270376
0.000339880335866107
0.000351729103310359
0.00035523379902222
0.000356151678048826
0.00035636951708858
0.000356417214453751
0.000356426973106148
0.00035642884724985
0.00035642917360577
0.000356429210210644
0.000356429196663284
0.000356429176319096
0.000356429154985119
0.000356429133817046
0.000356429113027785
0.000356429092712453
0.000356429072935463
0.000356429053780663
0.000356429035305961
0.000356429017581666
0.000356429000645896
0.000356428984547633
0.000356428969303519
0.000356428954943658
0.000356428941469196
0.000356428928899072
0.000356428917229326
0.000356428906478478
0.000356428896641047
0.000356428887702645
0.000356428879456955
0.000356428870718605
0.000356428854357546
0.000356428789545062
0.00035642845078653
0.000356426644306986
0.000356417353835821
0.000356372011143369
0.000356164492078686
0.000355286367416732
0.000351912667975833
0.000340415328512256
0.000306637435086437
0.000223876607283882
5.66694012563992e-05
2.29693881444124e-06
2.2084929248168e-06
5.56452532467131e-05
0.000222026536182586
0.0003057016807208
0.000340232351769929
0.000352104579357786
0.000355618547520947
0.000356539667371303
0.000356758525390206
0.00035680651585337
0.000356816353362266
0.000356818248138299
0.000356818581394477
0.000356818620781126
0.000356818608777181
0.000356818589767054
0.000356818569621064
0.000356818549517915
0.000356818529695057
0.000356818510267826
0.000356818491314039
0.000356818472924585
0.000356818455161424
0.000356818438096991
0.000356818421770767
0.000356818406232183
0.000356818391497743
0.00035681837759662
0.000356818364528326
0.000356818352309094
0.000356818340930768
0.000356818330405544
0.000356818320720999
0.000356818311858213
0.000356818303611399
0.000356818294791539
0.000356818278259943
0.000356818213149307
0.000356817873821217
0.000356816065882391
0.000356806769258577
0.000356761394392286
0.000356553708830326
0.000355674795230852
0.000352297789524257
0.000340788534504591
0.000306974671132904
0.000224124497425753
5.67218319955494e-05
2.29842934447748e-06
2.20897959998574e-06
5.56632145888758e-05
0.000222122284256565
0.000305845125602352
0.000340401944773486
0.00035228643228688
0.000355805392932398
0.000356728309476766
0.000356947748785155
0.000356995911202613
0.00035700579631799
0.000357007703880909
0.000357008041433407
0.000357008082942916
0.000357008072213191
0.000357008054212803
0.000357008034988687
0.000357008015739151
0.000357007996713787
0.000357007978037714
0.000357007959796547
0.000357007942084227
0.000357007924964201
0.000357007908509732
0.000357007892760647
0.000357007877766338
0.00035700786354297
0.000357007850118811
0.000357007837492294
0.000357007825677714
0.000357007814664501
0.000357007804461258
0.00035700779505174
0.000357007786414521
0.000357007778345715
0.000357007769663079
0.000357007753240027
0.000357007688192848
0.000357007348772298
0.000357005540307913
0.00035699624102729
0.000356950851571839
0.000356743088994843
0.000355863805939023
0.000352485237375327
0.00034097030562248
0.00030713917763843
0.00022424575136092
5.67471609904652e-05
2.29914048345037e-06
2.20919444076189e-06
5.5671243352226e-05
0.000222166359777385
0.000305912094458951
0.000340481866182306
0.000352372612047518
0.000355894196736247
0.000356818084919593
0.00035703784746784
0.000357086108197783
0.000357096021390393
0.000357097936802684
0.000357098277142734
0.000357098320275906
0.000357098310610138
0.000357098293450057
0.000357098275010795
0.00035709825650569
0.000357098238190396
0.000357098220194469
0.00035709820261043
0.000357098185532588
0.000357098169024087
0.000357098153158032
0.000357098137974129
0.000357098123521347
0.000357098109815494
0.00035709809688396
0.000357098084724237
0.000357098073349164
0.00035709806274642
0.000357098052922273
0.000357098043858243
0.000357098035531656
0.000357098027742369
0.000357098019321822
0.000357098003170033
0.000357097938400489
0.000357097599154563
0.000357095790644668
0.000357086490376006
0.00035704109458776
0.000356833297294285
0.000355953845119782
0.000352574554148083
0.000341056977535584
0.000307217743748585
0.000224303827759252
5.67591532743699e-05
2.29947411062319e-06
2.20928735234792e-06
5.56747540450857e-05
0.000222186216407596
0.000305942715313269
0.000340518774200429
0.000352412649581953
0.00035593558435634
0.00035685998646493
0.000357079924687902
0.000357128240374538
0.000357138169856633
0.00035714009011615
0.000357140432381421
0.00035714047683427
0.000357140468112936
0.000357140451724333
0.000357140434019838
0.000357140416221371
0.000357140398586418
0.00035714038124517
0.000357140364302681
0.000357140347850983
0.00035714033195076
0.000357140316674271
0.000357140302060844
0.000357140288158948
0.000357140274983813
0.000357140262561997
0.000357140250890142
0.000357140239979721
0.000357140229816892
0.000357140220406057
0.00035714021172703
0.000357140203756412
0.000357140196298115
0.000357140188200084
0.000357140172395905
0.00035714010800447
0.000357139769060959
0.000357137960742957
0.000357128660269222
0.000357083261925058
0.00035687544934076
0.000355995921002512
0.00035261630152184
0.000341097513939078
0.00030725454368937
0.000224331105147938
5.676472443339e-05
2.29962851192099e-06
2.20932726654948e-06
5.56762566972188e-05
0.00022219497112886
0.000305956436734303
0.000340535495466289
0.00035243090930909
0.000355954526383379
0.000356879195194264
0.000357099227021636
0.0003571475728747
0.000357157511757673
0.000357159435112241
0.000357159778829481
0.000357159824427913
0.000357159816591199
0.00035715980095997
0.000357159783987683
0.000357159766897211
0.000357159749941925
0.000357159733246172
0.000357159716946265
0.000357159701127742
0.000357159685844755
0.000357159671167749
0.000357159657135575
0.000357159643796043
0.000357159631163859
0.000357159619264703
0.000357159608094246
0.000357159597662586
0.000357159587954308
0.000357159578971897
0.00035715957069346
0.00035715956309442
0.000357159555981065
0.000357159548214014
0.000357159532754643
0.000357159468727608
0.000357159130102367
0.000357157322072195
0.000357148021746574
0.000357102622529247
0.000356894803343336
0.000356015240869529
0.000352635472909534
0.000341116136385282
0.000307271466805722
0.000224343675710155
5.67672654219168e-05
2.29969950610673e-06
2.20934535587368e-06
5.56768906089632e-05
0.000222198735988939
0.00030596245254586
0.000340542924931619
0.000352439086515517
0.000355963044024684
0.000356887849208401
0.000357107930125932
0.000357156292332807
0.000357166236700902
0.000357168162168507
0.000357168507091293
0.000357168553728888
0.000357168546756044
0.000357168531893995
0.000357168515674713
0.000357168499313668
0.000357168483048999
0.000357168466980897
0.00035716845132615
0.000357168436154499
0.000357168421504176
0.000357168407441929
0.000357168394005897
0.00035716838124324
0.000357168369168102
0.000357168357805119
0.000357168347149121
0.00035716833720855
0.000357168327966307
0.000357168319422739
0.000357168311553978
0.000357168304333279
0.00035716829756577
0.000357168290114429
0.000357168274947626
0.000357168211189949
0.00035716787283582
0.000357166065118482
0.000357156765089515
0.000357111365724574
0.000356903543725163
0.000356023965674195
0.00035264412965761
0.00034112454340498
0.000307279104975694
0.000224349351637115
5.67684024445641e-05
2.29972967773449e-06
2.20935305598741e-06
5.56771631686355e-05
0.000222200298710346
0.000305965017642498
0.000340546153023713
0.000352442677513315
0.000355966804101107
0.000356891678379591
0.000357111784771358
0.000357160155813016
0.000357170103483383
0.000357172030515482
0.000357172376511622
0.000357172424116222
0.000357172417992191
0.00035717240391081
0.000357172388466813
0.000357172372858837
0.000357172357289096
0.000357172341784195
0.000357172326756245
0.000357172312237448
0.000357172298230588
0.000357172284794741
0.000357172271966888
0.000357172259793599
0.000357172248288262
0.00035717223747445
0.000357172227346006
0.000357172217909778
0.000357172209146638
0.000357172201054716
0.00035717219360777
0.000357172186775859
0.000357172180359063
0.000357172173210134
0.000357172158279859
0.000357172094694043
0.000357171756558768
0.000357169949142934
0.00035716064944426
0.000357115250206014
0.000356907426974706
0.000356027841337389
0.000352647972425602
0.000341128269239361
0.000307282479222797
0.000224351849806721
5.67689005268298e-05
2.29974234325112e-06
2.20935554891097e-06
5.56772380557219e-05
0.000222200859293404
0.000305966061561703
0.000340547512469598
0.000352444215137213
0.000355968426078724
0.000356893335119678
0.000357113454658869
0.000357161830529176
0.000357171780286594
0.000357173708549661
0.000357174055515787
0.000357174104004542
0.000357174098696497
0.000357174085396409
0.0003571740707468
0.00035717405591874
0.000357174041047967
0.00035717402597808
0.000357174011536433
0.000357173997669705
0.000357173984314643
0.000357173971516949
0.000357173959311635
0.000357173947744669
0.000357173936828432
0.000357173926585325
0.000357173917008383
0.00035717390810276
0.000357173899847291
0.000357173892237712
0.000357173885245376
0.000357173878836625
0.000357173872804082
0.000357173865982497
0.000357173851292284
0.00035717378786874
0.00035717344994888
0.000357171642817984
0.000357162343431316
0.000357116944404713
0.000356909120571603
0.00035602953070263
0.000352649644065412
0.000341129882518283
0.00030728392565286
0.000224352909242713
5.67691078128284e-05
2.29974810079376e-06
2.20935403539572e-06
5.56771731947571e-05
0.000222200968488321
0.000305966422665
0.000340548053402585
0.000352444850588139
0.000355969103423941
0.000356894028968888
0.000357114155003995
0.000357162533511846
0.000357172484612263
0.000357174413836039
0.00035717476161426
0.000357174810847638
0.000357174806271474
0.000357174793716851
0.000357174779856069
0.000357174765824213
0.000357174751670786
0.000357174736945678
0.000357174723094194
0.000357174709878269
0.000357174697174491
0.000357174685019154
0.0003571746734457
0.000357174662499453
0.000357174652191521
0.000357174642543129
0.000357174633546483
0.000357174625205431
0.000357174617496603
0.000357174610413536
0.00035717460392538
0.000357174597995093
0.000357174592407806
0.000357174585979845
0.0003571745716026
0.000357174508422081
0.000357174170771512
0.000357172363933856
0.000357163064856174
0.000357117666093908
0.000356909841934966
0.000356030249258201
0.000352650351678479
0.000341130559158681
0.000307284518716383
0.000224353298803258
5.67691469461188e-05
2.2997501299133e-06
2.20934533258241e-06
5.56770820436129e-05
0.00022220091550145
0.000305966479292464
0.000340548226752814
0.000352445080526052
0.000355969364453314
0.000356894301020474
0.000357114430848794
0.000357162810726472
0.000357172762555962
0.000357174692397001
0.000357175040706201
0.000357175090430163
0.000357175086393734
0.00035717507444208
0.000357175061258837
0.000357175047949108
0.000357175034526611
0.000357175020499807
0.000357175007336785
0.000357174994758908
0.000357174982687686
0.000357174971163247
0.000357174960218928
0.000357174949899579
0.000357174940214663
0.000357174931184196
0.000357174922799791
0.000357174915064275
0.000357174907952512
0.000357174901456484
0.00035717489554389
0.000357174890175355
0.000357174885130423
0.000357174879211963
0.000357174865290585
0.000357174802518848
0.000357174465283394
0.000357172658858104
0.000357163360197312
0.000357117961804686
0.000356910137547906
0.000356030542965322
0.000352650637972568
0.00034113082255492
0.000307284714215639
0.000224353376081333
5.67691067549877e-05
2.29974667310453e-06
2.20933510927214e-06
5.56770095658816e-05
0.000222200804006075
0.000305966431643573
0.000340548236042129
0.000352445131897218
0.000355969438105156
0.000356894383125904
0.00035711451586873
0.000357162896790781
0.000357172849332492
0.000357174779878306
0.000357175128799043
0.000357175179094072
0.000357175175672422
0.000357175164330855
0.000357175151789336
0.000357175139149744
0.000357175126483112
0.000357175113559364
0.000357175101178454
0.000357175089299878
0.000357175077910718
0.000357175067059821
0.000357175056781292
0.000357175047119329
0.000357175038081928
0.000357175029688047
0.000357175021928074
0.000357175014803342
0.000357175008287665
0.000357175002371151
0.000357174997019747
0.000357174992191601
0.000357174987661896
0.000357174982224843
0.000357174968738213
0.000357174906355593
0.000357174569486995
0.000357172763395353
0.000357163465016014
0.000357118066736224
0.000356910242026351
0.000356030645029614
0.000352650731742666
0.000341130889823146
0.00030728472490152
0.000224353342057412
5.67690566643958e-05
2.29973943143259e-06
2.20933115767525e-06
5.56769470332455e-05
0.000222200671468561
0.000305966338399945
0.000340548186789069
0.00035244511092966
0.00035596942622278
0.000356894377122728
0.000357114512074367
0.000357162894031191
0.000357172847436124
0.000357174778870758
0.000357175128571611
0.000357175179599239
0.000357175176920214
0.000357175166232782
0.000357175154334767
0.000357175142332527
0.000357175130375831
0.000357175118420135
0.00035717510684489
0.000357175095710984
0.000357175085044117
0.000357175074900104
0.000357175065312909
0.000357175056325856
0.000357175047947153
0.000357175040195242
0.000357175033059461
0.000357175026539572
0.000357175020607604
0.000357175015250846
0.000357175010433144
0.000357175006110142
0.0003571750020535
0.000357174997053398
0.000357174983961167
0.000357174921926748
0.000357174585363189
0.00035717277952353
0.000357163481318057
0.000357118082996595
0.000356910257596757
0.000356030657661377
0.00035265073509114
0.000341130870018098
0.000307284678871371
0.000224353260751586
5.67690062895639e-05
2.29973551697108e-06
2.2093286066833e-06
5.56768891652498e-05
0.000222200527425687
0.000305966218975009
0.000340548102879419
0.000352445049417568
0.00035596937378667
0.000356894328653325
0.000357114465073543
0.000357162847771837
0.000357172801875812
0.000357174734069709
0.000357175084442528
0.000357175136108702
0.000357175134082283
0.000357175123989793
0.000357175112693725
0.000357175101292024
0.000357175089976789
0.000357175078796142
0.000357175067941054
0.000357175057496411
0.000357175047505452
0.00035717503802778
0.000357175029096942
0.000357175020755563
0.000357175013012683
0.000357175005887182
0.000357174999368138
0.000357174993453876
0.000357174988113419
0.000357174983330425
0.000357174979067187
0.000357174975278126
0.000357174971732913
0.000357174967223398
0.000357174954600403
0.000357174893004515
0.000357174556835093
0.000357172751344326
0.000357163453465341
0.000357118055403171
0.000356910229925363
0.000356030628482446
0.000352650700035608
0.000341130819074637
0.000307284602135747
0.000224353159963309
5.67689586237634e-05
2.29973235845043e-06
2.20932639449978e-06
5.56768296769993e-05
0.000222200361574186
0.000305966065481709
0.00034054797860602
0.000352444944198273
0.000355969276863498
0.000356894234934951
0.000357114372524358
0.00035716275586155
0.000357172710614477
0.000357174643526988
0.000357174994548182
0.000357175046830402
0.000357175045423694
0.00035717503592678
0.000357175025252844
0.000357175014477003
0.000357175003804439
0.000357174993321757
0.000357174983145095
0.000357174973361443
0.000357174964021054
0.000357174955185371
0.000357174946887784
0.000357174939170728
0.000357174932044836
0.000357174925530188
0.0003571749196163
0.000357174914299452
0.000357174909543112
0.000357174905324581
0.000357174901604915
0.000357174898338994
0.000357174895295576
0.000357174891274056
0.000357174879129926
0.000357174817983622
0.000357174482200253
0.000357172677043091
0.000357163379529501
0.000357117981912532
0.000356910156831053
0.000356030555010136
0.000352650623232084
0.000341130731746643
0.000307284496059992
0.000224353042860859
5.67689121088137e-05
2.29973027382736e-06
2.20932410807777e-06
5.56767604205059e-05
0.00022220014365686
0.000305965842179339
0.000340547777205661
0.000352444759029362
0.000355969099177534
0.000356894060064933
0.000357114198677807
0.000357162582601191
0.000357172537966311
0.000357174471563858
0.000357174823234522
0.000357174876127054
0.000357174875292481
0.000357174866370476
0.000357174856318665
0.000357174846173741
0.000357174836138126
0.000357174826311638
0.000357174816782049
0.000357174807634281
0.000357174798921128
0.000357174790704942
0.000357174783019578
0.000357174775908355
0.000357174769384379
0.000357174763470252
0.000357174758156393
0.000357174753435477
0.000357174749260607
0.000357174745597979
0.000357174742407927
0.000357174739649188
0.000357174737091497
0.000357174733550274
0.000357174721892032
0.00035717466119811
0.000357174325773646
0.000357172520916111
0.000357163223809697
0.000357117826893694
0.000356910002955371
0.000356030402626433
0.000352650471720232
0.000341130578174236
0.0003072843379129
0.000224352895467599
5.67688631608554e-05
2.29972858915405e-06
2.20932115551055e-06
5.56766657158595e-05
0.000222199800733207
0.000305965456709064