/*--------------------------------*- C++ -*----------------------------------*\
  =========                 |
  \\      /  F ield         | OpenFOAM: The Open Source CFD Toolbox
   \\    /   O peration     | Website:  https://openfoam.org
    \\  /    A nd           | Version:  10
     \\/     M anipulation  |
\*---------------------------------------------------------------------------*/
FoamFile
{
    format      ascii;
    class       volScalarField;
    location    "1.6";
    object      nut;
}
// * * * * * * * * * * * * * * * * * * * * * * * * * * * * * * * * * * * * * //

dimensions      [0 2 -1 0 0 0 0];

internalField   nonuniform List<scalar> 
2500
(
5.1916062800435e-13
1.91260156096269e-12
5.2013789811716e-12
6.92402019610927e-12
7.56666045247197e-12
7.76018609610472e-12
7.80989590392044e-12
7.82118069069475e-12
7.82350119189644e-12
7.82394041451593e-12
7.82401485186162e-12
7.82402219096838e-12
7.82401954758859e-12
7.82401610612317e-12
7.82401255180166e-12
7.82400938318309e-12
7.82400685335426e-12
7.82400477786367e-12
7.82400298776561e-12
7.82400138979787e-12
7.82399995841696e-12
7.82399867884917e-12
7.82399754126524e-12
7.82399653200426e-12
7.82399566204844e-12
7.82399493505204e-12
7.82399433828702e-12
7.82399388693623e-12
7.82399359240554e-12
7.82399354180275e-12
7.82399382963689e-12
7.82399442882692e-12
7.82399498383411e-12
7.82399542593623e-12
7.8239963960493e-12
7.82399761671713e-12
7.8239991018064e-12
7.82400045523204e-12
7.82399816349343e-12
7.82397046105432e-12
7.82381143821137e-12
7.82303803952394e-12
7.81951338525777e-12
7.80454312491469e-12
7.74610870961004e-12
7.54045994745159e-12
6.90578169840898e-12
5.25987824079464e-12
1.9919598432917e-12
5.36997381653757e-13
1.18257386238356e-11
3.45169025026717e-10
1.18532571119486e-09
1.64865896095391e-09
1.83064919117309e-09
1.88787332822562e-09
1.90310157081288e-09
1.90666052401244e-09
1.90741030494337e-09
1.90755514728296e-09
1.90758044987594e-09
1.90758350374082e-09
1.90758294240625e-09
1.90758209978102e-09
1.90758123116617e-09
1.90758045293016e-09
1.90757981202556e-09
1.90757927870547e-09
1.90757881743031e-09
1.90757840878891e-09
1.90757804513697e-09
1.90757772205531e-09
1.90757743673126e-09
1.90757718207031e-09
1.90757696241585e-09
1.90757678190379e-09
1.90757663292764e-09
1.90757652196661e-09
1.90757645430661e-09
1.90757645370006e-09
1.90757653362798e-09
1.9075766704102e-09
1.90757681619139e-09
1.90757693770974e-09
1.90757718345137e-09
1.90757747748967e-09
1.90757782983125e-09
1.90757811038848e-09
1.90757714357753e-09
1.90756768809547e-09
1.90751605756354e-09
1.90726916845921e-09
1.90616221934902e-09
1.90155252456142e-09
1.88397942191221e-09
1.82389596627249e-09
1.64500794374169e-09
1.20151112037905e-09
3.6421642480953e-10
1.31357156958171e-11
2.89317454124533e-11
5.47923821502547e-09
1.50468558620557e-06
2.10205095004069e-06
2.34229714722241e-06
2.42044901564725e-06
2.4419680979409e-06
2.44715801884996e-06
2.44828296796717e-06
2.44850603841857e-06
2.44854635522605e-06
2.44855204943168e-06
2.44855173842588e-06
2.4485508483437e-06
2.44854989557745e-06
2.44854903352452e-06
2.44854831026955e-06
2.4485477026839e-06
2.44854717549644e-06
2.44854670725425e-06
2.4485462888518e-06
2.44854591497204e-06
2.4485455824473e-06
2.44854528866101e-06
2.44854503327258e-06
2.44854481768808e-06
2.44854464207813e-06
2.44854450651789e-06
2.44854441636711e-06
2.44854440619006e-06
2.44854446372407e-06
2.44854459360197e-06
2.44854475824677e-06
2.4485449030703e-06
2.44854514813212e-06
2.44854542143171e-06
2.4485457859436e-06
2.44854601002308e-06
2.44854424301043e-06
2.44852982956948e-06
2.44845457807273e-06
2.44809886925252e-06
2.44652311205989e-06
2.44005497787161e-06
2.41582172880548e-06
2.33466022131184e-06
2.09841380784814e-06
1.52309632209625e-06
5.74221975024038e-09
3.18127230036926e-11
4.36341080302552e-11
8.97469714479801e-09
2.45662481204071e-06
3.40472374871949e-06
3.78665006434831e-06
3.91233140914085e-06
3.94748853897162e-06
3.95611788511493e-06
3.95802292994825e-06
3.9584078747243e-06
3.958479126956e-06
3.95849001274932e-06
3.95849015588084e-06
3.95848901793544e-06
3.95848772992699e-06
3.95848655222622e-06
3.95848555329277e-06
3.9584847060332e-06
3.95848396583894e-06
3.95848330546307e-06
3.95848271132235e-06
3.95848217647871e-06
3.95848169772368e-06
3.95848127225544e-06
3.95848089905627e-06
3.95848057919215e-06
3.95848031314769e-06
3.9584801008911e-06
3.95847994699641e-06
3.95847988162605e-06
3.95847991055007e-06
3.95848008910159e-06
3.95848024654522e-06
3.95848042274313e-06
3.95848066830424e-06
3.95848103625747e-06
3.95848145328277e-06
3.95848164791528e-06
3.95847866068299e-06
3.95845642612582e-06
3.95834096408304e-06
3.95779016335647e-06
3.95532888515777e-06
3.94514535961669e-06
3.90673599452702e-06
3.77744171706468e-06
3.39963685594701e-06
2.47514220613407e-06
9.24948517711028e-09
4.66225007873891e-11
5.41911343787419e-11
1.15890349341859e-08
3.16638938919816e-06
4.36827830307961e-06
4.85416733544404e-06
5.01568435376907e-06
5.06147609106933e-06
5.0728878519053e-06
5.0754484945693e-06
5.07597491400358e-06
5.07607454307651e-06
5.07609071671199e-06
5.07609173119741e-06
5.07609065774269e-06
5.07608932076255e-06
5.07608807601402e-06
5.07608700439122e-06
5.0760860836284e-06
5.07608527170716e-06
5.07608454172776e-06
5.07608387963355e-06
5.0760832787112e-06
5.07608273590464e-06
5.07608224876539e-06
5.0760818166088e-06
5.0760814399408e-06
5.07608111884393e-06
5.07608085404486e-06
5.07608064835717e-06
5.07608051715518e-06
5.07608050045201e-06
5.07608059541372e-06
5.07608071992072e-06
5.07608087602249e-06
5.0760810867316e-06
5.07608140655168e-06
5.07608175157696e-06
5.07608174607539e-06
5.07607767664773e-06
5.07605020732545e-06
5.07590807802453e-06
5.0752245117989e-06
5.07214653625695e-06
5.05932088036505e-06
5.01065658625102e-06
4.8461291777121e-06
4.36411536746458e-06
3.18244699764726e-06
1.18289596537604e-08
5.6941206580334e-11
6.10468661037227e-11
1.33638127034168e-08
3.65653477087264e-06
5.03333776700924e-06
5.59235507507609e-06
5.77981427237864e-06
5.83356303779799e-06
5.84713100234099e-06
5.85021829845442e-06
5.85086264209317e-06
5.85098692790561e-06
5.85100809619733e-06
5.85101019883726e-06
5.85100936720383e-06
5.85100815786419e-06
5.85100700020403e-06
5.85100598415207e-06
5.85100509660898e-06
5.85100430428683e-06
5.85100358460377e-06
5.85100292558607e-06
5.85100232177452e-06
5.85100177050384e-06
5.85100127030255e-06
5.85100082061211e-06
5.851000421675e-06
5.85100007358481e-06
5.85099977731909e-06
5.85099953462762e-06
5.85099935322197e-06
5.85099926030423e-06
5.85099926298809e-06
5.85099933480115e-06
5.8509994288184e-06
5.85099958108988e-06
5.85099978688348e-06
5.85099999740364e-06
5.85099971988637e-06
5.85099472459241e-06
5.85096385193118e-06
5.85080447293595e-06
5.85003335012083e-06
5.84654122957685e-06
5.83191232191809e-06
5.77616244113234e-06
5.58712123118995e-06
5.03255264364501e-06
3.67260356251484e-06
1.35805787673195e-08
6.3627876113209e-11
6.51818998972137e-11
1.44793499487049e-08
3.97330533074564e-06
5.46505886073572e-06
6.07332663149343e-06
6.27878500367942e-06
6.33823712767849e-06
6.35340381842215e-06
6.35689524542811e-06
6.35763329586381e-06
6.35777789345085e-06
6.35780348726261e-06
6.35780673702806e-06
6.35780616889543e-06
6.35780516182673e-06
6.35780416001841e-06
6.35780325966545e-06
6.35780245747058e-06
6.35780173040828e-06
6.35780106190342e-06
6.35780044306249e-06
6.35779987006592e-06
6.35779934101495e-06
6.35779885527329e-06
6.35779841249439e-06
6.35779801300074e-06
6.35779765693539e-06
6.35779734527716e-06
6.35779707910258e-06
6.35779686224123e-06
6.35779670707571e-06
6.35779663057368e-06
6.35779661945836e-06
6.35779667161878e-06
6.35779674242208e-06
6.35779683431515e-06
6.35779690302947e-06
6.3577963199564e-06
6.3577905951509e-06
6.35775765350544e-06
6.35758750447976e-06
6.35676109529846e-06
6.35300350344718e-06
6.33720306516047e-06
6.27680489853812e-06
6.07160565338382e-06
5.46925058208284e-06
3.9924510906506e-06
1.46961317396053e-08
6.77240002836985e-11
6.75315836942049e-11
1.51371675578046e-08
4.1663880197914e-06
5.7302519471535e-06
6.37027278976668e-06
6.58769561253367e-06
6.65106336930613e-06
6.66736456260025e-06
6.6711524617089e-06
6.67196159773067e-06
6.67212213687297e-06
6.67215137377584e-06
6.6721555679886e-06
6.67215534733861e-06
6.67215455271568e-06
6.67215371705764e-06
6.67215294476766e-06
6.67215224120732e-06
6.67215159256838e-06
6.67215098812693e-06
6.67215042206401e-06
6.67214989219884e-06
6.67214939749994e-06
6.67214893797492e-06
6.6721485135712e-06
6.6721481247962e-06
6.67214777185195e-06
6.67214745559564e-06
6.67214717671733e-06
6.67214693732254e-06
6.67214674274978e-06
6.67214660211041e-06
6.67214652036928e-06
6.67214648373956e-06
6.67214647355556e-06
6.67214647384742e-06
6.67214642645844e-06
6.67214554037886e-06
6.6721394111148e-06
6.67210522229011e-06
6.67192862606613e-06
6.67106892454194e-06
6.66714941611214e-06
6.6506260917096e-06
6.58733598405823e-06
6.37204466639927e-06
5.73986172454168e-06
4.19039128998152e-06
1.5369550646633e-08
7.01177532658447e-11
6.88017933157119e-11
1.55047099372727e-08
4.27813390546112e-06
5.88526428854904e-06
6.54490550874945e-06
6.76995500559642e-06
6.83590033868107e-06
6.85297302409653e-06
6.85696917423848e-06
6.85782988673178e-06
6.85800239140989e-06
6.85803442280338e-06
6.85803938625278e-06
6.8580394765163e-06
6.85803886662908e-06
6.85803817590226e-06
6.85803751766414e-06
6.85803690405195e-06
6.85803632837074e-06
6.8580357846618e-06
6.85803526968162e-06
6.8580347826238e-06
6.85803432322462e-06
6.85803389199951e-06
6.85803348917565e-06
6.85803311543074e-06
6.85803277101658e-06
6.85803245669372e-06
6.85803217289884e-06
6.85803192090495e-06
6.85803170301239e-06
6.85803152359806e-06
6.85803138547107e-06
6.8580312847792e-06
6.85803121152731e-06
6.85803114846938e-06
6.85803098386834e-06
6.85802992071275e-06
6.85802354282482e-06
6.85798859826115e-06
6.85780830684434e-06
6.85692948753736e-06
6.8529159653936e-06
6.83596852404693e-06
6.77096899428483e-06
6.54968940627674e-06
5.89980278275585e-06
4.30727498447506e-06
1.57579231726147e-08
7.14610369247812e-11
6.94599110969656e-11
1.57008245473933e-08
4.33991207662996e-06
5.97194243517471e-06
6.64322782924589e-06
6.87294838292395e-06
6.94052370769459e-06
6.9581001439821e-06
6.96223665888096e-06
6.96313324502053e-06
6.96331434669818e-06
6.96334842984434e-06
6.96335397674723e-06
6.96335430888243e-06
6.96335384207567e-06
6.96335326391177e-06
6.96335269572523e-06
6.9633521545126e-06
6.96335163851319e-06
6.96335114520706e-06
6.96335067327111e-06
6.96335022293118e-06
6.96334979451648e-06
6.96334938891495e-06
6.96334900657605e-06
6.96334864830601e-06
6.96334831439502e-06
6.96334800553785e-06
6.96334772199603e-06
6.9633474646106e-06
6.96334723435606e-06
6.96334703337763e-06
6.96334686311474e-06
6.96334672269024e-06
6.96334660611142e-06
6.96334649302106e-06
6.9633462521952e-06
6.96334508316946e-06
6.96333854439542e-06
6.96330316271808e-06
6.9631208425408e-06
6.9622315342992e-06
6.95816592003912e-06
6.94098119390585e-06
6.87501837306085e-06
6.65035007990787e-06
5.99042978928765e-06
4.3734892814147e-06
1.59732371439394e-08
7.21885893275878e-11
6.97886607574479e-11
1.58014013365849e-08
4.37271491435278e-06
6.01853579648407e-06
6.69647686735502e-06
6.92895314626173e-06
6.99752111367622e-06
7.01541416398673e-06
7.01964168951935e-06
7.02056225839766e-06
7.02074928495858e-06
7.02078481485492e-06
7.02079078223798e-06
7.0207912917387e-06
7.02079092703045e-06
7.02079043007385e-06
7.02078992796326e-06
7.02078944095079e-06
7.02078897042021e-06
7.02078851611455e-06
7.0207880780143e-06
7.02078765705912e-06
7.02078725398658e-06
7.0207868699397e-06
7.02078650552279e-06
7.02078616162797e-06
7.02078583857034e-06
7.02078553699979e-06
7.02078525706301e-06
7.02078499935961e-06
7.02078476425647e-06
7.02078455285804e-06
7.02078436578077e-06
7.0207842028228e-06
7.020784059432e-06
7.02078391340542e-06
7.02078362673749e-06
7.02078239441886e-06
7.02077575931352e-06
7.02074013570421e-06
7.0205567467866e-06
7.0196619246211e-06
7.01556867289297e-06
6.99825686863583e-06
6.93177438759633e-06
6.7052691392123e-06
6.03989398965252e-06
4.40964811221134e-06
1.60885658128738e-08
7.25705201415629e-11
6.99477478429513e-11
1.58512384028773e-08
4.38952385671259e-06
6.04272046012029e-06
6.72433672719788e-06
6.95838347942393e-06
7.02753519480787e-06
7.04562031147319e-06
7.04990475766673e-06
7.05084078064573e-06
7.05103173758298e-06
7.05106824982079e-06
7.05107451166557e-06
7.0510751466281e-06
7.05107484797915e-06
7.05107440700049e-06
7.05107395145885e-06
7.05107350356849e-06
7.05107306656794e-06
7.05107264157313e-06
7.0510722293831e-06
7.05107183139307e-06
7.05107144859948e-06
7.0510710823056e-06
7.05107073321269e-06
7.05107040226452e-06
7.05107008978815e-06
7.05106979640338e-06
7.051069522181e-06
7.05106926758152e-06
7.05106903267697e-06
7.05106881807624e-06
7.05106862392934e-06
7.05106845005488e-06
7.05106829229537e-06
7.05106812753623e-06
7.05106781529297e-06
7.05106654765175e-06
7.05105985872692e-06
7.05102410723956e-06
7.05084017726884e-06
7.04994256910648e-06
7.04583522493597e-06
7.02845800768727e-06
6.96170598680849e-06
6.73424256103535e-06
6.06600993658505e-06
4.42876309278278e-06
1.6148494615163e-08
7.2765519748675e-11
7.00226125469985e-11
1.58752010141944e-08
4.39787064575054e-06
6.0548896833635e-06
6.73847252004243e-06
6.97338635707871e-06
7.0428705056241e-06
7.06106838865218e-06
7.06538726864531e-06
7.06633291731002e-06
7.0665263925047e-06
7.06656354931963e-06
7.06657001967605e-06
7.06657074542836e-06
7.06657047686563e-06
7.06657007355243e-06
7.06656965061875e-06
7.06656923097699e-06
7.0665688188479e-06
7.06656841611693e-06
7.06656802406076e-06
7.06656764434151e-06
7.06656727810695e-06
7.06656692675079e-06
7.0665665910285e-06
7.06656627191103e-06
7.0665659697281e-06
7.0665656850764e-06
7.06656541797856e-06
7.06656516880993e-06
7.06656493749196e-06
7.06656472439177e-06
7.06656452940064e-06
7.06656435223335e-06
7.06656418879951e-06
7.06656401559793e-06
7.06656369126826e-06
7.0665624063399e-06
7.06655569015325e-06
7.06651987490854e-06
7.0663356819366e-06
7.06543671709736e-06
7.06132244112509e-06
7.04391272874955e-06
6.97702571421559e-06
6.7490792934698e-06
6.07939828311675e-06
4.4385808974447e-06
1.61788086669053e-08
7.28626280026238e-11
7.00569794214953e-11
1.58864195900885e-08
4.40190126581093e-06
6.06084587224707e-06
6.74545144787917e-06
6.98083040098004e-06
7.05049838378025e-06
7.06876051903657e-06
7.07309960123411e-06
7.07405106084539e-06
7.07424609944762e-06
7.07428366531997e-06
7.074290272482e-06
7.07429105338668e-06
7.07429081542446e-06
7.07429043856093e-06
7.07429003918071e-06
7.07428964065245e-06
7.07428924768346e-06
7.07428886256005e-06
7.0742884868247e-06
7.07428812227911e-06
7.07428777015139e-06
7.07428743187738e-06
7.07428710823962e-06
7.07428680021794e-06
7.07428650813933e-06
7.07428623258207e-06
7.0742859735363e-06
7.0742857313238e-06
7.07428550578277e-06
7.07428529715497e-06
7.07428510519406e-06
7.07428492952495e-06
7.07428476606773e-06
7.07428459124892e-06
7.07428426353687e-06
7.0742829726959e-06
7.07427624521569e-06
7.07424040103819e-06
7.07405608608563e-06
7.07315648338441e-06
7.06903890652066e-06
7.05161355303052e-06
6.98466098986401e-06
6.75647833605016e-06
6.08608419952284e-06
4.44349547619789e-06
1.61937770180783e-08
7.2909908605957e-11
7.00724160011475e-11
1.58915471017161e-08
4.40379947001245e-06
6.06368967681197e-06
6.74881365011923e-06
6.98443566339863e-06
7.05420262566451e-06
7.07250038179459e-06
7.07685098855055e-06
7.07780585731066e-06
7.0780018397569e-06
7.07803965914273e-06
7.07804635148459e-06
7.078047174478e-06
7.0780469617792e-06
7.07804660493531e-06
7.07804622383257e-06
7.07804584222831e-06
7.07804546507057e-06
7.07804509483968e-06
7.0780447332327e-06
7.0780443821118e-06
7.07804404273465e-06
7.07804371655349e-06
7.07804340435771e-06
7.07804310712635e-06
7.07804282517975e-06
7.07804255907816e-06
7.07804230879041e-06
7.07804207459981e-06
7.07804185629669e-06
7.07804165405159e-06
7.0780414675424e-06
7.07804129634431e-06
7.0780411364151e-06
7.07804096431562e-06
7.07804063875417e-06
7.07803934916976e-06
7.07803261985489e-06
7.07799676525652e-06
7.07781239763207e-06
7.07691250570373e-06
7.07279340202839e-06
7.055360724079e-06
6.98837717718291e-06
6.76008198148965e-06
6.08934557154921e-06
4.44589935900584e-06
1.62010079478014e-08
7.29324654841301e-11
7.00792295222718e-11
1.5893838911866e-08
4.40467321252757e-06
6.06501726544225e-06
6.7503980207607e-06
6.98614410689182e-06
7.05596309190182e-06
7.07428011134894e-06
7.07863712656673e-06
7.07959394445185e-06
7.07979048355486e-06
7.07982845856294e-06
7.07983520617178e-06
7.07983606135683e-06
7.07983586975276e-06
7.07983552956932e-06
7.0798351640275e-06
7.0798347971826e-06
7.07983443410284e-06
7.07983407735655e-06
7.0798337287777e-06
7.07983339023579e-06
7.07983306298247e-06
7.07983274846685e-06
7.07983244747595e-06
7.07983216098042e-06
7.0798318892935e-06
7.07983163295805e-06
7.07983139192424e-06
7.07983116644652e-06
7.07983095628049e-06
7.0798307615504e-06
7.07983058188982e-06
7.07983041684919e-06
7.0798302624605e-06
7.07983009555587e-06
7.079829775371e-06
7.07982849128942e-06
7.079821765435e-06
7.07978590993323e-06
7.07960152272188e-06
7.07870150525738e-06
7.07458171338293e-06
7.05714568287473e-06
6.99014781501644e-06
6.76180018744974e-06
6.09090308688917e-06
4.44705068214349e-06
1.6204431314601e-08
7.29430470390641e-11
7.00821752456086e-11
1.5894840836545e-08
4.40506679080276e-06
6.06562421784337e-06
6.75112960706684e-06
6.98693773370439e-06
7.05678348395521e-06
7.07511069207946e-06
7.07947119013038e-06
7.08042909756787e-06
7.08062595962359e-06
7.08066403073331e-06
7.08067081651256e-06
7.08067169786243e-06
7.0806715249834e-06
7.08067120009585e-06
7.08067084912189e-06
7.08067049628704e-06
7.08067014669586e-06
7.08066980292922e-06
7.08066946706964e-06
7.08066914094147e-06
7.08066882574758e-06
7.08066852292033e-06
7.08066823323924e-06
7.08066795766504e-06
7.0806676964995e-06
7.08066745026906e-06
7.08066721890698e-06
7.0806670026406e-06
7.08066680119542e-06
7.08066661465868e-06
7.08066644263009e-06
7.08066628464574e-06
7.08066613681796e-06
7.08066597630614e-06
7.08066566301147e-06
7.08066438642464e-06
7.08065766656426e-06
7.08062181486576e-06
7.08043742359061e-06
7.07953735547036e-06
7.07541726053031e-06
7.05797972038984e-06
6.99097534101931e-06
6.76260370989785e-06
6.0916325453389e-06
4.44759138350346e-06
1.62060214841521e-08
7.29479432511165e-11
7.00834398047854e-11
1.58952694763087e-08
4.40524026244635e-06
6.06589612180589e-06
6.75146097049848e-06
6.98729959336149e-06
7.05715886932271e-06
7.07549136467821e-06
7.07985371843473e-06
7.08081222393241e-06
7.08100927236719e-06
7.08104740483991e-06
7.08105421940688e-06
7.08105512346993e-06
7.08105496813011e-06
7.08105465825879e-06
7.08105432180199e-06
7.08105398300407e-06
7.08105364688807e-06
7.08105331591902e-06
7.08105299279915e-06
7.0810526792241e-06
7.08105237626722e-06
7.08105208532492e-06
7.08105180716727e-06
7.08105154274194e-06
7.08105129234033e-06
7.08105105647143e-06
7.08105083504926e-06
7.08105062827395e-06
7.08105043583977e-06
7.08105025779592e-06
7.08105009370832e-06
7.08104994308964e-06
7.08104980209937e-06
7.08104964814812e-06
7.08104934168808e-06
7.08104807232416e-06
7.0810413587721e-06
7.08100551277891e-06
7.0808211244422e-06
7.07992103902853e-06
7.07580081329531e-06
7.05836259677412e-06
6.99135527516225e-06
6.76297276587915e-06
6.09196792554998e-06
4.44784050708516e-06
1.62067465562533e-08
7.29501936528374e-11
7.00840120432571e-11
1.58954500953673e-08
4.40531480503014e-06
6.06601525424486e-06
6.75160811456041e-06
6.98746155681936e-06
7.05732758067013e-06
7.07566277934305e-06
7.08002610626517e-06
7.08098493597389e-06
7.08118209315389e-06
7.08122026752017e-06
7.08122710598925e-06
7.08122803065564e-06
7.08122789244361e-06
7.08122759782258e-06
7.08122727629523e-06
7.08122695195918e-06
7.08122662953546e-06
7.0812263110102e-06
7.08122600068113e-06
7.08122569993073e-06
7.08122540951672e-06
7.08122513076223e-06
7.08122486442319e-06
7.0812246114344e-06
7.08122437207614e-06
7.08122414683665e-06
7.08122393561335e-06
7.08122373857348e-06
7.08122355537793e-06
7.08122338603351e-06
7.08122323006699e-06
7.08122308694806e-06
7.08122295281317e-06
7.08122280511973e-06
7.08122250445853e-06
7.08122124043322e-06
7.08121453225448e-06
7.08117869246228e-06
7.08099431000899e-06
7.08009422168665e-06
7.07597394026348e-06
7.05853541530069e-06
6.99152674590982e-06
6.76313929066867e-06
6.09211922228168e-06
4.44795293752967e-06
1.62070708036623e-08
7.29511490965712e-11
7.0084254719111e-11
1.58955275503646e-08
4.40534568798398e-06
6.06606597276476e-06
6.75167196214143e-06
6.98753259404456e-06
7.05740196847342e-06
7.07573853660786e-06
7.08010236848591e-06
7.08106137333328e-06
7.08125859598126e-06
7.08129680136568e-06
7.08130366111605e-06
7.08130460495513e-06
7.08130448357239e-06
7.08130420442942e-06
7.08130389827325e-06
7.08130358886777e-06
7.08130328022178e-06
7.08130297286252e-06
7.0813026749602e-06
7.08130238715302e-06
7.08130210949598e-06
7.08130184316006e-06
7.08130158887826e-06
7.08130134757368e-06
7.08130111951162e-06
7.08130090515924e-06
7.0813007043944e-06
7.08130051735269e-06
7.08130034365484e-06
7.08130018326367e-06
7.08130003565887e-06
7.08129990024678e-06
7.08129977306375e-06
7.08129963136442e-06
7.081299335391e-06
7.08129807477127e-06
7.08129137092976e-06
7.08125553711394e-06
7.08107116121095e-06
7.08017107541841e-06
7.07605076966217e-06
7.05861209468381e-06
6.9916027746242e-06
6.76321300621595e-06
6.09218598242215e-06
4.44800236571486e-06
1.62072126370477e-08
7.29515492180392e-11
7.00843322144665e-11
1.58955485709132e-08
4.40535670253115e-06
6.06608653240263e-06
6.75169876191994e-06
6.98756292105359e-06
7.05743396630337e-06
7.07577122322669e-06
7.0801353156691e-06
7.08109441622942e-06
7.0812916802524e-06
7.08132991004243e-06
7.08133678902469e-06
7.08133775039391e-06
7.08133764518961e-06
7.0813373815371e-06
7.08133709113083e-06
7.08133679718818e-06
7.08133650240004e-06
7.08133620366531e-06
7.08133591738689e-06
7.08133564250739e-06
7.08133537777253e-06
7.0813351240882e-06
7.08133488214833e-06
7.0813346528641e-06
7.08133443648082e-06
7.08133423344248e-06
7.08133404361084e-06
7.08133386708797e-06
7.08133370345419e-06
7.08133355262485e-06
7.08133341403195e-06
7.08133328700811e-06
7.08133316744187e-06
7.08133303223093e-06
7.08133274101535e-06
7.08133148361105e-06
7.08132478403859e-06
7.08128895587067e-06
7.08110458615544e-06
7.08020450457687e-06
7.07608418697987e-06
7.05864542849617e-06
6.99163575852397e-06
6.76324483821232e-06
6.09221452163805e-06
4.44802326954969e-06
1.62072714496767e-08
7.2951730207386e-11
7.00842826191132e-11
1.58955296941563e-08
4.40535876785247e-06
6.06609355452502e-06
6.75170933385274e-06
6.98757536157111e-06
7.05744723584058e-06
7.07578481955996e-06
7.0801490406938e-06
7.08110819352618e-06
7.08130548417252e-06
7.08134373301004e-06
7.08135062809382e-06
7.08135160422683e-06
7.0813515135335e-06
7.0813512646611e-06
7.0813509898945e-06
7.08135071173762e-06
7.08135043117164e-06
7.08135013927247e-06
7.08134986469445e-06
7.08134960271751e-06
7.08134935089466e-06
7.08134910994522e-06
7.08134888053207e-06
7.08134866355358e-06
7.08134845922987e-06
7.08134826798154e-06
7.08134808965398e-06
7.08134792432335e-06
7.08134777152622e-06
7.08134763113438e-06
7.08134750253612e-06
7.08134738499699e-06
7.08134727425696e-06
7.08134714684847e-06
7.08134686183612e-06
7.08134560924825e-06
7.08133891501296e-06
7.08130309265751e-06
7.08111872907017e-06
7.0802186527503e-06
7.07609832878397e-06
7.05865951502451e-06
6.99164962961819e-06
6.76325810040239e-06
6.09222614199911e-06
4.4480308924263e-06
1.62072822556222e-08
7.29517929251155e-11
7.00840049676175e-11
1.58955033116996e-08
4.40535761775648e-06
6.06609454010684e-06
6.75171261808619e-06
6.98757976238356e-06
7.05745225149559e-06
7.07579005332912e-06
7.08015434957054e-06
7.08111352954119e-06
7.0813108346392e-06
7.081349095715e-06
7.08135600132692e-06
7.08135698718709e-06
7.08135690719524e-06
7.08135667027784e-06
7.0813564089445e-06
7.08135614510471e-06
7.08135587903024e-06
7.08135560097559e-06
7.08135534004687e-06
7.0813550907196e-06
7.08135485143743e-06
7.08135462299571e-06
7.08135440605523e-06
7.08135420150499e-06
7.08135400953246e-06
7.08135383053432e-06
7.08135366434415e-06
7.08135351101791e-06
7.08135337005715e-06
7.08135324130278e-06
7.08135312411438e-06
7.08135301771122e-06
7.08135291772248e-06
7.08135280041378e-06
7.08135252443777e-06
7.08135127995262e-06
7.08134459394559e-06
7.08130877976443e-06
7.08112442444427e-06
7.08022435547084e-06
7.0761040296554e-06
7.05866517850274e-06
6.99165514763772e-06
6.76326316960931e-06
6.09222988024684e-06
4.44803232398747e-06
1.62072704148794e-08
7.29516816203434e-11
7.0083679083522e-11
1.58954822604032e-08
4.40535530767082e-06
6.06609345830511e-06
6.75171264964677e-06
6.98758062293022e-06
7.05745355220204e-06
7.0757915212241e-06
7.08015587515181e-06
7.08111507580825e-06
7.08131239502383e-06
7.08135067007293e-06
7.08135758781009e-06
7.08135858499312e-06
7.08135851719056e-06
7.08135829236927e-06
7.08135804375909e-06
7.08135779320566e-06
7.08135754211707e-06
7.08135728593155e-06
7.08135704050882e-06
7.08135680504561e-06
7.08135657928561e-06
7.08135636419708e-06
7.08135616045598e-06
7.08135596893844e-06
7.0813557898028e-06
7.08135562342479e-06
7.08135546961374e-06
7.08135532839591e-06
7.08135519925208e-06
7.08135508198601e-06
7.0813549759225e-06
7.08135488023174e-06
7.08135479045643e-06
7.08135468269054e-06
7.08135441533215e-06
7.08135317855983e-06
7.08134649982428e-06
7.08131069225673e-06
7.08112634251858e-06
7.08022627580019e-06
7.07610594109236e-06
7.05866704246831e-06
6.9916568486747e-06
6.76326435038037e-06
6.09222995438294e-06
4.44803154887439e-06
1.62072557478959e-08
7.2951450253604e-11
7.0083552148322e-11
1.5895464048379e-08
4.40535258040382e-06
6.06609147254203e-06
6.75171152054592e-06
6.98758004928886e-06
7.05745315710643e-06
7.07579124227714e-06
7.08015563990006e-06
7.08111486105194e-06
7.08131219737878e-06
7.08135049005005e-06
7.08135742325474e-06
7.08135843496314e-06
7.08135838188457e-06
7.08135817003267e-06
7.08135793418095e-06
7.08135769626389e-06
7.08135745925056e-06
7.08135722225758e-06
7.08135699280779e-06
7.08135677210813e-06
7.08135656066794e-06
7.08135635959362e-06
7.08135616955834e-06
7.08135599142091e-06
7.08135582534387e-06
7.08135567169276e-06
7.08135553025602e-06
7.08135540102884e-06
7.08135528345653e-06
7.08135517728703e-06
7.08135508180345e-06
7.08135499612629e-06
7.08135491572846e-06
7.08135481662399e-06
7.08135455708326e-06
7.08135332721257e-06
7.08134665452289e-06
7.08131085194984e-06
7.08112650566067e-06
7.08022643813407e-06
7.07610608983763e-06
7.05866713334366e-06
6.99165675701171e-06
6.76326380483592e-06
6.0922289040666e-06
4.44802983634998e-06
1.62072409997646e-08
7.29513244313635e-11
7.00834696425792e-11
1.58954471680853e-08
4.40534962503169e-06
6.0660889677083e-06
6.75170970434335e-06
6.98757867181131e-06
7.0574519579922e-06
7.07579012139444e-06
7.08015454803668e-06
7.08111378386896e-06
7.08131113405205e-06
7.08134944177691e-06
7.08135638830491e-06
7.08135741267397e-06
7.08135737253465e-06
7.08135717247861e-06
7.08135694856147e-06
7.08135672255088e-06
7.0813564982552e-06
7.08135627662831e-06
7.08135606145618e-06
7.08135585442157e-06
7.08135565638155e-06
7.08135546851761e-06
7.08135529149471e-06
7.08135512615774e-06
7.08135497268581e-06
7.08135483145307e-06
7.08135470224286e-06
7.08135458502184e-06
7.08135447917577e-06
7.08135438438053e-06
7.0813542998885e-06
7.08135422479591e-06
7.0813541545362e-06
7.08135406515651e-06
7.08135381491713e-06
7.08135259373895e-06
7.0813459288616e-06
7.08131013320439e-06
7.0811257933901e-06
7.08022573102216e-06
7.07610538127056e-06
7.05866639527979e-06
6.99165590395054e-06
6.76326264194104e-06
6.09222724498331e-06
4.44802773756643e-06
1.62072270250478e-08
7.29512225888013e-11
7.00833978843881e-11
1.5895429825218e-08
4.40534623728154e-06
6.06608578743484e-06
6.75170708788867e-06
6.98757642779426e-06
7.05744987687699e-06
7.07578810340515e-06
7.08015255313097e-06
7.08111180161006e-06
7.08130916465633e-06
7.08134748662884e-06
7.08135444601244e-06
7.08135548259609e-06
7.08135545474385e-06
7.08135526649622e-06
7.08135505491381e-06
7.08135484131174e-06
7.08135462975773e-06
7.08135442196863e-06
7.08135422024679e-06
7.08135402631671e-06
7.0813538411745e-06
7.08135366603818e-06
7.08135350156951e-06
7.08135334860974e-06
7.08135320736946e-06
7.08135307824667e-06
7.08135296103339e-06
7.0813528556557e-06
7.08135276138926e-06
7.08135267778392e-06
7.08135260406747e-06
7.08135253934528e-06
7.08135247903269e-06
7.08135239932641e-06
7.08135215857931e-06
7.08135094631279e-06
7.0813442890875e-06
7.08130850004303e-06
7.08112416747496e-06
7.08022411395155e-06
7.07610377214822e-06
7.05866477905488e-06
6.99165422319318e-06
6.76326075768601e-06
6.09222500420226e-06
4.44802531533791e-06
1.62072133788929e-08
7.29511548119975e-11
7.0083323771231e-11
1.58954096935708e-08
4.40534181727383e-06
6.06608122312602e-06
6.75170294231405e-06
6.98757259869528e-06
7.05744619455781e-06
7.07578447650251e-06
7.08014894642285e-06
7.08110820650381e-06
7.08130558168445e-06
7.0813439172389e-06
7.08135088949981e-06
7.08135193818435e-06
7.08135192167597e-06
7.08135174482698e-06
7.08135154557919e-06
7.08135134448588e-06
7.08135114556009e-06
7.08135095078064e-06
7.08135076188751e-06
7.08135058056418e-06
7.08135040785716e-06
7.0813502450025e-06
7.08135009267121e-06
7.08134995172202e-06
7.08134982241459e-06
7.08134970519691e-06
7.08134959987889e-06
7.08134950631519e-06
7.0813494235759e-06
7.08134935099072e-06
7.08134928777314e-06
7.081349233105e-06
7.08134918242096e-06
7.08134911223547e-06
7.0813488811199e-06
7.08134767782047e-06
7.08134102770902e-06
7.08130524460364e-06
7.08112092011017e-06
7.08022088050208e-06
7.0761005614536e-06
7.05866159833189e-06
6.99165106126773e-06
6.76325756006849e-06
6.0922217310543e-06
4.44802229256344e-06
1.62071990381267e-08
7.29510997222467e-11
7.00832285268698e-11
1.58953822966148e-08
4.4053349188895e-06
6.06607344367472e-06
6.75169531497262e-06