/*--------------------------------*- C++ -*----------------------------------*\
  =========                 |
  \\      /  F ield         | OpenFOAM: The Open Source CFD Toolbox
   \\    /   O peration     | Website:  https://openfoam.org
    \\  /    A nd           | Version:  10
     \\/     M anipulation  |
\*---------------------------------------------------------------------------*/
FoamFile
{
    format      ascii;
    class       volScalarField;
    location    "1.6";
    object      omega;
}
// * * * * * * * * * * * * * * * * * * * * * * * * * * * * * * * * * * * * * //

dimensions      [0 0 -1 0 0 0 0];

internalField   nonuniform List<scalar> 
2500
(
128464.52687174
128497.577767171
128489.964894166
128488.435745842
128488.154061673
128488.100518597
128488.089995097
128488.087107994
128488.085537165
128488.084900801
128488.083923688
128488.083276211
128488.082880303
128488.082355381
128488.081875016
128488.081322069
128488.081056474
128488.080707542
128488.080306493
128488.080031595
128488.079754119
128488.079422565
128488.079114924
128488.079066332
128488.078996397
128488.078788144
128488.078756978
128488.078701308
128488.078590163
128488.078672162
128488.078770114
128488.078818748
128488.078946764
128488.079128312
128488.079330123
128488.079518684
128488.079735094
128488.079908548
128488.080294567
128488.08065058
128488.081079285
128488.081654982
128488.082714841
128488.085705243
128488.09917959
128488.159404568
128488.45366712
128489.991380521
128497.718664587
128464.529972154
31789.9215078723
14122.2238274203
14118.3713209274
14117.3973988333
14117.1738295801
14117.1246248097
14117.1144216359
14117.1124293159
14117.1120453634
14117.1119724587
14117.1119379344
14117.1119198392
14117.1119127733
14117.1119020642
14117.1118918719
14117.1118800188
14117.1118725712
14117.1118642273
14117.1118562885
14117.1118475398
14117.1118280325
14117.1117984977
14117.1117633121
14117.1117661396
14117.1117708342
14117.1117487327
14117.1117573611
14117.1117578502
14117.1117386997
14117.1117597287
14117.1117660127
14117.1117418985
14117.1117748735
14117.1118208042
14117.111834464
14117.1118392254
14117.1118425535
14117.1118452793
14117.1118530522
14117.111861102
14117.1118878415
14117.1120056438
14117.1125696989
14117.1152723897
14117.127669281
14117.1815358006
14117.4090038614
14118.3743307777
14122.2916261708
31790.3854494136
31630.0882901173
3513.24445706541
50.5800559106951
50.5770981948959
50.5764028279586
50.5762465344671
50.5762133369108
50.5762067380161
50.5762055093975
50.5762053121515
50.576205244504
50.5762052206449
50.5762052401105
50.5762052447002
50.5762052518926
50.5762052577721
50.5762052591868
50.5762052515009
50.5762052453204
50.5762052423211
50.5762052154535
50.5762051734701
50.5762051301865
50.576205112767
50.5762051154388
50.5762051109515
50.5762051000869
50.576205109325
50.5762051226214
50.5762051407974
50.5762051324501
50.5762050897169
50.5762051458017
50.5762052433025
50.5762052670589
50.5762052532559
50.5762052367471
50.5762052294066
50.5762052209029
50.576205204991
50.5762052577271
50.5762056187084
50.576207323092
50.5762155143069
50.5762531039441
50.5764168279163
50.5771114773951
50.5800490870456
3513.25939746326
31630.8899786183
31560.7037346316
3506.13757856894
50.4839699308477
50.4826563199806
50.4823516405699
50.482284215109
50.482269872592
50.4822669724316
50.4822664243422
50.4822663526539
50.4822663336289
50.4822663237179
50.4822663367068
50.4822663461961
50.4822663554562
50.4822663637443
50.4822663644249
50.4822663607784
50.4822663638645
50.4822663641283
50.4822663559435
50.4822663451644
50.4822663292303
50.4822663225379
50.4822663265718
50.4822663269185
50.48226631961
50.482266324742
50.4822663370247
50.4822663407032
50.4822663371265
50.482266321588
50.4822663411682
50.4822663773002
50.4822663859842
50.4822663777629
50.4822663679397
50.4822663648264
50.4822663599842
50.4822663495198
50.4822663497083
50.4822664748184
50.4822671340791
50.4822703135395
50.4822852318742
50.4823524699657
50.4826517981647
50.4839642065735
3506.1457167548
31561.3026640385
31535.4704488077
3503.69819467262
50.4518260036184
50.4513636256504
50.451255273419
50.4512314076403
50.4512263158311
50.4512252700728
50.4512250704012
50.4512250472978
50.4512250417856
50.4512250388868
50.451225044831
50.4512250500266
50.4512250547318
50.4512250586119
50.4512250587822
50.4512250571215
50.4512250595575
50.4512250597176
50.4512250572645
50.4512250550449
50.4512250491958
50.4512250485614
50.451225050746
50.4512250501671
50.4512250473613
50.4512250488195
50.4512250536336
50.4512250544843
50.4512250532445
50.4512250484884
50.4512250540103
50.4512250643349
50.4512250651235
50.4512250626403
50.4512250605402
50.4512250571768
50.4512250536235
50.4512250508297
50.4512250457739
50.4512250808585
50.4512252947441
50.4512263316415
50.4512312552644
50.451253968546
50.4513581707765
50.4518196743644
3503.70131097057
31535.777845754
31527.4035101931
3502.96163976332
50.4422473995976
50.4421065542782
50.4420727319551
50.4420652568344
50.4420636576552
50.4420633257243
50.4420632618165
50.4420632549457
50.4420632536269
50.4420632530226
50.4420632553087
50.44206325732
50.442063258981
50.4420632601168
50.4420632600642
50.4420632593473
50.4420632601528
50.4420632599979
50.4420632590723
50.4420632585021
50.4420632567721
50.4420632568787
50.4420632573363
50.442063256866
50.4420632558484
50.4420632559058
50.4420632571814
50.44206325766
50.4420632569514
50.442063255342
50.4420632566647
50.4420632587927
50.4420632583882
50.442063257496
50.4420632566827
50.442063254985
50.4420632526785
50.4420632510957
50.4420632495509
50.4420632583313
50.4420633203942
50.4420636267455
50.4420650865481
50.4420719122972
50.4421037113463
50.4422438088652
3502.96257215365
31527.5292528464
31525.0665674889
3502.75977284526
50.4396382339356
50.4395994531944
50.4395898429538
50.4395876995869
50.4395872400637
50.4395871441893
50.4395871256081
50.4395871236541
50.4395871234498
50.4395871234591
50.4395871241788
50.4395871247518
50.4395871251531
50.4395871253317
50.4395871251892
50.4395871247955
50.4395871248732
50.4395871246299
50.4395871240975
50.4395871237568
50.4395871231829
50.439587123083
50.4395871229456
50.4395871225702
50.4395871221663
50.4395871217654
50.4395871217622
50.439587121831
50.4395871213713
50.4395871207382
50.4395871207752
50.4395871209302
50.4395871204801
50.4395871199829
50.4395871194931
50.4395871186706
50.4395871175838
50.4395871168163
50.4395871162014
50.4395871178484
50.4395871344342
50.4395872184916
50.4395876195543
50.4395895077287
50.4395983504265
50.439636796485
3502.75999761957
31525.1105719487
31524.4405961665
3502.7085227596
50.4389779490751
50.4389680421391
50.4389655029827
50.4389649293216
50.4389648061402
50.4389647804611
50.4389647755138
50.4389647750475
50.4389647750328
50.438964775011
50.4389647751399
50.4389647752052
50.4389647751912
50.4389647750874
50.4389647748938
50.4389647745994
50.4389647744165
50.4389647741563
50.4389647738057
50.4389647734866
50.4389647731116
50.4389647728517
50.4389647725581
50.4389647721928
50.4389647718446
50.4389647714556
50.4389647711946
50.4389647709716
50.4389647706137
50.4389647702232
50.4389647699339
50.4389647696514
50.4389647692521
50.4389647688602
50.4389647684651
50.4389647679633
50.4389647673828
50.4389647669006
50.438964766512
50.4389647665561
50.4389647704765
50.4389647919811
50.4389648955339
50.4389653850672
50.4389676757872
50.438977471768
3502.70856431947
31524.4543152515
31524.2835738539
3502.69632609586
50.4388213286189
50.4388189399817
50.4388183073416
50.4388181622587
50.4388181311082
50.4388181246854
50.4388181234863
50.43881812339
50.438818123374
50.4388181233228
50.4388181232778
50.438818123187
50.4388181230506
50.4388181228686
50.4388181226489
50.4388181223826
50.4388181221279
50.4388181218521
50.4388181215441
50.4388181212265
50.4388181208894
50.4388181205733
50.4388181202395
50.4388181198825
50.4388181195401
50.4388181191905
50.4388181188598
50.4388181185341
50.4388181181843
50.4388181178277
50.4388181174817
50.4388181171364
50.4388181167719
50.4388181164076
50.4388181160487
50.4388181156644
50.4388181152591
50.4388181148684
50.438818114484
50.4388181141781
50.4388181148337
50.4388181198294
50.4388181450055
50.4388182650954
50.4388188254243
50.4388211818264
3502.69633002451
31524.2874817859
31524.2466050587
3502.69361279955
50.4387867175826
50.4387861676436
50.4387860176133
50.4387859827155
50.43878597528
50.4387859738082
50.4387859735634
50.4387859735485
50.4387859735186
50.4387859734479
50.4387859733487
50.4387859732116
50.4387859730395
50.4387859728351
50.4387859726038
50.438785972344
50.4387859720717
50.4387859717848
50.4387859714804
50.4387859711642
50.4387859708368
50.4387859705057
50.4387859701663
50.43878596982
50.4387859694769
50.4387859691315
50.4387859687873
50.4387859684434
50.4387859680948
50.4387859677455
50.4387859674006
50.4387859670563
50.4387859667067
50.4387859663589
50.4387859660114
50.4387859656562
50.4387859652948
50.43878596493
50.4387859645606
50.4387859642011
50.4387859640618
50.4387859649388
50.4387859705562
50.4387859984508
50.4387861288791
50.4387866697387
3502.69361143213
31524.247637635
31524.2387032495
3502.69308282013
50.4387801028011
50.4387799809776
50.4387799469636
50.4387799390073
50.43877993738
50.4387799371076
50.438779937084
50.4387799370779
50.4387799370351
50.4387799369519
50.4387799368334
50.4387799366804
50.4387799364961
50.4387799362836
50.4387799360467
50.4387799357872
50.4387799355105
50.4387799352192
50.4387799349142
50.4387799345981
50.4387799342728
50.4387799339409
50.4387799336036
50.4387799332622
50.4387799329199
50.4387799325766
50.4387799322329
50.4387799318894
50.4387799315462
50.438779931204
50.4387799308636
50.4387799305246
50.438779930185
50.4387799298465
50.4387799295073
50.4387799291657
50.4387799288209
50.4387799284718
50.4387799281174
50.4387799277598
50.4387799274458
50.4387799273552
50.4387799283293
50.4387799343187
50.4387799632193
50.438780082416
3502.69308147246
31524.2389567028
31524.2375191267
3502.69303375914
50.4387796231128
50.4387795970762
50.4387795897529
50.4387795880949
50.438779587819
50.4387795878136
50.4387795878293
50.4387795878148
50.4387795877601
50.4387795876667
50.438779587538
50.4387795873767
50.4387795871859
50.4387795869688
50.4387795867286
50.4387795864677
50.4387795861895
50.4387795858968
50.4387795855915
50.4387795852759
50.438779584952
50.4387795846219
50.4387795842871
50.4387795839489
50.4387795836094
50.4387795832692
50.4387795829291
50.4387795825898
50.4387795822519
50.4387795819156
50.4387795815813
50.4387795812487
50.4387795809172
50.4387795805871
50.4387795802569
50.4387795799259
50.4387795795932
50.4387795792575
50.4387795789175
50.4387795785732
50.4387795782339
50.4387795779385
50.4387795778709
50.4387795788904
50.4387795848487
50.4387796100715
3502.69303277381
31524.2375744573
31524.2378274865
3502.69308675566
50.4387804358686
50.4387804305504
50.4387804291241
50.4387804288684
50.4387804288816
50.4387804289214
50.438780428933
50.4387804289061
50.43878042884
50.4387804287371
50.4387804286003
50.4387804284324
50.4387804282364
50.4387804280155
50.4387804277724
50.4387804275099
50.4387804272307
50.4387804269375
50.4387804266325
50.4387804263178
50.4387804259954
50.4387804256674
50.4387804253351
50.4387804250003
50.4387804246642
50.4387804243278
50.4387804239921
50.4387804236577
50.4387804233252
50.4387804229949
50.4387804226671
50.4387804223416
50.4387804220181
50.4387804216964
50.4387804213757
50.4387804210552
50.4387804207342
50.4387804204116
50.4387804200863
50.4387804197579
50.4387804194277
50.4387804191043
50.4387804188274
50.4387804187796
50.4387804197676
50.4387804247903
3502.69308594518
31524.2378350466
31524.2384563782
3502.69316073145
50.4387815117619
50.4387815107829
50.4387815105988
50.4387815106286
50.4387815106874
50.4387815107219
50.4387815107197
50.4387815106793
50.4387815106018
50.4387815104895
50.4387815103448
50.4387815101706
50.4387815099698
50.4387815097452
50.4387815094994
50.4387815092352
50.4387815089552
50.4387815086618
50.4387815083573
50.4387815080438
50.4387815077232
50.4387815073975
50.438781507068
50.4387815067365
50.4387815064042
50.438781506072
50.438781505741
50.4387815054119
50.4387815050851
50.4387815047611
50.4387815044401
50.4387815041221
50.4387815038068
50.438781503494
50.4387815031831
50.4387815028735
50.4387815025645
50.4387815022552
50.4387815019449
50.4387815016331
50.43878150132
50.4387815010079
50.4387815007063
50.4387815004549
50.4387815004222
50.4387815012533
3502.69315998526
31524.2384529569
31524.2391521018
3502.69323890212
50.4387826396504
50.4387826395418
50.4387826395936
50.4387826396638
50.4387826397149
50.4387826397331
50.4387826397152
50.4387826396611
50.4387826395721
50.4387826394503
50.4387826392979
50.4387826391175
50.4387826389118
50.4387826386834
50.4387826384351
50.4387826381692
50.4387826378884
50.438782637595
50.4387826372911
50.4387826369789
50.4387826366603
50.438782636337
50.4387826360106
50.4387826356826
50.4387826353542
50.4387826350266
50.4387826347006
50.4387826343769
50.4387826340563
50.4387826337389
50.4387826334251
50.4387826331148
50.4387826328081
50.4387826325046
50.4387826322039
50.4387826319056
50.4387826316089
50.4387826313133
50.4387826310183
50.4387826307235
50.4387826304291
50.4387826301364
50.438782629849
50.4387826295775
50.4387826293607
50.4387826293629
3502.69323818004
31524.2391462916
31524.2398613956
3502.69331789081
50.4387837775364
50.4387837775834
50.4387837776619
50.4387837777213
50.4387837777537
50.4387837777538
50.43878377772
50.4387837776523
50.4387837775519
50.4387837774205
50.4387837772603
50.4387837770736
50.438783776863
50.438783776631
50.43878377638
50.4387837761125
50.4387837758309
50.4387837755375
50.4387837752345
50.4387837749237
50.4387837746071
50.4387837742865
50.4387837739633
50.438783773639
50.4387837733149
50.438783772992
50.4387837726713
50.4387837723534
50.438783772039
50.4387837717285
50.4387837714222
50.4387837711201
50.4387837708223
50.4387837705285
50.4387837702384
50.4387837699516
50.4387837696676
50.4387837693861
50.4387837691065
50.4387837688289
50.4387837685536
50.4387837682817
50.4387837680159
50.4387837677611
50.4387837675302
50.4387837673883
3502.6933171809
31524.2398551259
31524.240573374
3502.69339703484
50.4387849172897
50.4387849173497
50.4387849174139
50.4387849174531
50.4387849174655
50.4387849174476
50.438784917398
50.4387849173169
50.4387849172051
50.4387849170642
50.4387849168962
50.4387849167032
50.4387849164876
50.4387849162518
50.4387849159982
50.4387849157292
50.4387849154469
50.4387849151536
50.4387849148514
50.4387849145422
50.4387849142278
50.4387849139099
50.4387849135901
50.4387849132698
50.4387849129501
50.4387849126322
50.4387849123169
50.4387849120051
50.4387849116973
50.438784911394
50.4387849110954
50.4387849108018
50.4387849105131
50.4387849102293
50.4387849099501
50.4387849096752
50.4387849094042
50.4387849091369
50.4387849088731
50.4387849086127
50.4387849083563
50.4387849081053
50.4387849078619
50.4387849076299
50.4387849074171
50.4387849072654
3502.69339633423
31524.2405670676
31524.2412858654
3502.69347620701
50.4387860573738
50.4387860574203
50.4387860574636
50.4387860574819
50.4387860574748
50.4387860574394
50.4387860573744
50.43878605728
50.4387860571568
50.4387860570064
50.4387860568305
50.4387860566313
50.4387860564107
50.4387860561712
50.4387860559151
50.4387860556444
50.4387860553615
50.4387860550684
50.4387860547671
50.4387860544596
50.4387860541475
50.4387860538326
50.4387860535163
50.4387860532
50.438786052885
50.4387860525722
50.4387860522627
50.438786051957
50.438786051656
50.4387860513601
50.4387860510696
50.4387860507848
50.4387860505055
50.438786050232
50.438786049964
50.4387860497012
50.4387860494436
50.4387860491907
50.4387860489427
50.4387860486996
50.438786048462
50.4387860482314
50.4387860480099
50.4387860478009
50.4387860476107
50.4387860474737
3502.69347551519
31524.2412796156
31524.2419984465
3502.69355538351
50.4387871975063
50.4387871975354
50.438787197558
50.4387871975563
50.4387871975305
50.4387871974781
50.4387871973981
50.4387871972906
50.4387871971562
50.4387871969963
50.4387871968126
50.438787196607
50.4387871963815
50.4387871961383
50.4387871958796
50.4387871956074
50.4387871953238
50.438787195031
50.4387871947307
50.438787194425
50.4387871941153
50.4387871938034
50.4387871934908
50.4387871931788
50.4387871928685
50.4387871925611
50.4387871922574
50.4387871919582
50.4387871916642
50.438787191376
50.4387871910937
50.4387871908178
50.4387871905483
50.4387871902853
50.4387871900287
50.4387871897783
50.4387871895341
50.4387871892959
50.4387871890638
50.4387871888379
50.438787188619
50.4387871884083
50.4387871882081
50.438787188021
50.438787187853
50.4387871877341
3502.69355470058
31524.2419922701
31524.2427110373
3502.69363456003
50.438788337637
50.4387883376492
50.4387883376522
50.4387883376316
50.4387883375879
50.4387883375191
50.4387883374244
50.438788337304
50.4387883371585
50.4387883369892
50.4387883367976
50.4387883365857
50.4387883363553
50.4387883361084
50.4387883358471
50.4387883355733
50.4387883352892
50.4387883349967
50.4387883346975
50.4387883343936
50.4387883340865
50.4387883337778
50.438788333469
50.4387883331612
50.4387883328559
50.438788332554
50.4387883322563
50.4387883319638
50.438788331677
50.4387883313965
50.4387883311228
50.438788330856
50.4387883305965
50.4387883303442
50.4387883300992
50.4387883298614
50.4387883296309
50.4387883294074
50.4387883291912
50.4387883289826
50.4387883287821
50.438788328591
50.4387883284112
50.4387883282452
50.4387883280981
50.4387883279967
3502.69363388637
31524.2427049438
31524.243423624
3502.69371373593
50.4387894777592
50.4387894777554
50.43878947774
50.4387894777013
50.4387894776404
50.4387894775557
50.4387894774467
50.4387894773135
50.438789477157
50.4387894769784
50.4387894767791
50.4387894765609
50.4387894763255
50.4387894760749
50.438789475811
50.4387894755358
50.4387894752512
50.438789474959
50.438789474661
50.438789474359
50.4387894740545
50.438789473749
50.438789473444
50.4387894731408
50.4387894728405
50.4387894725442
50.4387894722527
50.4387894719669
50.4387894716875
50.438789471415
50.4387894711499
50.4387894708924
50.438789470643
50.4387894704016
50.4387894701685
50.4387894699435
50.4387894697267
50.4387894695181
50.438789469318
50.4387894691264
50.4387894689441
50.4387894687723
50.4387894686123
50.4387894684664
50.4387894683392
50.4387894682543
3502.69371307166
31524.2434176143
31524.2441362051
3502.6937929112
50.4387906178728
50.4387906178537
50.4387906178209
50.438790617765
50.4387906176876
50.4387906175874
50.4387906174643
50.4387906173186
50.4387906171512
50.4387906169633
50.4387906167563
50.4387906165317
50.4387906162914
50.4387906160371
50.4387906157708
50.438790615494
50.4387906152089
50.4387906149171
50.4387906146204
50.4387906143203
50.4387906140185
50.4387906137163
50.4387906134154
50.4387906131167
50.4387906128215
50.4387906125309
50.4387906122457
50.4387906119668
50.4387906116948
50.4387906114305
50.4387906111741
50.4387906109262
50.438790610687
50.4387906104567
50.4387906102355
50.4387906100234
50.4387906098205
50.4387906096269
50.4387906094427
50.4387906092682
50.4387906091041
50.438790608951
50.4387906088104
50.4387906086839
50.4387906085756
50.4387906085065
3502.69379225661
31524.2441302845
31524.2448487817
3502.69387208599
50.4387917579799
50.4387917579463
50.4387917578968
50.4387917578243
50.4387917577307
50.4387917576154
50.4387917574785
50.4387917573204
50.4387917571423
50.4387917569451
50.4387917567304
50.4387917564995
50.4387917562543
50.4387917559964
50.4387917557275
50.4387917554493
50.4387917551638
50.4387917548724
50.4387917545769
50.4387917542788
50.4387917539797
50.438791753681
50.438791753384
50.43879175309
50.4387917528
50.4387917525152
50.4387917522364
50.4387917519645
50.4387917517001
50.438791751444
50.4387917511965
50.4387917509582
50.4387917507293
50.4387917505102
50.438791750301
50.4387917501019
50.438791749913
50.4387917497344
50.4387917495663
50.4387917494089
50.4387917492625
50.4387917491281
50.4387917490064
50.4387917488987
50.4387917488086
50.4387917487546
3502.69387144117
31524.2448429485
31524.2455613549
3502.69395126042
50.4387928980821
50.4387928980344
50.4387928979687
50.4387928978802
50.4387928977709
50.4387928976406
50.43879289749
50.4387928973198
50.4387928971308
50.4387928969245
50.4387928967021
50.438792896465
50.4387928962149
50.4387928959533
50.4387928956819
50.4387928954023
50.4387928951163
50.4387928948254
50.4387928945311
50.4387928942351
50.4387928939388
50.4387928936435
50.4387928933506
50.4387928930613
50.4387928927766
50.4387928924976
50.4387928922253
50.4387928919604
50.4387928917037
50.4387928914558
50.4387928912173
50.4387928909887
50.4387928907703
50.4387928905624
50.4387928903654
50.4387928901794
50.4387928900045
50.4387928898409
50.4387928896888
50.4387928895484
50.4387928894199
50.4387928893039
50.4387928892008
50.4387928891114
50.438792889039
50.4387928889997
3502.69395062554
31524.2455556114
31524.2462739262
3502.69403043464
50.4387940381817
50.4387940381203
50.4387940380388
50.4387940379344
50.4387940378096
50.4387940376647
50.4387940375005
50.4387940373181
50.4387940371186
50.4387940369031
50.438794036673
50.4387940364296
50.4387940361746
50.4387940359094
50.4387940356355
50.4387940353545
50.438794035068
50.4387940347776
50.4387940344847
50.4387940341907
50.4387940338972
50.4387940336054
50.4387940333166
50.438794033032
50.4387940327526
50.4387940324795
50.4387940322137
50.4387940319559
50.4387940317069
50.4387940314674
50.4387940312379
50.438794031019
50.4387940308111
50.4387940306145
50.4387940304297
50.4387940302568
50.438794030096
50.4387940299475
50.4387940298114
50.438794029688
50.4387940295772
50.4387940294794
50.4387940293948
50.4387940293235
50.4387940292685
50.4387940292434
3502.69402980979
31524.2462682743
31524.2469864966
3502.69410960878
50.4387951782803
50.4387951782053
50.4387951781081
50.438795177988
50.4387951778478
50.4387951776883
50.4387951775107
50.4387951773162
50.438795177106
50.4387951768814
50.4387951766436
50.4387951763941
50.4387951761342
50.4387951758653
50.4387951755889
50.4387951753066
50.4387951750197
50.4387951747297
50.4387951744381
50.4387951741463
50.4387951738556
50.4387951735672
50.4387951732825
50.4387951730027
50.4387951727287
50.4387951724615
50.4387951722022
50.4387951719515
50.4387951717102
50.4387951714791
50.4387951712586
50.4387951710494
50.438795170852
50.4387951706668
50.4387951704942
50.4387951703344
50.4387951701877
50.4387951700543
50.4387951699343
50.4387951698278
50.4387951697348
50.4387951696552
50.4387951695889
50.4387951695356
50.4387951694977
50.4387951694869
3502.69410899402
31524.2469809335
31524.2476990679
3502.69418878301
50.4387963183802
50.4387963182916
50.4387963181787
50.4387963180429
50.4387963178873
50.4387963177132
50.4387963175222
50.4387963173156
50.4387963170948
50.438796316861
50.4387963166156
50.4387963163599
50.4387963160951
50.4387963158226
50.4387963155437
50.43879631526
50.4387963149727
50.4387963146832
50.4387963143929
50.4387963141032
50.4387963138153
50.4387963135304
50.4387963132499
50.4387963129747
50.438796312706
50.4387963124448
50.438796312192
50.4387963119484
50.4387963117148
50.4387963114919
50.4387963112806
50.4387963110811
50.4387963108943
50.4387963107203
50.4387963105599
50.4387963104132
50.4387963102806
50.4387963101623
50.4387963100584
50.4387963099688
50.4387963098935
50.4387963098322
50.4387963097843
50.438796309749
50.4387963097284
50.4387963097318
3502.69418817831
31524.2476935971
31524.2484116413
3502.69426795746
50.438797458483
50.4387974583806
50.4387974582518
50.4387974581002
50.4387974579291
50.4387974577403
50.4387974575357
50.438797457317
50.4387974570855
50.4387974568427
50.4387974565896
50.4387974563277
50.438797456058
50.4387974557819
50.4387974555006
50.4387974552154
50.4387974549277
50.4387974546387
50.4387974543497
50.4387974540621
50.438797453777
50.4387974534956
50.4387974532192
50.4387974529487
50.4387974526853
50.43879745243
50.4387974521836
50.4387974519471
50.4387974517212
50.4387974515067
50.4387974513043
50.4387974511145
50.4387974509381
50.4387974507755
50.4387974506272
50.4387974504936
50.4387974503751
50.4387974502718
50.438797450184
50.4387974501114
50.4387974500539
50.4387974500109
50.4387974499816
50.4387974499645
50.4387974499613
50.4387974499791
3502.69426736286
31524.2484062614
31524.2491242181
3502.69434713229
50.4387985985909
50.4387985984745
50.4387985983294
50.4387985981615
50.4387985979746
50.4387985977709
50.4387985975528
50.4387985973219
50.4387985970798
50.4387985968277
50.4387985965671
50.4387985962989
50.4387985960243
50.4387985957446
50.4387985954609
50.4387985951743
50.4387985948862
50.4387985945976
50.43879859431
50.4387985940244
50.4387985937421
50.4387985934641
50.4387985931917
50.438798592926
50.4387985926679
50.4387985924183
50.4387985921784
50.4387985919488
50.4387985917306
50.4387985915243
50.4387985913308
50.4387985911507
50.4387985909846
50.4387985908333
50.4387985906971
50.4387985905765
50.438798590472
50.4387985903838
50.438798590312
50.4387985902565
50.4387985902168
50.4387985901924
50.4387985901818
50.4387985901832
50.4387985901979
50.4387985902305
3502.69434654768
31524.2491189294
31524.2498367996
3502.69442630761
50.4387997387056
50.4387997385745
50.4387997384125
50.4387997382279
50.4387997380249
50.4387997378061
50.4387997375741
50.4387997373309
50.438799737078
50.4387997368169
50.4387997365485
50.4387997362741
50.4387997359947
50.4387997357114
50.4387997354252
50.4387997351373
50.4387997348487
50.4387997345606
50.4387997342742
50.4387997339907
50.4387997337111
50.4387997334366
50.4387997331682
50.438799732907
50.4387997326541
50.4387997324104
50.4387997321767
50.4387997319541
50.4387997317434
50.4387997315453
50.4387997313605
50.43879973119
50.4387997310342
50.438799730894
50.4387997307698
50.4387997306622
50.4387997305716
50.4387997304984
50.4387997304427
50.4387997304043
50.4387997303827
50.438799730377
50.4387997303855
50.438799730406
50.4387997304391
50.4387997304869
3502.69442573291
31524.2498315999
31524.2505493871
3502.69450548357
50.4388008788291
50.4388008786826
50.4388008785029
50.438800878301
50.4388008780813
50.4388008778471
50.438800877601
50.4388008773454
50.4388008770818
50.4388008768114
50.4388008765354
50.4388008762548
50.4388008759706
50.4388008756837
50.4388008753951
50.4388008751057
50.4388008748167
50.4388008745291
50.4388008742439
50.4388008739624
50.4388008736855
50.4388008734143
50.4388008731499
50.4388008728933
50.4388008726454
50.4388008724073
50.43880087218
50.4388008719641
50.4388008717608
50.4388008715707
50.4388008713947
50.4388008712335
50.4388008710879
50.4388008709587
50.4388008708463
50.4388008707515
50.4388008706749
50.4388008706166
50.4388008705769
50.4388008705557
50.4388008705523
50.4388008705656
50.4388008705938
50.4388008706339
50.4388008706862
50.4388008707501
3502.69450491856
31524.2505442752
31524.2512619821
3502.69458466032
50.4388020189631
50.4388020188002
50.4388020186018
50.4388020183817
50.4388020181447
50.4388020178945
50.4388020176343
50.4388020173661
50.4388020170915
50.4388020168119
50.4388020165283
50.4388020162415
50.4388020159525
50.438802015662
50.4388020153709
50.4388020150801
50.4388020147907
50.4388020145035
50.4388020142196
50.43880201394
50.4388020136657
50.4388020133978
50.4388020131372
50.4388020128851
50.4388020126422
50.4388020124097
50.4388020121884
50.4388020119793
50.4388020117832
50.438802011601
50.4388020114335
50.4388020112816
50.438802011146
50.4388020110275
50.4388020109269
50.4388020108448
50.4388020107819
50.4388020107385
50.4388020107148
50.4388020107109
50.4388020107259
50.4388020107586
50.4388020108069
50.4388020108675
50.4388020109401
50.4388020110209
3502.6945841048
31524.2512569539
31524.2519745858
3502.694663838
50.4388031591096
50.4388031589292
50.4388031587107
50.4388031584714
50.4388031582165
50.4388031579499
50.438803157675
50.4388031573941
50.4388031571086
50.4388031568198
50.4388031565285
50.4388031562356
50.4388031559417
50.4388031556477
50.4388031553542
50.438803155062
50.4388031547721
50.4388031544853
50.4388031542026
50.4388031539249
50.4388031536532
50.4388031533884
50.4388031531316
50.4388031528838
50.4388031526458
50.4388031524187
50.4388031522034
50.4388031520008
50.4388031518118
50.4388031516373
50.4388031514782
50.4388031513353
50.4388031512095
50.4388031511016
50.4388031510125
50.4388031509429
50.4388031508936
50.4388031508649
50.4388031508573
50.4388031508706
50.4388031509042
50.4388031509568
50.4388031510259
50.4388031511079
50.4388031512021
50.4388031513012
3502.69466329183
31524.2519696426
31524.2526871995
3502.69474301673
50.4388042992703
50.4388042990707
50.4388042988305
50.4388042985708
50.4388042982971
50.4388042980137
50.4388042977239
50.43880429743
50.4388042971334
50.4388042968353
50.4388042965365
50.4388042962374
50.4388042959388
50.4388042956412
50.4388042953453
50.4388042950518
50.4388042947614
50.438804294475
50.4388042941934
50.4388042939175
50.4388042936482
50.4388042933866
50.4388042931335
50.4388042928898
50.4388042926566
50.4388042924348
50.4388042922253
50.438804292029
50.4388042918469
50.4388042916799
50.4388042915289
50.4388042913948
50.4388042912786
50.4388042911811
50.4388042911033
50.438804291046
50.43880429101
50.438804290996
50.4388042910043
50.438804291035
50.4388042910874
50.4388042911603
50.438804291251
50.4388042913556
50.4388042914729
50.4388042915917
3502.69474247966
31524.2526823391
31524.253399825
3502.6948221967
50.4388054394471
50.4388054392263
50.4388054389625
50.4388054386811
50.4388054383876
50.4388054380867
50.4388054377817
50.4388054374747
50.4388054371671
50.4388054368598
50.4388054365533
50.4388054362482
50.4388054359449
50.4388054356438
50.4388054353455
50.4388054350506
50.4388054347598
50.4388054344736
50.4388054341931
50.438805433919
50.4388054336522
50.4388054333935
50.4388054331439
50.4388054329043
50.4388054326757
50.438805432459
50.4388054322551
50.438805432065
50.4388054318896
50.4388054317298
50.4388054315867
50.4388054314612
50.4388054313542
50.4388054312668
50.4388054312001