/*--------------------------------*- C++ -*----------------------------------*\
  =========                 |
  \\      /  F ield         | OpenFOAM: The Open Source CFD Toolbox
   \\    /   O peration     | Website:  https://openfoam.org
    \\  /    A nd           | Version:  10
     \\/     M anipulation  |
\*---------------------------------------------------------------------------*/
FoamFile
{
    format      ascii;
    class       volScalarField;
    location    "1.6";
    object      p;
}
// * * * * * * * * * * * * * * * * * * * * * * * * * * * * * * * * * * * * * //

dimensions      [1 -1 -2 0 0 0 0];

internalField   nonuniform List<scalar> 
2500
(
100056.731543613
100056.731544753
100056.731545169
100056.731545166
100056.731545173
100056.731545294
100056.731545541
100056.731545964
100056.73154656
100056.731547322
100056.731548238
100056.731549294
100056.731550477
100056.731551771
100056.731553163
100056.73155464
100056.731556187
100056.731557793
100056.731559447
100056.731561137
100056.731562854
100056.731564587
100056.731566327
100056.731568068
100056.731569802
100056.731571521
100056.73157322
100056.731574894
100056.731576538
100056.731578148
100056.731579722
100056.731581255
100056.731582748
100056.731584198
100056.731585605
100056.731586969
100056.731588291
100056.731589573
100056.731590818
100056.731592029
100056.731593208
100056.73159436
100056.731595487
100056.731596586
100056.73159765
100056.731598624
100056.731599473
100056.731600086
100056.731600035
100056.731599051
100056.729318558
100056.729319255
100056.729319823
100056.729319427
100056.729319283
100056.729319345
100056.729319576
100056.729319997
100056.729320595
100056.72932136
100056.729322278
100056.729323336
100056.72932452
100056.729325815
100056.729327208
100056.729328684
100056.729330232
100056.729331838
100056.729333492
100056.729335181
100056.729336897
100056.729338629
100056.729340369
100056.729342109
100056.729343841
100056.729345559
100056.729347257
100056.729348929
100056.729350572
100056.729352181
100056.729353753
100056.729355285
100056.729356776
100056.729358224
100056.729359629
100056.72936099
100056.72936231
100056.72936359
100056.729364832
100056.72936604
100056.729367216
100056.729368365
100056.729369489
100056.72937059
100056.729371671
100056.729372705
100056.729373702
100056.729374698
100056.72937451
100056.729373861
100056.727055741
100056.727055146
100056.727054404
100056.727053643
100056.727053399
100056.727053434
100056.727053661
100056.727054085
100056.727054687
100056.727055456
100056.727056378
100056.727057439
100056.727058624
100056.727059921
100056.727061314
100056.727062791
100056.727064338
100056.727065944
100056.727067596
100056.727069285
100056.727070999
100056.72707273
100056.727074468
100056.727076205
100056.727077936
100056.727079651
100056.727081347
100056.727083017
100056.727084657
100056.727086263
100056.727087832
100056.727089361
100056.727090848
100056.727092293
100056.727093694
100056.727095052
100056.727096368
100056.727097643
100056.727098881
100056.727100083
100056.727101253
100056.727102396
100056.727103514
100056.727104611
100056.727105698
100056.727106761
100056.727107863
100056.727109236
100056.727110363
100056.727111051
100056.724787987
100056.724787039
100056.724786171
100056.724785392
100056.724785163
100056.724785212
100056.724785449
100056.724785881
100056.724786491
100056.724787266
100056.724788192
100056.724789257
100056.724790445
100056.724791742
100056.724793136
100056.724794613
100056.724796159
100056.724797763
100056.724799414
100056.7248011
100056.724802811
100056.724804539
100056.724806274
100056.724808008
100056.724809735
100056.724811447
100056.724813138
100056.724814804
100056.72481644
100056.724818041
100056.724819605
100056.724821129
100056.724822612
100056.724824051
100056.724825446
100056.724826798
100056.724828108
100056.724829376
100056.724830606
100056.7248318
100056.724832962
100056.724834096
100056.724835204
100056.724836291
100056.724837365
100056.724838415
100056.724839508
100056.724840912
100056.724842148
100056.724843264
100056.722518063
100056.722517255
100056.722516568
100056.722515846
100056.722515638
100056.722515704
100056.722515955
100056.722516399
100056.722517018
100056.7225178
100056.722518731
100056.722519799
100056.722520989
100056.722522288
100056.722523682
100056.722525157
100056.722526702
100056.722528303
100056.722529951
100056.722531633
100056.722533341
100056.722535064
100056.722536794
100056.722538523
100056.722540244
100056.722541951
100056.722543636
100056.722545296
100056.722546925
100056.72254852
100056.722550078
100056.722551595
100056.72255307
100056.722554502
100056.722555889
100056.722557233
100056.722558534
100056.722559793
100056.722561013
100056.722562197
100056.722563348
100056.722564469
100056.722565564
100056.722566637
100056.722567696
100056.722568729
100056.722569802
100056.722571156
100056.722572201
100056.722573209
100056.720247332
100056.720246696
100056.720246146
100056.72024551
100056.72024533
100056.720245417
100056.720245688
100056.720246145
100056.720246775
100056.720247565
100056.720248502
100056.720249574
100056.720250766
100056.720252066
100056.720253459
100056.720254932
100056.720256474
100056.720258072
100056.720259715
100056.720261392
100056.720263094
100056.720264811
100056.720266535
100056.720268258
100056.720269972
100056.720271671
100056.720273349
100056.720275001
100056.720276622
100056.720278209
100056.720279757
100056.720281266
100056.720282732
100056.720284154
100056.720285532
100056.720286866
100056.720288156
100056.720289403
100056.720290611
100056.720291782
100056.720292919
100056.720294025
100056.720295104
100056.72029616
100056.720297197
100056.720298208
100056.720299255
100056.720300526
100056.720301429
100056.720302273
100056.717976502
100056.717976
100056.717975558
100056.717975026
100056.717974882
100056.717974996
100056.717975288
100056.717975762
100056.717976404
100056.717977204
100056.717978148
100056.717979223
100056.717980417
100056.717981717
100056.717983108
100056.717984579
100056.717986117
100056.71798771
100056.717989347
100056.717991019
100056.717992714
100056.717994424
100056.71799614
100056.717997854
100056.717999559
100056.718001249
100056.718002918
100056.718004561
100056.718006172
100056.718007749
100056.718009287
100056.718010785
100056.718012241
100056.718013652
100056.718015018
100056.718016339
100056.718017616
100056.718018851
100056.718020045
100056.7180212
100056.718022321
100056.718023409
100056.718024469
100056.718025503
100056.718026514
100056.718027497
100056.71802851
100056.718029675
100056.71803047
100056.718031177
100056.715705803
100056.715705407
100056.715705056
100056.715704634
100056.715704533
100056.715704677
100056.715704994
100056.715705486
100056.715706143
100056.715706952
100056.715707902
100056.715708982
100056.715710178
100056.715711477
100056.715712866
100056.715714334
100056.715715867
100056.715717454
100056.715719085
100056.715720748
100056.715722435
100056.715724136
100056.715725843
100056.715727548
100056.715729243
100056.715730923
100056.715732581
100056.715734212
100056.715735812
100056.715737378
100056.715738904
100056.71574039
100056.715741833
100056.715743231
100056.715744584
100056.715745891
100056.715747154
100056.715748373
100056.715749551
100056.715750689
100056.715751791
100056.715752859
100056.715753897
100056.715754906
100056.715755888
100056.715756837
100056.715757809
100056.715758861
100056.715759566
100056.715760161
100056.713435281
100056.713434971
100056.713434695
100056.713434377
100056.713434324
100056.7134345
100056.713434844
100056.713435356
100056.713436027
100056.713436847
100056.713437804
100056.713438888
100056.713440085
100056.713441383
100056.71344277
100056.713444233
100056.71344576
100056.713447341
100056.713448964
100056.713450619
100056.713452296
100056.713453987
100056.713455683
100056.713457377
100056.713459061
100056.713460728
100056.713462374
100056.713463993
100056.713465581
100056.713467133
100056.713468646
100056.713470118
100056.713471547
100056.71347293
100056.713474268
100056.71347556
100056.713476807
100056.713478009
100056.713479168
100056.713480288
100056.713481369
100056.713482415
100056.713483428
100056.713484409
100056.713485358
100056.713486271
100056.713487195
100056.71348814
100056.71348877
100056.713489275
100056.711164932
100056.711164691
100056.711164478
100056.711164253
100056.711164249
100056.711164459
100056.71116483
100056.711165363
100056.711166049
100056.71116688
100056.711167844
100056.711168932
100056.71117013
100056.711171427
100056.71117281
100056.711174268
100056.711175789
100056.711177362
100056.711178976
100056.711180621
100056.711182288
100056.711183967
100056.711185652
100056.711187333
100056.711189004
100056.711190659
100056.711192291
100056.711193896
100056.711195469
100056.711197007
100056.711198505
100056.711199962
100056.711201375
100056.711202743
100056.711204064
100056.711205339
100056.711206568
100056.711207751
100056.711208891
100056.71120999
100056.711211048
100056.71121207
100056.711213056
100056.711214008
100056.711214922
100056.711215797
100056.711216669
100056.711217516
100056.711218086
100056.711218517
100056.708894742
100056.708894558
100056.708894397
100056.708894253
100056.708894299
100056.708894542
100056.708894942
100056.708895495
100056.708896197
100056.708897038
100056.70889801
100056.708899101
100056.7089003
100056.708901595
100056.708902974
100056.708904426
100056.70890594
100056.708907504
100056.708909108
100056.708910742
100056.708912397
100056.708914065
100056.708915736
100056.708917403
100056.70891906
100056.708920701
100056.708922318
100056.708923908
100056.708925466
100056.708926988
100056.70892847
100056.70892991
100056.708931306
100056.708932656
100056.70893396
100056.708935216
100056.708936426
100056.708937589
100056.708938708
100056.708939784
100056.708940818
100056.708941814
100056.708942772
100056.708943692
100056.708944571
100056.708945406
100056.708946225
100056.708946986
100056.708947503
100056.708947874
100056.706624698
100056.70662456
100056.706624445
100056.70662437
100056.706624464
100056.706624741
100056.706625167
100056.706625741
100056.706626458
100056.706627311
100056.706628289
100056.706629383
100056.706630583
100056.706631875
100056.70663325
100056.706634696
100056.706636201
100056.706637755
100056.706639348
100056.706640971
100056.706642613
100056.706644267
100056.706645924
100056.706647577
100056.706649219
100056.706650843
100056.706652445
100056.706654018
100056.706655559
100056.706657064
100056.706658529
100056.706659951
100056.706661329
100056.706662661
100056.706663945
100056.706665181
100056.70666637
100056.706667512
100056.706668608
100056.70666966
100056.706670669
100056.706671638
100056.706672566
100056.706673452
100056.706674295
100056.706675089
100056.706675856
100056.706676544
100056.706677014
100056.706677336
100056.704354787
100056.704354688
100056.704354613
100056.704354596
100056.704354736
100056.704355045
100056.704355497
100056.704356092
100056.704356825
100056.704357688
100056.704358673
100056.70435977
100056.704360969
100056.704362259
100056.704363628
100056.704365066
100056.704366563
100056.704368107
100056.704369688
100056.704371298
100056.704372927
100056.704374566
100056.704376208
100056.704377845
100056.70437947
100056.704381078
100056.704382662
100056.704384218
100056.704385741
100056.704387228
100056.704388674
100056.704390077
100056.704391436
100056.704392747
100056.704394011
100056.704395226
100056.704396393
100056.704397512
100056.704398585
100056.704399611
100056.704400594
100056.704401533
100056.70440243
100056.704403283
100056.704404089
100056.704404843
100056.704405558
100056.704406182
100056.704406611
100056.704406894
100056.702085
100056.702084931
100056.702084892
100056.702084925
100056.702085107
100056.702085447
100056.702085925
100056.70208654
100056.702087287
100056.70208816
100056.702089151
100056.702090251
100056.70209145
100056.702092736
100056.7020941
100056.70209553
100056.702097017
100056.70209855
100056.702100119
100056.702101715
100056.702103329
100056.702104953
100056.702106578
100056.702108198
100056.702109807
100056.702111396
100056.702112962
100056.7021145
100056.702116004
100056.702117471
100056.702118897
100056.70212028
100056.702121618
100056.702122909
100056.702124151
100056.702125344
100056.702126488
100056.702127583
100056.70212863
100056.70212963
100056.702130585
100056.702131495
100056.70213236
100056.702133179
100056.702133947
100056.70213466
100056.702135327
100056.702135895
100056.702136287
100056.702136536
100056.699815323
100056.69981528
100056.699815273
100056.69981535
100056.69981557
100056.699815941
100056.699816443
100056.699817077
100056.699817838
100056.699818721
100056.699819718
100056.69982082
100056.699822017
100056.6998233
100056.699824657
100056.699826079
100056.699827555
100056.699829076
100056.699830632
100056.699832214
100056.699833812
100056.69983542
100056.699837028
100056.699838631
100056.69984022
100056.699841791
100056.699843338
100056.699844856
100056.69984634
100056.699847786
100056.699849192
100056.699850554
100056.69985187
100056.699853138
100056.699854358
100056.699855528
100056.699856647
100056.699857717
100056.699858739
100056.699859711
100056.699860637
100056.699861516
100056.699862349
100056.699863133
100056.699863864
100056.699864538
100056.699865157
100056.699865677
100056.699866034
100056.699866255
100056.697545746
100056.697545726
100056.697545748
100056.697545863
100056.697546119
100056.697546517
100056.697547043
100056.697547695
100056.69754847
100056.697549362
100056.697550364
100056.697551468
100056.697552664
100056.697553942
100056.697555292
100056.697556705
100056.697558171
100056.697559679
100056.697561221
100056.697562787
100056.697564369
100056.69756596
100056.69756755
100056.697569134
100056.697570705
100056.697572256
100056.697573783
100056.69757528
100056.697576743
100056.697578168
100056.697579552
100056.697580891
100056.697582185
100056.69758343
100056.697584626
100056.697585771
100056.697586866
100056.69758791
100056.697588904
100056.697589849
100056.697590745
100056.697591593
100056.697592392
100056.697593141
100056.697593835
100056.697594469
100056.697595045
100056.69759552
100056.697595845
100056.697596043
100056.695276259
100056.695276258
100056.695276307
100056.695276456
100056.695276745
100056.69527717
100056.695277717
100056.695278387
100056.695279175
100056.695280076
100056.695281083
100056.695282188
100056.695283382
100056.695284655
100056.695285998
100056.695287401
100056.695288855
100056.69529035
100056.695291877
100056.695293428
100056.695294993
100056.695296565
100056.695298137
100056.695299702
100056.695301252
100056.695302783
100056.695304289
100056.695305764
100056.695307206
100056.695308608
100056.69530997
100056.695311286
100056.695312556
100056.695313778
100056.695314949
100056.695316069
100056.695317138
100056.695318155
100056.695319121
100056.695320037
100056.695320902
100056.695321718
100056.695322484
100056.695323197
100056.695323855
100056.69532445
100056.695324984
100056.695325418
100056.695325714
100056.695325891
100056.693006852
100056.693006868
100056.693006941
100056.693007121
100056.69300744
100056.69300789
100056.693008458
100056.693009145
100056.693009945
100056.693010855
100056.693011866
100056.693012972
100056.693014163
100056.693015431
100056.693016766
100056.693018159
100056.693019601
100056.693021082
100056.693022594
100056.693024128
100056.693025676
100056.69302723
100056.693028782
100056.693030327
100056.693031857
100056.693033366
100056.69303485
100056.693036303
100056.693037722
100056.693039102
100056.69304044
100056.693041733
100056.693042978
100056.693044175
100056.693045321
100056.693046415
100056.693047457
100056.693048447
100056.693049384
100056.69305027
100056.693051104
100056.693051888
100056.693052619
100056.693053297
100056.693053918
100056.693054476
100056.69305497
100056.693055366
100056.693055634
100056.693055792
100056.690737514
100056.690737546
100056.690737642
100056.69073785
100056.690738197
100056.69073867
100056.690739258
100056.69073996
100056.690740773
100056.69074169
100056.690742705
100056.690743812
100056.690745
100056.690746262
100056.690747589
100056.690748972
100056.690750401
100056.690751868
100056.690753365
100056.690754881
100056.690756411
100056.690757946
100056.690759478
100056.690761002
100056.69076251
100056.690763998
100056.69076546
100056.69076689
100056.690768285
100056.690769642
100056.690770955
100056.690772224
100056.690773444
100056.690774615
100056.690775735
100056.690776803
100056.690777817
100056.690778779
100056.690779687
100056.690780542
100056.690781345
100056.690782095
100056.690782793
100056.690783435
100056.690784019
100056.69078454
100056.690784996
100056.690785357
100056.690785598
100056.690785739
100056.688468236
100056.688468282
100056.6884684
100056.688468634
100056.688469006
100056.688469501
100056.688470108
100056.688470826
100056.68847165
100056.688472574
100056.688473593
100056.688474699
100056.688475885
100056.688477141
100056.68847846
100056.688479831
100056.688481248
100056.6884827
100056.68848418
100056.688485679
100056.68848719
100056.688488705
100056.688490217
100056.68849172
100056.688493207
100056.688494672
100056.68849611
100056.688497517
100056.688498889
100056.688500221
100056.68850151
100056.688502753
100056.688503948
100056.688505093
100056.688506186
100056.688507226
100056.688508213
100056.688509146
100056.688510024
100056.688510848
100056.688511619
100056.688512336
100056.688512999
100056.688513606
100056.688514154
100056.688514638
100056.688515057
100056.688515385
100056.6885156
100056.688515725
100056.686199008
100056.686199067
100056.686199205
100056.686199464
100056.68619986
100056.686200376
100056.686201001
100056.686201733
100056.686202568
100056.686203499
100056.686204522
100056.686205628
100056.68620681
100056.686208059
100056.686209369
100056.686210729
100056.686212133
100056.68621357
100056.686215033
100056.686216515
100056.686218007
100056.686219502
100056.686220993
100056.686222474
100056.686223938
100056.686225381
100056.686226796
100056.686228179
100056.686229526
100056.686230833
100056.686232097
100056.686233314
100056.686234483
100056.686235602
100056.686236668
100056.68623768
100056.686238638
100056.686239541
100056.686240389
100056.686241183
100056.686241921
100056.686242604
100056.686243232
100056.686243804
100056.686244315
100056.686244764
100056.686245147
100056.686245442
100056.686245634
100056.686245743
100056.683929819
100056.683929892
100056.683930048
100056.683930331
100056.68393075
100056.683931286
100056.683931928
100056.683932674
100056.683933519
100056.683934457
100056.683935482
100056.683936588
100056.683937766
100056.683939009
100056.68394031
100056.683941659
100056.683943048
100056.68394447
100056.683945917
100056.68394738
100056.683948853
100056.683950328
100056.683951797
100056.683953256
100056.683954698
100056.683956117
100056.683957508
100056.683958867
100056.683960189
100056.683961471
100056.683962709
100056.683963901
100056.683965043
100056.683966135
100056.683967173
100056.683968157
100056.683969087
100056.68396996
100056.683970777
100056.683971539
100056.683972244
100056.683972894
100056.683973487
100056.683974023
100056.683974499
100056.683974912
100056.68397526
100056.683975524
100056.683975692
100056.683975786
100056.681660661
100056.681660746
100056.681660921
100056.681661226
100056.681661666
100056.681662222
100056.681662881
100056.68166364
100056.681664495
100056.681665439
100056.681666467
100056.681667572
100056.681668746
100056.681669983
100056.681671274
100056.681672611
100056.681673987
100056.681675394
100056.681676823
100056.681678268
100056.681679721
100056.681681175
100056.681682624
100056.68168406
100056.681685479
100056.681686874
100056.681688241
100056.681689576
100056.681690873
100056.681692129
100056.681693341
100056.681694507
100056.681695622
100056.681696686
100056.681697697
100056.681698652
100056.681699552
100056.681700396
100056.681701182
100056.681701912
100056.681702584
100056.6817032
100056.681703758
100056.681704258
100056.681704698
100056.681705077
100056.681705391
100056.681705624
100056.681705769
100056.681705849
100056.679391523
100056.67939162
100056.679391814
100056.67939214
100056.679392601
100056.679393175
100056.67939385
100056.679394623
100056.679395487
100056.679396437
100056.679397468
100056.679398571
100056.679399742
100056.679400971
100056.679402253
100056.679403579
100056.679404941
100056.679406332
100056.679407744
100056.679409171
100056.679410604
100056.679412037
100056.679413464
100056.679414878
100056.679416274
100056.679417645
100056.679418988
100056.679420297
100056.679421569
100056.6794228
100056.679423986
100056.679425125
100056.679426213
100056.67942725
100056.679428232
100056.679429159
100056.679430029
100056.679430843
100056.679431598
100056.679432295
100056.679432935
100056.679433516
100056.679434039
100056.679434504
100056.679434909
100056.679435252
100056.679435533
100056.679435735
100056.679435858
100056.679435924
100056.677122397
100056.677122506
100056.677122717
100056.677123064
100056.677123546
100056.677124138
100056.677124829
100056.677125614
100056.677126487
100056.677127443
100056.677128476
100056.677129579
100056.677130745
100056.677131968
100056.67713324
100056.677134554
100056.677135902
100056.677137277
100056.677138673
100056.67714008
100056.677141494
100056.677142906
100056.677144311
100056.677145703
100056.677147075
100056.677148423
100056.677149741
100056.677151026
100056.677152272
100056.677153477
100056.677154637
100056.677155749
100056.67715681
100056.677157819
100056.677158773
100056.677159671
100056.677160512
100056.677161295
100056.677162019
100056.677162684
100056.67716329
100056.677163837
100056.677164325
100056.677164754
100056.677165123
100056.677165433
100056.67716568
100056.677165853
100056.677165953
100056.677166005
100056.674853273
100056.674853393
100056.674853621
100056.674853989
100056.674854491
100056.6748551
100056.674855807
100056.674856604
100056.674857487
100056.674858449
100056.674859484
100056.674860586
100056.674861748
100056.674862964
100056.674864226
100056.674865528
100056.674866863
100056.674868222
100056.6748696
100056.674870989
100056.674872383
100056.674873775
100056.674875158
100056.674876527
100056.674877876
100056.6748792
100056.674880494
100056.674881753
100056.674882974
100056.674884153
100056.674885287
100056.674886372
100056.674887406
100056.674888387
100056.674889313
100056.674890182
100056.674890993
100056.674891746
100056.674892438
100056.674893071
100056.674893644
100056.674894157
100056.67489461
100056.674895004
100056.674895337
100056.674895612
100056.674895826
100056.674895969
100056.674896047
100056.674896086
100056.672584141
100056.672584273
100056.672584518
100056.672584906
100056.672585428
100056.672586055
100056.672586776
100056.672587587
100056.672588478
100056.672589446
100056.672590483
100056.672591584
100056.672592742
100056.672593951
100056.672595204
100056.672596494
100056.672597815
100056.672599159
100056.67260052
100056.67260189
100056.672603264
100056.672604635
100056.672605997
100056.672607343
100056.672608669
100056.672609969
100056.672611239
100056.672612474
100056.672613669
100056.672614823
100056.67261593
100056.672616988
100056.672617995
100056.672618948
100056.672619846
100056.672620686
100056.672621468
100056.67262219
100056.672622852
100056.672623452
100056.672623992
100056.67262447
100056.672624888
100056.672625246
100056.672625545
100056.672625785
100056.672625965
100056.672626079
100056.672626135
100056.67262616
100056.670314992
100056.670315135
100056.670315397
100056.670315806
100056.670316348
100056.670316992
100056.670317729
100056.670318552
100056.670319453
100056.670320426
100056.670321465
100056.670322565
100056.670323719
100056.670324921
100056.670326165
100056.670327443
100056.670328751
100056.670330079
100056.670331423
100056.670332776
100056.67033413
100056.67033548
100056.67033682
100056.670338145
100056.670339447
100056.670340724
100056.670341969
100056.67034318
100056.67034435
100056.670345478
100056.670346559
100056.670347591
100056.670348571
100056.670349496
100056.670350366
100056.670351177
100056.67035193
100056.670352621
100056.670353252
100056.67035382
100056.670354327
100056.670354771
100056.670355154
100056.670355477
100056.670355739
100056.670355945
100056.670356092
100056.670356176
100056.67035621
100056.670356221
100056.668045816
100056.668045972
100056.668046251
100056.66804668
100056.668047242
100056.668047904
100056.668048657
100056.668049492
100056.668050402
100056.668051381
100056.668052423
100056.668053521
100056.668054672
100056.668055867
100056.668057102
100056.668058369
100056.668059663
100056.668060976
100056.668062304
100056.668063638
100056.668064973
100056.668066303
100056.668067622
100056.668068924
100056.668070204
100056.668071457
100056.668072679
100056.668073864
100056.66807501
100056.668076112
100056.668077168
100056.668078173
100056.668079126
100056.668080025
100056.668080867
100056.66808165
100056.668082373
100056.668083034
100056.668083634
100056.668084171
100056.668084644
100056.668085054
100056.668085402
100056.668085689
100056.668085916
100056.668086087
100056.668086201
100056.668086254
100056.668086266
100056.668086263
100056.665776605
100056.665776773
100056.665777069
100056.66577752
100056.665778103
100056.665778782
100056.66577955
100056.665780398
100056.665781318
100056.665782303
100056.665783347
100056.665784445
100056.665785592
100056.665786781
100056.665788007
100056.665789263
100056.665790543
100056.665791842
100056.665793153
100056.665794469
100056.665795786
100056.665797095
100056.665798393
100056.665799674
100056.665800932
100056.665802162
100056.66580336
100056.665804521
100056.665805643
100056.66580672
100056.66580775
100056.665808729
100056.665809656
100056.665810528
100056.665811342
100056.665812097
100056.665812791
100056.665813423
100056.665813992
100056.665814497
100056.665814937
100056.665815314
100056.665815627
100056.665815878
100056.66581607
100056.665816206
100056.665816285
100056.665816308
100056.665816297
100056.66581628
100056.66350735
100056.663507529
100056.663507844
100056.663508317
100056.663508921
100056.663509619
100056.663510403
100056.663511263
100056.663512193
100056.663513184
100056.663514231
100056.663515329
100056.663516472
100056.663517655
100056.663518872
100056.663520117
100056.663521385
100056.663522669
100056.663523964
100056.663525263
100056.663526561
100056.663527851
100056.663529128
100056.663530388
100056.663531623
100056.663532831
100056.663534006
100056.663535144
100056.663536241
100056.663537294
100056.663538299
100056.663539253
100056.663540154
100056.663540999
100056.663541786
100056.663542513
100056.663543179
100056.663543782
100056.66354432
100056.663544794
100056.663545202
100056.663545544
100056.663545823
100056.663546038
100056.663546194
100056.663546295
100056.663546339
100056.663546331
100056.663546297
100056.663546265
100056.661238041
100056.661238233
100056.661238566
100056.661239062
100056.661239688
100056.661240405
100056.661241206
100056.66124208
100056.661243019
100056.661244016
100056.661245066
100056.661246164
100056.661247304
100056.661248481
100056.66124969
100056.661250925
100056.66125218
100056.661253451
100056.66125473
100056.661256012
100056.661257291
100056.661258562
100056.66125982
100056.661261058
100056.661262273
100056.661263458
100056.66126461
100056.661265725
100056.661266799
100056.661267827
100056.661268808
100056.661269737
100056.661270613
100056.661271432
100056.661272192
100056.661272893
100056.66127353
100056.661274104
100056.661274613
100056.661275055
100056.661275431
100056.661275741
100056.661275984
100056.661276164
100056.661276284
100056.66127635
100056.661276358
100056.661276318
100056.66127626
100056.661276213
100056.658968669
100056.658968875
100056.658969227
100056.658969747
100056.658970397
100056.658971134
100056.658971952
100056.658972839
100056.658973788
100056.658974792
100056.658975846
100056.658976944
100056.658978081
100056.658979253
100056.658980454
100056.658981679
100056.658982922
100056.658984179
100056.658985443
100056.658986708
100056.65898797
100056.658989223
100056.658990461
100056.658991679
100056.658992873
100056.658994037
100056.658995167
100056.658996259
100056.65899731
100056.658998315
100056.658999272
100056.659000177
100056.659001027
100056.659001821
100056.659002556
100056.659003229
100056.65900384
100056.659004385
100056.659004865
100056.659005277
100056.659005621
100056.659005897
100056.659006107
100056.659006251
100056.659006335
100056.659006364
100056.659006336
100056.659006262
100056.65900618
100056.659006117
100056.656699225
100056.656699445
100056.656699819
100056.656700365
100056.65670104
100056.656701798
100056.656702633
100056.656703534
100056.656704494
100056.656705505
100056.656706563
100056.656707661
100056.656708796
100056.656709963
100056.656711156
100056.656712371
100056.656713603
100056.656714847
100056.656716096
100056.656717346
100056.656718591
100056.656719825
100056.656721044
100056.656722243
100056.656723416
100056.65672456
100056.656725669
100056.656726739
100056.656727768
100056.65672875
100056.656729684
100056.656730565
100056.656731392
100056.656732161
100056.656732871
100056.656733518
100056.656734102
100056.65673462
100056.656735071
100056.656735453
100056.656735766
100056.656736009
100056.656736184
100056.656736294
100056.656736341
100056.656736333
100056.656736267
100056.656736159
100056.65673605
100056.656735971
100056.6544297
100056.654429937
100056.654430333
100056.654430907
100056.654431609
100056.654432389
100056.654433242
100056.654434159
100056.654435129
100056.654436148
100056.654437209
100056.654438309
100056.654439441
100056.654440603
100056.65444179
100056.654442996
100056.654444217
100056.654445448
100056.654446683
100056.654447917
100056.654449146
100056.654450363
100056.654451564
100056.654452744
100056.654453898
100056.654455021
100056.65445611
100056.654457159
100056.654458166
100056.654459127
100056.654460038
100056.654460897
100056.6544617
100056.654462445
100056.654463131
100056.654463753
100056.654464311
100056.654464802