/*--------------------------------*- C++ -*----------------------------------*\
  =========                 |
  \\      /  F ield         | OpenFOAM: The Open Source CFD Toolbox
   \\    /   O peration     | Website:  https://openfoam.org
    \\  /    A nd           | Version:  10
     \\/     M anipulation  |
\*---------------------------------------------------------------------------*/
FoamFile
{
    format      ascii;
    class       volScalarField;
    location    "1.6";
    object      p_rgh;
}
// * * * * * * * * * * * * * * * * * * * * * * * * * * * * * * * * * * * * * //

dimensions      [1 -1 -2 0 0 0 0];

internalField   nonuniform List<scalar> 
2500
(
56.8446702718793
56.8447032271215
56.8447137163894
56.8447157354385
56.8447161145014
56.8447163050732
56.8447165656835
56.8447169912106
56.8447175885231
56.8447183509707
56.8447192676831
56.8447203245596
56.8447215073975
56.8447228021105
56.8447241945396
56.8447256712097
56.8447272189078
56.8447288255848
56.84473047957
56.8447321698768
56.8447338864062
56.8447356196848
56.8447373609088
56.8447391016671
56.8447408349894
56.8447425543563
56.8447442535107
56.8447459274466
56.8447475716384
56.8447491818661
56.8447507551318
56.8447522890056
56.8447537813918
56.8447552311409
56.8447566378163
56.8447580017528
56.8447593239107
56.8447606060945
56.8447618506907
56.8447630609589
56.8447642402607
56.8447653917829
56.8447665170243
56.8447676123033
56.8447686596191
56.8447695545037
56.8447700146935
56.8447685938881
56.8447583165835
56.8447257034713
56.8457137703372
56.8457691126387
56.845801457137
56.8458090962813
56.8458107975021
56.8458112655499
56.8458115810063
56.8458120184368
56.8458126197802
56.8458133849053
56.8458143033931
56.8458153616812
56.8458165455668
56.8458178408619
56.8458192335529
56.8458207101648
56.8458222577465
56.8458238640305
56.8458255174337
56.8458272070711
56.8458289228583
56.8458306553075
56.8458323955856
56.8458341353253
56.8458358674834
56.8458375856717
56.8458392835164
56.8458409560699
56.8458425988501
56.8458442075353
56.8458457793022
56.8458473117353
56.8458488022006
56.8458502498688
56.8458516546234
56.845853016508
56.8458543364977
56.8458556162659
56.8458568583155
56.8458580657316
56.8458592418756
56.8458603895415
56.8458615087293
56.8458625872299
56.8458635666757
56.8458641563484
56.845863275681
56.8458563071326
56.845823808675
56.8457673747616
56.8463106436102
56.8463511145674
56.8463755247358
56.8463817415031
56.8463831384724
56.8463835420553
56.8463838469906
56.8463842865021
56.8463848921383
56.8463856613962
56.8463865832746
56.8463876441674
56.8463888298575
56.8463901263167
56.8463915196044
56.8463929963036
56.8463945435797
56.8463961492525
56.8463978017244
56.8463994901249
56.8464012043987
56.8464029350725
56.8464046733716
56.846406411205
56.8464081412676
56.8464098570257
56.8464115525567
56.8464132225345
56.8464148624626
56.846416468441
56.8464180373558
56.8464195665874
56.8464210539387
56.8464224983181
56.8464238994929
56.8464252575504
56.8464265734219
56.8464278487663
56.8464290859993
56.8464302882785
56.8464314588055
56.8464326006215
56.8464337147016
56.8464347924892
56.8464357902412
56.8464364674728
56.8464359305799
56.8464303732908
56.8464058244863
56.8463629314065
56.8465815814852
56.8466017279861
56.8466115044866
56.8466138955991
56.8466144014383
56.8466146130086
56.8466148848383
56.8466153242334
56.8466159354866
56.8466167104198
56.8466176368238
56.8466187010636
56.8466198890383
56.8466211867781
56.8466225805169
56.8466240569251
56.846625603328
56.8466272075602
56.8466288581258
56.8466305442562
56.846632255867
56.8466339835286
56.8466357185825
56.846637452938
56.8466391793627
56.8466408912354
56.8466425827064
56.8466442484641
56.8466458839976
56.8466474854213
56.8466490495484
56.8466505737306
56.8466520559741
56.8466534950567
56.8466548905417
56.846656242531
56.846657551956
56.8466588204028
56.8466600502725
56.8466612445627
56.846662406635
56.8466635397635
56.8466646464949
56.8466657255922
56.8466667641187
56.8466676520475
56.8466680225101
56.8466662592837
56.8466565545095
56.8466345463967
56.8466874479782
56.8466952509043
56.8466980784724
56.8466984945844
56.8466985532577
56.846698677793
56.8466989421286
56.8466993881011
56.8467000075616
56.8467007894942
56.8467017211951
56.8467027890874
56.8467039792886
56.8467052780034
56.8467066716112
56.8467081469571
56.8467096914828
56.8467112931394
56.8467129405763
56.8467146230541
56.8467163305468
56.8467180537409
56.8467197839491
56.8467215131968
56.8467232342227
56.8467249405076
56.8467266260996
56.8467282858328
56.8467299151089
56.8467315100861
56.8467330674757
56.8467345847166
56.8467360598006
56.8467374914617
56.8467388791323
56.8467402229144
56.8467415236519
56.8467427829019
56.846744002949
56.8467451866891
56.8467463374545
56.8467474586942
56.8467485535366
56.8467496240046
56.8467506702
56.8467516473174
56.8467524644511
56.8467526824679
56.8467500867555
56.8467413843755
56.8467274092545
56.8467297771276
56.8467302301142
56.846729947385
56.8467298522155
56.8467299582408
56.8467302327044
56.8467306907114
56.8467313206638
56.8467321107892
56.8467330483982
56.8467341201613
56.8467353124724
56.8467366117111
56.8467380045622
56.8467394780309
56.8467410197045
56.8467426176649
56.8467442607071
56.8467459381791
56.8467476401565
56.8467493573553
56.8467510811897
56.846752803729
56.8467545177264
56.8467562167061
56.8467578947457
56.8467595466645
56.8467611679225
56.8467627545906
56.8467643034819
56.8467658119043
56.8467672779225
56.8467687001685
56.8467700780602
56.8467714115977
56.8467727015668
56.8467739494372
56.8467751573771
56.846776328166
56.8467774650053
56.8467785713001
56.8467796503101
56.8467807048874
56.8467817384662
56.8467827318382
56.8467836997443
56.8467846188287
56.8467844761326
56.8467818455538
56.8467450440658
56.8467454760103
56.8467452950281
56.8467448626761
56.8467447430739
56.8467448621523
56.8467451561301
56.8467456299259
56.8467462722328
56.8467470715259
56.8467480155232
56.846749091259
56.8467502854473
56.846751584817
56.846752976242
56.8467544470041
56.8467559848214
56.8467575780232
56.846759215463
56.8467608866486
56.846762581743
56.8467642915348
56.8467660075112
56.8467677217996
56.8467694272258
56.8467711172707
56.846772786128
56.8467744285881
56.8467760401254
56.84677761684
56.8467791554722
56.846780653359
56.8467821085214
56.8467835195625
56.8467848858127
56.8467862072139
56.8467874844646
56.8467887189327
56.8467899126554
56.8467910682521
56.8467921887641
56.8467932773783
56.8467943371797
56.8467953707586
56.8467963811418
56.8467973585794
56.8467983496084
56.8467994165112
56.8467999374989
56.8467995392421
56.8467560366262
56.8467559064447
56.8467556193209
56.8467552235525
56.8467551287322
56.8467552738584
56.8467555920361
56.8467560841382
56.8467567401822
56.8467575494287
56.846758500149
56.8467595798866
56.8467607757339
56.8467620747542
56.8467634641129
56.8467649313534
56.8467664644122
56.8467680517788
56.8467696824664
56.8467713461432
56.8467730330449
56.8467747340765
56.8467764407833
56.8467781453655
56.8467798407219
56.8467815203621
56.8467831784947
56.846784809939
56.846786410184
56.8467879753152
56.8467895020876
56.8467909877945
56.8467924304277
56.8467938285612
56.8467951814382
56.8467964889423
56.8467977516848
56.8467989708734
56.8468001484143
56.8468012867379
56.8468023886817
56.8468034571415
56.8468044947513
56.8468055035191
56.8468064850167
56.8468074331031
56.8468083989283
56.8468094257842
56.8468100631144
56.8468103377236
56.8467653132393
56.8467650735547
56.8467648126389
56.8467645015044
56.8467644492921
56.8467646256468
56.8467649702361
56.8467654822161
56.8467661529721
56.8467669727106
56.8467679303867
56.8467690140533
56.8467702112684
56.8467715094594
56.8467728961114
56.8467743590445
56.8467758864281
56.8467774669552
56.8467790898139
56.8467807447887
56.8467824222753
56.8467841132515
56.8467858093645
56.8467875029019
56.8467891867767
56.8467908545717
56.8467925005243
56.8467941194831
56.846795706937
56.8467972590006
56.8467987723561
56.8468002443551
56.8468016729021
56.8468030565273
56.8468043944304
56.8468056863931
56.8468069329247
56.8468081350875
56.8468092946277
56.8468104137864
56.8468114951247
56.8468125412037
56.846813554148
56.8468145351944
56.8468154844013
56.8468163972429
56.8468173196889
56.8468182576471
56.8468188726401
56.8468192908185
56.8467742686626
56.8467740459309
56.8467738356703
56.8467736126331
56.8467736090242
56.8467738186446
56.8467741905188
56.8467747231916
56.8467754092562
56.8467762398068
56.8467772044969
56.8467782919615
56.8467794902099
56.846780787062
56.8467821703816
56.8467836282362
56.8467851490714
56.8467867217842
56.8467883357662
56.8467899809475
56.8467916478257
56.8467933275388
56.846795011792
56.8467966929747
56.8467983640439
56.8468000186549
56.8468016510742
56.846803256165
56.8468048294308
56.8468063669861
56.8468078655278
56.8468093223346
56.8468107353256
56.8468121029728
56.846813424374
56.8468146992527
56.8468159279728
56.8468171114946
56.8468182513752
56.8468193496228
56.8468204085366
56.8468214302848
56.8468224164972
56.8468233675958
56.8468242824893
56.8468251571467
56.8468260290829
56.8468268742581
56.8468274402258
56.8468278490327
56.8467832616298
56.8467830822774
56.8467829221336
56.8467827783606
56.8467828244029
56.8467830678273
56.8467834670737
56.8467840207013
56.8467847222928
56.8467855637573
56.8467865354032
56.8467876264331
56.8467888253363
56.8467901203549
56.8467914997018
56.8467929517501
56.8467944652075
56.8467960291891
56.846797633305
56.8467992676306
56.8468009228091
56.8468025900947
56.846804261324
56.8468059289153
56.8468075859564
56.8468092261028
56.8468108436791
56.8468124335777
56.8468139913166
56.8468155130249
56.8468169953849
56.8468184356461
56.8468198316987
56.8468211819563
56.8468224854441
56.8468237418128
56.8468249512807
56.8468261146627
56.8468272333557
56.8468283091206
56.8468293439655
56.8468303396949
56.8468312974583
56.8468322170083
56.8468330962351
56.8468339311221
56.8468347502348
56.8468355112709
56.8468360275438
56.8468363929569
56.8467923718999
56.8467922355339
56.8467921204865
56.8467920451221
56.8467921393894
56.8467924162542
56.8467928424943
56.8467934169603
56.846794134035
56.8467949863261
56.8467959647533
56.8467970590573
56.8467982582079
56.846799550869
56.8468009256176
56.8468023711321
56.8468038764258
56.8468054308032
56.846807024107
56.8468086465582
56.8468102890183
56.8468119427998
56.8468135998701
56.8468152527348
56.8468168945546
56.8468185190432
56.8468201205542
56.8468216940237
56.8468232350133
56.8468247396086
56.8468262045062
56.8468276269414
56.8468290047458
56.8468303363043
56.8468316205544
56.8468328570452
56.8468340458785
56.8468351877673
56.8468362838612
56.8468373357027
56.8468383450236
56.846839313308
56.84684024124
56.84684112799
56.8468419707351
56.8468427651242
56.846843531559
56.8468442191806
56.8468446898478
56.8468450105865
56.8468016096012
56.8468015101244
56.8468014351965
56.8468014182581
56.8468015580147
56.846801867403
56.8468023199239
56.8468029148207
56.8468036471313
56.8468045100017
56.8468054949481
56.846806592177
56.846807791153
56.8468090809474
56.8468104504864
56.8468118887831
56.8468133851275
56.8468149290857
56.8468165106897
56.8468181203643
56.8468197490874
56.8468213883461
56.8468230302096
56.846824667271
56.846826292749
56.8468279004446
56.8468294847553
56.8468310406606
56.8468325637077
56.8468340500112
56.8468354962533
56.8468368996546
56.8468382580031
56.8468395696109
56.8468408333865
56.8468420487479
56.8468432157097
56.8468443348102
56.8468454070098
56.8468464336474
56.8468474161928
56.8468483557808
56.8468492527463
56.8468501058087
56.8468509115919
56.8468516653083
56.8468523805641
56.8468530045793
56.8468534338317
56.8468537157023
56.8468109679816
56.8468108993256
56.8468108601664
56.8468108933739
56.8468110753456
56.8468114159768
56.8468118938326
56.8468125085783
56.8468132556882
56.8468141288176
56.8468151199195
56.846816219695
56.8468174180452
56.8468187044346
56.8468200681673
56.846821498606
56.8468229853024
56.8468245180557
56.8468260871305
56.8468276831409
56.8468292972248
56.8468309210148
56.8468325466674
56.8468341669068
56.8468357750244
56.8468373648793
56.8468389309273
56.8468404681771
56.8468419721903
56.8468434390816
56.8468448655476
56.8468462487799
56.8468475865375
56.8468488770886
56.8468501192256
56.8468513123225
56.846852456234
56.846853551353
56.8468545984942
56.8468555987929
56.8468565534131
56.8468574632716
56.8468583283684
56.8468591470883
56.8468599157059
56.8468606289825
56.8468612952565
56.8468618636834
56.8468622552609
56.8468625044479
56.8468204370438
56.8468203943048
56.846820387349
56.8468204640667
56.8468206847901
56.8468210551364
56.8468215573084
56.8468221911899
56.8468229525752
56.8468238354981
56.8468248323479
56.8468259342626
56.846827131536
56.8468284140254
56.8468297714135
56.8468311933539
56.8468326696893
56.8468341905391
56.8468357462989
56.8468373278447
56.8468389264308
56.8468405338645
56.8468421424041
56.8468437448901
56.8468453347014
56.8468469057407
56.8468484525365
56.8468499701121
56.8468514540727
56.8468529005622
56.8468543062045
56.8468556682201
56.8468569843244
56.8468582527275
56.846859472178
56.8468606419192
56.8468617617327
56.8468628318369
56.846863852872
56.8468648257694
56.8468657515186
56.8468666307454
56.8468674632313
56.8468682471721
56.8468689785514
56.8468696518976
56.8468702716928
56.8468707908905
56.846871147849
56.8468713694165
56.846830006165
56.8468299856031
56.8468300077657
56.8468301227404
56.846830378985
56.8468307774019
56.8468313027552
56.846831954972
56.8468327300507
56.8468336223159
56.8468346244772
56.8468357280799
56.8468369237962
56.8468382019055
56.8468395523814
56.846840965256
56.8468424306484
56.8468439388816
56.8468454806425
56.846847046967
56.8468486292841
56.8468502195465
56.8468518101581
56.8468533940177
56.846854964635
56.8468565160001
56.846858042627
56.8468595395971
56.8468610025739
56.846862427672
56.8468638115592
56.8468651513977
56.8468664448883
56.8468676901684
56.8468688859575
56.8468700313824
56.8468711260939
56.8468721702084
56.846873164206
56.8468741088145
56.8468750048196
56.8468758526869
56.8468766519945
56.846877400807
56.8468780950643
56.8468787291495
56.8468793048814
56.8468797797541
56.8468801047711
56.8468803025462
56.8468396649841
56.8468396637909
56.8468397125689
56.8468398616824
56.8468401504215
56.8468405752792
56.8468411226786
56.8468417924159
56.8468425805622
56.8468434816605
56.8468444886821
56.8468455935363
56.8468467872881
56.846848060537
56.8468494036351
56.8468508069054
56.8468522607582
56.8468537557928
56.8468552828999
56.8468568333046
56.8468583986541
56.8468599710177
56.8468615429156
56.8468631074065
56.8468646580295
56.8468661888473
56.8468676944904
56.84686917004
56.8468706111744
56.8468720140227
56.8468733752816
56.8468746920844
56.8468759620737
56.8468771833723
56.8468783545977
56.8468794748187
56.8468805435696
56.8468815608358
56.846882526952
56.8468834424566
56.8468843080045
56.8468851238576
56.8468858895067
56.8468866030016
56.8468872602825
56.8468878558488
56.8468883897731
56.8468888241041
56.846889119377
56.8468892961973
56.8468494031695
56.8468494192348
56.8468494924746
56.8468496724818
56.846849991096
56.8468504408083
56.8468510091334
56.8468516955763
56.8468524961791
56.8468534055864
56.8468544170319
56.84685552273
56.8468567140808
56.8468579820328
56.8468593173166
56.8468607104878
56.8468621522916
56.8468636335601
56.8468651454459
56.8468666793488
56.846868227105
56.8468697809003
56.8468713334296
56.8468728778244
56.84687440774
56.8468759172974
56.8468774011999
56.8468788545579
56.8468802730786
56.8468816529348
56.8468829907797
56.8468842837319
56.8468855294341
56.8468867259508
56.8468878718268
56.846888966058
56.846890008077
56.8468909977382
56.8468919352163
56.8468928209477
56.8468936553836
56.8468944386987
56.8468951703253
56.8468958483427
56.84689646888
56.8468970267277
56.8468975207797
56.846897917465
56.8468981848273
56.8468983427592
56.8468592107674
56.8468592425197
56.8468593385332
56.8468595468148
56.8468598930485
56.8468603661458
56.8468609543634
56.8468616567261
56.8468624691741
56.8468633863813
56.8468644018285
56.8468655079632
56.8468666965346
56.8468679588113
56.846869285815
56.8468706684798
56.8468720977689
56.8468735648203
56.8468750609609
56.8468765778234
56.8468781074043
56.8468796420784
56.8468811746279
56.8468826983299
56.8468842069124
56.8468856945838
56.8468871560763
56.8468885865877
56.8468899818254
56.8468913379766
56.8468926517089
56.8468939201266
56.8468951408431
56.8468963118794
56.8468974317075
56.8468984992651
56.8468995138537
56.8469004752405
56.8469013834547
56.8469022387872
56.8469030415872
56.8469037919276
56.8469044892408
56.8469051317079
56.8469057157345
56.8469062365621
56.8469066924299
56.8469070536958
56.8469072946173
56.8469074352324
56.8468690777663
56.8468691240123
56.8468692413153
56.8468694758485
56.8468698477664
56.8468703429389
56.8468709500739
56.8468716676289
56.84687249134
56.8468734159105
56.846874434952
56.8468755411595
56.8468767265877
56.8468779828399
56.8468793012289
56.8468806729943
56.8468820893904
56.846883541788
56.8468850217469
56.846886521118
56.8468880320579
56.8468895471015
56.8468910591619
56.8468925616326
56.8468940483435
56.8468955135613
56.8468969521055
56.8468983591883
56.8468997305608
56.8469010624249
56.8469023514335
56.8469035947201
56.8469047898398
56.8469059347699
56.8469070279534
56.8469080682116
56.8469090547878
56.8469099873037
56.8469108657155
56.8469116901542
56.8469124608528
56.8469131778693
56.8469138406363
56.8469144475239
56.8469149953016
56.846915479764
56.8469158988009
56.84691622635
56.8469164420821
56.8469165664574
56.8468789944018
56.8468790542829
56.8468791917403
56.8468794508663
56.8468798468821
56.8468803629949
56.8468809881597
56.8468817202374
56.8468825546879
56.8468834861851
56.8468845084572
56.8468856144318
56.8468867964257
56.8468880463333
56.8468893558165
56.8468907163769
56.8468921195454
56.8468935569399
56.8468950203824
56.8468965018837
56.8468979937898
56.8468994887808
56.8469009799446
56.846902460733
56.8469039251067
56.8469053674053
56.8469067824917
56.8469081656658
56.8469095126784
56.846910819746
56.8469120835507
56.8469133011968
56.8469144701958
56.846915588525
56.8469166545547
56.8469176670042
56.8469186250732
56.8469195282523
56.8469203763816
56.8469211695046
56.8469219077524
56.8469225911394
56.8469232191856
56.8469237904646
56.8469243021973
56.8469247508619
56.8469251341594
56.8469254293013
56.84692562079
56.8469257297693
56.8468889508658
56.8468890236836
56.8468891803495
56.8468894627877
56.8468898816209
56.8468904176552
56.8468910600932
56.8468918061117
56.8468926508504
56.8468935889105
56.8468946141074
56.8468957195582
56.8468968978705
56.8468981412007
56.8468994415307
56.8469007906242
56.846902180303
56.8469036024326
56.8469050490385
56.8469065123645
56.8469079849165
56.8469094595494
56.8469109294529
56.8469123882242
56.8469138298969
56.8469152489124
56.8469166401774
56.8469179990352
56.846919321295
56.8469206031732
56.846921841352
56.846923032921
56.8469241754065
56.8469252666982
56.8469263051229
56.8469272893853
56.8469282185251
56.8469290919893
56.8469299094722
56.8469306709158
56.8469313764072
56.8469320259464
56.8469326191116
56.8469331548113
56.846933630688
56.8469340440352
56.8469343924662
56.846934656176
56.8469348241779
56.8469349183288
56.8468989375979
56.8468990228721
56.846899198048
56.8468995028088
56.8468999433971
56.8469004985527
56.8469011576381
56.846901917088
56.8469027717219
56.8469037160248
56.8469047438703
56.8469058485935
56.8469070230058
56.8469082595839
56.846909550557
56.846910888009
56.846912264009
56.8469136706699
56.84691510025
56.8469165451679
56.8469179981475
56.8469194521749
56.8469209005561
56.8469223370485
56.8469237557438
56.8469251511851
56.8469265183376
56.8469278525881
56.846929149775
56.8469304061291
56.8469316183764
56.8469327835628
56.8469338991999
56.8469349631487
56.8469359736773
56.8469369294035
56.846937829323
56.8469386727375
56.846939459283
56.8469401888287
56.8469408613455
56.8469414768333
56.8469420350448
56.8469425351504
56.8469429753604
56.8469433537248
56.8469436679297
56.8469439009641
56.8469440460321
56.8469441258203
56.8469089448918
56.8469090422732
56.8469092353771
56.8469095616747
56.8469100232469
56.8469105968688
56.8469112720777
56.8469120445807
56.8469129087898
56.8469138590735
56.8469148893928
56.8469159931992
56.8469171635807
56.8469183932757
56.8469196747901
56.8469210004696
56.8469223626744
56.8469237537502
56.8469251661591
56.8469265925378
56.8469280257705
56.8469294590031
56.8469308857166
56.8469322997553
56.8469336952985
56.8469350669766
56.8469364098128
56.8469377192523
56.8469389911479
56.8469402218034
56.8469414078718
56.8469425464573
56.8469436350279
56.8469446714153
56.8469456538151
56.8469465807866
56.8469474512385
56.8469482644141
56.8469490198186
56.8469497172337
56.8469503566012
56.8469509379356
56.8469514611352
56.8469519256469
56.8469523303211
56.8469526739646
56.8469529544236
56.8469531572773
56.846953279819
56.8469533455209
56.8469189635507
56.8469190726901
56.8469192832708
56.8469196305523
56.8469201125263
56.8469207041344
56.8469213950448
56.8469221802661
56.8469230538176
56.8469240099221
56.8469250425551
56.8469261453574
56.8469273116352
56.8469285343745
56.8469298063719
56.8469311202352
56.8469324685866
56.8469338440045
56.8469352391839
56.8469366469508
56.8469380603783
56.8469394727726
56.8469408777455
56.8469422692142
56.846943641518
56.846944989331
56.846946307749
56.8469475922611
56.8469488387782
56.8469500435895
56.8469512033917
56.8469523152453
56.8469533766038
56.8469543852698
56.8469553393952
56.8469562374958
56.8469570783636
56.8469578611548
56.8469585853018
56.8469592504844
56.8469598566153
56.8469604037236
56.8469608918385
56.8469613207853
56.846961689982
56.8469619991229
56.8469622461271
56.8469624191202
56.8469625194848
56.8469625714206
56.8469289840723
56.8469291046349
56.8469293322996
56.8469297002011
56.8469302022131
56.8469308115018
56.8469315178518
56.8469323155878
56.8469331983215
56.8469341601303
56.8469351950189
56.8469362967735
56.8469374589331
56.8469386747165
56.8469399371825
56.8469412392442
56.8469425737421
56.8469439335167
56.8469453114812
56.8469467006798
56.8469480943168
56.8469494858728
56.846950869076
56.8469522380037
56.8469535870536
56.8469549109868
56.8469562049868
56.8469574645569
56.8469586856809
56.8469598646188
56.8469609981112
56.8469620832038
56.8469631173211
56.8469640982512
56.8469650240877
56.846965893259
56.8469667044992
56.8469674568623
56.8469681497081
56.8469687826146
56.8469693554653
56.8469698683184
56.8469703213486
56.8469707147451
56.8469710485224
56.8469713232189
56.8469715369138
56.8469716802501
56.8469717586559
56.8469717970002
56.8469389966194
56.8469391286635
56.8469393733831
56.8469397617737
56.846940283649
56.8469409104437
56.8469416321168
56.8469424422656
56.8469433341088
56.8469443015783
56.8469453387079
56.8469464394439
56.8469475974998
56.8469488063711
56.8469500593928
56.8469513497257
56.8469526704721
56.8469540147053
56.8469553755422
56.8469567462307
56.8469581201789
56.8469594909693
56.8469608525193
56.8469621989934
56.8469635248766
56.8469648250175
56.8469660946575
56.8469673294021
56.8469685251621
56.8469696783286
56.8469707855693
56.8469718439737
56.8469728509372
56.8469738041895
56.8469747017807
56.8469755420811
56.8469763237517
56.846977045745
56.8469777073187
56.8469783079927
56.8469788475923
56.8469793261902
56.8469797441503
56.8469801019965
56.8469804003398
56.8469806405919
56.8469808209775
56.846980934657
56.8469809910457
56.8469810155948
56.8469489918352
56.8469491354626
56.8469493972952
56.846949806175
56.8469503479719
56.8469509922725
56.8469517292542
56.8469525517867
56.8469534527394
56.8469544258987
56.846955465342
56.8469565651176
56.8469577191572
56.8469589212473
56.8469601649558
56.8469614436908
56.8469627508312
56.8469640796684
56.8469654235523
56.84696677592
56.846968130325
56.8469694805535
56.8469708206103
56.8469721447909
56.8469734476821
56.8469747242198
56.8469759696891
56.8469771797245
56.8469783503533
56.8469794778794
56.8469805590576
56.8469815909484
56.8469825709035
56.8469834966236
56.8469843661442
56.846985177719
56.8469859299512
56.8469866217056
56.8469872521382
56.8469878206815
56.8469883271027
56.8469887715328
56.8469891544519
56.8469894767477
56.8469897396426
56.846989945363
56.8469900922646
56.8469901761564
56.8469902103825
56.8469902210636
56.8469589608285
56.8469591161265
56.8469593952032
56.8469598247902
56.8469603867561
56.8469610487082
56.8469618010859
56.8469626360893
56.8469635462388
56.8469645252044
56.8469655670488
56.8469666659948
56.8469678161928
56.8469690116472
56.8469702462025
56.8469715135725
56.8469728073105
56.8469741209847
56.8469754481484
56.8469767824135
56.8469781175518
56.8469794474659
56.8469807662768
56.8469820684259
56.8469833485869
56.8469846017833
56.8469858233439
56.8469870089466
56.8469881546625
56.8469892568392
56.8469903122314
56.8469913178415
56.8469922710647
56.846993169529
56.8469940111972
56.8469947943086
56.846995517335
56.8469961790688
56.8469967785495
56.8469973151368
56.8469977885397
56.8469981988892
56.84699854684
56.8469988336001
56.8469990609447
56.8469992319733
56.8469993451145
56.846999398942
56.8469994108018
56.8469994076149
56.8469688942423
56.8469690614002
56.8469693579536
56.8469698087138
56.8469703913142
56.8469710712234
56.8469718392444
56.8469726868934
56.8469736063998
56.8469745913026
56.8469756357226
56.8469767340284
56.8469778805884
56.8469790696399
56.8469802953041
56.8469815515273
56.8469828321395
56.8469841309416
56.8469854416908
56.846986758188
56.8469880743505
56.8469893842557
56.8469906821847
56.8469919626514
56.8469932204316
56.8469944506069
56.8469956486224
56.8469968101708
56.8469979313377
56.8469990085141
56.8470000384405
56.8470010181336
56.8470019449596
56.8470028165175
56.8470036306971
56.8470043856796
56.8470050798351
56.8470057118539
56.8470062806591
56.8470067855524
56.8470072261407
56.8470076025842
56.8470079156396
56.8470081668638
56.8470083585853
56.8470084946603
56.8470085735898
56.8470085968729
56.8470085860317
56.8470085686859
56.8469787828799
56.8469789623487
56.8469792768738
56.8469797495345
56.8469803534681
56.8469810518145
56.8469818357844
56.8469826963556
56.8469836254517
56.8469846165099
56.8469856637239
56.8469867616222
56.8469879047771
56.8469890877022
56.8469903047662
56.8469915501628
56.8469928179984
56.8469941022631
56.8469953969325
56.8469966960256
56.8469979936344
56.8469992839528
56.8470005614072
56.847001820599
56.8470030564204
56.8470042640402
56.8470054389327
56.8470065768488
56.8470076739177
56.8470087265596
56.8470097314712
56.8470106857276
56.847011586593
56.8470124316809
56.8470132188231
56.8470139460696
56.8470146117616
56.8470152144582
56.8470157529664
56.8470162264712
56.847016634536
56.8470169772772
56.8470172555972
56.8470174712857
56.8470176272094
56.8470177280251
56.8470177721028
56.8470177641575
56.8470177301642
56.8470176982664
56.846988617559
56.8469888099353
56.8469891431159
56.846989638696
56.8469902649522
56.8469909823616
56.8469917827315
56.8469926565449
56.8469935954927
56.8469945929683
56.8469956432382
56.8469967410056
56.8469978810608
56.8469990581798
56.8470002669783
56.847001501912
56.8470027573348
56.8470040274842
56.8470053065248
56.847006588665
56.8470078681567
56.8470091393538
56.8470103967993
56.8470116352255
56.8470128495974
56.847014035171
56.8470151874499
56.8470163022721
56.847017375796
56.8470184044272
56.8470193848771
56.8470203142206
56.8470211896929
56.8470220088493
56.8470227694634
56.8470234695269
56.84702410725
56.8470246811048
56.8470251897816
56.8470256323053
56.8470260081813
56.8470263174968
56.8470265612123
56.8470267414086
56.8470268614037
56.8470269265235
56.8470269349345
56.8470268948149
56.8470268370002
56.847026790012
56.8469983894174
56.8469985954434
56.846998948211
56.8469994681363
56.8470001179667
56.8470008551958
56.8470016725332
56.8470025599963
56.847003509145
56.8470045133436
56.847005566975
56.847006664917
56.8470078021928
56.8470089738403
56.8470101747371
56.8470113996154
56.8470126430766
56.8470138995472
56.8470151634392
56.8470164291502
56.8470176910487
56.8470189436775
56.8470201816817
56.8470213999099
56.8470225934288
56.8470237575239
56.8470248878148
56.8470259801688
56.8470270307298
56.8470280359616
56.8470289926045
56.8470298976463
56.8470307483512
56.8470315422019
56.8470322769135
56.8470329504053
56.8470335607708
56.8470341063512
56.8470345857204
56.8470349977724
56.847035341867
56.8470356180915
56.8470358274208
56.8470359721687
56.8470360560314
56.8470360849751
56.8470360566571
56.8470359831699
56.8470359006315
56.8470358378399
56.8470080893894
56.8470083100401
56.8470086836169
56.8470092297357
56.8470099046972
56.8470106626773
56.8470114975789
56.8470123991574
56.8470133588853
56.8470143701561
56.8470154274692
56.8470165259205
56.8470176607661
56.8470188273495
56.8470200207666
56.8470212360407
56.8470224679913
56.847023711307
56.8470249605889
56.8470262103947
56.8470274552965
56.8470286899683
56.8470299091568
56.8470311078272
56.8470322811336
56.8470334244485
56.8470345334208
56.8470356039907
56.8470366323163
56.8470376148616
56.8470385483961
56.8470394298638
56.847040256529
56.8470410258014
56.8470417353383
56.8470423829422
56.8470429666486
56.8470434846095
56.8470439352968
56.8470443174301
56.8470446302817
56.8470448737935
56.8470450490131
56.8470451583707
56.8470452059264
56.8470451981266
56.8470451318135
56.8470450232853
56.8470449149027
56.8470448352891
56.84701770838
56.847017945096
56.8470183411409
56.8470189159125
56.8470196178823
56.8470203976176
56.8470212508109
56.8470221670286
56.8470231377578
56.8470241564501
56.8470252177794
56.8470263170748
56.8470274498832
56.8470286117663
56.8470297981403
56.8470310042903
56.8470322252688
56.8470334559825
56.8470346912363
56.8470359257772
56.8470371543226
56.8470383716922
56.8470395727636
56.8470407525747
56.847041906396
56.8470430296729
56.847044118098
56.8470451676258
56.8470461744873
56.8470471351466
56.8470480463584
56.8470489050669
56.8470497084782
56.8470504539728
56.8470511391351