/*--------------------------------*- C++ -*----------------------------------*\
  =========                 |
  \\      /  F ield         | OpenFOAM: The Open Source CFD Toolbox
   \\    /   O peration     | Website:  https://openfoam.org
    \\  /    A nd           | Version:  10
     \\/     M anipulation  |
\*---------------------------------------------------------------------------*/
FoamFile
{
    format      ascii;
    class       surfaceScalarField;
    location    "1.6";
    object      phi;
}
// * * * * * * * * * * * * * * * * * * * * * * * * * * * * * * * * * * * * * //

dimensions      [1 0 -1 0 0 0 0];

internalField   nonuniform List<scalar> 
4900
(
-4.82678998855811e-12
4.61815396449197e-12
-7.04219579195192e-12
1.89321822808664e-12
-4.81864322185194e-12
-2.56579138446376e-12
-3.51234790600046e-12
-1.63852101881523e-12
-2.6633908428384e-12
-1.17342230023196e-12
-2.11339088395599e-12
-8.7209250316705e-13
-1.74216880145945e-12
-6.92962518311543e-13
-1.46689339129921e-12
-5.96348604747986e-13
-1.25057427754757e-12
-5.3555753914197e-13
-1.07415305690665e-12
-4.92594791900327e-13
-9.26660567601771e-13
-4.59631211256724e-13
-8.01076471663351e-13
-4.33017072168971e-13
-6.92411730071502e-13
-4.11005497331002e-13
-5.97168928486506e-13
-3.92295667886537e-13
-5.12848029871595e-13
-3.76054402807709e-13
-4.37440624052179e-13
-3.61871259528938e-13
-3.69449539672575e-13
-3.4932266628619e-13
-3.07647842219404e-13
-3.38161553417163e-13
-2.51061311565226e-13
-3.28186194631424e-13
-1.98832254949098e-13
-3.19275879405934e-13
-1.50220700281554e-13
-3.11346103750174e-13
-1.0458595450335e-13
-3.04280168551004e-13
-6.13254757080827e-14
-2.98062096936489e-13
-1.98625366426097e-14
-2.92641396233704e-13
2.03516098777289e-14
-2.88004231466401e-13
5.98862165710476e-14
-2.84142310930624e-13
9.9300644285202e-14
-2.81054510848573e-13
1.39245712057234e-13
-2.78803720581005e-13
1.80340004019838e-13
-2.7736421676219e-13
2.23281737683975e-13
-2.76790315149913e-13
2.68802934708428e-13
-2.77124973605739e-13
3.17819272792786e-13
-2.78533379622365e-13
3.71258711792812e-13
-2.81041261418592e-13
4.30256569114096e-13
-2.84844204448186e-13
4.96181347878745e-13
-2.90188490799899e-13
5.70693799630556e-13
-2.97351265993798e-13
6.55876071106407e-13
-3.06749685597097e-13
7.54450585090314e-13
-3.1897573252255e-13
8.70025183495359e-13
-3.34852141913093e-13
1.00770031879596e-12
-3.55735031850085e-13
1.17490018254359e-12
-3.83771656300545e-13
1.38330987488918e-12
-4.22976571791645e-13
1.65335820109953e-12
-4.81910695367326e-13
2.02472486990489e-12
-5.79859481151177e-13
2.58345170832859e-12
-7.63823475517592e-13
3.45172201300166e-12
-1.07133726628972e-12
4.77328828312417e-12
-1.52560275762654e-12
7.07103613355368e-12
-2.50628562527918e-12
4.90676760789328e-12
1.95592588566994e-12
4.76140718233142e-12
-6.85030474735162e-12
1.11775724762e-11
-9.51799370731463e-12
4.14401114701891e-12
-7.8482939673806e-12
-4.65809413579991e-12
-6.3834166818699e-12
-3.50801288956165e-12
-5.23677009745974e-12
-2.71390909083931e-12
-4.33494819819108e-12
-2.16439189777053e-12
-3.61854525592462e-12
-1.79902016270716e-12
-3.04176153878841e-12
-1.56161135185805e-12
-2.56858212355031e-12
-1.39469319788949e-12
-2.17362875464501e-12
-1.2695774363784e-12
-1.83889600613135e-12
-1.17136940628244e-12
-1.55151749556831e-12
-1.09162826435098e-12
-1.30200449464963e-12
-1.0255541970993e-12
-1.08333528210558e-12
-9.69599347767388e-13
-8.90212552427267e-13
-9.2139081332019e-13
-7.18420708496952e-13
-8.79531776225067e-13
-5.64615353872412e-13
-8.42824982667506e-13
-4.26031877751405e-13
-8.10471840348593e-13
-3.00371524508602e-13
-7.81860609415064e-13
-1.85615661494375e-13
-7.56588281156545e-13
-7.99909933503045e-14
-7.34359283108041e-13
1.81043944985165e-14
-7.14868233332124e-13
1.10136587370767e-13
-6.97984943612986e-13
1.97525873447698e-13
-6.83586621499187e-13
2.81629331885895e-13
-6.71608764451171e-13
3.63832986002062e-13
-6.62041096029475e-13
4.45524608173038e-13
-6.54891490337162e-13
5.28127739755306e-13
-6.50226375189487e-13
6.13143836163931e-13
-6.48104091382762e-13
7.02150571469609e-13
-6.48627049402388e-13
7.96895305730692e-13
-6.5201767310526e-13
8.99344397368465e-13
-6.58641394239409e-13
1.0116324031289e-12
-6.68705520441858e-13
1.13629169528776e-12
-6.8279254412618e-13
1.27625486872206e-12
-7.01561823183544e-13
1.43506638158987e-12
-7.25883619726754e-13
1.6171327251933e-12
-7.57026271000843e-13
1.82797012980759e-12
-7.96627624517935e-13
2.0747668291525e-12
-8.4709369250749e-13
2.36725619496956e-12
-9.12148290966699e-13
2.71878705615265e-12
-9.97322775615248e-13
3.14819830141386e-12
-1.11182218513082e-12
3.68262856790594e-12
-1.27232024342223e-12
4.36194664583618e-12
-1.51100436374524e-12
5.23795383744168e-12
-1.88784571995908e-12
6.37204580505699e-12
-2.45205876692621e-12
7.83407618486356e-12
-3.23758106941555e-12
9.65303887283311e-12
-4.5829044073768e-12
7.01473222770346e-12
4.33792954634984e-12
1.16076239712096e-11
-8.31891281015033e-12
1.91874897997305e-11
-8.12046887823177e-12
3.52239241422785e-12
-7.56644104988471e-12
-5.61386123277061e-12
-6.7098960202463e-12
-4.74029336483133e-12
-5.69579926680111e-12
-4.09104667212217e-12
-4.81156031058909e-12
-3.40767983212255e-12
-4.07873275564347e-12
-2.8897471666964e-12
-3.47965958757357e-12
-2.51725953821846e-12
-2.98479277146166e-12
-2.24364174711306e-12
-2.57046992729855e-12
-2.03424825546446e-12
-2.21883524261262e-12
-1.86864954802986e-12
-1.91666470335223e-12
-1.73408358996358e-12
-1.65419221232554e-12
-1.62258206743884e-12
-1.42400526479011e-12
-1.52843954931889e-12
-1.22039275114399e-12
-1.4477471704415e-12
-1.03885725284007e-12
-1.37797830275457e-12
-8.75776495648947e-13
-1.3171482203518e-12
-7.28146118616991e-13
-1.26386547723628e-12
-5.93440135290899e-13
-1.21708939649087e-12
-4.69455131909401e-13
-1.17609221392631e-12
-3.5428427914304e-13
-1.14031246891285e-12
-2.46159845824341e-13
-1.10928932172074e-12
-1.43484244787154e-13
-1.08274193001789e-12
-4.47394682981388e-14
-1.06044360715028e-12
5.15333167244431e-14
-1.04228145822166e-12
1.46835928824377e-13
-1.02826011447937e-12
2.4263360201545e-13
-1.0183564723582e-12
3.40400688818806e-13
-1.01261797530471e-12
4.41745923959044e-13
-1.01124132752575e-12
5.48381843336191e-13
-1.01440931775423e-12
6.62171025273947e-13
-1.02250195534457e-12
7.85164174400972e-13
-1.03605660486019e-12
9.19673592059462e-13
-1.05555520574809e-12
1.06836892123761e-12
-1.08192729115625e-12
1.23437782651607e-12
-1.11630231383505e-12
1.4214503470104e-12
-1.1601555118304e-12
1.63422603279263e-12
-1.2156329646425e-12
1.87847202747593e-12
-1.2854384195284e-12
2.16164630229997e-12
-1.37358309920876e-12
2.49370021901175e-12
-1.48611290496981e-12
2.88800450300608e-12
-1.63175617932813e-12
3.36274332514924e-12
-1.82424993364007e-12
3.94231150374664e-12
-2.08631649444401e-12
4.65752049970968e-12
-2.4567898897945e-12
5.5272183135603e-12
-2.98486145210881e-12
6.52900836718595e-12
-3.6809754549411e-12
7.4033843720299e-12
-4.34513402935342e-12
8.08930241535035e-12
-5.51488789734822e-12
8.3067034945404e-12
3.86604204280446e-12
1.9748698396411e-11
-8.29109722129277e-12
2.71642868465945e-11
-7.56868210493758e-12
2.3797064958402e-12
-7.13589510035509e-12
-6.42712410439057e-12
-6.34811509393193e-12
-5.87804592202066e-12
-5.40641638866479e-12
-5.36896682182807e-12
-4.60150111127059e-12
-4.54448052310718e-12
-3.94644840867801e-12
-3.87535188872792e-12
-3.41445757023544e-12
-3.37842327580938e-12
-2.97590041060843e-12
-3.00896826229514e-12
-2.60879475281497e-12
-2.72461042943689e-12
-2.29713959541993e-12
-2.49918120293052e-12
-2.02914114703639e-12
-2.31598908892463e-12
-1.79608776745423e-12
-2.16424571941869e-12
-1.59131056824562e-12
-2.03637882782482e-12
-1.40963367959395e-12
-1.92713627852832e-12
-1.24697461717595e-12
-1.83297400378472e-12
-1.10002993423267e-12
-1.75120728182421e-12
-9.66051806253438e-13
-1.67991179023216e-12
-8.4273316379006e-13
-1.61765121863574e-12
-7.28075818762052e-13
-1.56338627077485e-12
-6.20347119747226e-13
-1.51631826387368e-12
-5.17944032384663e-13
-1.47584141655616e-12
-4.19429862253234e-13
-1.44152631796235e-12
-3.23428828537548e-13
-1.41306283261371e-12
-2.28615402783458e-13
-1.39029745145666e-12
-1.33688009048551e-13
-1.37318552804898e-12
-3.73562593689158e-14
-1.36169715479928e-12
6.17513526311882e-14
-1.35593535333125e-12
1.65045878771548e-13
-1.35614060830144e-12
2.74072129758622e-13
-1.36260737175388e-12
3.90509287808604e-13
-1.37585740061921e-12
5.16191269864513e-13
-1.39656831093192e-12
6.53219274613315e-13
-1.4255012800766e-12
8.03996051802127e-13
-1.46387906888629e-12
9.71332699204119e-13
-1.51324993158739e-12
1.15861219880974e-12
-1.57564546969636e-12
1.36997424515301e-12
-1.65395739928403e-12
1.61056039326775e-12
-1.75183451070853e-12
1.88696944199828e-12
-1.87466339931433e-12
2.20795455465483e-12
-2.03048430962098e-12
2.58518430544396e-12
-2.23072937064449e-12
3.03449206979349e-12
-2.49303096273438e-12
3.57730580388203e-12
-2.84554967995811e-12
4.24154121842233e-12
-3.33384223310318e-12
5.05064713406174e-12
-4.00386383259435e-12
5.99381780659944e-12
-4.8345271061934e-12
6.8382438560677e-12
-5.40770665862001e-12
7.42752082046077e-12
-6.33901286231152e-12
8.21156620098562e-12
2.83050272280812e-12
2.77963210166404e-11
-5.83942127539459e-12
3.26925565213117e-11
-7.1921511943844e-12
3.32177030275172e-12
-6.84897301758367e-12
-7.13037428273021e-12
-5.95357495375835e-12
-7.10133138932138e-12
-5.06799229313823e-12
-6.5685396751245e-12
-4.3410923670594e-12
-5.58092257033684e-12
-3.75815223304029e-12
-4.76637956686187e-12
-3.28406171224129e-12
-4.15917117522468e-12
-2.89151952975202e-12
-3.70581851471152e-12
-2.56134116871348e-12
-3.35573705018499e-12
-2.27982667114994e-12
-3.0774935923498e-12
-2.03685263978329e-12
-2.851073887315e-12
-1.82486277938574e-12
-2.66336359173355e-12
-1.63799831423008e-12
-2.5052538343282e-12
-1.47165765170129e-12
-2.37037428565378e-12
-1.32217607597541e-12
-2.25431233581749e-12
-1.18656027197328e-12
-2.15378621341951e-12
-1.06230597339975e-12
-2.06640173231216e-12
-9.47301428249971e-13
-1.99037349266845e-12
-8.3971212964489e-13
-1.92438091571145e-12
-7.37935538312839e-13
-1.86742012650942e-12
-6.4050936451403e-13
-1.81873046561483e-12
-5.46110959927686e-13
-1.77775937987367e-12
-4.53465928080706e-13
-1.74412712279152e-12
-3.61367634367772e-13
-1.71762167759587e-12
-2.68625978791982e-13
-1.69815738944322e-12
-1.74049922799436e-13
-1.68571065810204e-12
-7.6380871009376e-14
-1.68042666677268e-12
2.56709526985652e-14
-1.68258190466164e-12
1.33528581516647e-13
-1.69258358045809e-12
2.48725727628355e-13
-1.71107097825711e-12
3.72941634508458e-13
-1.7388542436207e-12
5.08096507168587e-13
-1.77694693808051e-12
6.5637572672691e-13
-1.82682951028488e-12
8.20320111688098e-13
-1.89041619684028e-12
1.00296543531793e-12
-1.97021971505194e-12
1.20798591686163e-12
-2.06975968429627e-12
1.43990876950066e-12
-2.19348550972775e-12
1.70446355081592e-12
-2.34790882734947e-12
2.00912164538275e-12
-2.54266040899515e-12
2.36371035734971e-12
-2.79132489135748e-12
2.78141511292189e-12
-3.11463039427435e-12
3.28010366714176e-12
-3.54525791267061e-12
3.88390186483142e-12
-4.13523982598784e-12
4.62301773373804e-12
-4.93784383491875e-12
5.51777824926961e-12
-5.92498737963486e-12
6.48915855379706e-12
-6.58347172738844e-12
7.025390854749e-12
-7.09829602450409e-12
5.76162545890247e-12
3.8497636663144e-12
3.33994245002856e-11
-3.91525692019584e-12
3.63016919500053e-11
-6.39573045142244e-12
5.40093298972053e-12
-6.26164351264804e-12
-7.61028145929427e-12
-5.49022400515073e-12
-8.18576424480084e-12
-4.74080643289115e-12
-7.61699025816239e-12
-4.1120316998327e-12
-6.50420672779688e-12
-3.59837995827703e-12
-5.57298783282235e-12
-3.17308761714132e-12
-4.87593942429589e-12
-2.81610451781287e-12
-4.35195697814743e-12
-2.51266860085938e-12
-3.94507424705995e-12
-2.25184893245036e-12
-3.62022975470769e-12
-2.02530905534632e-12
-3.35504819980869e-12
-1.82664695180229e-12
-3.13470667600639e-12
-1.65078448884207e-12
-2.94892085121371e-12
-1.49365402480223e-12
-2.79044102356141e-12
-1.35195334589658e-12
-2.65415210503421e-12
-1.22295370803165e-12
-2.53626921304697e-12
-1.10434438280322e-12
-2.43399803075209e-12
-9.94161340236957e-13
-2.34524683389032e-12
-8.90685095642331e-13
-2.26844702441598e-12
-7.92407575047462e-13
-2.2024088255722e-12
-6.97947834884988e-13
-2.14622980531261e-12
-6.06054789896308e-13
-2.0992435227273e-12
-5.15520382967467e-13
-2.06100682101847e-12
-4.25204138708275e-13
-2.03124887554106e-12
-3.33978664569435e-13
-2.00984756258642e-12
-2.40710013190579e-13
-1.99679081699753e-12
-1.44212868669807e-13
-1.99225153546172e-12
-4.32583585514798e-14
-1.99655398852611e-12
6.34884644244645e-14
-2.01019235977338e-12
1.77473317847859e-13
-2.0339234157302e-12
3.00271596749642e-13
-2.06867456079027e-12
4.33669442182252e-13
-2.11568157075815e-12
5.79698612073546e-13
-2.17666367228342e-12
7.40686171786722e-13
-2.25384095130334e-12
9.19378684974932e-13
-2.35013322988076e-12
1.11905509158309e-12
-2.46958285623435e-12
1.34368152376291e-12
-2.61727730582117e-12
1.59818255361011e-12
-2.80061333335075e-12
1.8887869144453e-12
-3.03038108954602e-12
2.22344633580292e-12
-3.32169118629889e-12
2.61241589398136e-12
-3.69731672803509e-12
3.06894112912208e-12
-4.1927579808383e-12
3.60985729550743e-12
-4.86382830420844e-12
4.2577532169012e-12
-5.77075769701453e-12
5.02577522025104e-12
-6.87899142637679e-12
5.87953214176268e-12
-7.63236110463282e-12
6.22146939700635e-12
-7.65516792925293e-12
3.82433489407402e-12
6.00789926401914e-12
3.70682143850962e-11
-2.77150621893678e-12
3.87755149731897e-11
-5.37679383937613e-12
7.6181169064538e-12
-5.46953493978282e-12
-7.84756991144964e-12
-4.96067731024314e-12
-8.99235925152086e-12
-4.3903841858172e-12
-8.47145933668696e-12
-3.8729961954682e-12
-7.30128130737713e-12
-3.43046815367532e-12
-6.29356004480418e-12
-3.05253646392718e-12
-5.53036262923055e-12
-2.7285119155525e-12
-4.95014670261558e-12
-2.4488949237755e-12
-4.4956638129673e-12
-2.20585068791829e-12
-4.13037615567412e-12
-1.99296456519747e-12
-3.83070539966394e-12
-1.80505452198536e-12
-3.58080761710594e-12
-1.63784697437775e-12
-3.36962860618377e-12
-1.48782198515579e-12
-3.18928877336917e-12
-1.35204792070231e-12
-3.03414332955317e-12
-1.22805643981916e-12
-2.90001119014409e-12
-1.11372635666567e-12
-2.78376650702661e-12
-1.00723119366142e-12
-2.68306212059011e-12
-9.06958918102602e-13
-2.5961103930128e-12
-8.11483154971775e-13
-2.52156060476517e-12
-7.1949072137648e-13
-2.45838282922478e-12
-6.29787174141205e-13
-2.40580723157467e-12
-5.4122011198001e-13
-2.36332819822956e-12
-4.52699735010694e-13
-2.33062177065864e-12
-3.63143459796387e-13
-2.30753519384863e-12
-2.71462598547117e-13
-2.29406750991516e-12
-1.7652515438855e-13
-2.29041244521372e-12
-7.7155656074791e-14
-2.29694213458773e-12
2.79144501834485e-14
-2.31422467979199e-12
1.40057354829588e-13
-2.34312842361749e-12
2.60760742687693e-13
-2.38468386718289e-12
3.9168947015231e-13
-2.44031555901327e-12
5.34732643821267e-13
-2.51196078193892e-12
6.92014813435235e-13
-2.60208616236302e-12
8.6600685601031e-13
-2.71394618984366e-12
1.05959672462932e-12
-2.85199235640382e-12
1.27619545050298e-12
-3.02178828867465e-12
1.51990121912035e-12
-3.23134841157301e-12
1.79568135709687e-12
-3.49219240497211e-12
2.10955481186796e-12
-3.82029108629608e-12
2.46868848625872e-12
-4.23930883450227e-12
2.88125042402986e-12
-4.7855667050332e-12
3.35546006671017e-12
-5.51509293510632e-12
3.89904409546471e-12
-6.48879718911194e-12
4.49813935966156e-12
-7.65354941880688e-12
5.08794162988575e-12
-8.40687729173731e-12
5.19265789367162e-12
-7.96452011907299e-12
2.66326644287448e-12
8.30771696432678e-12
3.95832228138414e-11
-2.08694833495124e-12
4.05725736871655e-11
-4.40732377497445e-12
9.5617339916401e-12
-4.67756214540598e-12
-7.89627219911596e-12
-4.41953746200471e-12
-9.53766438323803e-12
-4.02172383669839e-12
-9.14321355148258e-12
-3.61434210351817e-12
-7.97811674024272e-12
-3.24247424601954e-12
-6.9331519905623e-12
-2.91180248687364e-12
-6.12713399313278e-12
-2.62057390174705e-12
-5.50513251763377e-12
-2.36449611981763e-12
-5.01234820050405e-12
-2.13885558100565e-12
-4.61284099093109e-12
-1.9391995539074e-12
-4.28297304541016e-12
-1.76159980428206e-12
-4.00657614024075e-12
-1.60262068871957e-12
-3.77223286858775e-12
-1.45931267616856e-12
-3.57169524729346e-12
-1.32913142412739e-12
-3.39896810960068e-12
-1.20988157837746e-12
-3.24958578773081e-12
-1.09964555599927e-12
-3.12015916616732e-12
-9.96736126648791e-13
-3.00814843739503e-12
-8.99652209223563e-13
-2.91157507148322e-12
-8.07052395756311e-13
-2.82895268486729e-12
-7.17699275519284e-13
-2.75913314056237e-12
-6.30445003719196e-13
-2.7012720064879e-12
-5.44194696120977e-13
-2.65479083029245e-12
-4.57904503513423e-13
-2.61932366872743e-12
-3.70536709249442e-13
-2.59468915624449e-12
-2.81050418869923e-13
-2.5808942778544e-12
-1.88358199047793e-13
-2.57815770140438e-12
-9.13392506296935e-14
-2.58688879010036e-12
1.12153106859846e-14
-2.60772647803728e-12
1.2059837006908e-13
-2.64162933452191e-12
2.38210027478328e-13
-2.68972463801199e-12
3.65600289240789e-13
-2.75359778392247e-12
5.04506192124192e-13
-2.83536808164352e-12
6.56846702907069e-13
-2.93769472254304e-12
8.24810613689449e-13
-3.06409215083443e-12
1.01088396585112e-12
-3.2193014544018e-12
1.2179083564523e-12
-3.40919773482633e-12
1.4491432791343e-12
-3.64214589857256e-12
1.70829082569455e-12
-3.92997422320043e-12
1.99944732529751e-12
-4.28885939530541e-12
2.32677240100938e-12
-4.74227589037218e-12
2.69359516020273e-12
-5.32552503994576e-12
3.10016204679608e-12
-6.09168953501833e-12
3.53984143310538e-12
-7.09593108460428e-12
3.97488042252298e-12
-8.25698789117004e-12
4.30891959797436e-12
-8.91848409912746e-12
4.21163839190286e-12
-8.06465925437828e-12
1.96872372341219e-12
1.03283597179854e-11
4.14078115464689e-11
-1.64140478153962e-12
4.19350166157201e-11
-3.59535392877869e-12
1.11547324249933e-11
-3.9798947357077e-12
-7.81543585322223e-12
-3.90725720855905e-12
-9.88372329570745e-12
-3.65332370581217e-12
-9.65789698902535e-12
-3.34528815026344e-12
-8.54251402915294e-12
-3.04037733877456e-12
-7.49261613293252e-12
-2.75597260830121e-12
-6.66438517600825e-12
-2.49753569119824e-12
-6.01404321151881e-12
-2.26532179815012e-12
-5.49191211289567e-12
-2.0574937129286e-12
-5.0643094324428e-12
-1.87146773411872e-12
-4.70853135107763e-12
-1.70454381833096e-12
-4.40871378846571e-12
-1.55412357216955e-12
-4.15345870222657e-12
-1.4178306191524e-12
-3.93440787000428e-12
-1.29351770401284e-12
-3.7453881323117e-12
-1.17927838898028e-12
-3.58175455712948e-12
-1.07339573601576e-12
-3.43994154706827e-12
-9.74343110890593e-13
-3.31725533220874e-12
-8.80732498863958e-13
-3.21157381787277e-12
-7.91311576344587e-13
-3.12129784729836e-12
-7.04921285878031e-13
-3.045172228836e-12
-6.2046964915919e-13
-2.98229931686449e-12
-5.36921863353247e-13
-2.93202473413745e-12
-4.53282104055241e-13
-2.89395164161516e-12
-3.68560271203716e-13
-2.86787152343107e-12
-2.81763338610071e-13
-2.85379880708394e-12
-1.91857084734221e-13
-2.85197260955555e-12
-9.77742220681055e-14
-2.86283909272554e-12
1.62928237218728e-15
-2.88709690231252e-12
1.07559289976617e-13
-2.9257737464672e-12
2.21330532497812e-13
-2.98009539860682e-12
3.44372456841789e-13
-3.05177295816014e-12
4.7825731757096e-13
-3.14306405236256e-12
6.24696149185729e-13
-3.2567779132567e-12
7.85588125830647e-13
-3.39660813876667e-12
9.63013423325871e-13
-3.56747025001799e-12
1.15924698733135e-12
-3.77539242466955e-12
1.37671810087194e-12
-4.02882948679704e-12
1.61791345803194e-12
-4.33953705793613e-12
1.88512667382688e-12
-4.72331504157242e-12
2.1798000887859e-12
-5.20253676194511e-12
2.5011115266007e-12
-5.81004310229894e-12
2.84293080580956e-12
-6.59372104544226e-12
3.18805062334546e-12
-7.59873392070035e-12
3.48518344686235e-12
-8.71269017727846e-12
3.62852534507192e-12
-9.22926581194899e-12
3.38990614834995e-12
-8.01253540361362e-12
1.51995675739029e-12
1.19878509020605e-11
4.27926916352622e-11
-1.32758383434442e-12
4.29934811709898e-11
-2.94775946792269e-12
1.24275606892522e-11
-3.39255174659521e-12
-7.66297354586541e-12
-3.44179214694367e-12
-1.00976702239304e-11
-3.29914263507941e-12
-1.00514192508528e-11
-3.07584461759688e-12
-9.01233884510249e-12
-2.83180919377399e-12
-7.98129477259183e-12
-2.5913683145361e-12
-7.14768979835841e-12
-2.36509763241189e-12
-6.48078182589661e-12
-2.15685113190011e-12
-5.93753258316754e-12
-1.96724741515813e-12
-5.48764940940782e-12
-1.79537344256922e-12
-5.11013366727839e-12
-1.63967151731921e-12
-4.78994264933761e-12
-1.49834014215973e-12
-4.51603498112817e-12
-1.36956172348674e-12
-4.28017445803788e-12
-1.2515826058491e-12
-4.07617224652522e-12
-1.14278658803011e-12
-3.89930486159569e-12
-1.0416605376647e-12
-3.74591584649086e-12
-9.46844922304355e-13
-3.61319313336287e-12
-8.57065073209117e-13
-3.49892429537528e-12
-7.71171626843889e-13
-3.40140768997778e-12
-6.88079762535775e-13
-3.31930903017838e-12
-6.06772036019904e-13
-3.25167795052712e-12
-5.26266613860683e-13
-3.19780526489449e-12
-4.45626780560208e-13
-3.15725736106422e-12
-3.6390768381294e-13
-3.12981291975768e-12
-2.80172701686378e-13
-3.11548254068488e-12
-1.93444958413743e-13
-3.11452535417278e-12
-1.0271865671218e-13
-3.12742035574769e-12
-6.91650108499493e-15
-3.15492157813181e-12
9.50833760780542e-14
-3.19810793468931e-12
2.04493542503592e-13
-3.25828637101963e-12
3.22619919763063e-13
-3.33727232608879e-12
4.50869355109114e-13
-3.43742071725086e-12
5.90740970882747e-13
-3.5616437116771e-12
7.43843698187831e-13
-3.71373745698656e-12
9.11857979515262e-13
-3.89868271906124e-12
1.0965144235256e-12
-4.1225188095537e-12
1.2994540507808e-12
-4.39354832160142e-12
1.52205127379012e-12
-4.72313562038503e-12
1.76499876536828e-12
-5.12621943694468e-12
2.02744579276609e-12
-5.62338413088506e-12
2.30531068054774e-12
-6.24403952897318e-12
2.58794794700861e-12
-7.02959977686255e-12
2.85181587438158e-12
-8.01335653008496e-12
3.04142547101392e-12
-9.05381696510056e-12
3.05855420615846e-12
-9.40643428646275e-12
2.73638855525706e-12
-7.86885822579212e-12
1.20699992754355e-12
1.33159736869801e-11
4.38698475510693e-11
-1.09430777929866e-12
4.38319370218178e-11
-2.43827879067056e-12
1.34428564674309e-11
-2.90346369782755e-12
-7.47324815629018e-12
-3.02729396131844e-12
-1.02219440338329e-11
-2.96671642502596e-12
-1.03485939981696e-11
-2.81288024456365e-12
-9.39856888197769e-12
-2.62236462095484e-12
-8.40226017664021e-12
-2.42249856329304e-12
-7.57615462859965e-12
-2.22700941685381e-12
-6.90245029275415e-12
-2.04234790287568e-12
-6.34531057740726e-12
-1.87107816518846e-12
-5.87847294746336e-12
-1.71370195424624e-12
-5.48316084086813e-12
-1.56967494111856e-12
-5.14554300939158e-12
-1.43792002712983e-12
-4.85521505591635e-12
-1.31713683378569e-12
-4.60426537497372e-12
-1.20595439384743e-12
-4.38661906075247e-12
-1.10303644329254e-12
-4.19757536325332e-12
-1.00707515502664e-12
-4.03345986378043e-12
-9.16874490538793e-13
-3.89138259441723e-12
-8.3128357252822e-13
-3.76908057125856e-12
-7.4925333683882e-13
-3.66477207877622e-12
-6.69780268907284e-13
-3.57706308706356e-12
-5.91924979157932e-13
-3.5049530259484e-12
-5.14761894684185e-13
-3.44770030369138e-12
-4.37418097522197e-13
-3.40482686457973e-12
-3.5900299037058e-13
-3.37610819132088e-12
-2.7863973266758e-13
-3.36154603522462e-12
-1.95408527177949e-13
-3.36142250161815e-12
-1.08368783716313e-13
-3.37624172051774e-12
-1.65181063296431e-14
-3.40680369031922e-12
8.11780172033004e-14
-3.45422603543229e-12
1.85826738094043e-13
-3.5198797450377e-12
2.98610836003409e-13
-3.60566641798199e-12
4.20767809915403e-13
-3.71399297736012e-12
5.53588788956539e-13
-3.84783617157388e-12
6.98397919104783e-13
-4.01101850008956e-12
8.56492133559959e-13
-4.20848823067745e-12
1.02910204593718e-12
-4.44618182293758e-12
1.21715613845077e-12
-4.73203968373205e-12
1.42104151029966e-12
-5.07676532680906e-12
1.64011105208695e-12
-5.4940890509598e-12
1.87171321772852e-12
-6.00235119055968e-12
2.10941738096719e-12
-6.62698033989829e-12
2.3398081565208e-12
-7.40247714848991e-12
2.5365703959444e-12
-8.35019523857434e-12
2.64615878467447e-12
-9.30416362507089e-12
2.5853392662871e-12
-9.4944036966752e-12
2.22437937734828e-12
-7.6738920372892e-12
9.75703444427343e-13
1.43774225754779e-11
4.47262980504992e-11
-9.14441585935738e-13
4.45023196557861e-11
-2.03601554945829e-12
1.42516617586607e-11
-2.49509469106696e-12
-7.27678594527071e-12
-2.66130707471716e-12
-1.02923649713619e-11
-2.65905092021046e-12
-1.05763998028176e-11
-2.5604796097018e-12
-9.71855627703052e-12
-2.41575598806224e-12
-8.76639897353466e-12
-2.25240832044452e-12
-7.95701076450547e-12
-2.08570474683649e-12
-7.28423513547289e-12
-1.92376748125741e-12
-6.71930940331862e-12
-1.77059761800085e-12
-6.240225370122e-12
-1.62782432101819e-12
-5.83072458214431e-12
-1.49574832192947e-12
-5.47845847710128e-12
-1.37392632507019e-12
-5.17386268074957e-12
-1.26153238579468e-12
-4.90950396148942e-12
-1.1575449325647e-12
-4.67954410078619e-12
-1.06088728606195e-12
-4.47939199807738e-12
-9.70461275275576e-13
-4.30540438425068e-12
-8.85220564603503e-13
-4.15467261033805e-12
-8.04148049437406e-13
-4.02489881600129e-12
-7.26290970724712e-13
-3.91425800348481e-12
-6.50732711525153e-13
-3.82130641812465e-12
-5.76607779444254e-13
-3.74500555366218e-12
-5.03062798541514e-13
-3.6845837913765e-12
-4.29281793283661e-13
-3.63953362773839e-12
-3.5444020231277e-13
-3.6096189424743e-12
-2.77713497215649e-13
-3.59484594977995e-12
-1.98254780802484e-13
-3.59550046405228e-12
-1.15187055825146e-13
-3.61212030525078e-12
-2.75875752343729e-14
-3.64553670874786e-12
6.54865917751655e-14
-3.6968937735918e-12
1.65039199752611e-13
-3.7676147593459e-12
2.72127205788443e-13
-3.85966529527852e-12
3.87824005328659e-13
-3.97546645052826e-12
5.13221139914687e-13
-4.11802351262959e-12
6.49372543814954e-13
-4.29111643828074e-12
7.97219196775143e-13
-4.49957521425629e-12
9.57541603246283e-13
-4.74914167136517e-12
1.13065661421383e-12
-5.04723496345481e-12
1.31611646050106e-12
-5.4036797499468e-12
1.51221032966944e-12
-5.83077549054271e-12
1.71496654502627e-12
-6.34436900653078e-12
1.91646046773352e-12
-6.96573454001431e-12
2.10194536555592e-12
-7.722604461814e-12
2.24488971520822e-12
-8.62544924262234e-12
2.29704684942797e-12
-9.48917734237353e-12
2.19118441172221e-12
-9.52895951397072e-12
1.8224755647399e-12
-7.46197727316444e-12
7.98196014858122e-13
1.52252586054278e-11
4.5411331585994e-11
-7.71597322537038e-13
4.50451597293675e-11
-1.71463280811363e-12
1.4903098034018e-11
-2.15133327088304e-12
-7.08389859643074e-12
-2.33872784662487e-12
-1.03248004468817e-11
-2.37646164836397e-12
-1.07483005689284e-11
-2.32075829064364e-12
-9.97993597248793e-12
-2.21433879188778e-12
-9.07645710745896e-12
-2.08318213286835e-12
-8.28985015901346e-12
-1.94288049072212e-12
-7.62378983760071e-12
-1.80245202202969e-12
-7.05602206283665e-12
-1.66685317939299e-12
-6.56872262951171e-12
-1.53855011045742e-12
-6.14825559955366e-12
-1.41852678511938e-12
-5.78389801123301e-12
-1.3068650770171e-12
-5.46707556253463e-12
-1.2031492011378e-12
-5.19094246443104e-12
-1.10667333509945e-12
-4.94998809969532e-12
-1.01660082276199e-12
-4.73980471859548e-12
-9.32029409075513e-13
-4.55682286891897e-12
-8.52058660010408e-13
-4.39816424867502e-12
-7.75797624099717e-13
-4.26151567903922e-12
-7.0239427506328e-13
-4.14503313030154e-12
-6.31019799524345e-13
-4.04723666903113e-12
-5.60885857893457e-13
-3.9670598726762e-12
-4.91209197885237e-13
-3.90370877815583e-12
-4.21237231355529e-13
-3.85665265219683e-12
-3.50213036647746e-13
-3.82564067783528e-12
-2.77373017714606e-13
-3.81068977668114e-12
-2.01939737247489e-13
-3.81208173287467e-12
-1.23105627586849e-13
-3.83038804253897e-12
-4.00250124453161e-14
-3.86646406291369e-12
4.81469067121233e-14
-3.9214593448341e-12
1.4231299285359e-13
-3.99684768809594e-12
2.43404515831678e-13
-4.09463278587355e-12
3.52340869882177e-13
-4.21722267559427e-12
4.70020197898532e-13
-4.36761190093455e-12
5.97248600735324e-13
-4.54948349394526e-12
7.34653201006845e-13
-4.76748422672641e-12
8.82625167195829e-13
-5.02708812987889e-12
1.04096969559905e-12
-5.33507354714025e-12
1.20857026854513e-12
-5.70023499165989e-12
1.38293677888454e-12
-6.13333687791916e-12
1.55921402465025e-12
-6.64763778191356e-12
1.7286927160522e-12
-7.26035813294324e-12
1.87639617709192e-12
-7.99300148021664e-12
1.97723014407007e-12
-8.84675361159045e-12
1.98960448699745e-12
-9.6224964896315e-12
1.86040909193855e-12
-9.52768963273157e-12
1.50421173721484e-12
-7.24861393802862e-12
6.58483056871878e-13
1.59102572989997e-11
4.59683485946133e-11
-6.55410686488722e-13
4.54851387210306e-11
-1.45382021198795e-12
1.54275805179222e-11
-1.85917713569043e-12
-6.9081668466596e-12
-2.05384335903407e-12
-1.0337251647295e-11
-2.11775013059564e-12
-1.08817656901931e-11
-2.09450126501078e-12
-1.01966875030604e-11
-2.01950935677856e-12
-9.34287842166274e-12
-1.91624688264717e-12
-8.58255347005461e-12
-1.79977927146532e-12
-7.92728330103828e-12
-1.67940714204678e-12
-7.36051552473017e-12
-1.56063336719761e-12
-6.86833542959777e-12
-1.44649114967649e-12
-6.43969528804801e-12
-1.33847245535553e-12
-6.06554565849072e-12
-1.23707988914895e-12
-5.73838187473678e-12
-1.14224034764329e-12
-5.45201830576463e-12
-1.05352082729073e-12
-5.20133914476902e-12
-9.70301968224886e-13
-4.98217268527708e-12
-8.9185597411829e-13
-4.79106644593539e-12
-8.17426596301791e-13
-4.62520067852388e-12
-7.46238056499336e-13
-4.48227651030643e-12
-6.77543904906703e-13
-4.36044008190796e-12
-6.10598714438834e-13
-4.25819742208769e-12
-5.44692196482369e-13
-4.17445980422641e-12
-4.79114960639663e-13
-4.10841500180176e-12
-4.13183252319134e-13
-4.05951427598307e-12
-3.4620252741729e-13
-4.02749918214769e-12
-2.77479739965559e-13
-4.01238908445034e-12
-2.06300948443711e-13
-4.01446988451221e-12
-1.31939592098217e-13
-4.03432876836756e-12
-5.36261246191748e-14
-4.07285115013896e-12
2.93920593183676e-14
-4.13117510315628e-12
1.17914773599554e-13
-4.21081480170992e-12
2.12749617805931e-13
-4.31379145825768e-12
3.14673615828127e-13
-4.44248131682339e-12