/*--------------------------------*- C++ -*----------------------------------*\
  =========                 |
  \\      /  F ield         | OpenFOAM: The Open Source CFD Toolbox
   \\    /   O peration     | Website:  https://openfoam.org
    \\  /    A nd           | Version:  10
     \\/     M anipulation  |
\*---------------------------------------------------------------------------*/
FoamFile
{
    format      ascii;
    class       volScalarField;
    location    "1.6";
    object      rho;
}
// * * * * * * * * * * * * * * * * * * * * * * * * * * * * * * * * * * * * * //

dimensions      [1 -3 0 0 0 0 0];

internalField   nonuniform List<scalar> 
2500
(
1.14175936169435
1.14208045627819
1.14218212967429
1.1422025376836
1.14220628606021
1.14220699068611
1.14220712550088
1.14220715678308
1.14220716979427
1.14220717485326
1.14220718187458
1.14220718660042
1.14220718951158
1.14220719327298
1.14220719677174
1.1422072007204
1.14220720272149
1.14220720526223
1.14220720813409
1.1422072101769
1.14220721244297
1.14220721561096
1.14220721863175
1.14220721864641
1.14220721876677
1.14220722071422
1.14220722081654
1.14220722122237
1.14220722252724
1.14220722141134
1.14220722024494
1.14220722004677
1.14220721887817
1.14220721717859
1.14220721540373
1.14220721401546
1.14220721248294
1.14220721120838
1.14220720850896
1.14220720596439
1.14220720282293
1.14220719816635
1.1422071875991
1.14220715043699
1.14220697725437
1.1422061769458
1.14220225383838
1.14218172795882
1.14207851826983
1.14175929190375
1.15193741484802
1.15247823249722
1.15279271139656
1.15287223953197
1.15289049720797
1.15289451556958
1.15289534882652
1.15289551153233
1.15289554288838
1.15289554884227
1.15289555166174
1.15289555313952
1.15289555371658
1.15289555459112
1.15289555542353
1.15289555639152
1.15289555699973
1.15289555768117
1.15289555832949
1.15289555904398
1.15289556063707
1.15289556304908
1.15289556592253
1.15289556569165
1.15289556530826
1.15289556711318
1.15289556640856
1.15289556636863
1.15289556793255
1.15289556621522
1.15289556570201
1.15289556767133
1.15289556497838
1.1528955612274
1.15289556011184
1.15289555972297
1.15289555945119
1.1528955592286
1.15289555859381
1.15289555793641
1.15289555575269
1.15289554613216
1.15289550006776
1.15289527934844
1.15289426693869
1.15288986787353
1.15287129182871
1.15279246563645
1.1524726996428
1.15192060373952
1.1577583870179
1.158157064962
1.15840125015779
1.15846899270929
1.15848492031565
1.1584885003293
1.15848926074581
1.15848941189887
1.15848944004139
1.15848944455947
1.15848944610899
1.1584894466555
1.15848944620962
1.15848944610449
1.15848944593975
1.15848944580507
1.15848944577267
1.15848944594872
1.15848944609029
1.15848944615899
1.15848944677442
1.15848944773608
1.15848944872753
1.15848944912653
1.15848944906533
1.15848944916812
1.15848944941698
1.15848944920537
1.15848944890081
1.15848944848447
1.15848944867568
1.15848944965452
1.15848944836985
1.15848944613651
1.15848944559235
1.15848944590852
1.15848944628667
1.15848944645481
1.15848944664959
1.15848944701407
1.1584894458061
1.15848943753753
1.15848939849723
1.15848921087078
1.15848834985031
1.15848459963774
1.15846868847358
1.1584014064353
1.15815213981263
1.15772904350003
1.16030365824248
1.1605046287287
1.16060603158307
1.16063623175094
1.16064323661406
1.16064478679956
1.16064511655034
1.16064518322834
1.16064519582955
1.16064519747774
1.16064519791515
1.16064519814302
1.16064519784438
1.16064519762622
1.16064519741332
1.16064519722276
1.16064519720711
1.16064519729095
1.16064519722
1.16064519721393
1.16064519740211
1.16064519764993
1.16064519801628
1.16064519817014
1.1606451980774
1.16064519806943
1.16064519823746
1.16064519811947
1.16064519783708
1.1606451977525
1.16064519783473
1.16064519819198
1.16064519774181
1.1606451969111
1.16064519671144
1.16064519690046
1.1606451971263
1.16064519719788
1.16064519730921
1.1606451975498
1.16064519754547
1.16064519466904
1.16064517951188
1.16064510641245
1.16064476342298
1.16064321754536
1.16063633571108
1.16060616318183
1.16050193505789
1.16028163950675
1.16123208180598
1.16131260822511
1.16134547827462
1.16135612180383
1.16135861600395
1.16135916538059
1.1613592825912
1.16135930666398
1.16135931126031
1.16135931179214
1.16135931191903
1.16135931198575
1.16135931184892
1.16135931172932
1.16135931162101
1.16135931153169
1.16135931152777
1.161359311566
1.16135931150993
1.16135931150624
1.16135931156271
1.1613593116138
1.16135931174845
1.16135931176305
1.16135931171276
1.16135931172609
1.16135931179068
1.16135931175711
1.16135931164629
1.16135931162671
1.16135931165525
1.16135931176473
1.16135931163762
1.16135931139995
1.1613593113818
1.16135931143896
1.1613593114873
1.16135931156473
1.16135931164652
1.16135931171083
1.16135931182722
1.16135931101959
1.16135930609606
1.16135928222726
1.1613591688882
1.16135864604137
1.16135624737133
1.16134562396709
1.16131157531855
1.16122076262441
1.16152920706459
1.16155679317225
1.16156600906064
1.16156925240527
1.16157003125849
1.16157020339411
1.1615702402197
1.16157024786334
1.161570249335
1.16157024949322
1.16157024952359
1.1615702495375
1.16157024948486
1.16157024943854
1.16157024940029
1.16157024937414
1.16157024937535
1.16157024939186
1.16157024937331
1.16157024937688
1.16157024939819
1.16157024941132
1.16157024945116
1.16157024944871
1.16157024943817
1.161570249449
1.16157024947243
1.16157024947111
1.16157024944174
1.16157024943071
1.16157024944703
1.16157024948409
1.16157024945363
1.16157024940463
1.16157024941395
1.16157024943449
1.16157024945322
1.16157024949231
1.16157024954543
1.16157024958188
1.16157024961745
1.16157024941526
1.16157024798608
1.16157024093148
1.16157020731543
1.16157005013341
1.16156931787166
1.16156609174674
1.16155648399843
1.16152457448574
1.16161531083856
1.16162373464275
1.16162609510112
1.16162698822322
1.16162720954768
1.16162725890957
1.16162726949242
1.16162727170042
1.16162727212834
1.16162727217334
1.16162727217805
1.16162727217783
1.16162727216126
1.16162727214806
1.16162727213882
1.16162727213471
1.16162727213799
1.16162727214706
1.16162727214527
1.16162727215087
1.16162727216313
1.16162727217098
1.16162727218419
1.1616272721865
1.16162727218966
1.16162727219831
1.16162727220761
1.16162727221684
1.16162727221691
1.16162727221533
1.16162727222592
1.1616272722405
1.16162727223965
1.16162727223607
1.16162727224644
1.16162727225789
1.16162727226917
1.16162727228811
1.16162727231314
1.16162727233082
1.16162727234498
1.16162727230705
1.16162727192508
1.16162726998923
1.16162726075273
1.16162721726794
1.16162701362003
1.16162612820565
1.16162366010062
1.16161368939286
1.16163837668394
1.16164073100871
1.16164130167658
1.16164152983958
1.16164158831797
1.16164160152975
1.1616416043667
1.1616416049581
1.16164160507204
1.16164160508278
1.16164160508312
1.16164160508362
1.16164160508065
1.16164160507915
1.16164160507947
1.16164160508186
1.16164160508632
1.1616416050931
1.16164160509731
1.16164160510331
1.16164160511138
1.16164160511873
1.16164160512737
1.16164160513335
1.16164160514011
1.16164160514853
1.16164160515654
1.1616416051655
1.16164160517152
1.16164160517665
1.16164160518489
1.16164160519389
1.16164160520055
1.16164160520706
1.16164160521625
1.16164160522528
1.16164160523438
1.16164160524593
1.1616416052593
1.16164160527041
1.16164160527936
1.16164160527834
1.16164160518805
1.16164160469279
1.1616416023079
1.16164159103364
1.1616415382769
1.16164131266926
1.16164071722576
1.1616378711521
1.16164416279939
1.16164477593298
1.16164490875513
1.16164496376729
1.16164497833748
1.16164498167885
1.16164498239627
1.1616449825442
1.16164498257181
1.16164498257403
1.1616449825744
1.16164498257558
1.16164498257661
1.1616449825787
1.16164498258185
1.16164498258604
1.1616449825911
1.16164498259723
1.1616449826031
1.16164498260945
1.16164498261654
1.16164498262386
1.16164498263162
1.1616449826389
1.16164498264659
1.16164498265481
1.16164498266269
1.16164498267075
1.16164498267836
1.16164498268586
1.16164498269392
1.16164498270213
1.1616449827101
1.16164498271805
1.16164498272645
1.16164498273484
1.16164498274311
1.16164498275196
1.16164498276129
1.16164498277029
1.16164498277914
1.16164498278619
1.16164498277109
1.16164498265603
1.16164498207621
1.16164497931044
1.16164496640564
1.16164491213588
1.16164477463006
1.16164401879527
1.16164552507097
1.16164567577945
1.16164570587451
1.16164571854005
1.16164572199536
1.16164572279909
1.16164572297033
1.16164572300423
1.16164572300987
1.16164572301021
1.1616457230109
1.16164572301253
1.16164572301481
1.16164572301797
1.16164572302193
1.16164572302664
1.16164572303197
1.16164572303795
1.16164572304422
1.16164572305083
1.16164572305784
1.16164572306512
1.16164572307266
1.16164572308029
1.1616457230881
1.16164572309608
1.16164572310398
1.16164572311194
1.16164572311987
1.16164572312778
1.16164572313581
1.16164572314386
1.1616457231518
1.16164572315973
1.16164572316778
1.16164572317579
1.1616457231838
1.16164572319198
1.1616457232003
1.1616457232087
1.16164572321721
1.16164572322549
1.1616457232287
1.1616457232085
1.16164572307913
1.16164572243669
1.16164571943282
1.16164570697639
1.16164567623294
1.16164548702126
1.16164581624695
1.16164585154372
1.16164585821825
1.16164586102394
1.16164586180731
1.16164586199055
1.16164586202803
1.1616458620343
1.16164586203485
1.16164586203499
1.16164586203597
1.16164586203789
1.16164586204062
1.16164586204414
1.16164586204839
1.16164586205328
1.16164586205874
1.16164586206471
1.16164586207109
1.1616458620778
1.16164586208482
1.1616458620921
1.16164586209959
1.16164586210724
1.161645862115
1.16164586212287
1.16164586213075
1.16164586213866
1.16164586214657
1.16164586215449
1.16164586216239
1.16164586217027
1.16164586217811
1.16164586218592
1.16164586219374
1.16164586220154
1.16164586220935
1.16164586221721
1.16164586222515
1.1616458622332
1.16164586224136
1.16164586224959
1.16164586225682
1.16164586225891
1.16164586223648
1.16164586209854
1.16164586143293
1.16164585868774
1.16164585199067
1.16164580690735
1.16164585988104
1.16164586781449
1.16164586926586
1.1616458698655
1.16164587003417
1.16164587007235
1.1616458700787
1.16164587007883
1.16164587007847
1.1616458700788
1.16164587008006
1.16164587008221
1.16164587008518
1.16164587008889
1.16164587009328
1.16164587009828
1.16164587010382
1.16164587010983
1.16164587011623
1.16164587012297
1.16164587013001
1.16164587013727
1.16164587014473
1.16164587015234
1.16164587016005
1.16164587016784
1.16164587017566
1.16164587018349
1.16164587019132
1.16164587019914
1.16164587020692
1.16164587021467
1.16164587022236
1.16164587023002
1.16164587023766
1.16164587024526
1.16164587025286
1.16164587026049
1.16164587026815
1.16164587027588
1.16164587028371
1.16164587029164
1.16164587029946
1.16164587030626
1.16164587030782
1.16164587028434
1.16164587014711
1.16164586956621
1.16164586814126
1.16164585784212
1.1616458485182
1.16164585023852
1.16164585054744
1.16164585066992
1.16164585070277
1.16164585070866
1.16164585070835
1.16164585070744
1.16164585070717
1.16164585070779
1.16164585070931
1.16164585071168
1.16164585071483
1.1616458507187
1.16164585072321
1.1616458507283
1.1616458507339
1.16164585073994
1.16164585074637
1.16164585075313
1.16164585076015
1.1616458507674
1.16164585077482
1.16164585078238
1.16164585079003
1.16164585079774
1.16164585080548
1.16164585081323
1.16164585082096
1.16164585082866
1.16164585083632
1.16164585084393
1.16164585085148
1.16164585085897
1.16164585086643
1.16164585087383
1.16164585088122
1.1616458508886
1.16164585089599
1.16164585090343
1.16164585091092
1.16164585091848
1.16164585092608
1.16164585093353
1.16164585093991
1.16164585094101
1.16164585091826
1.16164585080258
1.16164585050732
1.16164584823958
1.16164582534398
1.16164582570493
1.16164582576875
1.16164582579129
1.16164582579553
1.16164582579485
1.16164582579349
1.1616458257927
1.16164582579275
1.16164582579368
1.16164582579546
1.16164582579805
1.16164582580138
1.16164582580539
1.16164582581002
1.16164582581519
1.16164582582085
1.16164582582694
1.16164582583339
1.16164582584014
1.16164582584716
1.16164582585438
1.16164582586176
1.16164582586926
1.16164582587685
1.16164582588448
1.16164582589214
1.16164582589979
1.16164582590741
1.16164582591499
1.16164582592252
1.16164582592998
1.16164582593737
1.1616458259447
1.16164582595196
1.16164582595916
1.16164582596632
1.16164582597345
1.16164582598057
1.16164582598769
1.16164582599484
1.16164582600202
1.16164582600923
1.16164582601642
1.16164582602337
1.16164582602916
1.16164582602991
1.16164582601077
1.1616458259524
1.16164582547003
1.16164579970706
1.16164579978012
1.16164579979256
1.16164579979507
1.16164579979387
1.16164579979226
1.16164579979108
1.16164579979066
1.16164579979107
1.16164579979232
1.16164579979437
1.16164579979717
1.16164579980068
1.16164579980484
1.16164579980957
1.16164579981483
1.16164579982055
1.16164579982668
1.16164579983314
1.1616457998399
1.1616457998469
1.16164579985409
1.16164579986143
1.16164579986888
1.16164579987639
1.16164579988395
1.16164579989151
1.16164579989905
1.16164579990656
1.16164579991402
1.1616457999214
1.16164579992871
1.16164579993594
1.16164579994308
1.16164579995015
1.16164579995714
1.16164579996406
1.16164579997093
1.16164579997777
1.16164579998457
1.16164579999137
1.16164579999816
1.16164580000494
1.16164580001168
1.1616458000183
1.16164580002455
1.16164580002955
1.16164580002949
1.1616458000196
1.16164579992114
1.16164577357009
1.16164577358403
1.16164577358613
1.16164577358505
1.16164577358324
1.16164577358188
1.16164577358113
1.16164577358113
1.16164577358191
1.16164577358346
1.16164577358578
1.1616457735888
1.16164577359249
1.16164577359679
1.16164577360164
1.16164577360699
1.16164577361277
1.16164577361893
1.16164577362541
1.16164577363217
1.16164577363915
1.16164577364631
1.1616457736536
1.16164577366098
1.16164577366843
1.16164577367589
1.16164577368336
1.16164577369079
1.16164577369818
1.1616457737055
1.16164577371274
1.16164577371989
1.16164577372695
1.16164577373391
1.16164577374077
1.16164577374753
1.16164577375421
1.16164577376082
1.16164577376736
1.16164577377384
1.16164577378028
1.16164577378668
1.16164577379302
1.16164577379928
1.1616457738054
1.16164577381127
1.16164577381659
1.16164577381985
1.16164577381946
1.16164577380106
1.16164574733419
1.16164574733642
1.1616457473367
1.16164574733532
1.16164574733384
1.16164574733294
1.16164574733265
1.16164574733306
1.1616457473342
1.16164574733607
1.16164574733865
1.16164574734189
1.16164574734576
1.16164574735021
1.16164574735517
1.1616457473606
1.16164574736644
1.16164574737264
1.16164574737914
1.16164574738589
1.16164574739286
1.16164574739998
1.16164574740722
1.16164574741454
1.1616457474219
1.16164574742928
1.16164574743664
1.16164574744397
1.16164574745123
1.16164574745841
1.1616457474655
1.16164574747248
1.16164574747936
1.16164574748612
1.16164574749277
1.16164574749931
1.16164574750574
1.16164574751207
1.16164574751831
1.16164574752446
1.16164574753054
1.16164574753654
1.16164574754244
1.16164574754822
1.16164574755383
1.16164574755917
1.16164574756407
1.16164574756757
1.16164574756878
1.16164574756651
1.1616457210794
1.16164572107948
1.16164572107965
1.16164572107858
1.16164572107758
1.16164572107716
1.16164572107732
1.16164572107814
1.16164572107963
1.16164572108181
1.16164572108464
1.16164572108811
1.16164572109216
1.16164572109675
1.16164572110183
1.16164572110734
1.16164572111324
1.16164572111948
1.16164572112599
1.16164572113274
1.16164572113968
1.16164572114676
1.16164572115395
1.1616457211612
1.16164572116849
1.16164572117577
1.16164572118303
1.16164572119023
1.16164572119736
1.1616457212044
1.16164572121133
1.16164572121815
1.16164572122484
1.1616457212314
1.16164572123783
1.16164572124413
1.1616457212503
1.16164572125635
1.16164572126229
1.16164572126811
1.16164572127382
1.16164572127942
1.16164572128489
1.1616457212902
1.1616457212953
1.16164572130012
1.1616457213045
1.16164572130765
1.16164572130892
1.16164572130971
1.16164569482129
1.16164569482111
1.16164569482148
1.16164569482081
1.16164569482029
1.16164569482033
1.16164569482092
1.16164569482213
1.16164569482397
1.16164569482645
1.16164569482954
1.16164569483323
1.16164569483746
1.16164569484219
1.16164569484739
1.16164569485299
1.16164569485895
1.16164569486521
1.16164569487174
1.16164569487849
1.1616456948854
1.16164569489245
1.16164569489958
1.16164569490676
1.16164569491396
1.16164569492115
1.16164569492829
1.16164569493537
1.16164569494237
1.16164569494926
1.16164569495603
1.16164569496267
1.16164569496917
1.16164569497552
1.16164569498173
1.16164569498779
1.1616456949937
1.16164569499946
1.16164569500509
1.16164569501057
1.16164569501592
1.16164569502112
1.16164569502616
1.16164569503101
1.16164569503563
1.16164569503993
1.1616456950438
1.16164569504654
1.16164569504758
1.16164569504882
1.16164566856284
1.16164566856273
1.16164566856336
1.16164566856308
1.16164566856301
1.16164566856348
1.16164566856449
1.16164566856607
1.16164566856825
1.16164566857103
1.16164566857438
1.16164566857828
1.16164566858269
1.16164566858757
1.16164566859288
1.16164566859856
1.16164566860458
1.16164566861089
1.16164566861743
1.16164566862417
1.16164566863106
1.16164566863806
1.16164566864513
1.16164566865224
1.16164566865935
1.16164566866644
1.16164566867347
1.16164566868042
1.16164566868728
1.16164566869402
1.16164566870062
1.16164566870708
1.16164566871339
1.16164566871953
1.16164566872551
1.16164566873132
1.16164566873696
1.16164566874243
1.16164566874774
1.16164566875289
1.16164566875787
1.16164566876268
1.16164566876729
1.16164566877169
1.16164566877584
1.16164566877966
1.16164566878304
1.16164566878538
1.16164566878616
1.16164566878735
1.16164564230453
1.16164564230455
1.16164564230543
1.16164564230552
1.16164564230587
1.16164564230677
1.16164564230817
1.16164564231012
1.16164564231263
1.1616456423157
1.1616456423193
1.16164564232341
1.161645642328
1.16164564233303
1.16164564233845
1.16164564234422
1.1616456423503
1.16164564235664
1.16164564236319
1.16164564236992
1.16164564237679
1.16164564238374
1.16164564239075
1.16164564239779
1.16164564240481
1.1616456424118
1.16164564241871
1.16164564242554
1.16164564243225
1.16164564243883
1.16164564244527
1.16164564245154
1.16164564245765
1.16164564246358
1.16164564246932
1.16164564247488
1.16164564248025
1.16164564248543
1.16164564249043
1.16164564249523
1.16164564249984
1.16164564250425
1.16164564250845
1.16164564251241
1.16164564251609
1.16164564251945
1.16164564252238
1.16164564252434
1.16164564252485
1.16164564252592
1.16164561604643
1.16164561604659
1.1616456160477
1.16164561604814
1.1616456160489
1.16164561605019
1.16164561605197
1.16164561605428
1.16164561605711
1.16164561606047
1.16164561606432
1.16164561606865
1.16164561607342
1.16164561607859
1.16164561608412
1.16164561608998
1.16164561609612
1.16164561610249
1.16164561610906
1.16164561611578
1.16164561612261
1.16164561612952
1.16164561613647
1.16164561614343
1.16164561615036
1.16164561615724
1.16164561616404
1.16164561617073
1.1616456161773
1.16164561618372
1.16164561618999
1.16164561619608
1.16164561620198
1.16164561620769
1.1616456162132
1.1616456162185
1.1616456162236
1.16164561622848
1.16164561623316
1.16164561623761
1.16164561624186
1.16164561624587
1.16164561624966
1.16164561625318
1.16164561625642
1.16164561625933
1.16164561626183
1.16164561626342
1.16164561626369
1.16164561626461
1.1616455897885
1.16164558978878
1.16164558979013
1.1616455897909
1.16164558979204
1.16164558979371
1.16164558979587
1.16164558979852
1.16164558980168
1.16164558980532
1.16164558980942
1.16164558981396
1.16164558981891
1.16164558982422
1.16164558982987
1.16164558983581
1.161645589842
1.16164558984841
1.16164558985499
1.1616455898617
1.1616455898685
1.16164558987537
1.16164558988226
1.16164558988914
1.16164558989597
1.16164558990275
1.16164558990942
1.16164558991598
1.16164558992241
1.16164558992867
1.16164558993476
1.16164558994066
1.16164558994636
1.16164558995184
1.16164558995711
1.16164558996216
1.16164558996698
1.16164558997156
1.16164558997592
1.16164558998003
1.1616455899839
1.16164558998753
1.1616455899909
1.16164558999399
1.16164558999679
1.16164558999928
1.16164559000135
1.16164559000259
1.16164559000264
1.16164559000342
1.16164556353069
1.1616455635311
1.16164556353267
1.16164556353376
1.16164556353528
1.16164556353732
1.16164556353983
1.16164556354283
1.1616455635463
1.16164556355022
1.16164556355457
1.16164556355933
1.16164556356445
1.16164556356991
1.16164556357567
1.16164556358169
1.16164556358795
1.16164556359438
1.16164556360097
1.16164556360767
1.16164556361445
1.16164556362126
1.16164556362809
1.16164556363489
1.16164556364164
1.1616455636483
1.16164556365486
1.16164556366128
1.16164556366755
1.16164556367365
1.16164556367957
1.16164556368527
1.16164556369077
1.16164556369603
1.16164556370106
1.16164556370585
1.16164556371039
1.16164556371467
1.1616455637187
1.16164556372247
1.16164556372597
1.1616455637292
1.16164556373216
1.16164556373484
1.16164556373721
1.16164556373927
1.16164556374094
1.16164556374184
1.16164556374166
1.16164556374231
1.16164553727296
1.16164553727349
1.16164553727526
1.16164553727668
1.16164553727856
1.16164553728096
1.16164553728384
1.16164553728717
1.16164553729095
1.16164553729515
1.16164553729975
1.16164553730471
1.16164553731001
1.16164553731562
1.16164553732149
1.1616455373276
1.16164553733391
1.16164553734038
1.16164553734697
1.16164553735366
1.16164553736041
1.16164553736718
1.16164553737394
1.16164553738066
1.16164553738731
1.16164553739387
1.1616455374003
1.16164553740659
1.16164553741271
1.16164553741865
1.16164553742438
1.1616455374299
1.16164553743519
1.16164553744023
1.16164553744502
1.16164553744954
1.1616455374538
1.16164553745778
1.16164553746149
1.16164553746491
1.16164553746804
1.16164553747088
1.16164553747343
1.16164553747569
1.16164553747763
1.16164553747928
1.16164553748054
1.16164553748112
1.16164553748072
1.16164553748124
1.16164551101526
1.16164551101591
1.16164551101789
1.16164551101962
1.16164551102185
1.16164551102462
1.16164551102785
1.16164551103152
1.16164551103561
1.16164551104009
1.16164551104493
1.16164551105011
1.16164551105558
1.16164551106133
1.16164551106732
1.16164551107351
1.16164551107987
1.16164551108638
1.16164551109298
1.16164551109966
1.16164551110638
1.1616455111131
1.16164551111979
1.16164551112643
1.16164551113299
1.16164551113944
1.16164551114575
1.1616455111519
1.16164551115787
1.16164551116365
1.1616455111692
1.16164551117453
1.1616455111796
1.16164551118442
1.16164551118897
1.16164551119323
1.16164551119721
1.16164551120089
1.16164551120427
1.16164551120734
1.1616455112101
1.16164551121256
1.1616455112147
1.16164551121653
1.16164551121806
1.16164551121928
1.16164551122016
1.16164551122041
1.16164551121979
1.16164551122018
1.16164548475752
1.16164548475829
1.16164548476048
1.16164548476252
1.16164548476512
1.16164548476825
1.16164548477183
1.16164548477584
1.16164548478024
1.161645484785
1.16164548479009
1.16164548479547
1.16164548480112
1.16164548480701
1.16164548481311
1.16164548481939
1.16164548482581
1.16164548483234
1.16164548483896
1.16164548484563
1.16164548485231
1.16164548485899
1.16164548486562
1.16164548487218
1.16164548487864
1.16164548488498
1.16164548489116
1.16164548489718
1.161645484903
1.16164548490861
1.16164548491399
1.16164548491912
1.16164548492399
1.16164548492859
1.16164548493289
1.16164548493689
1.16164548494059
1.16164548494397
1.16164548494702
1.16164548494975
1.16164548495214
1.1616454849542
1.16164548495594
1.16164548495735
1.16164548495845
1.16164548495926
1.16164548495974
1.16164548495966
1.16164548495882
1.16164548495909
1.16164545849972
1.1616454585006
1.16164545850301
1.16164545850537
1.16164545850834
1.16164545851183
1.16164545851577
1.16164545852012
1.16164545852483
1.16164545852987
1.1616454585352
1.16164545854079
1.16164545854662
1.16164545855265
1.16164545855886
1.16164545856522
1.1616454585717
1.16164545857827
1.16164545858489
1.16164545859155
1.1616454585982
1.16164545860483
1.16164545861139
1.16164545861787
1.16164545862424
1.16164545863047
1.16164545863654
1.16164545864242
1.16164545864809
1.16164545865354
1.16164545865874
1.16164545866368
1.16164545866834
1.16164545867271
1.16164545867678
1.16164545868052
1.16164545868394
1.16164545868701
1.16164545868974
1.16164545869212
1.16164545869414
1.16164545869582
1.16164545869714
1.16164545869813
1.16164545869881
1.1616454586992
1.16164545869927
1.16164545869886
1.1616454586978
1.16164545869794
1.16164543224178
1.1616454322428
1.16164543224542
1.16164543224811
1.16164543225145
1.16164543225531
1.16164543225962
1.16164543226431
1.16164543226933
1.16164543227465
1.16164543228023
1.16164543228603
1.16164543229203
1.16164543229821
1.16164543230453
1.16164543231098
1.16164543231751
1.16164543232411
1.16164543233075
1.16164543233739
1.16164543234402
1.16164543235059
1.1616454323571
1.1616454323635
1.16164543236977
1.16164543237589
1.16164543238184
1.16164543238758
1.16164543239311
1.1616454323984
1.16164543240342
1.16164543240817
1.16164543241263
1.16164543241678
1.1616454324206
1.16164543242409
1.16164543242723
1.16164543243
1.16164543243241
1.16164543243444
1.16164543243609
1.16164543243737
1.16164543243828
1.16164543243885
1.16164543243909
1.16164543243906
1.16164543243872
1.16164543243797
1.16164543243668
1.16164543243668
1.16164540598368
1.16164540598483
1.16164540598768
1.1616454059907
1.16164540599443
1.16164540599868
1.16164540600336
1.1616454060084
1.16164540601374
1.16164540601934
1.16164540602517
1.16164540603118
1.16164540603736
1.16164540604368
1.16164540605011
1.16164540605664
1.16164540606323
1.16164540606986
1.16164540607651
1.16164540608314
1.16164540608974
1.16164540609627
1.16164540610271
1.16164540610903
1.16164540611521
1.16164540612123
1.16164540612705
1.16164540613267
1.16164540613805
1.16164540614317
1.16164540614803
1.16164540615259
1.16164540615684
1.16164540616077
1.16164540616436
1.16164540616759
1.16164540617045
1.16164540617293
1.16164540617501
1.1616454061767
1.16164540617798
1.16164540617887
1.16164540617936
1.1616454061795
1.1616454061793
1.16164540617883
1.16164540617807
1.16164540617696
1.16164540617544
1.1616454061753
1.16164537972535
1.16164537972664
1.16164537972974
1.16164537973311
1.16164537973725
1.1616453797419
1.16164537974696
1.16164537975235
1.16164537975802
1.16164537976391
1.16164537976998
1.16164537977621
1.16164537978256
1.16164537978902
1.16164537979557
1.16164537980218
1.16164537980883
1.16164537981549
1.16164537982215
1.16164537982877
1.16164537983534
1.16164537984182
1.1616453798482
1.16164537985444
1.16164537986053
1.16164537986644
1.16164537987215
1.16164537987764
1.16164537988287
1.16164537988784
1.16164537989253
1.1616453798969
1.16164537990096
1.16164537990467
1.16164537990802
1.161645379911
1.16164537991359
1.16164537991577
1.16164537991754
1.16164537991888
1.16164537991979
1.16164537992028
1.16164537992036
1.16164537992005
1.1616453799194
1.16164537991848
1.16164537991727
1.1616453799158
1.16164537991403
1.16164537991374
1.16164535346676
1.1616453534682
1.16164535347155
1.1616453534753
1.16164535347987
1.16164535348494
1.1616453534904
1.16164535349616
1.16164535350216
1.16164535350833
1.16164535351466
1.16164535352109
1.16164535352763
1.16164535353423
1.16164535354089
1.16164535354758
1.16164535355428
1.16164535356098
1.16164535356764
1.16164535357426
1.1616453535808
1.16164535358724
1.16164535359355
1.16164535359972
1.16164535360573
1.16164535361153
1.16164535361713
1.16164535362248
1.16164535362758
1.16164535363239
1.16164535363691
1.16164535364111
1.16164535364496
1.16164535364846
1.16164535365159
1.16164535365431
1.16164535365663
1.16164535365852
1.16164535365997
1.16164535366097
1.16164535366152
1.16164535366161
1.16164535366126
1.16164535366051
1.1616453536594
1.161645353658
1.16164535365633
1.16164535365447
1.16164535365242
1.16164535365198
1.16164532720784
1.16164532720945
1.16164532721308
1.16164532721724
1.16164532722227
1.16164532722778
1.16164532723365
1.16164532723979
1.16164532724612
1.16164532725259
1.16164532725917
1.16164532726582
1.16164532727252
1.16164532727927
1.16164532728604
1.16164532729281
1.16164532729957
1.1616453273063
1.16164532731298
1.16164532731958
1.16164532732609
1.16164532733249
1.16164532733875
1.16164532734484
1.16164532735076
1.16164532735647
1.16164532736195
1.16164532736718
1.16164532737213
1.1616453273768
1.16164532738115
1.16164532738517
1.16164532738884
1.16164532739213
1.16164532739503
1.16164532739751
1.16164532739956
1.16164532740116
1.1616453274023
1.16164532740296
1.16164532740314
1.16164532740283
1.16164532740206
1.16164532740085
1.16164532739925
1.16164532739736
1.1616453273952
1.16164532739292
1.16164532739059
1.16164532738996
1.16164530094855
1.16164530095035
1.16164530095428
1.16164530095888
1.16164530096441
1.16164530097039
1.1616453009767
1.16164530098322
1.1616453009899
1.16164530099667
1.1616453010035
1.16164530101036
1.16164530101724
1.16164530102413
1.16164530103101
1.16164530103786
1.16164530104468
1.16164530105144
1.16164530105813
1.16164530106472
1.16164530107121
1.16164530107756
1.16164530108376
1.16164530108979
1.16164530109562
1.16164530110123
1.1616453011066
1.16164530111171
1.16164530111653
1.16164530112105
1.16164530112525
1.1616453011291
1.16164530113257
1.16164530113566
1.16164530113834
1.16164530114058
1.16164530114238
1.16164530114369
1.16164530114452
1.16164530114485
1.16164530114465
1.16164530114395
1.16164530114274
1.16164530114106
1.16164530113897
1.16164530113656
1.16164530113386
1.16164530113113
1.16164530112848
1.16164530112767
1.16164527468883
1.16164527469085
1.16164527469511
1.1616452747002
1.16164527470628
1.16164527471276
1.16164527471952
1.16164527472645
1.16164527473347
1.16164527474054
1.16164527474762
1.1616452747547
1.16164527476176
1.16164527476879
1.16164527477577
1.16164527478271
1.16164527478958
1.16164527479637
1.16164527480307
1.16164527480966
1.16164527481612
1.16164527482243
1.16164527482858
1.16164527483453
1.16164527484028
1.1616452748458
1.16164527485107
1.16164527485606
1.16164527486075
1.16164527486513
1.16164527486917
1.16164527487285
1.16164527487615
1.16164527487904
1.1616452748815
1.16164527488351