/*--------------------------------*- C++ -*----------------------------------*\
  =========                 |
  \\      /  F ield         | OpenFOAM: The Open Source CFD Toolbox
   \\    /   O peration     | Website:  https://openfoam.org
    \\  /    A nd           | Version:  10
     \\/     M anipulation  |
\*---------------------------------------------------------------------------*/
FoamFile
{
    format      ascii;
    class       volScalarField;
    location    "1.6";
    object      T;
}
// * * * * * * * * * * * * * * * * * * * * * * * * * * * * * * * * * * * * * //

dimensions      [0 0 0 1 0 0 0];

internalField   nonuniform List<scalar> 
2500
(
305.225305595384
305.139491862003
305.112329321913
305.106877804394
305.105876533283
305.105688311797
305.105652298369
305.105643940939
305.105640464475
305.105639112592
305.105637236893
305.105635974685
305.1056351975
305.105634193463
305.105633259809
305.105632206185
305.105631672977
305.105630995772
305.105630230259
305.105629686318
305.105629082845
305.105628238535
305.105627433617
305.105627431755
305.105627401704
305.10562688364
305.105626858474
305.105626752259
305.105626405911
305.105626706211
305.105627020013
305.105627075191
305.105627389603
305.105627845865
305.105628322255
305.105628695407
305.105629107128
305.10562944999
305.10563017352
305.105630855768
305.105631697558
305.10563294419
305.105635769829
305.105645699643
305.105691963355
305.105905744797
305.106953691376
305.112436699068
305.140009724214
305.225324319664
302.528451528833
302.386485528468
302.303995270007
302.283141548147
302.27835445774
302.277300877977
302.277082404775
302.277039743692
302.277031521567
302.277029960013
302.277029220624
302.27702883333
302.277028682481
302.27702845389
302.277028236575
302.277027983912
302.277027825758
302.277027648561
302.277027480182
302.277027294572
302.2770268787
302.277026248204
302.27702549679
302.277025559359
302.27702566196
302.277025190846
302.277025377736
302.277025390375
302.277024982516
302.277025434979
302.277025571746
302.27702505763
302.277025765923
302.277026751637
302.277027046388
302.277027150636
302.277027224219
302.277027284951
302.277027453817
302.277027628689
302.277028203844
302.277030728975
302.277042809453
302.277100682803
302.277366129584
302.278519528415
302.283390101362
302.304059782996
302.387937308461
302.532866689724
301.007393614152
300.903776396718
300.840347380432
300.822755456841
300.818619546143
300.817689940511
300.817492486102
300.817453235859
300.817445927407
300.817444753745
300.817444351259
300.81744420953
300.817444325771
300.817444353784
300.817444397502
300.817444433609
300.817444443337
300.81744439909
300.817444363931
300.817444347808
300.817444189819
300.817443942008
300.817443686532
300.817443584948
300.817443602909
300.817443578325
300.817443515837
300.817443572938
300.817443654193
300.817443764483
300.817443717027
300.817443465061
300.817443800855
300.817444382996
300.817444526539
300.817444446709
300.817444350819
300.817444309505
300.81744426133
300.817444169167
300.817444485403
300.81744663514
300.817456775321
300.817505498098
300.817729077221
300.81870287912
300.822834523406
300.840306860164
300.905056083901
301.015022940158
300.347089452844
300.295076816748
300.268839849547
300.261026742826
300.259214565709
300.258813529912
300.258728221664
300.25871097082
300.258707710064
300.25870728323
300.25870716997
300.258707111227
300.258707188965
300.258707246136
300.258707302165
300.258707352609
300.258707357977
300.25870733776
300.258707357721
300.258707361007
300.25870731414
300.258707251924
300.258707159115
300.25870712133
300.258707147386
300.258707151547
300.258707110203
300.258707142873
300.258707218088
300.258707242139
300.258707223046
300.258707132815
300.258707251472
300.258707468587
300.258707522464
300.258707475813
300.258707419665
300.258707403469
300.258707377044
300.25870731725
300.258707320908
300.258708067688
300.258711991634
300.258730905419
300.258819639982
300.259219562549
300.260999912596
300.268805867988
300.295773905071
300.352789223994
300.106950380108
300.086140701824
300.077647234429
300.074897095863
300.074252634754
300.074110683549
300.074080396782
300.074074175619
300.074072987235
300.074072849417
300.074072816566
300.07407279956
300.074072835423
300.074072867077
300.07407289603
300.07407292027
300.074072922614
300.074072914216
300.074072930315
300.074072932988
300.074072920214
300.074072908909
300.074072876082
300.074072874325
300.074072889378
300.074072888028
300.074072873457
300.074072884268
300.074072915051
300.074072922272
300.074072917065
300.074072890952
300.074072925977
300.074072989577
300.074072996474
300.07407298393
300.074072973693
300.074072955981
300.07407293719
300.074072922984
300.074072895407
300.074073106686
300.074074381573
300.074080551748
300.074109839635
300.074244937216
300.074864715827
300.07760965441
300.086407673262
300.109875785601
300.030174664389
300.023049168891
300.020668777296
300.019831052846
300.019629881308
300.019585418653
300.019575905462
300.01957393008
300.019573549254
300.019573508036
300.019573500168
300.019573496846
300.01957351098
300.019573523718
300.019573534585
300.019573542517
300.019573543548
300.019573540773
300.019573547181
300.019573547985
300.019573544298
300.019573542802
300.019573534473
300.01957353712
300.019573541896
300.019573541184
300.019573537242
300.019573539711
300.019573549436
300.019573554431
300.019573552369
300.019573544954
300.019573554985
300.019573569813
300.01957356959
300.019573566483
300.019573563871
300.019573556033
300.019573544621
300.019573537574
300.019573530832
300.019573585602
300.019573957412
300.019575782362
300.019584468025
300.019625069547
300.019814207946
300.020647485275
300.023129091919
300.03137135861
300.00792839158
300.005752807196
300.005143184488
300.004912520804
300.004855358256
300.004842607975
300.00483987335
300.004839302074
300.004839190913
300.004839178999
300.004839177808
300.004839178174
300.004839183025
300.004839187235
300.004839190631
300.004839192887
300.004839193396
300.004839192554
300.004839194639
300.004839194921
300.004839193575
300.004839193444
300.004839191988
300.004839193402
300.004839194632
300.004839194476
300.004839194174
300.004839193905
300.004839196011
300.004839198552
300.004839197954
300.004839196326
300.004839198688
300.004839201757
300.004839201236
300.004839200448
300.004839199727
300.004839197057
300.004839192856
300.00483919061
300.004839189342
300.004839201619
300.004839302863
300.004839805559
300.004842193927
300.004853427572
300.004906025833
300.005134699522
300.005772123797
300.008347224937
300.001964558959
300.00135653622
300.001209155708
300.001150228309
300.001135123467
300.001131709659
300.00113097566
300.001130821993
300.001130792004
300.001130789002
300.001130788993
300.001130789218
300.00113079059
300.001130791809
300.001130792759
300.001130793353
300.001130793573
300.001130793331
300.001130793873
300.001130794058
300.001130793794
300.00113079379
300.001130793513
300.001130793969
300.001130794262
300.001130794157
300.001130794174
300.00113079396
300.001130794518
300.001130795305
300.001130795291
300.001130795085
300.001130795481
300.00113079592
300.00113079567
300.001130795475
300.001130795278
300.001130794473
300.001130793236
300.001130792631
300.001130792647
300.001130795317
300.001130821142
300.001130951681
300.001131570384
300.001134485014
300.001148113117
300.00120638119
300.001360160505
300.002095181568
300.000463474542
300.000305128478
300.000270824961
300.000256615407
300.000252850441
300.000251985919
300.000251799443
300.000251760419
300.00025175281
300.00025175208
300.00025175212
300.000251752217
300.000251752593
300.000251752915
300.000251753161
300.00025175331
300.000251753388
300.000251753324
300.000251753445
300.000251753541
300.00025175353
300.000251753532
300.000251753476
300.00025175359
300.000251753634
300.000251753566
300.000251753603
300.000251753608
300.000251753732
300.000251753889
300.0002517539
300.00025175387
300.000251753901
300.000251753936
300.000251753859
300.00025175379
300.000251753767
300.000251753613
300.000251753365
300.000251753245
300.000251753216
300.000251753723
300.000251760036
300.000251792266
300.000251944653
300.00025266172
300.000255997507
300.00027001593
300.00030552937
300.000500729075
300.000104878333
300.00006595618
300.000058182678
300.000054909746
300.000054015536
300.000053806564
300.000053761289
300.000053751828
300.000053749988
300.000053749817
300.000053749836
300.000053749866
300.00005374996
300.000053750038
300.000053750098
300.000053750133
300.000053750157
300.000053750142
300.000053750165
300.000053750197
300.000053750208
300.000053750215
300.00005375021
300.000053750226
300.000053750225
300.000053750207
300.000053750224
300.000053750236
300.000053750259
300.000053750284
300.000053750278
300.000053750263
300.000053750269
300.000053750276
300.000053750251
300.000053750239
300.000053750237
300.000053750206
300.000053750161
300.00005375013
300.000053750116
300.000053750218
300.0000537517
300.00005375931
300.000053795213
300.000053963726
300.000054742262
300.000057961773
300.000065903076
300.000114769169
300.000022898029
300.000013781687
300.000012056846
300.000011330601
300.000011126705
300.000011078168
300.000011067589
300.000011065381
300.000011064953
300.000011064912
300.000011064917
300.000011064925
300.000011064946
300.000011064963
300.000011064977
300.000011064985
300.000011064991
300.000011064987
300.00001106499
300.000011064999
300.000011065004
300.000011065007
300.000011065007
300.000011065008
300.000011065008
300.000011065003
300.000011065007
300.000011065011
300.000011065015
300.000011065017
300.000011065015
300.000011065012
300.000011065012
300.000011065013
300.000011065007
300.000011065005
300.000011065004
300.000011064998
300.000011064991
300.000011064983
300.00001106498
300.000011065002
300.000011065338
300.000011067065
300.000011075194
300.000011113223
300.00001128762
300.000011998813
300.000013729829
300.000025373896
300.000004846755
300.000002797283
300.000002421524
300.000002265284
300.000002220389
300.000002209501
300.000002207109
300.000002206609
300.000002206512
300.000002206501
300.000002206501
300.000002206502
300.000002206506
300.000002206509
300.000002206511
300.000002206513
300.000002206514
300.000002206513
300.000002206513
300.000002206514
300.000002206515
300.000002206516
300.000002206516
300.000002206516
300.000002206516
300.000002206514
300.000002206515
300.000002206516
300.000002206517
300.000002206517
300.000002206516
300.000002206515
300.000002206515
300.000002206516
300.000002206514
300.000002206515
300.000002206515
300.000002206514
300.000002206513
300.000002206511
300.000002206511
300.000002206517
300.000002206592
300.000002206971
300.000002208747
300.000002217025
300.000002254712
300.000002406674
300.000002775967
300.000005436691
300.000000998893
300.000000554123
300.000000473565
300.000000440792
300.000000431199
300.000000428829
300.000000428303
300.000000428191
300.000000428169
300.000000428165
300.000000428164
300.000000428163
300.000000428163
300.000000428163
300.000000428163
300.000000428162
300.000000428162
300.000000428161
300.000000428161
300.000000428161
300.000000428161
300.00000042816
300.00000042816
300.00000042816
300.00000042816
300.000000428159
300.000000428159
300.000000428159
300.000000428159
300.000000428159
300.000000428159
300.000000428159
300.000000428159
300.000000428159
300.000000428159
300.00000042816
300.00000042816
300.00000042816
300.000000428161
300.000000428161
300.000000428162
300.000000428164
300.000000428182
300.000000428263
300.00000042864
300.000000430385
300.000000438278
300.00000046985
300.000000547243
300.000001133678
300.000000201563
300.000000107969
300.000000090844
300.000000084083
300.000000082082
300.000000081579
300.000000081464
300.000000081439
300.000000081433
300.000000081431
300.000000081429
300.000000081428
300.000000081427
300.000000081426
300.000000081425
300.000000081425
300.000000081424
300.000000081423
300.000000081423
300.000000081422
300.000000081422
300.000000081421
300.000000081421
300.000000081421
300.00000008142
300.00000008142
300.00000008142
300.00000008142
300.00000008142
300.00000008142
300.00000008142
300.00000008142
300.00000008142
300.00000008142
300.00000008142
300.000000081421
300.000000081421
300.000000081422
300.000000081423
300.000000081423
300.000000081425
300.000000081426
300.000000081431
300.000000081449
300.000000081528
300.000000081887
300.000000083499
300.000000089933
300.000000106012
300.000000231257
300.000000040411
300.000000021253
300.000000017515
300.000000016104
300.000000015691
300.000000015586
300.00000001556
300.000000015553
300.00000001555
300.000000015549
300.000000015547
300.000000015546
300.000000015545
300.000000015544
300.000000015543
300.000000015542
300.000000015541
300.00000001554
300.00000001554
300.000000015539
300.000000015539
300.000000015538
300.000000015538
300.000000015538
300.000000015537
300.000000015537
300.000000015537
300.000000015537
300.000000015537
300.000000015537
300.000000015537
300.000000015537
300.000000015537
300.000000015537
300.000000015537
300.000000015538
300.000000015538
300.000000015539
300.00000001554
300.000000015541
300.000000015542
300.000000015543
300.000000015545
300.00000001555
300.000000015568
300.000000015641
300.000000015968
300.000000017293
300.000000020735
300.000000046742
300.000000008551
300.000000004735
300.000000003773
300.000000003441
300.000000003352
300.000000003329
300.000000003322
300.000000003319
300.000000003317
300.000000003316
300.000000003314
300.000000003313
300.000000003311
300.00000000331
300.000000003309
300.000000003309
300.000000003308
300.000000003307
300.000000003306
300.000000003306
300.000000003305
300.000000003305
300.000000003304
300.000000003304
300.000000003304
300.000000003303
300.000000003303
300.000000003303
300.000000003303
300.000000003303
300.000000003303
300.000000003303
300.000000003303
300.000000003303
300.000000003304
300.000000003304
300.000000003305
300.000000003305
300.000000003306
300.000000003307
300.000000003308
300.00000000331
300.000000003311
300.000000003314
300.000000003319
300.000000003334
300.000000003405
300.000000003716
300.000000004599
300.000000009856
300.000000002375
300.000000001645
300.000000001248
300.000000001129
300.000000001105
300.000000001099
300.000000001097
300.000000001094
300.000000001093
300.000000001091
300.000000001089
300.000000001088
300.000000001087
300.000000001086
300.000000001085
300.000000001084
300.000000001083
300.000000001082
300.000000001082
300.000000001081
300.00000000108
300.00000000108
300.000000001079
300.000000001079
300.000000001079
300.000000001078
300.000000001078
300.000000001078
300.000000001078
300.000000001078
300.000000001078
300.000000001078
300.000000001078
300.000000001078
300.000000001079
300.000000001079
300.00000000108
300.000000001081
300.000000001081
300.000000001082
300.000000001083
300.000000001085
300.000000001086
300.000000001088
300.00000000109
300.000000001095
300.000000001115
300.00000000123
300.000000001603
300.000000002629
300.000000001199
300.000000001076
300.000000000793
300.000000000715
300.000000000704
300.000000000702
300.0000000007
300.000000000698
300.000000000696
300.000000000694
300.000000000693
300.000000000691
300.00000000069
300.000000000689
300.000000000688
300.000000000687
300.000000000686
300.000000000685
300.000000000685
300.000000000684
300.000000000684
300.000000000683
300.000000000683
300.000000000682
300.000000000682
300.000000000682
300.000000000681
300.000000000681
300.000000000681
300.000000000681
300.000000000681
300.000000000681
300.000000000681
300.000000000682
300.000000000682
300.000000000683
300.000000000683
300.000000000684
300.000000000685
300.000000000686
300.000000000687
300.000000000688
300.000000000689
300.000000000691
300.000000000693
300.000000000695
300.000000000706
300.000000000783
300.000000001056
300.000000001239
300.000000000978
300.000000000972
300.000000000712
300.000000000642
300.000000000634
300.000000000632
300.00000000063
300.000000000629
300.000000000627
300.000000000625
300.000000000624
300.000000000622
300.000000000621
300.00000000062
300.000000000619
300.000000000618
300.000000000617
300.000000000616
300.000000000616
300.000000000615
300.000000000614
300.000000000614
300.000000000613
300.000000000613
300.000000000613
300.000000000612
300.000000000612
300.000000000612
300.000000000612
300.000000000612
300.000000000612
300.000000000612
300.000000000612
300.000000000612
300.000000000613
300.000000000613
300.000000000614
300.000000000615
300.000000000615
300.000000000616
300.000000000617
300.000000000619
300.00000000062
300.000000000622
300.000000000623
300.000000000625
300.000000000634
300.000000000703
300.000000000957
300.000000000975
300.000000000937
300.000000000954
300.000000000698
300.00000000063
300.000000000622
300.000000000621
300.000000000619
300.000000000617
300.000000000615
300.000000000614
300.000000000612
300.000000000611
300.00000000061
300.000000000609
300.000000000607
300.000000000607
300.000000000606
300.000000000605
300.000000000604
300.000000000603
300.000000000603
300.000000000602
300.000000000602
300.000000000601
300.000000000601
300.000000000601
300.000000000601
300.0000000006
300.0000000006
300.0000000006
300.0000000006
300.0000000006
300.000000000601
300.000000000601
300.000000000601
300.000000000602
300.000000000602
300.000000000603
300.000000000604
300.000000000605
300.000000000606
300.000000000607
300.000000000609
300.00000000061
300.000000000611
300.000000000613
300.000000000621
300.00000000069
300.000000000939
300.000000000925
300.00000000093
300.00000000095
300.000000000695
300.000000000628
300.00000000062
300.000000000619
300.000000000617
300.000000000616
300.000000000614
300.000000000612
300.000000000611
300.000000000609
300.000000000608
300.000000000607
300.000000000606
300.000000000605
300.000000000604
300.000000000603
300.000000000602
300.000000000602
300.000000000601
300.000000000601
300.0000000006
300.0000000006
300.000000000599
300.000000000599
300.000000000599
300.000000000599
300.000000000599
300.000000000599
300.000000000599
300.000000000599
300.000000000599
300.000000000599
300.0000000006
300.0000000006
300.000000000601
300.000000000601
300.000000000602
300.000000000603
300.000000000604
300.000000000605
300.000000000607
300.000000000608
300.00000000061
300.000000000611
300.000000000619
300.000000000687
300.000000000936
300.000000000916
300.000000000928
300.000000000949
300.000000000695
300.000000000628
300.00000000062
300.000000000619
300.000000000617
300.000000000616
300.000000000614
300.000000000612
300.000000000611
300.00000000061
300.000000000608
300.000000000607
300.000000000606
300.000000000605
300.000000000604
300.000000000603
300.000000000602
300.000000000602
300.000000000601
300.000000000601
300.0000000006
300.0000000006
300.000000000599
300.000000000599
300.000000000599
300.000000000599
300.000000000599
300.000000000599
300.000000000599
300.000000000599
300.000000000599
300.000000000599
300.0000000006
300.0000000006
300.000000000601
300.000000000601
300.000000000602
300.000000000603
300.000000000604
300.000000000605
300.000000000607
300.000000000608
300.000000000609
300.000000000611
300.000000000619
300.000000000687
300.000000000935
300.000000000914
300.000000000928
300.000000000949
300.000000000695
300.000000000628
300.00000000062
300.000000000619
300.000000000617
300.000000000616
300.000000000614
300.000000000613
300.000000000611
300.00000000061
300.000000000608
300.000000000607
300.000000000606
300.000000000605
300.000000000604
300.000000000603
300.000000000603
300.000000000602
300.000000000601
300.000000000601
300.0000000006
300.0000000006
300.0000000006
300.000000000599
300.000000000599
300.000000000599
300.000000000599
300.000000000599
300.000000000599
300.000000000599
300.000000000599
300.000000000599
300.0000000006
300.0000000006
300.000000000601
300.000000000602
300.000000000602
300.000000000603
300.000000000604
300.000000000606
300.000000000607
300.000000000608
300.000000000609
300.000000000611
300.000000000619
300.000000000686
300.000000000935
300.000000000913
300.000000000927
300.000000000949
300.000000000695
300.000000000628
300.00000000062
300.000000000619
300.000000000618
300.000000000616
300.000000000614
300.000000000613
300.000000000611
300.00000000061
300.000000000609
300.000000000607
300.000000000606
300.000000000605
300.000000000604
300.000000000604
300.000000000603
300.000000000602
300.000000000602
300.000000000601
300.0000000006
300.0000000006
300.0000000006
300.000000000599
300.000000000599
300.000000000599
300.000000000599
300.000000000599
300.000000000599
300.000000000599
300.000000000599
300.0000000006
300.0000000006
300.0000000006
300.000000000601
300.000000000602
300.000000000603
300.000000000604
300.000000000605
300.000000000606
300.000000000607
300.000000000608
300.00000000061
300.000000000611
300.000000000619
300.000000000686
300.000000000935
300.000000000913
300.000000000927
300.000000000949
300.000000000695
300.000000000628
300.00000000062
300.000000000619
300.000000000618
300.000000000616
300.000000000614
300.000000000613
300.000000000611
300.00000000061
300.000000000609
300.000000000607
300.000000000606
300.000000000605
300.000000000604
300.000000000604
300.000000000603
300.000000000602
300.000000000602
300.000000000601
300.0000000006
300.0000000006
300.0000000006
300.000000000599
300.000000000599
300.000000000599
300.000000000599
300.000000000599
300.000000000599
300.000000000599
300.000000000599
300.0000000006
300.0000000006
300.0000000006
300.000000000601
300.000000000602
300.000000000603
300.000000000604
300.000000000605
300.000000000606
300.000000000607
300.000000000608
300.00000000061
300.000000000611
300.000000000619
300.000000000686
300.000000000934
300.000000000913
300.000000000927
300.000000000949
300.000000000694
300.000000000627
300.00000000062
300.000000000619
300.000000000617
300.000000000616
300.000000000614
300.000000000613
300.000000000611
300.00000000061
300.000000000609
300.000000000607
300.000000000606
300.000000000605
300.000000000604
300.000000000604
300.000000000603
300.000000000602
300.000000000602
300.000000000601
300.0000000006
300.0000000006
300.0000000006
300.000000000599
300.000000000599
300.000000000599
300.000000000599
300.000000000599
300.000000000599
300.000000000599
300.000000000599
300.0000000006
300.0000000006
300.0000000006
300.000000000601
300.000000000602
300.000000000603
300.000000000604
300.000000000605
300.000000000606
300.000000000607
300.000000000608
300.000000000609
300.000000000611
300.000000000619
300.000000000686
300.000000000934
300.000000000913
300.000000000927
300.000000000949
300.000000000694
300.000000000627
300.00000000062
300.000000000619
300.000000000617
300.000000000616
300.000000000614
300.000000000613
300.000000000611
300.00000000061
300.000000000608
300.000000000607
300.000000000606
300.000000000605
300.000000000604
300.000000000603
300.000000000603
300.000000000602
300.000000000601
300.000000000601
300.0000000006
300.0000000006
300.0000000006
300.000000000599
300.000000000599
300.000000000599
300.000000000599
300.000000000599
300.000000000599
300.000000000599
300.000000000599
300.000000000599
300.0000000006
300.0000000006
300.000000000601
300.000000000602
300.000000000602
300.000000000603
300.000000000604
300.000000000606
300.000000000607
300.000000000608
300.000000000609
300.000000000611
300.000000000619
300.000000000686
300.000000000934
300.000000000913
300.000000000927
300.000000000949
300.000000000694
300.000000000627
300.00000000062
300.000000000619
300.000000000617
300.000000000615
300.000000000614
300.000000000612
300.000000000611
300.000000000609
300.000000000608
300.000000000607
300.000000000606
300.000000000605
300.000000000604
300.000000000603
300.000000000602
300.000000000602
300.000000000601
300.000000000601
300.0000000006
300.0000000006
300.000000000599
300.000000000599
300.000000000599
300.000000000599
300.000000000599
300.000000000599
300.000000000599
300.000000000599
300.000000000599
300.000000000599
300.0000000006
300.0000000006
300.000000000601
300.000000000601
300.000000000602
300.000000000603
300.000000000604
300.000000000605
300.000000000607
300.000000000608
300.000000000609
300.000000000611
300.000000000618
300.000000000686
300.000000000934
300.000000000913
300.000000000927
300.000000000948
300.000000000694
300.000000000627
300.00000000062
300.000000000618
300.000000000617
300.000000000615
300.000000000613
300.000000000612
300.00000000061
300.000000000609
300.000000000608
300.000000000607
300.000000000605
300.000000000604
300.000000000604
300.000000000603
300.000000000602
300.000000000601
300.000000000601
300.0000000006
300.0000000006
300.000000000599
300.000000000599
300.000000000599
300.000000000599
300.000000000598
300.000000000598
300.000000000598
300.000000000598
300.000000000598
300.000000000599
300.000000000599
300.000000000599
300.0000000006
300.0000000006
300.000000000601
300.000000000602
300.000000000603
300.000000000604
300.000000000605
300.000000000606
300.000000000608
300.000000000609
300.00000000061
300.000000000618
300.000000000686
300.000000000935
300.000000000913
300.000000000927
300.000000000948
300.000000000694
300.000000000627
300.000000000619
300.000000000618
300.000000000616
300.000000000615
300.000000000613
300.000000000611
300.00000000061
300.000000000608
300.000000000607
300.000000000606
300.000000000605
300.000000000604
300.000000000603
300.000000000602
300.000000000602
300.000000000601
300.0000000006
300.0000000006
300.000000000599
300.000000000599
300.000000000599
300.000000000598
300.000000000598
300.000000000598
300.000000000598
300.000000000598
300.000000000598
300.000000000598
300.000000000598
300.000000000599
300.000000000599
300.000000000599
300.0000000006
300.000000000601
300.000000000602
300.000000000603
300.000000000604
300.000000000605
300.000000000606
300.000000000608
300.000000000609
300.00000000061
300.000000000618
300.000000000686
300.000000000935
300.000000000913
300.000000000927
300.000000000948
300.000000000694
300.000000000626
300.000000000619
300.000000000617
300.000000000616
300.000000000614
300.000000000612
300.000000000611
300.000000000609
300.000000000608
300.000000000607
300.000000000605
300.000000000604
300.000000000603
300.000000000603
300.000000000602
300.000000000601
300.0000000006
300.0000000006
300.000000000599
300.000000000599
300.000000000598
300.000000000598
300.000000000598
300.000000000598
300.000000000597
300.000000000597
300.000000000597
300.000000000597
300.000000000598
300.000000000598
300.000000000598
300.000000000598
300.000000000599
300.0000000006
300.0000000006
300.000000000601
300.000000000602
300.000000000603
300.000000000604
300.000000000606
300.000000000607
300.000000000609
300.00000000061
300.000000000618
300.000000000686
300.000000000935
300.000000000914
300.000000000927
300.000000000948
300.000000000693
300.000000000626
300.000000000618
300.000000000617
300.000000000615
300.000000000613
300.000000000612
300.00000000061
300.000000000608
300.000000000607
300.000000000606
300.000000000605
300.000000000604
300.000000000603
300.000000000602
300.000000000601
300.0000000006
300.0000000006
300.000000000599
300.000000000599
300.000000000598
300.000000000598
300.000000000598
300.000000000597
300.000000000597
300.000000000597
300.000000000597
300.000000000597
300.000000000597
300.000000000597
300.000000000597
300.000000000598
300.000000000598
300.000000000598
300.000000000599
300.0000000006
300.000000000601
300.000000000602
300.000000000603
300.000000000604
300.000000000605
300.000000000607
300.000000000608
300.00000000061
300.000000000618
300.000000000686
300.000000000935
300.000000000914
300.000000000927
300.000000000948
300.000000000693
300.000000000626
300.000000000618
300.000000000616
300.000000000614
300.000000000612
300.000000000611
300.000000000609
300.000000000608
300.000000000606
300.000000000605
300.000000000604
300.000000000603
300.000000000602
300.000000000601
300.0000000006
300.0000000006
300.000000000599
300.000000000599
300.000000000598
300.000000000598
300.000000000597
300.000000000597
300.000000000597
300.000000000596
300.000000000596
300.000000000596
300.000000000596
300.000000000596
300.000000000596
300.000000000597
300.000000000597
300.000000000597
300.000000000598
300.000000000598
300.000000000599
300.0000000006
300.000000000601
300.000000000602
300.000000000603
300.000000000605
300.000000000606
300.000000000608
300.00000000061
300.000000000618
300.000000000686
300.000000000936
300.000000000915
300.000000000928
300.000000000949
300.000000000693
300.000000000625
300.000000000617
300.000000000615
300.000000000613
300.000000000611
300.00000000061
300.000000000608
300.000000000607
300.000000000605
300.000000000604
300.000000000603
300.000000000602
300.000000000601
300.0000000006
300.000000000599
300.000000000599
300.000000000598
300.000000000598
300.000000000597
300.000000000597
300.000000000596
300.000000000596
300.000000000596
300.000000000596
300.000000000596
300.000000000596
300.000000000596
300.000000000596
300.000000000596
300.000000000596
300.000000000596
300.000000000597
300.000000000597
300.000000000598
300.000000000598
300.000000000599
300.0000000006
300.000000000601
300.000000000603
300.000000000604
300.000000000606
300.000000000607
300.000000000609
300.000000000618
300.000000000687
300.000000000937
300.000000000916
300.000000000928
300.000000000949
300.000000000693
300.000000000625
300.000000000617
300.000000000614
300.000000000612
300.00000000061
300.000000000609
300.000000000607
300.000000000605
300.000000000604
300.000000000603
300.000000000602
300.000000000601
300.0000000006
300.000000000599
300.000000000599
300.000000000598
300.000000000597
300.000000000597
300.000000000596
300.000000000596
300.000000000596
300.000000000595
300.000000000595
300.000000000595
300.000000000595
300.000000000595
300.000000000595
300.000000000595
300.000000000595
300.000000000595
300.000000000595
300.000000000596
300.000000000596
300.000000000597
300.000000000597
300.000000000598
300.000000000599
300.0000000006