/*--------------------------------*- C++ -*----------------------------------*\
  =========                 |
  \\      /  F ield         | OpenFOAM: The Open Source CFD Toolbox
   \\    /   O peration     | Website:  https://openfoam.org
    \\  /    A nd           | Version:  10
     \\/     M anipulation  |
\*---------------------------------------------------------------------------*/
FoamFile
{
    format      ascii;
    class       volVectorField;
    location    "1.6";
    object      U;
}
// * * * * * * * * * * * * * * * * * * * * * * * * * * * * * * * * * * * * * //

dimensions      [0 1 -1 0 0 0 0];

internalField   nonuniform List<vector> 
2500
(
(-2.14333593655739e-06 -1.82326981699674e-05 4.4392709771297e-25)
(-3.61419828104142e-06 -1.78827982390737e-05 7.15463039773621e-25)
(-2.33574531577566e-06 -1.80543698253356e-05 4.73146933801676e-25)
(-1.60533293743835e-06 -1.75342618048669e-05 -3.3399067849715e-25)
(-1.13442889321204e-06 -1.73242301741138e-05 -2.22914033663111e-24)
(-8.64709257675305e-07 -1.72599430055018e-05 2.83463657753323e-25)
(-6.60191840905243e-07 -1.7237816400868e-05 3.47717538740308e-26)
(-5.17338060342104e-07 -1.72315173629301e-05 8.64216686495286e-26)
(-4.04629999387783e-07 -1.72292839914899e-05 8.88421797860005e-25)
(-3.12448234613904e-07 -1.72283765064214e-05 -4.44898464275717e-24)
(-2.35135961206436e-07 -1.7227971691636e-05 -6.39815761876569e-25)
(-1.6936033725892e-07 -1.72278095188439e-05 -5.84249410371714e-24)
(-1.12744555609865e-07 -1.72277795323033e-05 -2.93028042063531e-24)
(-6.35677763725713e-08 -1.72278233991351e-05 -6.37052844608909e-25)
(-2.06536465492461e-08 -1.72279086853001e-05 -5.83004483488428e-24)
(1.69511104420906e-08 -1.72280267053567e-05 -1.60985396209374e-25)
(5.00129647619789e-08 -1.72281501744585e-05 -3.62662250651733e-24)
(7.91349572854733e-08 -1.72282849254339e-05 -5.80120845678105e-24)
(1.04811474320644e-07 -1.72284152335259e-05 2.54251940148482e-25)
(1.27474677162169e-07 -1.72285496345702e-05 -1.63978600682885e-25)
(1.47505317023406e-07 -1.7228685902113e-05 4.74864049677348e-25)
(1.6526132196764e-07 -1.72287887978355e-05 7.12789794688862e-25)
(1.81069009745556e-07 -1.72288757153951e-05 -6.37198072548999e-24)
(1.95205145697181e-07 -1.72289892501066e-05 -1.0765030853097e-25)
(2.07943390414087e-07 -1.72290912810941e-05 9.35876684018603e-25)
(2.19602334889184e-07 -1.72291617108947e-05 -3.75961102131312e-24)
(2.30472017146398e-07 -1.72292326307806e-05 8.68396051114874e-25)
(2.40831057577049e-07 -1.72293154392147e-05 -1.05487104335329e-24)
(2.51023908288282e-07 -1.72293747767647e-05 -7.72601017116084e-24)
(2.61343537279217e-07 -1.72294422657318e-05 3.20860750652027e-25)
(2.72119320816357e-07 -1.72294854328438e-05 -7.62123047612102e-25)
(2.83750938720386e-07 -1.7229521573376e-05 5.24068129525797e-25)
(2.96653017290957e-07 -1.7229574516729e-05 -8.35136072085824e-25)
(3.1130418720906e-07 -1.72296190566514e-05 -6.63882077592988e-25)
(3.28240427269812e-07 -1.72296661138459e-05 3.61770589827068e-25)
(3.48124718450493e-07 -1.72297251485337e-05 -5.86025967552765e-24)
(3.71779968191399e-07 -1.72297982347155e-05 2.91416237827019e-24)
(4.00208549002864e-07 -1.72299182845373e-05 -2.92488638352994e-25)
(4.3471407043285e-07 -1.72301077361983e-05 -3.99091481746327e-25)
(4.770473285578e-07 -1.72304177311863e-05 2.22676392720191e-24)
(5.29663921951135e-07 -1.72309772055357e-05 3.68880710331135e-24)
(5.96193719344844e-07 -1.72320880039123e-05 8.20201246263118e-24)
(6.82650994090958e-07 -1.7234698553607e-05 4.66827913961359e-24)
(7.99404348017749e-07 -1.7241877819182e-05 3.47834550695762e-24)
(9.79522394178914e-07 -1.72658360540648e-05 4.72647488264819e-24)
(1.23297222116548e-06 -1.73329916585273e-05 5.67785936403343e-24)
(1.6810941935079e-06 -1.7539869865593e-05 8.58091815605994e-24)
(2.38455092165483e-06 -1.80565773629263e-05 4.61452978168365e-24)
(3.66438110765509e-06 -1.78963901755042e-05 5.7605203859895e-24)
(2.17542479137499e-06 -1.80845105685985e-05 3.31279126866647e-24)
(-1.79339268587296e-06 -1.46516350329528e-05 1.26767330571331e-24)
(-4.14727736749951e-06 -1.4179166942956e-05 9.95972768660344e-24)
(-3.50179125125982e-06 -1.44943181896325e-05 1.35854872621167e-24)
(-2.60854401267598e-06 -1.36677679731136e-05 -5.13928649794837e-25)
(-2.18508249772348e-06 -1.33105019820247e-05 5.11707616683777e-24)
(-1.82419367217983e-06 -1.31613771401387e-05 3.72353830103206e-24)
(-1.47177649102418e-06 -1.3091236948814e-05 4.24282462933396e-25)
(-1.19098047252028e-06 -1.30550896911559e-05 6.62750521540706e-25)
(-9.56920075524241e-07 -1.3032651239049e-05 6.23271519200878e-24)
(-7.60700406815757e-07 -1.30168103182863e-05 4.40106156010452e-24)
(-5.94189811510617e-07 -1.3004738332148e-05 -3.22938896287412e-24)
(-4.51456716811614e-07 -1.29951022254935e-05 3.13430856827817e-25)
(-3.28026098007734e-07 -1.29872366560221e-05 5.19427427326894e-24)
(-2.20549714751474e-07 -1.29806525481102e-05 -4.03605043077312e-24)
(-1.26520099927603e-07 -1.2975018456892e-05 2.97978485471049e-24)
(-4.39319081497404e-08 -1.29701788357587e-05 7.95265540145334e-25)
(2.88332627028027e-08 -1.29659532536046e-05 6.77588280911898e-25)
(9.31138782562329e-08 -1.29622560156991e-05 3.76839805601133e-24)
(1.50021352382643e-07 -1.2959006627379e-05 1.66409135379055e-24)
(2.00516405636727e-07 -1.29561541181108e-05 7.51405972210565e-24)
(2.45486061642413e-07 -1.29536628824769e-05 1.68074147519713e-24)
(2.85743297442229e-07 -1.29514666965095e-05 5.77482895447391e-24)
(3.21971263562232e-07 -1.29495812979365e-05 -2.96074237104781e-25)
(3.54847911437149e-07 -1.294801258589e-05 6.7499307224018e-25)
(3.85058985893966e-07 -1.2946711722556e-05 4.79396769610349e-24)
(4.13233738048128e-07 -1.29456703217254e-05 2.39516733205841e-24)
(4.40033452314101e-07 -1.29449172895404e-05 4.19050157477196e-24)
(4.66149631291843e-07 -1.29444694471531e-05 -4.92845207472358e-24)
(4.9223497980956e-07 -1.29442956453006e-05 -1.48715949493149e-24)
(5.18981371425073e-07 -1.29444263941176e-05 3.83373287631054e-24)
(5.47173335551183e-07 -1.29448871792879e-05 -4.67858867331579e-24)
(5.77604161012315e-07 -1.29457328025184e-05 3.12329899058168e-24)
(6.11207353713982e-07 -1.29469763527616e-05 -4.96400344534677e-24)
(6.49035590555736e-07 -1.29487177340484e-05 -4.41301729417967e-24)
(6.9224141455044e-07 -1.29510018449926e-05 3.92920309387223e-24)
(7.42236232229773e-07 -1.29539257842236e-05 -9.92602041231665e-25)
(8.00730105119137e-07 -1.29576760912409e-05 -1.37081066197007e-24)
(8.69807341266042e-07 -1.2962466992494e-05 -8.16734292767037e-25)
(9.52105268997504e-07 -1.29685776414033e-05 -3.25454376904925e-24)
(1.05105667536242e-06 -1.29765395495545e-05 1.06154656317164e-24)
(1.1712728925001e-06 -1.29871273909073e-05 8.20291450100424e-25)
(1.31895638541556e-06 -1.30017936908309e-05 3.06252469129785e-24)
(1.50261198729409e-06 -1.30236865963584e-05 7.01192429443521e-24)
(1.73201503335811e-06 -1.30607027216167e-05 1.35015561065325e-24)
(2.03454045238577e-06 -1.3133901380161e-05 1.33845313029598e-24)
(2.35942889381463e-06 -1.32868676662017e-05 8.67757636246214e-24)
(2.73916803528669e-06 -1.36403793989743e-05 3.77427201570463e-24)
(3.58096808207984e-06 -1.44933927266946e-05 2.6333843856934e-24)
(4.31626446619048e-06 -1.41937894787269e-05 7.55030462907527e-24)
(1.9280748250342e-06 -1.45553713023094e-05 2.14870805975512e-24)
(-2.72625098316868e-06 2.01220318353798e-05 2.18397881003452e-24)
(-2.58535022182686e-06 2.04351296170211e-05 1.56766873501429e-23)
(-2.92515160768356e-06 1.72803161853943e-05 2.38000703275942e-24)
(-2.68111748840914e-06 1.67510878858767e-05 9.37214378689503e-25)
(-2.38449302358775e-06 1.66383760447776e-05 5.77673751549027e-24)
(-2.04549615780539e-06 1.66917320125509e-05 7.61186490341774e-24)
(-1.69178908727537e-06 1.67659772147962e-05 1.2393856742443e-24)
(-1.40416190397824e-06 1.6825951985991e-05 1.56503198436047e-24)
(-1.16255213762279e-06 1.68710848172316e-05 1.02496666726597e-23)
(-9.59396131045308e-07 1.69055507705777e-05 8.6875250433346e-24)
(-7.86875881015034e-07 1.69325522007896e-05 -5.23520828616565e-24)
(-6.38892937485504e-07 1.69542656502173e-05 2.16919333539274e-24)
(-5.10859192534547e-07 1.69720397319898e-05 6.24023289551546e-24)
(-3.99311998997253e-07 1.69868645231155e-05 -6.53531032706909e-24)
(-3.015238740009e-07 1.69994138152413e-05 9.70161442488466e-24)
(-2.15355588238222e-07 1.7010122145237e-05 1.44575019903991e-24)
(-1.39091581419652e-07 1.70193335688829e-05 3.42832025514957e-24)
(-7.12890005454964e-08 1.70272849211122e-05 1.1110389853398e-23)
(-1.07365189062024e-08 1.70341500525576e-05 2.98084892493805e-24)
(4.36154080001015e-08 1.70400695867535e-05 1.16076948931546e-23)
(9.27047824394548e-08 1.70451394877146e-05 3.12737884986568e-24)
(1.37374478063643e-07 1.70494346986889e-05 9.27136023775326e-24)
(1.78380392093471e-07 1.70529786406186e-05 3.01821501921035e-24)
(2.16460701242146e-07 1.7055848243897e-05 1.35969191055881e-24)
(2.52306605422453e-07 1.70580517129492e-05 7.1369075437401e-24)
(2.86596069754489e-07 1.70595735443764e-05 4.49354709991994e-24)
(3.20038075556763e-07 1.70604674524918e-05 5.71115947444305e-24)
(3.53310918719704e-07 1.70607076307756e-05 -7.6908909185363e-24)
(3.87100196008811e-07 1.7060228430756e-05 1.09726623386243e-24)
(4.22164253509364e-07 1.70590375051418e-05 7.33854857625793e-24)
(4.59312100642432e-07 1.70570592701015e-05 -8.80671313927576e-24)
(4.9938836273329e-07 1.70541954168692e-05 4.11835594199612e-24)
(5.43367421100711e-07 1.70504067334321e-05 -7.25596774292168e-24)
(5.92353698961451e-07 1.70455085890979e-05 -6.97010616515149e-24)
(6.47596043385377e-07 1.7039315310049e-05 5.80800432606702e-24)
(7.10557434587376e-07 1.70315976261105e-05 2.27014979064548e-24)
(7.83032817576877e-07 1.70219789489079e-05 -1.98506454617448e-24)
(8.67228894479596e-07 1.70100187354446e-05 -1.24430951089687e-24)
(9.65876282792126e-07 1.69950507702607e-05 -5.48484118856055e-24)
(1.08252160722918e-06 1.69760563210815e-05 7.98177984235558e-24)
(1.22186203481815e-06 1.69515792053016e-05 -5.32819638545782e-25)
(1.39004224957715e-06 1.69193464961174e-05 1.94538019047134e-25)
(1.59506344490117e-06 1.68758964475215e-05 1.00198208296059e-23)
(1.84480123233943e-06 1.68168220463064e-05 -5.92037781185991e-26)
(2.15994219060995e-06 1.67431080444964e-05 -2.27767456222901e-25)
(2.46903126802819e-06 1.66917391670436e-05 1.32845767469333e-23)
(2.72047497940558e-06 1.68031261985275e-05 5.71805679712391e-25)
(2.94162559604702e-06 1.72541982645594e-05 1.06070850221199e-24)
(2.64310468699202e-06 2.04477601321192e-05 1.75948795853628e-23)
(2.74084702122927e-06 1.99983882850892e-05 -5.8988993985108e-26)
(-3.18597351860395e-06 1.52446587208799e-05 1.55097225911287e-24)
(-2.28126135170416e-06 1.09045464264467e-05 1.93416554332243e-23)
(-2.91420703055945e-06 7.06147416934586e-06 1.64545184315789e-24)
(-2.61468718773697e-06 6.50486509669268e-06 4.97164093210732e-25)
(-2.28722415803413e-06 6.38022531851347e-06 3.8227085676863e-24)
(-1.95843978506685e-06 6.47102220482595e-06 4.40661192364478e-24)
(-1.63677527675431e-06 6.57887998491693e-06 4.7787743110523e-25)
(-1.37986673176426e-06 6.66618984101917e-06 6.22231674620648e-25)
(-1.16550383784449e-06 6.73232351738848e-06 5.86220272377107e-24)
(-9.85462757839376e-07 6.78308353184593e-06 9.11980481293414e-24)
(-8.32548741958363e-07 6.82295313082789e-06 -2.84294442874452e-24)
(-7.01316106034915e-07 6.85499190808619e-06 6.53362103579713e-24)
(-5.87683156033236e-07 6.88118052421602e-06 9.44245045008616e-24)
(-4.8855195848995e-07 6.90294553635102e-06 -3.52896940359955e-24)
(-4.01461199084976e-07 6.92127996676185e-06 1.21283312087674e-23)
(-3.24469996818202e-07 6.93683729391626e-06 1.24759835600586e-24)
(-2.56020971591198e-07 6.9501230726546e-06 7.7345203797722e-24)
(-1.94794969910953e-07 6.96150441934312e-06 1.03495995871676e-23)
(-1.39686459572819e-07 6.97125376153637e-06 1.74519275087163e-24)
(-8.97386479964784e-08 6.97956943454121e-06 1.08949253199424e-23)
(-4.41099143704002e-08 6.98660411209051e-06 1.53956728898477e-24)
(-2.03895247600191e-09 6.99246158176684e-06 5.47398263119492e-24)
(3.71736876389404e-08 6.99723009509613e-06 5.58180291622328e-24)
(7.41847439560562e-08 7.00097958917422e-06 7.72505431385504e-25)
(1.09620851116184e-07 7.00372115304288e-06 4.37707659168273e-24)
(1.44089897200245e-07 7.00550003047546e-06 7.04068342945418e-24)
(1.78201143984462e-07 7.00631029259736e-06 3.80905546876884e-24)
(2.12566605810953e-07 7.00612588026189e-06 -4.36324896959495e-24)
(2.47815316524842e-07 7.00490765109739e-06 4.83906206052621e-24)
(2.84620298672317e-07 7.00260891433238e-06 3.72190969474241e-24)
(3.2370406244233e-07 6.99913425569281e-06 -4.30392649579368e-24)
(3.65834991136153e-07 6.99436451486803e-06 2.86852531505942e-24)
(4.11887197867095e-07 6.98817594638215e-06 -4.57961132927206e-24)
(4.62852337014099e-07 6.98034701818705e-06 -4.07348067747694e-24)
(5.19856370781435e-07 6.9705846560008e-06 3.82238712014265e-24)
(5.84218816794843e-07 6.95852072922529e-06 5.0843449375624e-24)
(6.57557159223462e-07 6.94363421926187e-06 -4.77241044035207e-24)
(7.41831356311216e-07 6.92527833864743e-06 -7.073078377653e-25)
(8.39468674589301e-07 6.90244630572309e-06 -3.47479436546062e-24)
(9.53611858723564e-07 6.87368176844687e-06 3.86236135144447e-24)
(1.088365764527e-06 6.83689554326052e-06 -5.38020417546455e-24)
(1.24910546318553e-06 6.78890996762986e-06 -6.36339277757137e-24)
(1.44295821120595e-06 6.72494040238632e-06 4.60942947554132e-24)
(1.67775342237112e-06 6.63872832898227e-06 -4.78381526322921e-24)
(1.97431112750599e-06 6.53094168988822e-06 -5.5007968794097e-24)
(2.28143290563677e-06 6.44037584214243e-06 5.72477182689274e-24)
(2.57129991265694e-06 6.55637428069164e-06 -5.85420824090299e-24)
(2.89450643251922e-06 7.03526560481919e-06 -5.1877280693057e-24)
(2.25795022788318e-06 1.09650235141654e-05 9.18334684519976e-24)
(3.11234740899975e-06 1.5260560593716e-05 -7.77230772766452e-24)
(-1.70587033622777e-06 8.7018255681707e-06 4.04522718516968e-25)
(-2.40614784900003e-06 2.01021104580574e-06 5.01251260981291e-24)
(-3.03923951721067e-06 -7.34591612471948e-07 4.2982956765277e-25)
(-2.51329197987896e-06 -8.8410987222763e-07 1.06143984271368e-27)
(-2.15178570018493e-06 -8.42010808689225e-07 -9.43959253534946e-25)
(-1.84195080295436e-06 -6.65189969906118e-07 9.4547116020648e-25)
(-1.55380362880761e-06 -5.12267594844762e-07 8.43199712727135e-26)
(-1.32399143505216e-06 -3.97284762260392e-07 1.11509819688715e-25)
(-1.13198670451615e-06 -3.11818439019904e-07 1.37898754476283e-24)
(-9.69964847630317e-07 -2.46426777881173e-07 2.11058930267039e-24)
(-8.31732285039221e-07 -1.95036638579707e-07 -7.00749429275374e-25)
(-7.12647910019247e-07 -1.5372869914069e-07 1.41136786546156e-24)
(-6.09210586856947e-07 -1.19934011426246e-07 2.20677598249311e-24)
(-5.18710324949243e-07 -9.18700285115232e-08 -8.76437946173705e-25)
(-4.38974604661146e-07 -6.82769294072012e-08 2.38907064642169e-24)
(-3.68272367442795e-07 -4.82978299659086e-08 2.62228407879118e-25)
(-3.0518963028727e-07 -3.12838861093666e-08 1.73642200374656e-24)
(-2.48529837257806e-07 -1.6759397708734e-08 2.38197875139139e-24)
(-1.972831363208e-07 -4.37367517241083e-09 3.76247581009082e-25)
(-1.50566398136237e-07 6.12759861772354e-09 2.66348754472834e-24)
(-1.07605825041783e-07 1.49499110996e-08 3.15264723395589e-25)
(-6.77029728202861e-08 2.22447987257146e-08 1.30979745981011e-24)
(-3.02114124442203e-08 2.81269254132851e-08 1.22308559605859e-24)
(5.4708096243577e-09 3.26660193246578e-08 1.69763444672062e-25)
(3.99257878595316e-08 3.59099631611308e-08 1.04154901439944e-24)
(7.37096128242016e-08 3.78774527674271e-08 1.46844429588739e-24)
(1.07378407792525e-07 3.85851218757936e-08 9.05022447316497e-25)
(1.41498730794488e-07 3.80004757751948e-08 -1.02654202571125e-24)
(1.76644391960819e-07 3.60762010333332e-08 1.09979299816734e-24)
(2.13437661213964e-07 3.27352310985567e-08 9.37661404822201e-25)
(2.52542284626997e-07 2.78707218390905e-08 -1.06113864143626e-24)
(2.94665923684727e-07 2.13223617938649e-08 7.50491686199045e-25)
(3.40607856337401e-07 1.29137551252155e-08 -1.15599230054848e-24)
(3.91264864686259e-07 2.35420607419784e-09 -9.5801155330473e-25)
(4.47666639098908e-07 -1.07173903029849e-08 9.4501945132112e-25)
(5.11007812831764e-07 -2.67753349204775e-08 1.10953633331663e-24)
(5.82737130558068e-07 -4.648073230006e-08 -1.04132398231811e-24)
(6.64587565166124e-07 -7.06891789357227e-08 -1.52384303140111e-25)
(7.58684353525435e-07 -1.00644898271895e-07 -7.44898798359463e-25)
(8.67741497907878e-07 -1.38206619019079e-07 3.67450835997581e-24)
(9.95236714344875e-07 -1.86001162725794e-07 -1.1452847624328e-24)
(1.14566159222286e-06 -2.48065099601093e-07 -1.00913759169794e-24)
(1.3249397391797e-06 -3.30738989281784e-07 2.90653649586588e-24)
(1.54009349628115e-06 -4.43912312109632e-07 -1.02811078722428e-24)
(1.8093661023101e-06 -5.96096771410484e-07 -1.26278584941135e-24)
(2.10150949438713e-06 -7.7376794803783e-07 3.14053193490918e-24)
(2.43216021616484e-06 -8.36815615649561e-07 -1.22039310949817e-24)
(3.0074988885805e-06 -7.78941631257525e-07 -1.23073575849878e-24)
(2.37272625962426e-06 2.06497953262165e-06 5.92551220297288e-24)
(1.63694275115644e-06 8.81762650065721e-06 -2.26524001134829e-24)
(-7.39649110677731e-07 5.60712178781123e-06 9.01478783820057e-26)
(-2.26446992804546e-06 -1.61942845737086e-06 1.65741502527915e-24)
(-2.85103303655318e-06 -3.86260859788812e-06 9.54346744246091e-26)
(-2.32921617313009e-06 -3.85233802970186e-06 1.86902808961025e-26)
(-2.00309177668916e-06 -3.7100613678554e-06 5.80902470939814e-25)
(-1.7340654902807e-06 -3.4761592092868e-06 8.57543420579059e-25)
(-1.48158715173859e-06 -3.28865040864845e-06 4.22483722321254e-26)
(-1.27555799527875e-06 -3.15112579578311e-06 4.12803996235102e-26)
(-1.10117421421192e-06 -3.04925529285121e-06 8.92310018902135e-25)
(-9.5237210281938e-07 -2.97114825430769e-06 1.05113079715704e-24)
(-8.24321688006788e-07 -2.90956652686816e-06 -8.56645469070308e-25)
(-7.13279476629649e-07 -2.85994000740097e-06 2.30927110685716e-25)
(-6.1633189624717e-07 -2.81926177662757e-06 1.00613058751824e-24)
(-5.31152987878173e-07 -2.78545142903193e-06 -7.28176400322404e-25)
(-4.55840760707534e-07 -2.75704437428731e-06 1.01215878311463e-24)
(-3.88845478133678e-07 -2.73300205688942e-06 6.95790555430885e-26)
(-3.28880392961502e-07 -2.71255878365358e-06 2.90642888334601e-25)
(-2.74845549607868e-07 -2.69515310594148e-06 1.03581861788446e-24)
(-2.25807029051986e-07 -2.68035505285104e-06 1.14645092442618e-25)
(-1.8093732415378e-07 -2.66785012646461e-06 9.20592229324487e-25)
(-1.3950426446034e-07 -2.65740174780306e-06 1.03724918514983e-25)
(-1.00850617223e-07 -2.64881660643702e-06 9.5445594726001e-25)
(-6.43658864644964e-08 -2.64195864580128e-06 2.36469224623217e-25)
(-2.9474866085693e-08 -2.63674263418512e-06 5.27589641507228e-26)
(4.36833155740402e-09 -2.63309732437494e-06 9.25388035448277e-25)
(3.76987233668251e-08 -2.63100700286941e-06 2.74017427572508e-25)
(7.10395746311456e-08 -2.63045703491429e-06 7.34651636797129e-25)
(1.04922465563375e-07 -2.63148231128376e-06 -7.6565087663953e-25)
(1.39904684398857e-07 -2.6341379115552e-06 2.13876762235403e-25)
(1.76570689974403e-07 -2.63851526015754e-06 5.12786310865082e-25)
(2.15544849383697e-07 -2.64475692122253e-06 -8.63976468288443e-25)
(2.5749564385358e-07 -2.65304176241347e-06 8.35990305304405e-25)
(3.0316716168115e-07 -2.66360929464409e-06 -5.34522482943698e-25)
(3.53397841675368e-07 -2.67678503957326e-06 -8.92124927376752e-25)
(4.09145374349397e-07 -2.69300333913144e-06 4.99589796627953e-25)
(4.71503759629749e-07 -2.71283134841138e-06 2.25768079640062e-25)
(5.4177187700866e-07 -2.73705876614205e-06 -1.86929360924805e-25)
(6.21491881362503e-07 -2.76669164939676e-06 -4.48609925450644e-26)
(7.12523657993854e-07 -2.80317820795844e-06 -8.25868335418092e-25)
(8.17165923506389e-07 -2.84867829598739e-06 1.14203111702837e-24)
(9.38276619821276e-07 -2.90621725436141e-06 -1.48583346344483e-25)
(1.07941862218e-06 -2.98042721101993e-06 -1.54199266100256e-25)
(1.24505971913516e-06 -3.07866008090036e-06 1.25200462084629e-24)
(1.44038561984719e-06 -3.21292278362809e-06 -1.54234052826526e-25)
(1.67790037988349e-06 -3.39750941916963e-06 -1.69769864708413e-25)
(1.93296730661482e-06 -3.63186637794313e-06 1.3191361711649e-24)
(2.23665742374201e-06 -3.80910503694462e-06 -1.54538854313e-25)
(2.81262806335815e-06 -3.93640709756048e-06 -1.90062351867952e-25)
(2.23813121418639e-06 -1.57889515615496e-06 1.98989045778775e-24)
(6.89060665980455e-07 5.72675420774506e-06 -4.24544301317679e-25)
(-3.57415705932635e-07 4.69095568634042e-06 3.78897742025732e-26)
(-1.92604698903538e-06 -2.51904385398304e-06 5.31228231676477e-25)
(-2.46207248901046e-06 -4.88915249802927e-06 3.87928444242354e-26)
(-2.08959383601894e-06 -4.89161010162604e-06 3.83014948663588e-27)
(-1.83554557828894e-06 -4.7177424021239e-06 7.22349756178841e-26)
(-1.6188318454076e-06 -4.45635106339149e-06 1.48387625652359e-25)
(-1.403918049174e-06 -4.24643664457835e-06 1.24481247828907e-26)
(-1.22144046578807e-06 -4.09216985345589e-06 1.22992962901245e-26)
(-1.06349859670545e-06 -3.97704129231647e-06 1.60055516027604e-25)
(-9.26508312911098e-07 -3.88814191580755e-06 3.82112337055621e-25)
(-8.07218094005597e-07 -3.81763195195845e-06 -1.09784996409825e-25)
(-7.02858895614572e-07 -3.76055686274348e-06 1.66723105604584e-25)
(-6.11139527189654e-07 -3.71362076834954e-06 3.65970802056166e-25)
(-5.3013511477243e-07 -3.67453155967564e-06 -8.3827772150687e-26)
(-4.58214720962008e-07 -3.64165274502659e-06 3.41007813440125e-25)
(-3.94016748238809e-07 -3.61382468087266e-06 3.70092018261699e-26)
(-3.36387100100431e-07 -3.5901801739884e-06 2.75045854168377e-25)
(-2.84316932087166e-07 -3.57007813959957e-06 3.6056115428619e-25)
(-2.36937306703307e-07 -3.55302747651607e-06 4.52289120501293e-26)
(-1.93479055250027e-07 -3.538665111313e-06 3.88096591144639e-25)
(-1.5324746466626e-07 -3.52670207087584e-06 2.97219343054449e-26)
(-1.15615407914272e-07 -3.51693030221815e-06 1.43488166005137e-25)
(-8.00036029474142e-08 -3.50918774787065e-06 2.03158982575435e-25)
(-4.5860140290434e-08 -3.50336031430833e-06 1.68104676640585e-26)
(-1.2661823116067e-08 -3.49938805228323e-06 1.45595588146439e-25)
(2.01027158321054e-08 -3.49722972313428e-06 2.52152433024969e-25)
(5.29378851118085e-08 -3.49688530338782e-06 9.99582713971612e-26)
(8.63566626590969e-08 -3.49837883570672e-06 -9.38512531182381e-26)
(1.20890554884654e-07 -3.50178036527939e-06 2.38688191166807e-25)
(1.57094798248551e-07 -3.50720133533459e-06 1.3537805644699e-25)
(1.95568708145753e-07 -3.5148137360363e-06 -1.16953505277211e-25)
(2.36944880472749e-07 -3.52480833977586e-06 1.17387727488491e-25)
(2.81927019771309e-07 -3.53747357302303e-06 -1.17076162154133e-25)
(3.31299210082834e-07 -3.55317816289479e-06 -1.22841626335688e-25)
(3.85943619884845e-07 -3.57241670010839e-06 1.28012897510253e-25)
(4.46858390243408e-07 -3.59583813233835e-06 2.26553070826891e-25)
(5.15208119217267e-07 -3.62433238800096e-06 -2.11542331835066e-25)
(5.92348402137429e-07 -3.65901172031783e-06 -1.3855138169796e-26)
(6.79858384992964e-07 -3.70149522697628e-06 -1.01746769017952e-25)
(7.79621526040046e-07 -3.75413678618334e-06 1.62116486560919e-25)
(8.93869729871935e-07 -3.82022177750427e-06 -2.37431715095323e-25)
(1.02519430259277e-06 -3.90468645018716e-06 -2.31765308544881e-25)
(1.17650519455239e-06 -4.01533517916601e-06 1.603291907599e-25)
(1.35064529533371e-06 -4.16488577136572e-06 -2.21415292722715e-25)
(1.55362255741019e-06 -4.36976907849882e-06 -2.18993011265867e-25)
(1.76025483628576e-06 -4.63133380061382e-06 1.83941971712891e-25)
(2.0006882639822e-06 -4.85206871247837e-06 -2.37237601728673e-25)
(2.41920740942948e-06 -4.99254462277832e-06 -2.78897476867795e-25)
(1.90217043074779e-06 -2.48557131006604e-06 2.74920790235561e-25)
(3.1874537736078e-07 4.78513939824187e-06 -5.80582186433248e-25)
(-2.25939050003302e-07 4.64409808334546e-06 2.10083650427829e-26)
(-1.5654998311242e-06 -2.46546407505676e-06 1.93107301349758e-25)
(-2.04932855257553e-06 -5.16922863552891e-06 2.14498898143688e-26)
(-1.8394327512651e-06 -5.24530963431598e-06 -2.14934069755518e-27)
(-1.65925341608569e-06 -5.08125443068369e-06 -4.1216544777029e-27)
(-1.4944733990628e-06 -4.81332477847735e-06 5.42944890972562e-26)
(-1.31641906762566e-06 -4.59152394062899e-06 6.97290954120198e-27)
(-1.15744454683682e-06 -4.42606385293117e-06 8.37701019932848e-27)
(-1.01577755989105e-06 -4.30089365445167e-06 7.62919905878865e-26)
(-8.90398938623792e-07 -4.20320668852915e-06 1.17608806614336e-25)
(-7.79637839547266e-07 -4.125089384498e-06 -4.18106373738107e-26)
(-6.8171579575256e-07 -4.06146487995542e-06 5.47183021438435e-26)
(-5.94973286195722e-07 -4.00890602900407e-06 9.5032738485285e-26)
(-5.17897411735463e-07 -3.96499277808014e-06 -3.74896583585236e-26)
(-4.49149758161646e-07 -3.92798734127193e-06 9.73542217798938e-26)
(-3.87564222108737e-07 -3.89663060737243e-06 1.53915022334787e-26)
(-3.32116516566224e-07 -3.86998798932673e-06 6.15254585333017e-26)
(-2.81896832977489e-07 -3.84734550332903e-06 1.00816981013038e-25)
(-2.36112599381986e-07 -3.82817173395514e-06 1.929788252467e-26)
(-1.94040549069635e-07 -3.81204948000686e-06 8.71071288123865e-26)
(-1.55030148340156e-07 -3.79866390150396e-06 1.26238077466309e-26)
(-1.1849447284432e-07 -3.78777854279409e-06 3.94553779509459e-26)
(-8.38718788618921e-08 -3.77920665861319e-06 3.42090370569791e-26)
(-5.063804882557e-08 -3.77282577061671e-06 6.61542255277084e-27)
(-1.82927130833301e-08 -3.76855892109429e-06 4.26761663486506e-26)
(1.36582023979284e-08 -3.76636203542758e-06 5.07250987852008e-26)
(4.56970248856732e-08 -3.76622615965297e-06 3.31112108180682e-26)
(7.83181783767553e-08 -3.76819962060952e-06 -2.97673114737043e-26)
(1.12033395294752e-07 -3.77234834250126e-06 4.19967342802651e-26)
(1.47368890787714e-07 -3.77879772153007e-06 2.90636814123541e-26)
(1.84899214967654e-07 -3.78773971157044e-06 -2.39771944207455e-26)
(2.25223800057559e-07 -3.79939283118753e-06 2.09757528299319e-26)
(2.68998084377004e-07 -3.81406825659662e-06 -3.25336736140623e-26)
(3.16955872771179e-07 -3.83219370062098e-06 -3.24891379652452e-26)
(3.69905140518828e-07 -3.85430525126221e-06 3.12909410952193e-26)
(4.28746611241933e-07 -3.88110934866061e-06 3.98741950632016e-26)
(4.94506090644832e-07 -3.91356845826927e-06 -3.1887355954347e-26)
(5.68340655256808e-07 -3.95288301549372e-06 -3.3136855594725e-27)
(6.51553169996196e-07 -4.00077826298016e-06 -9.73600286935449e-27)
(7.45605254234758e-07 -4.05970168211218e-06 9.48106305948734e-26)
(8.5210179615216e-07 -4.13305139878593e-06 -3.50844941600698e-26)
(9.72677572067709e-07 -4.22582544408045e-06 -3.56145261634074e-26)
(1.10873728109971e-06 -4.34578203832499e-06 7.63873705861319e-26)
(1.2607941746827e-06 -4.50537802116121e-06 -3.13225851016994e-26)
(1.42922816401218e-06 -4.72066809527414e-06 -2.89315943075985e-26)
(1.58732008603054e-06 -4.98901263460728e-06 9.18269076359017e-26)
(1.76142172489442e-06 -5.20887367473151e-06 -3.44342800294401e-26)
(2.00440499262558e-06 -5.29782967922049e-06 -4.77032932047269e-26)
(1.53873883078634e-06 -2.43427391115773e-06 6.23430079008737e-26)
(1.94916198550175e-07 4.71495991551423e-06 -8.43342578122069e-26)
(-1.7543316886855e-07 4.85163776737502e-06 2.57761623648978e-26)
(-1.25847259782696e-06 -2.16896589395542e-06 1.15912619967057e-25)
(-1.68969254008036e-06 -5.20114305537034e-06 2.6810933796727e-26)
(-1.6039209102791e-06 -5.36142715173505e-06 1.32286283316325e-26)
(-1.48591533949795e-06 -5.22685823895061e-06 4.89106151533364e-26)
(-1.36661136810094e-06 -4.96564360924592e-06 5.72731557108363e-26)
(-1.22256338953653e-06 -4.74015092510403e-06 1.4443683965842e-26)
(-1.08635820991973e-06 -4.56834339894625e-06 1.69759390570792e-26)
(-9.60784435102286e-07 -4.43615930045721e-06 8.18372931525587e-26)
(-8.47060603308149e-07 -4.33164701385433e-06 8.18305457791501e-26)
(-7.44948080794927e-07 -4.2472391359032e-06 -4.76814574233097e-26)
(-6.53598868932836e-07 -4.17797426778284e-06 6.31340748330796e-27)
(-5.71962227295864e-07 -4.120433201658e-06 3.94043439266025e-26)
(-4.98937319384442e-07 -4.07216097037511e-06 -4.84924312032786e-26)
(-4.33474102305378e-07 -4.03137231781423e-06 7.93575199254138e-26)
(-3.74600836747316e-07 -3.99674930868247e-06 1.58310780572156e-26)
(-3.21434516321585e-07 -3.96730563589831e-06 2.19063272837308e-26)
(-2.73172095654375e-07 -3.94227724377911e-06 6.34053198776359e-26)
(-2.29088883330005e-07 -3.92110182535e-06 2.20296997819277e-26)
(-1.88523195123488e-07 -3.90331172085381e-06 5.60095554129895e-26)
(-1.50870793847496e-07 -3.88858082935786e-06 1.74825588949165e-26)
(-1.15570106637428e-07 -3.87663611559433e-06 4.08290357954892e-26)
(-8.20968586088928e-08 -3.86727970943813e-06 1.24647858336975e-26)
(-4.99481752947221e-08 -3.86037763919777e-06 9.76002139023093e-27)
(-1.8646170849136e-08 -3.85583131772608e-06 4.50327327906474e-26)
(1.22776292933688e-08 -3.85360396047667e-06 2.28345630745086e-26)
(4.32898728755952e-08 -3.85368641808172e-06 3.21957573363836e-26)
(7.48603916260405e-08 -3.85612079672112e-06 -3.40935178990229e-26)
(1.07480734940499e-07 -3.86099166403864e-06 4.37185604162196e-27)
(1.41655277727904e-07 -3.86843265465847e-06 2.15300046584327e-26)
(1.77918521265187e-07 -3.87864598858534e-06 -2.75153090569085e-26)
(2.16838759843693e-07 -3.89188322171469e-06 1.29794727696261e-26)
(2.59034036890591e-07 -3.90847942684087e-06 -4.61219596090164e-26)
(3.05170844170482e-07 -3.92889625736823e-06 -3.81651384026691e-26)
(3.55986326511495e-07 -3.95370141173039e-06 2.74865434000283e-26)
(4.12281071177936e-07 -3.9836496820122e-06 1.13384609703766e-26)
(4.74936332818879e-07 -4.01975771327291e-06 -3.9792395769915e-27)
(5.44913116551648e-07 -4.06326792154434e-06 -3.47500608377819e-27)
(6.23239838659206e-07 -4.11595346253561e-06 -1.32963996448472e-26)
(7.10968624196676e-07 -4.18028229648683e-06 5.62512822264842e-26)
(8.09103074870529e-07 -4.25961687406157e-06 2.92540434844905e-27)
(9.18397377895424e-07 -4.35881091552318e-06 -1.19130587494438e-28)
(1.0389260108633e-06 -4.48520833138101e-06 3.8243524952578e-26)