/*--------------------------------*- C++ -*----------------------------------*\
  =========                 |
  \\      /  F ield         | OpenFOAM: The Open Source CFD Toolbox
   \\    /   O peration     | Website:  https://openfoam.org
    \\  /    A nd           | Version:  10
     \\/     M anipulation  |
\*---------------------------------------------------------------------------*/
FoamFile
{
    format      ascii;
    class       volScalarField;
    location    "1.6";
    object      wallHeatFlux;
}
// * * * * * * * * * * * * * * * * * * * * * * * * * * * * * * * * * * * * * //

dimensions      [1 0 -3 0 0 0 0];

internalField   uniform 0;

boundaryField
{
    back
    {
        type            calculated;
        value           uniform 0;
    }
    bottom
    {
        type            calculated;
        value           nonuniform List<scalar> 
50
(
425.231097156692
447.61511958994
454.697900301625
456.117092279617
456.376209588671
456.423816788695
456.43240552908
456.433569462873
456.433364697174
456.433237415066
456.432885945005
456.43266832967
456.432539747872
456.43234872808
456.432185733853
456.431981683374
456.431905489042
456.431786955498
456.43164061111
456.431555821303
456.431512899389
456.431557848825
456.431616551105
456.431529130295
456.431424102332
456.431443467472
456.431406827232
456.431388016252
456.43145385678
456.431373260085
456.43131180677
456.431360942363
456.43135499915
456.431337733943
456.431342459467
456.43140333533
456.431485892908
456.431542405726
456.431696828821
456.431827752871
456.431969251754
456.432067705014
456.431831993426
456.429631245815
456.418516075379
456.363347852632
456.091123105576
454.663235034016
447.472234311454
425.219326464882
)
;
    }
    left
    {
        type            calculated;
        value           uniform 0;
    }
    front
    {
        type            calculated;
        value           uniform 0;
    }
    right
    {
        type            calculated;
        value           uniform 0;
    }
    top
    {
        type            calculated;
        value           uniform 0;
    }
}


// ************************************************************************* //
