/*--------------------------------*- C++ -*----------------------------------*\
  =========                 |
  \\      /  F ield         | OpenFOAM: The Open Source CFD Toolbox
   \\    /   O peration     | Website:  https://openfoam.org
    \\  /    A nd           | Version:  10
     \\/     M anipulation  |
\*---------------------------------------------------------------------------*/
FoamFile
{
    format      ascii;
    class       volScalarField;
    location    "0";
    object      T;
}
// * * * * * * * * * * * * * * * * * * * * * * * * * * * * * * * * * * * * * //

dimensions      [0 0 0 1 0 0 0];

internalField   uniform 222;

boundaryField
{
    patch0
    {
        type            zeroGradient;
    }
    patch1
    {
        type            zeroGradient;
    }
    patch2
    {
        type            fixedValue;
        value           nonuniform List<scalar> 0();
    }
    patch3
    {
        type            zeroGradient;
    }
    patch4
    {
        type            fixedValue;
        value           nonuniform List<scalar> 
25
(
300.032
300.034666666667
300.036666666667
300.038
300.04
300.034
300.036666666667
300.037333333333
300.04
300.041333333333
300.036
300.038666666667
300.04
300.042
300.044
300.037333333333
300.04
300.041333333333
300.044
300.045333333333
300.04
300.042666666667
300.044
300.046666666667
300.048
)
;
    }
    patch5
    {
        type            zeroGradient;
    }
    procBoundary3to1
    {
        type            processor;
        value           uniform 222;
    }
    procBoundary3to2
    {
        type            processor;
        value           uniform 222;
    }
}


// ************************************************************************* //
