/*--------------------------------*- C++ -*----------------------------------*\
  =========                 |
  \\      /  F ield         | OpenFOAM: The Open Source CFD Toolbox
   \\    /   O peration     | Website:  https://openfoam.org
    \\  /    A nd           | Version:  10
     \\/     M anipulation  |
\*---------------------------------------------------------------------------*/
FoamFile
{
    format      ascii;
    class       volScalarField;
    location    "6.4";
    object      alphat;
}
// * * * * * * * * * * * * * * * * * * * * * * * * * * * * * * * * * * * * * //

dimensions      [1 -1 -1 0 0 0 0];

internalField   nonuniform List<scalar> 
2500
(
8.72507266896016e-15
1.71080899398874e-13
7.29092599833764e-13
1.25767372678284e-12
1.70357948568429e-12
2.05111194052584e-12
2.30231923824847e-12
2.47113035514409e-12
2.57687006400105e-12
2.63878195269515e-12
2.67276763450022e-12
2.69031076500146e-12
2.69885147830338e-12
2.70278421685689e-12
2.70450156944856e-12
2.70521434924753e-12
2.70549593464744e-12
2.70560179150798e-12
2.70563948037915e-12
2.70565196677546e-12
2.70565559673048e-12
2.70565630595184e-12
2.70565615243477e-12
2.7056558143146e-12
2.70565552228539e-12
2.70565532403281e-12
2.70565520577158e-12
2.70565506128811e-12
2.70565455443681e-12
2.7056527356955e-12
2.70564689760905e-12
2.7056295646469e-12
2.70558099836487e-12
2.70545127441635e-12
2.70511980927944e-12
2.7043092828325e-12
2.70241469667696e-12
2.69818958937255e-12
2.68922122117492e-12
2.67115032542972e-12
2.63668425347283e-12
2.57464828342245e-12
2.46959893654225e-12
2.30276037948567e-12
2.05499008811271e-12
1.71187033806493e-12
1.26986701455616e-12
7.41957784324884e-13
1.76558501934728e-13
9.18014825429726e-15
8.64958636714963e-13
4.44955931894741e-11
1.93608631658121e-10
3.34281401874617e-10
4.53210856019838e-10
5.46218625015805e-10
6.13734153213746e-10
6.59331326446239e-10
6.88052866249596e-10
7.04972589426414e-10
7.14320910561856e-10
7.19179266641702e-10
7.21561092381205e-10
7.22665683948602e-10
7.23151514649773e-10
7.23354623746164e-10
7.23435455597604e-10
7.23466075195178e-10
7.23477069346101e-10
7.23480753306608e-10
7.23481847264377e-10
7.23482078620635e-10
7.23482050628832e-10
7.23481963439566e-10
7.23481885796097e-10
7.23481832069405e-10
7.23481798054784e-10
7.23481752679966e-10
7.23481598601347e-10
7.23481057452723e-10
7.23479341023365e-10
7.23474290082816e-10
7.23460239247251e-10
7.23422958838441e-10
7.23328317589449e-10
7.23098377912467e-10
7.22564351518181e-10
7.21381066166931e-10
7.18885478226967e-10
7.13888862538495e-10
7.04418166501305e-10
6.87474097641117e-10
6.58945462164302e-10
6.13877081620957e-10
5.47267602876724e-10
4.55409375226981e-10
3.37483263133037e-10
1.9696474774548e-10
4.58880977286036e-11
9.08231884627153e-13
3.0712362111129e-12
8.00319238101997e-10
2.73475452570613e-07
4.71034407605485e-07
6.36916414632397e-07
7.6621960537528e-07
8.59977174212975e-07
9.2334308581882e-07
9.6334668129898e-07
9.86993053003058e-07
1.00011367408497e-06
1.00696571385376e-06
1.01034270588608e-06
1.01191754387308e-06
1.01261421058907e-06
1.01290719924744e-06
1.01302452128413e-06
1.01306925521925e-06
1.01308543757225e-06
1.01309091541973e-06
1.01309257328705e-06
1.01309294710447e-06
1.01309292832568e-06
1.01309281594906e-06
1.01309271167584e-06
1.01309263774303e-06
1.01309258804468e-06
1.01309251736092e-06
1.01309228439188e-06
1.01309148249971e-06
1.0130889644125e-06
1.01308160350625e-06
1.01306123086618e-06
1.01300742025782e-06
1.0128713994513e-06
1.01254231854075e-06
1.01178126352175e-06
1.01010204725864e-06
1.00657533693343e-06
9.99542992622265e-07
9.86265029252429e-07
9.62591279644498e-07
9.22843764560768e-07
8.60168750758678e-07
7.67588658123403e-07
6.39776707042492e-07
4.75195091492344e-07
2.77829258039541e-07
8.2299546877487e-10
3.20059957219502e-12
5.4388242578432e-12
1.42725090010513e-09
4.88861490150799e-07
8.38339721662136e-07
1.12967304108214e-06
1.35557943158791e-06
1.51880752595679e-06
1.62889801096732e-06
1.69833858496298e-06
1.73938665450978e-06
1.76217886168025e-06
1.77409583369482e-06
1.77997810376478e-06
1.78272624453556e-06
1.7839444360733e-06
1.7844579124687e-06
1.78466403720269e-06
1.7847428520103e-06
1.78477146028861e-06
1.78478119174056e-06
1.78478416416615e-06
1.78478485300625e-06
1.78478483752674e-06
1.78478465425463e-06
1.7847844782266e-06
1.78478435146511e-06
1.784784264337e-06
1.78478413995042e-06
1.78478373688144e-06
1.78478235577211e-06
1.78477802007897e-06
1.78476533790417e-06
1.78473020220611e-06
1.78463729890463e-06
1.78440222059937e-06
1.78383295669351e-06
1.78251537335599e-06
1.77960623614612e-06
1.77349297531896e-06
1.76129702994837e-06
1.73825835733675e-06
1.69715710002309e-06
1.62808696800273e-06
1.5190176867732e-06
1.35753962565552e-06
1.13385193926412e-06
8.44440702144747e-07
4.95204299642414e-07
1.45969301655029e-09
5.62085767434978e-12
7.75838668350649e-12
2.03706166535956e-09
6.95536628960198e-07
1.18799282919334e-06
1.59604308277381e-06
1.91107366067478e-06
2.13803663795864e-06
2.29085596256249e-06
2.38718000154004e-06
2.444121863065e-06
2.47575811086205e-06
2.49231598416216e-06
2.50049991033833e-06
2.50432943936383e-06
2.50603006667116e-06
2.50674835059774e-06
2.50703734996324e-06
2.50714814531106e-06
2.50718849543316e-06
2.50720228894614e-06
2.5072065433533e-06
2.50720755685208e-06
2.5072075623415e-06
2.50720732732966e-06
2.5072070920373e-06
2.50720691915809e-06
2.50720679668056e-06
2.50720662063966e-06
2.50720606187387e-06
2.50720416048011e-06
2.50719819891112e-06
2.50718075575305e-06
2.50713238573152e-06
2.50700434694118e-06
2.50667999765371e-06
2.50589372047835e-06
2.50407210645622e-06
2.50004672690151e-06
2.49158167280977e-06
2.47468319844356e-06
2.44274212166821e-06
2.38572134403585e-06
2.28981611943322e-06
2.13818051366137e-06
1.91325684006456e-06
1.60081252327937e-06
1.19499200011577e-06
7.02800656463459e-07
2.07441167755388e-09
7.97067163053264e-12
9.95560143600211e-12
2.61434636202866e-09
8.89424489067471e-07
1.51368712814506e-06
2.02827048233342e-06
2.4240842885269e-06
2.70856253458747e-06
2.89985019818024e-06
3.02035918502855e-06
3.09160650646176e-06
3.13121439371998e-06
3.15196441606409e-06
3.1622331419338e-06
3.16704534421044e-06
3.16918598688761e-06
3.17009184786231e-06
3.17045711005605e-06
3.17059750097721e-06
3.17064879812987e-06
3.17066642299524e-06
3.17067191639233e-06
3.17067326417688e-06
3.17067331038511e-06
3.17067304238198e-06
3.17067276171648e-06
3.17067255030726e-06
3.17067239467973e-06
3.17067216798156e-06
3.17067146467776e-06
3.17066909547628e-06
3.17066168797289e-06
3.17064002213732e-06
3.17057991049871e-06
3.1704206490632e-06
3.17001680939373e-06
3.16903689962676e-06
3.16676470223164e-06
3.16173976261985e-06
3.15116569414798e-06
3.13004490359045e-06
3.09010166597361e-06
3.01875528484133e-06
2.8986695282203e-06
2.70860675883506e-06
2.42624738835429e-06
2.03312018834182e-06
1.520848875429e-06
8.96879246345629e-07
2.65340203615438e-09
1.01831164857333e-11
1.1986288822963e-11
3.14821846908544e-09
1.06751551769916e-06
1.8109953061438e-06
2.42112538376044e-06
2.88898076610873e-06
3.22457458460079e-06
3.4499936772098e-06
3.59195507536718e-06
3.67590147942043e-06
3.72259717041841e-06
3.74708289915545e-06
3.75921457318517e-06
3.76490771333791e-06
3.76744426295724e-06
3.76851959603193e-06
3.76895408726802e-06
3.76912149811084e-06
3.76918286647737e-06
3.76920405973241e-06
3.76921073690511e-06
3.76921242559326e-06
3.76921253331797e-06
3.76921225079537e-06
3.76921193887045e-06
3.76921169683013e-06
3.76921151045389e-06
3.76921123358707e-06
3.76921039486244e-06
3.76920760565719e-06
3.76919892185151e-06
3.76917354894401e-06
3.76910313959811e-06
3.76891647012788e-06
3.76844274030567e-06
3.76729228639919e-06
3.76462257209124e-06
3.75871448925584e-06
3.74627469597541e-06
3.72141475035786e-06
3.67437870211859e-06
3.59032381701988e-06
3.44876583753915e-06
3.22453277661973e-06
2.89099279319354e-06
2.42573705216987e-06
1.81784309398764e-06
1.0746851782641e-06
3.18686576748809e-09
1.22186255834087e-11
1.38227891353375e-11
3.63163935214337e-09
1.2279273831591e-06
2.07737490843857e-06
2.7718367411482e-06
3.30298893987987e-06
3.68337754320552e-06
3.9386757027253e-06
4.09941896170752e-06
4.19449497869711e-06
4.24741329537104e-06
4.27518630901766e-06
4.28896188757798e-06
4.29543489171448e-06
4.29832320141453e-06
4.29954972825089e-06
4.30004627440833e-06
4.30023804500922e-06
4.3003085644662e-06
4.30033304089986e-06
4.30034083481027e-06
4.30034286684859e-06
4.30034305552355e-06
4.30034277597088e-06
4.30034244607693e-06
4.30034218100718e-06
4.30034196635774e-06
4.30034163973493e-06
4.30034067363022e-06
4.30033750828726e-06
4.30032770633586e-06
4.30029911157249e-06
4.30021977174704e-06
4.30000932596144e-06
4.29947489155525e-06
4.29817608418877e-06
4.29516006271091e-06
4.28848158526309e-06
4.27441243959551e-06
4.24628409473843e-06
4.19304362523474e-06
4.09786465324728e-06
3.93749779799756e-06
3.6833027229563e-06
3.30481495279117e-06
2.77605660360566e-06
2.08365010455482e-06
1.23454036457982e-06
3.66858524206543e-09
1.40529921280811e-11
1.54506794093506e-11
4.06088070999932e-09
1.36978786210361e-06
2.31190621547852e-06
3.0796951454961e-06
3.66568936996393e-06
4.08481738971675e-06
4.3659413090551e-06
4.5429259404869e-06
4.64763810918804e-06
4.70595412005343e-06
4.7365854208761e-06
4.75179440964789e-06
4.7589496161758e-06
4.76214675359198e-06
4.76350656447305e-06
4.76405807331584e-06
4.76427154464393e-06
4.76435028087519e-06
4.76437774262273e-06
4.76438657633984e-06
4.76438894865247e-06
4.76438923524756e-06
4.76438897317158e-06
4.76438863704062e-06
4.76438835582027e-06
4.76438811539017e-06
4.76438773979289e-06
4.76438665408556e-06
4.76438315319315e-06
4.7643723791233e-06
4.76434101188867e-06
4.76425401187867e-06
4.76402317704716e-06
4.76343663821563e-06
4.76201032818556e-06
4.7586962753259e-06
4.75135400213503e-06
4.73587954973118e-06
4.70492999266947e-06
4.64633070333413e-06
4.54153886128799e-06
4.36490986193314e-06
4.0847912433104e-06
3.66736956742022e-06
3.08350054111951e-06
2.31752377111686e-06
1.37573366305454e-06
4.09547575093255e-09
1.56745783771235e-11
1.68663750194286e-11
4.43495223229829e-09
1.49305375120655e-06
2.51495645146629e-06
3.34558772641412e-06
3.9784571118839e-06
4.43065663142926e-06
4.73382546517477e-06
4.924684278258e-06
5.03763998873939e-06
5.10058283510754e-06
5.13367024926995e-06
5.15011449219516e-06
5.15785950177912e-06
5.16132460890172e-06
5.16280054276398e-06
5.1634001633479e-06
5.16363274042223e-06
5.1637187681326e-06
5.16374891239186e-06
5.16375870064776e-06
5.16376140542925e-06
5.16376180486885e-06
5.16376156947607e-06
5.16376123670084e-06
5.16376094528122e-06
5.16376068162815e-06
5.16376025851633e-06
5.16375906130663e-06
5.16375526282366e-06
5.16374365061019e-06
5.16370992192721e-06
5.16361642443425e-06
5.16336830823985e-06
5.16273757818294e-06
5.16120300709778e-06
5.15763559530678e-06
5.14972840927995e-06
5.13305691289958e-06
5.09970256101281e-06
5.03653307469592e-06
4.92353984522871e-06
4.73303151837916e-06
4.43077717785118e-06
3.98008347337695e-06
3.349050850174e-06
2.51995920086198e-06
1.49834201469114e-06
4.46704035845709e-09
1.70820261501037e-11
1.80749257491154e-11
4.7550583246761e-09
1.59833353480541e-06
2.68787481866741e-06
3.57159421592015e-06
4.24398808456006e-06
4.72405470155279e-06
5.04580464203162e-06
5.24836969943978e-06
5.36829214565949e-06
5.43515347774696e-06
5.47032626634678e-06
5.48782236680224e-06
5.4960712572062e-06
5.49976613121817e-06
5.5013420399197e-06
5.50198327681115e-06
5.50223247560236e-06
5.50232489675269e-06
5.50235742238336e-06
5.50236807576148e-06
5.50237109770835e-06
5.50237161387822e-06
5.50237141806295e-06
5.50237109629738e-06
5.50237079968884e-06
5.5023705154688e-06
5.50237004715279e-06
5.50236874718668e-06
5.50236468693613e-06
5.50235235887762e-06
5.50231664057936e-06
5.50221769605964e-06
5.50195510933748e-06
5.50128736052287e-06
5.49966201102252e-06
5.49588192331554e-06
5.4875000630079e-06
5.46982191129982e-06
5.43444398691891e-06
5.36742712099899e-06
5.24752757958345e-06
5.04532880606084e-06
4.7244239953503e-06
4.24568133687115e-06
3.57484685892951e-06
2.69238990003058e-06
1.60305582527721e-06
4.78483758533045e-09
1.82820740541462e-11
1.90880011299855e-11
5.02410539501332e-09
1.68673062286262e-06
2.83273626233162e-06
3.76065840914062e-06
4.46592176160347e-06
4.96915945084701e-06
5.30636914919507e-06
5.51868639922471e-06
5.64442309945013e-06
5.71456201708699e-06
5.7514836775177e-06
5.76986452948451e-06
5.77853865538958e-06
5.78242814628494e-06
5.78408908251446e-06
5.78476588020083e-06
5.78502936380107e-06
5.78512732245486e-06
5.78516193582938e-06
5.78517336423353e-06
5.78517668183523e-06
5.78517731611808e-06
5.78517716672072e-06
5.78517686156041e-06
5.78517656385685e-06
5.78517626184095e-06
5.78517575150151e-06
5.78517435826774e-06
5.78517007020102e-06
5.78515713728887e-06
5.78511976220734e-06
5.78501630759304e-06
5.78474175767273e-06
5.78404339784429e-06
5.78234291943236e-06
5.77838664490548e-06
5.76961118942009e-06
5.75109769830183e-06
5.71403963372927e-06
5.64382714016437e-06
5.51818989860675e-06
5.30627731821344e-06
4.96987266117631e-06
4.46781081132174e-06
3.76386052647198e-06
2.83693642461671e-06
1.69102634399157e-06
5.05199976590801e-09
1.92875623156678e-11
1.99220357221745e-11
5.2462451577305e-09
1.75970241512115e-06
2.95211920294663e-06
3.91630959353153e-06
4.64852584299206e-06
5.17076882149815e-06
5.52067089746686e-06
5.74100665636872e-06
5.87153336395207e-06
5.94437885317877e-06
5.98274862047996e-06
6.00186429707104e-06
6.01089278812582e-06
6.01494506197534e-06
6.01667741056201e-06
6.01738421556384e-06
6.01765982223612e-06
6.01776251673188e-06
6.01779893684894e-06
6.01781105036059e-06
6.01781463898082e-06
6.01781538831992e-06
6.01781528839077e-06
6.01781500361483e-06
6.01781470804777e-06
6.01781439107416e-06
6.01781384263713e-06
6.01781236624794e-06
6.01780788244696e-06
6.01779444459699e-06
6.01775570718633e-06
6.01764856692659e-06
6.0173642584213e-06
6.01664092739167e-06
6.01487911624152e-06
6.01077887685021e-06
6.00168153246511e-06
5.98248440350978e-06
5.94405060261386e-06
5.87122056669457e-06
5.74088267285751e-06
5.5210111953389e-06
5.17190565049114e-06
4.65073111915146e-06
3.91962353779167e-06
2.95619085117209e-06
1.76373021397691e-06
5.27279249021916e-09
2.01156229219354e-11
2.05965076897535e-11
5.42644353787487e-09
1.81893008828036e-06
3.04890473574273e-06
4.042414160752e-06
4.79641720666008e-06
5.33403270190623e-06
5.69421369504689e-06
5.9210543345422e-06
6.05547508582002e-06
6.130526343637e-06
6.17007958707662e-06
6.18979767803369e-06
6.19911767542275e-06
6.20330435976155e-06
6.20509591864137e-06
6.20582772128896e-06
6.20611348482223e-06
6.2062201773584e-06
6.20625814033952e-06
6.20627085052019e-06
6.20627468270306e-06
6.20627554067499e-06
6.20627549148428e-06
6.20627522936494e-06
6.20627493843695e-06
6.20627460938106e-06
6.20627402736545e-06
6.20627247834487e-06
6.20626782888008e-06
6.20625397511658e-06
6.20621413251353e-06
6.20610402164164e-06
6.20581186367319e-06
6.20506844810504e-06
6.20325727359547e-06
6.19904106496572e-06
6.18968421469964e-06
6.16993556719896e-06
6.13039135197463e-06
6.05544791020569e-06
5.92131405577089e-06
5.69501499132609e-06
5.33565169846138e-06
4.79903870812916e-06
4.04598555724281e-06
3.05302372843802e-06
1.82284566607381e-06
5.45220477869198e-09
2.07860310836106e-11
2.11323748434062e-11
5.57008216346901e-09
1.86619972307969e-06
3.12609576579107e-06
4.14295338567042e-06
4.91431302727952e-06
5.46418731669818e-06
5.83257740449544e-06
6.06462295516689e-06
6.20216662028935e-06
6.27899144725924e-06
6.31949904556938e-06
6.33970447977804e-06
6.34926112555332e-06
6.35355734186817e-06
6.35539735404626e-06
6.35614971009286e-06
6.35644387235592e-06
6.3565538958117e-06
6.35659315864106e-06
6.3566063808947e-06
6.35661042798884e-06
6.3566113861128e-06
6.35661138670635e-06
6.3566111481629e-06
6.35661086373375e-06
6.3566105254335e-06
6.35660991472137e-06
6.35660830369179e-06
6.35660351637261e-06
6.35658932501805e-06
6.35654859859408e-06
6.35643612779172e-06
6.3561377473533e-06
6.35537841255802e-06
6.35352808777339e-06
6.34921982713618e-06
6.33965682699176e-06
6.31946976722696e-06
6.27904243058918e-06
6.20241764287501e-06
6.0652633438358e-06
5.83384948995191e-06
5.46632323132447e-06
4.91742326482361e-06
4.14689885254491e-06
3.13041117938661e-06
1.87014038283364e-06
5.59557490358664e-09
2.1319733702556e-11
2.15507263957016e-11
5.68260967137719e-09
1.90329899493517e-06
3.1866612512483e-06
4.2218328424105e-06
5.00681764000145e-06
5.56632779827502e-06
5.94118166329539e-06
6.17733408777302e-06
6.31734781944191e-06
6.39557927769704e-06
6.43684606643802e-06
6.45744046092625e-06
6.46718665706175e-06
6.4715709465857e-06
6.47345008500846e-06
6.47421911742525e-06
6.47452013298413e-06
6.47463289470344e-06
6.47467323780044e-06
6.47468689320101e-06
6.47469112674679e-06
6.4746921751463e-06
6.47469222282123e-06
6.4746920077292e-06
6.47469173112791e-06
6.47469138631735e-06
6.47469075193346e-06
6.47468908929988e-06
6.47468418943393e-06
6.47466972843121e-06
6.47462830592084e-06
6.47451398850491e-06
6.47421074951654e-06
6.47343898678081e-06
6.47155807896461e-06
6.46717785025715e-06
6.45745354901862e-06
6.43692322565237e-06
6.39580408245438e-06
6.31786173954921e-06
6.17834006175075e-06
5.94291694089558e-06
5.56899175375785e-06
5.01045913093505e-06
4.22623408508285e-06
3.19128659741336e-06
1.90737462641953e-06
5.70826626967689e-09
2.17376002620098e-11
2.18717064215896e-11
5.76925936113425e-09
1.93193382287927e-06
3.23341155320329e-06
4.28273048910277e-06
5.07825292899783e-06
5.64522727358471e-06
6.02509789439784e-06
6.26444504477914e-06
6.40638518116809e-06
6.48571680889855e-06
6.52757924458219e-06
6.54847984790998e-06
6.55837581510958e-06
6.56282997036076e-06
6.56474028043414e-06
6.5655226630233e-06
6.56582919626971e-06
6.56594417888099e-06
6.56598540749037e-06
6.56599942394563e-06
6.56600381658539e-06
6.56600494473585e-06
6.56600503586156e-06
6.56600484331363e-06
6.56600457543841e-06
6.56600422668039e-06
6.56600357357481e-06
6.56600186921854e-06
6.56599687941949e-06
6.56598220682342e-06
6.56594024500478e-06
6.56582450557863e-06
6.56551753266925e-06
6.56473621941642e-06
6.56283179340238e-06
6.55839617267763e-06
6.54854761672385e-06
6.52775267862588e-06
6.48609994211243e-06
6.40714096846445e-06
6.26579216078629e-06
6.02727426654689e-06
5.64840924561626e-06
5.08243949869018e-06
4.28763378190297e-06
3.23842235732927e-06
1.93622349190617e-06
5.79540731465564e-09
2.20594398489827e-11
2.21137368492454e-11
5.83484199913719e-09
1.95366732703095e-06
3.26890806814755e-06
4.32898719737222e-06
5.13253651167787e-06
5.70520713654584e-06
6.08891457627768e-06
6.33071105621547e-06
6.47413216564332e-06
6.55431211729772e-06
6.59663534664839e-06
6.61777366780328e-06
6.62778634577642e-06
6.63229516589055e-06
6.63422997301886e-06
6.63502289864031e-06
6.63533381442386e-06
6.63545057399981e-06
6.63549251855733e-06
6.63550683166058e-06
6.63551135787505e-06
6.63551255542198e-06
6.63551268597821e-06
6.63551251438262e-06
6.63551225579423e-06
6.63551190543403e-06
6.63551123831135e-06
6.63550950135333e-06
6.63550444145893e-06
6.6354896061322e-06
6.6354472339723e-06
6.63533041831812e-06
6.63502062403891e-06
6.63423209317236e-06
6.63230987850433e-06
6.62783231740036e-06
6.61788958993296e-06
6.59689393732893e-06
6.55483619772804e-06
6.47510521642414e-06
6.33236845373889e-06
6.09149910931528e-06
5.70888007185717e-06
5.13725741097852e-06
4.33440694663737e-06
3.27434435065105e-06
1.95822027448929e-06
5.86170238175808e-09
2.23033029085194e-11
2.22930328835852e-11
5.88361318746271e-09
1.9698808534109e-06
3.2954065501812e-06
4.36353894106312e-06
5.17310688499919e-06
5.75005770444587e-06
6.136655029866e-06
6.38030123896576e-06
6.52484403821794e-06
6.60566854985498e-06
6.64834309133354e-06
6.66966331607354e-06
6.67976565285837e-06
6.68431664375465e-06
6.68627043470292e-06
6.68707157159513e-06
6.68738592059691e-06
6.68750408254501e-06
6.68754659804482e-06
6.68756115146797e-06
6.68756578799787e-06
6.68756704552232e-06
6.68756721177656e-06
6.68756705859378e-06
6.68756680957234e-06
6.68756645969347e-06
6.68756578286594e-06
6.68756402149575e-06
6.68755890858325e-06
6.68754395105227e-06
6.6875012731679e-06
6.68738365887719e-06
6.68707177282691e-06
6.6862778872553e-06
6.68434245886668e-06
6.67983370185055e-06
6.66982084143592e-06
6.64867555177411e-06
6.60631561530984e-06
6.5260082089202e-06
6.38223459419047e-06
6.13960795335276e-06
5.75418255541491e-06
5.17833265381107e-06
4.36946391469631e-06
3.30127861593896e-06
1.97472055761043e-06
5.91131207957522e-09
2.24850556764618e-11
2.24233740156665e-11
5.91920674063953e-09
1.98175456660857e-06
3.31483020294817e-06
4.38888578273361e-06
5.2028900935907e-06
5.78300348234388e-06
6.17174176206454e-06
6.41676230473957e-06
6.56214113685149e-06
6.64344769577788e-06
6.68638593270373e-06
6.70784322693663e-06
6.71801340457505e-06
6.72259644534095e-06
6.72456473261039e-06
6.72537217256024e-06
6.72568917290148e-06
6.72580842612539e-06
6.72585139068587e-06
6.72586613617647e-06
6.72587086251137e-06
6.72587217046655e-06
6.7258723674557e-06
6.72587223234392e-06
6.72587199306016e-06
6.72587164547148e-06
6.72587096277328e-06
6.72586918415549e-06
6.72586403267668e-06
6.72584898613139e-06
6.72580608641838e-06
6.72568789376652e-06
6.7253744922445e-06
6.72457672080801e-06
6.72263168372617e-06
6.7181001962648e-06
6.70803614274502e-06
6.68678145944798e-06
6.64420032010483e-06
6.56347054963612e-06
6.4189365804096e-06
6.17502040773423e-06
5.78753449720713e-06
5.20857917489835e-06
4.39528667688798e-06
3.32112622672974e-06
1.98688456505012e-06
5.94779455275999e-09
2.26181894600148e-11
2.25160755273623e-11
5.94462054234081e-09
1.99026367492826e-06
3.32876648534562e-06
4.40709014961063e-06
5.22429945836831e-06
5.80670397301126e-06
6.19699793970809e-06
6.44302037075991e-06
6.58901081308671e-06
6.67067135151297e-06
6.71380400718742e-06
6.73536279377416e-06
6.74558343199368e-06
6.75019042659948e-06
6.75216960417707e-06
6.75298180603024e-06
6.75330082248033e-06
6.75342091232698e-06
6.75346422512742e-06
6.75347912214337e-06
6.75348392096027e-06
6.75348527063239e-06
6.75348549457451e-06
6.75348537624883e-06
6.7534851467355e-06
6.75348480294971e-06
6.75348411767784e-06
6.75348232792144e-06
6.75347714990573e-06
6.75346204127001e-06
6.75341898654773e-06
6.75330038918762e-06
6.75298592417888e-06
6.75218541586604e-06
6.75023358607807e-06
6.74568597485438e-06
6.73558549957247e-06
6.71425279081059e-06
6.67151354565327e-06
6.59048136425492e-06
6.44540220594673e-06
6.2005603141618e-06
5.81159371043241e-06
5.23040474348547e-06
4.41392738205996e-06
3.33546061489061e-06
1.99567402825772e-06
5.97409477824021e-09
2.27138117848673e-11
2.25800981799989e-11
5.96223921197542e-09
1.99618568600139e-06
3.33848056895272e-06
4.41979562286807e-06
5.23925843348602e-06
5.82327934844825e-06
6.21467484110057e-06
6.46140944125882e-06
6.60783645698901e-06
6.68975080519981e-06
6.73302352787618e-06
6.75465580301826e-06
6.76491317355193e-06
6.76953770325405e-06
6.771524900667e-06
6.77234063216265e-06
6.77266115421472e-06
6.77278187474593e-06
6.77282545356782e-06
6.77284046866628e-06
6.77284532566159e-06
6.77284670990248e-06
6.77284695714773e-06
6.77284685415391e-06
6.7728466343289e-06
6.77284629556525e-06
6.77284561045982e-06
6.77284381464819e-06
6.77283861998444e-06
6.77282347102995e-06
6.7727803145894e-06
6.77266144976692e-06
6.77234627645189e-06
6.77154393075303e-06
6.76958750671597e-06
6.76502891852588e-06
6.75490350818485e-06
6.73351712912555e-06
6.69066870128079e-06
6.60942700161111e-06
6.46396909596057e-06
6.21848263876719e-06
5.82848305333504e-06
5.24573315289187e-06
4.42702653741777e-06
3.34554058956491e-06
2.00185923264503e-06
5.99256722112358e-09
2.27807609218727e-11
2.26222359022827e-11
5.97387820680223e-09
2.00011412731335e-06
3.34493842298945e-06
4.42825747738422e-06
5.24923663534359e-06
5.83435023655658e-06
6.22649403732294e-06
6.47371500856379e-06
6.62044188034989e-06
6.70253162006095e-06
6.74590175660747e-06
6.76758548802442e-06
6.77786876111607e-06
6.78250574802379e-06
6.78449868752721e-06
6.78531696762444e-06
6.78563858734585e-06
6.78575977329405e-06
6.7858035518037e-06
6.78581865781641e-06
6.78582356135137e-06
6.78582497436042e-06
6.78582524166321e-06
6.78582515258288e-06
6.78582494226703e-06
6.78582460944079e-06
6.78582392668112e-06
6.78582212893e-06
6.78581692567223e-06
6.78580175411012e-06
6.78575853908626e-06
6.78563951719119e-06
6.78532391953783e-06
6.78452045174971e-06
6.78256117356518e-06
6.77799566549994e-06
6.76785434244535e-06
6.74643336328896e-06
6.7035139550456e-06
6.62213510087395e-06
6.47642784000061e-06
6.23051500428177e-06
5.83982937596649e-06
5.25603924055407e-06
4.43584244007843e-06
3.35233235544371e-06
2.00603195677984e-06
6.00501756467872e-09
2.28257879743489e-11
2.26473289900074e-11
5.98083576133539e-09
2.00247463233914e-06
3.34883319263039e-06
4.43337703951974e-06
5.25528999900114e-06
5.84108183221976e-06
6.23369403326804e-06
6.48122221022643e-06
6.62814032370635e-06
6.71034308841085e-06
6.75377667609668e-06
6.77549430086698e-06
6.78579483411562e-06
6.79044022136445e-06
6.79243708105905e-06
6.79325712409907e-06
6.79357951441725e-06
6.79370103314693e-06
6.79374495808637e-06
6.79376013319828e-06
6.79376507385403e-06
6.79376651090523e-06
6.79376679573136e-06
6.79376671932367e-06
6.79376651829071e-06
6.79376619203012e-06
6.79376551325441e-06
6.79376371679706e-06
6.79375851149857e-06
6.79374333205293e-06
6.79370009459858e-06
6.79358100803057e-06
6.79326522239479e-06
6.7924612237037e-06
6.79050051934154e-06
6.78593139861692e-06
6.7757814732617e-06
6.75434126296162e-06
6.71138151735386e-06
6.6299233170013e-06
6.48406970669495e-06
6.2379036771247e-06
5.84680672505159e-06
5.26238787696175e-06
4.44128416272526e-06
3.35653448262092e-06
2.00862044890563e-06
6.01275086709467e-09
2.28537579083322e-11
2.26584611804934e-11
5.98394175977351e-09
2.00354005572086e-06
3.35060968379956e-06
4.43573323390271e-06
5.258097428429e-06
5.84422405597394e-06
6.23707269591986e-06
6.48475963654496e-06
6.63177905132546e-06
6.71404325617206e-06
6.75751223176375e-06
6.77924926020295e-06
6.78955993763578e-06
6.79421039346502e-06
6.79620968253814e-06
6.79703084940206e-06
6.79735374707704e-06
6.79747549407242e-06
6.79751952524596e-06
6.79753475432517e-06
6.79753972638982e-06
6.79754118506554e-06
6.79754148627856e-06
6.79754142218878e-06
6.7975412302376e-06
6.79754091052607e-06
6.79754023607714e-06
6.79753844215862e-06
6.79753323854083e-06
6.79751806185194e-06
6.79747483149054e-06
6.7973557597481e-06
6.79703999299314e-06
6.79623598160123e-06
6.79427509663569e-06
6.78970522745809e-06
6.77955298287465e-06
6.75810665435155e-06
6.71513254265779e-06
6.63364370377267e-06
6.48773009530708e-06
6.24145543840996e-06
5.85017568733104e-06
5.26546950378732e-06
4.44394169837244e-06
3.35860083838603e-06
2.00990327989306e-06
6.01661591755072e-09
2.28678308188122e-11
2.26571047088112e-11
5.9835938899838e-09
2.00344188705056e-06
3.35048301870932e-06
4.43560681102442e-06
5.25798896682287e-06
5.8441423155355e-06
6.23701962216989e-06
6.48473263850853e-06
6.63177317208533e-06
6.71405293821556e-06
6.7575324648719e-06
6.77927613993264e-06
6.78959073114271e-06
6.7942433569711e-06
6.7962437884789e-06
6.79706553317052e-06
6.79738871690426e-06
6.79751060678959e-06
6.7975547132164e-06
6.79756998599625e-06
6.79757498657549e-06
6.79757646617875e-06
6.79757678375358e-06
6.79757673205498e-06
6.79757654891608e-06
6.79757623518388e-06
6.79757556437321e-06
6.79757377273182e-06
6.79756857256534e-06
6.79755340687708e-06
6.79751021020927e-06
6.79739122871888e-06
6.79707567997611e-06
6.79627215447329e-06
6.79431227964626e-06
6.78974437672118e-06
6.77959571450838e-06
6.75815547805644e-06
6.71519099189405e-06
6.63371619204676e-06
6.48782130924666e-06
6.2415691470224e-06
5.85031300482894e-06
5.26562681493802e-06
4.44410851389482e-06
3.35875771787817e-06
2.01001968255161e-06
6.01703816509858e-09
2.28695953684475e-11
2.26432111879398e-11
5.97978093463395e-09
2.00217717328101e-06
3.3484491713036e-06
4.43299354302469e-06
5.254960862011e-06
5.8408338225678e-06
6.233533255573e-06
6.48114093090938e-06
6.62812353255741e-06
6.71037387045078e-06
6.75383975995641e-06
6.77557774310798e-06
6.78589026977085e-06
6.79054230807299e-06
6.79254266863807e-06
6.79336448098354e-06
6.79368774570757e-06
6.79380969985233e-06
6.79385385299693e-06
6.79386915986227e-06
6.79387418604928e-06
6.79387568568658e-06
6.79387601929742e-06
6.79387597974954e-06
6.79387580498208e-06
6.79387549661406e-06
6.79387482885391e-06
6.79387303955244e-06
6.79386784533486e-06
6.7938527004875e-06
6.7938095676629e-06
6.79369075977876e-06
6.79337564554622e-06
6.79257314119707e-06
6.7906155409425e-06
6.78605245858432e-06
6.77591352773007e-06
6.75449200034691e-06
6.71156174587888e-06
6.63014650575502e-06
6.48435010360336e-06
6.23825264595987e-06
5.84722743642594e-06
5.26286901703705e-06
4.44179349369223e-06
3.35701265648006e-06
2.00897459084924e-06
6.01403438069465e-09
2.28591206277532e-11
2.26152325118966e-11
5.97208728447029e-09
1.99960934033544e-06
3.3442857204094e-06
4.42760473303607e-06
5.24867585947615e-06
5.83392773711306e-06
6.22622093144518e-06
6.47357857560702e-06
6.62041666719891e-06
6.70258866569307e-06
6.74601477057758e-06
6.76773383060153e-06
6.77803793939236e-06
6.78268648837059e-06
6.78468551431814e-06
6.78550686846924e-06
6.7858300047329e-06
6.78595194323099e-06
6.78599611392247e-06
6.78601144470509e-06
6.78601649308435e-06
6.78601801143959e-06
6.78601836036345e-06
6.78601833242173e-06
6.78601816547201e-06
6.78601786192324e-06
6.78601719692341e-06
6.78601541067096e-06
6.7860102262322e-06
6.78599511496164e-06
6.78595208280649e-06
6.78583354773585e-06
6.78551912207248e-06
6.78471826112887e-06
6.78276439462571e-06
6.77820940597016e-06
6.76808721753064e-06
6.74669871043671e-06
6.70383046768621e-06
6.62252596875877e-06
6.47691740769071e-06
6.23112236678373e-06
5.84055921526766e-06
5.25687113366088e-06
4.43672013261681e-06
3.35315365711686e-06
2.00663829822535e-06
6.00721303954078e-09
2.28349724526786e-11
2.25700352344902e-11
5.95967204924208e-09
1.9954625002026e-06