/*--------------------------------*- C++ -*----------------------------------*\
  =========                 |
  \\      /  F ield         | OpenFOAM: The Open Source CFD Toolbox
   \\    /   O peration     | Website:  https://openfoam.org
    \\  /    A nd           | Version:  10
     \\/     M anipulation  |
\*---------------------------------------------------------------------------*/
FoamFile
{
    format      ascii;
    class       volScalarField;
    location    "6.4";
    object      h;
}
// * * * * * * * * * * * * * * * * * * * * * * * * * * * * * * * * * * * * * //

dimensions      [0 2 -2 0 0 0 0];

internalField   nonuniform List<scalar> 
2500
(
6428.15848690354
6421.78307194054
6408.97827216172
6399.89131699846
6394.46551255032
6391.41901762887
6389.76656643939
6388.8990217861
6388.4609752949
6388.25017307284
6388.15198894292
6388.10846945503
6388.08994659662
6388.08176130279
6388.07798024395
6388.07581581536
6388.0748272612
6388.0739527041
6388.07307707283
6388.07247437541
6388.0719679755
6388.07153378834
6388.07117835892
6388.0709577816
6388.07073322
6388.07054613565
6388.07047817144
6388.07045588581
6388.07049257822
6388.07060150947
6388.07079342496
6388.07115175122
6388.07159478874
6388.07222276575
6388.07318886278
6388.07497558133
6388.07876666659
6388.08722764162
6388.10754787645
6388.15341183149
6388.25486711328
6388.47103471024
6388.91303748117
6389.78051704941
6391.42580981579
6394.45185157721
6399.86409463644
6408.99525476577
6421.90467781077
6428.04337019561
5472.30216881554
5440.17619178096
5403.29748044796
5377.58460278338
5361.84373681997
5352.70849927517
5347.57318029145
5344.78017762058
5343.32038332708
5342.59122786082
5342.24322582793
5342.08488865301
5342.01610558924
5341.98722881589
5341.97540303675
5341.97049182838
5341.96852140462
5341.96751192178
5341.9668164632
5341.96635348841
5341.96597810234
5341.96564673852
5341.9653694954
5341.96518179949
5341.96501439649
5341.96487307016
5341.96480281882
5341.964762846
5341.96475158366
5341.96479524481
5341.96490696769
5341.96515836419
5341.96566468273
5341.96667246861
5341.96884240386
5341.97409445835
5341.98706482892
5342.01843290072
5342.09225281179
5342.2584439941
5342.61750579156
5343.36005262336
5344.82960070877
5347.61902635073
5352.72586772533
5361.80766626453
5377.52946083411
5403.40484414072
5440.6596114101
5471.92585542187
4509.75102841518
4455.51734996817
4403.81834230044
4368.91369361319
4347.74410872167
4335.50762769584
4328.639733788
4324.90315559683
4322.94633896326
4321.96546974301
4321.49584298344
4321.28136959617
4321.18790110298
4321.14883841171
4321.13310245885
4321.12690866114
4321.12455043931
4321.12356360197
4321.1230441508
4321.12273347996
4321.12249064765
4321.12226684964
4321.12207182684
4321.12193561608
4321.12182488701
4321.1217299212
4321.12167417535
4321.12163233987
4321.12159797757
4321.12159243446
4321.12163435076
4321.12179740165
4321.12228969136
4321.12343098442
4321.1261075191
4321.13293508847
4321.15020623446
4321.19241401153
4321.29172000568
4321.51541410949
4321.99798336415
4322.99397568165
4324.9617372028
4328.69374976338
4335.52914084365
4347.71364397109
4368.9024497046
4404.11853463633
4456.53785071029
4510.20557382092
3665.1715363302
3601.82755600528
3549.17196855967
3515.0014626589
3494.89091282215
3483.58031070983
3477.38511701652
3474.08298098002
3472.38225921743
3471.54107393576
3471.14276698841
3470.96252534818
3470.88460298029
3470.8523315738
3470.83949142093
3470.83455945068
3470.83274446185
3470.83205385866
3470.831743437
3470.83157554866
3470.83144470696
3470.83131251295
3470.8311884223
3470.83110049547
3470.83103535617
3470.83097878205
3470.83094148572
3470.83090701998
3470.83086855132
3470.83084636685
3470.83083726881
3470.83088340643
3470.83122642224
3470.83209693953
3470.83414900447
3470.83953156027
3470.85341365453
3470.88782277889
3470.9697094364
3471.1563685974
3471.56398924952
3472.41658506372
3474.1267826451
3477.42864032648
3483.60613416724
3494.89684398797
3515.08639448782
3549.68343580249
3603.32278581678
3666.9322182973
3005.03304556213
2945.54017396875
2900.82106882309
2872.9171507343
2857.00737046231
2848.31429417148
2843.67197852304
2841.24797096089
2840.01913639725
2839.41849147425
2839.13657680839
2839.00983390392
2838.95531787884
2838.93285584812
2838.92398500597
2838.92063347713
2838.91943834561
2838.91901986752
2838.91886016395
2838.91878822558
2838.91873349807
2838.91866751325
2838.91859680452
2838.91854618237
2838.91851316485
2838.91848419459
2838.91846265303
2838.91843845495
2838.9184062564
2838.91837983109
2838.91835285216
2838.91833374871
2838.91853245107
2838.91910023832
2838.92043772065
2838.92403292587
2838.93344229059
2838.95700539419
2839.01357390845
2839.1436967632
2839.43067066559
2840.03781268318
2841.27259155632
2843.69787109463
2848.33397643756
2857.03157025954
2873.05208550524
2901.41426042958
2947.22729761766
3007.74824139745
2538.4110154789
2490.6459344501
2457.50459847774
2437.58101365733
2426.56964632573
2420.72152403473
2417.67483484769
2416.11497645276
2415.33557706265
2414.95842331591
2414.78258502587
2414.70386628944
2414.67009980806
2414.65622262977
2414.65076795027
2414.64873349277
2414.64803040728
2414.64780449552
2414.64773472437
2414.64771515197
2414.64770319048
2414.64767841576
2414.64764282913
2414.64761708479
2414.64760377238
2414.64759166463
2414.6475808198
2414.64756585223
2414.6475430943
2414.64751972491
2414.64748939765
2414.64745010428
2414.64755058118
2414.64787547415
2414.64865184011
2414.65079464794
2414.65646854966
2414.67078139279
2414.7053622883
2414.78543333925
2414.96335539474
2415.34329669126
2416.12533527766
2417.6858456884
2420.73104963138
2426.59229080017
2437.71033812994
2458.04255827377
2492.21028513567
2541.38796541133
2236.69067217611
2202.80743542347
2180.81679501589
2168.04989253225
2161.20094671411
2157.66121614338
2155.86044405615
2154.95551828177
2154.50930269857
2154.29521449955
2154.19589586263
2154.15154181245
2154.1325348332
2154.1247297817
2154.12167132483
2154.12054257759
2154.12016347997
2154.12005593522
2154.12003653027
2154.12003532122
2154.12003765477
2154.12003539991
2154.12002029924
2154.12000923727
2154.12000642656
2154.12000281327
2154.11999805038
2154.11998982196
2154.11997553614
2154.11995818046
2154.11993308155
2154.11989713391
2154.11993957025
2154.1201050716
2154.12051662215
2154.12168600381
2154.12481081663
2154.1327319238
2154.15195331365
2154.19665824018
2154.29653526782
2154.51138782556
2154.95819093183
2155.86269559747
2157.66259593099
2161.21359014105
2168.14395096307
2181.22426905291
2204.04946433812
2239.33890183704
2056.56143868548
2034.8742974019
2021.5827166465
2014.11324986881
2010.2174622564
2008.25541488886
2007.27968561816
2006.79799007704
2006.56335085479
2006.45159716472
2006.39993971708
2006.37689458746
2006.36701573886
2006.36295756267
2006.36137073115
2006.36079053351
2006.36060272449
2006.36055977377
2006.36055970706
2006.36056443814
2006.36056818238
2006.36057000552
2006.36056619841
2006.36056286676
2006.36056463775
2006.36056443
2006.36056261226
2006.36055852705
2006.36055029957
2006.36053892999
2006.36052170047
2006.36049745659
2006.36050908243
2006.36058355241
2006.36078786406
2006.36138144875
2006.36297847785
2006.36703859209
2006.37691657898
2006.39994998217
2006.45159296865
2006.56330609797
2006.79765331268
2007.27831912709
2008.25264049374
2010.22091159386
2014.16886394896
2021.850268657
2035.74250535124
2058.58535320175
1956.49434211909
1943.78326042511
1936.3719229623
1932.33149309004
1930.27929534478
1929.2707159044
1928.77992197974
1928.54171255654
1928.42699724369
1928.37270956753
1928.34767929225
1928.33651258866
1928.33171932599
1928.32974797479
1928.32897833819
1928.32869929225
1928.32861392605
1928.32859958722
1928.32860327923
1928.32860858896
1928.32861217231
1928.32861446194
1928.32861464967
1928.32861497649
1928.32861677671
1928.32861740668
1928.32861687711
1928.32861479317
1928.32861034548
1928.32860359055
1928.32859320002
1928.32857987466
1928.3285799374
1928.32860929408
1928.328704391
1928.32898744516
1928.32975322452
1928.33170281321
1928.33645115705
1928.3475334318
1928.37242719507
1928.42649007145
1928.54072795807
1928.77784513991
1929.26695169221
1930.27764835117
1932.35873007097
1936.52783285981
1944.32834466863
1957.86634785124
1904.41929161804
1897.52066496543
1893.67042957135
1891.63000953627
1890.61915304308
1890.13370143686
1889.90232785308
1889.79185443341
1889.73922781452
1889.71446446419
1889.70306664663
1889.69797737792
1889.69578829908
1889.69488646569
1889.69453484005
1889.69440843865
1889.694372553
1889.6943689473
1889.69437205931
1889.69437599224
1889.69437881289
1889.69438069759
1889.69438158304
1889.6943824974
1889.69438377492
1889.69438445599
1889.69438432607
1889.69438324459
1889.69438097803
1889.694377275
1889.69437156132
1889.69436452921
1889.694362542
1889.69437319873
1889.69441436765
1889.69454208971
1889.69488940884
1889.69577397947
1889.69792782852
1889.7029518678
1889.71424085497
1889.73881811236
1889.79106059909
1889.90067481293
1890.13054168149
1890.61593998311
1891.64080290056
1893.75233557973
1897.83264842508
1905.26145106995
1878.88529529574
1875.387805965
1873.50934239345
1872.53981489726
1872.07061174411
1871.85014621014
1871.7471383473
1871.69873002926
1871.67590910056
1871.66522630011
1871.66031479971
1871.65811847635
1871.65717128979
1871.65678029683
1871.6566280392
1871.65657403608
1871.65655975608
1871.65655920742
1871.65656135592
1871.65656377545
1871.6565655885
1871.65656683049
1871.65656757487
1871.65656830299
1871.65656906548
1871.65656952634
1871.65656948878
1871.65656894819
1871.65656785391
1871.65656595941
1871.6565630474
1871.65655953208
1871.65655799839
1871.65656148107
1871.65657827093
1871.6566331298
1871.65678308241
1871.65716490109
1871.65809324313
1871.66025457239
1871.66510584769
1871.67567904816
1871.69825976735
1871.74610296602
1871.8480104684
1872.06770554874
1872.54285757215
1873.54854556653
1875.55248944891
1879.36022069405
1867.02864772596
1865.36037688859
1864.49404215476
1864.05778074184
1863.85124665668
1863.75618143716
1863.71260238899
1863.6924361863
1863.68302527661
1863.67864107443
1863.67662671864
1863.67572416999
1863.67533377156
1863.6751722659
1863.67510944794
1863.67508750888
1863.6750821157
1863.67508229935
1863.67508355163
1863.67508487006
1863.67508588404
1863.67508659404
1863.67508706604
1863.67508751125
1863.67508791537
1863.6750881676
1863.6750881559
1863.67508789949
1863.67508738797
1863.67508647559
1863.67508508539
1863.67508342602
1863.67508256972
1863.67508355226
1863.67509006251
1863.6751126189
1863.67517457196
1863.67533223325
1863.67571461532
1863.67660213851
1863.67858960651
1863.682920411
1863.6922021745
1863.71204108843
1863.754925227
1863.84922350712
1864.05792848207
1864.51125044997
1865.44128933321
1867.27741341143
1861.79146793421
1861.03832890995
1860.65856774646
1860.47166211491
1860.38498742996
1860.34586072875
1860.32824860481
1860.32022013506
1860.31651051658
1860.31479020869
1860.3140000518
1860.31364519934
1860.31349120813
1860.31342735793
1860.31340255407
1860.31339402948
1860.3133920929
1860.31339233031
1860.31339297842
1860.31339363401
1860.31339414698
1860.31339451318
1860.31339477104
1860.31339500682
1860.31339520236
1860.31339532257
1860.31339531892
1860.31339520395
1860.31339497247
1860.31339455653
1860.31339393015
1860.3133931875
1860.31339277862
1860.31339299785
1860.31339541436
1860.31340432709
1860.31342893022
1860.31349149656
1860.31364273333
1860.31399233674
1860.31477251875
1860.31647025606
1860.3201175825
1860.32797424586
1860.34519389409
1860.38377993608
1860.47109087373
1860.6655141433
1861.07560860223
1861.91353613098
1859.58224646541
1859.25882610582
1859.09986822456
1859.02327858671
1858.98844310274
1858.97300351757
1858.96617363357
1858.9631053953
1858.96170144155
1858.96105321833
1858.96075550665
1858.96062146675
1858.96056309974
1858.9605388424
1858.960529431
1858.96052625347
1858.9605255909
1858.96052573883
1858.96052604465
1858.96052634692
1858.96052658655
1858.9605267605
1858.96052688727
1858.96052700001
1858.96052708777
1858.96052714011
1858.96052713899
1858.96052708946
1858.9605269885
1858.96052680838
1858.96052654067
1858.96052622414
1858.96052603286
1858.96052606507
1858.96052694435
1858.96053033381
1858.96053976177
1858.96056371631
1858.96062138499
1858.96075404402
1858.96104878293
1858.96168859297
1858.96306494041
1858.96604988869
1858.97267714803
1858.98779684388
1859.02274278807
1859.10244207866
1859.2750329319
1859.63874803575
1858.68912831373
1858.55644485988
1858.49266145746
1858.46252577763
1858.44906544434
1858.44320174993
1858.44065050007
1858.43952050024
1858.43900836327
1858.4387729077
1858.43866476029
1858.43861593666
1858.43859460116
1858.43858571284
1858.43858226834
1858.43858112492
1858.43858090678
1858.43858098167
1858.43858111532
1858.43858124561
1858.43858134996
1858.43858142681
1858.43858148398
1858.43858153358
1858.43858157033
1858.43858159162
1858.4385815913
1858.43858157069
1858.43858152849
1858.43858145431
1858.4385813455
1858.43858121704
1858.43858113266
1858.43858113065
1858.43858144365
1858.43858269083
1858.43858618895
1858.43859506659
1858.4386163398
1858.43866500565
1858.43877256666
1858.43900526274
1858.43950597636
1858.44059818789
1858.44305234561
1858.44874758935
1858.46218124744
1858.49352901087
1858.56312719734
1858.71393927538
1858.34202158388
1858.28982444372
1858.26520645035
1858.25378277407
1858.24876588497
1858.24661551827
1858.24569448524
1858.24529207477
1858.24511139506
1858.24502867099
1858.24499066697
1858.24497346101
1858.24496591431
1858.24496276204
1858.24496154103
1858.24496114103
1858.24496107068
1858.24496110371
1858.24496115792
1858.24496121038
1858.24496125274
1858.24496128429
1858.24496130804
1858.24496132821
1858.24496134255
1858.24496135069
1858.24496135059
1858.24496134234
1858.24496132554
1858.24496129658
1858.2449612546
1858.24496120515
1858.24496117066
1858.2449611666
1858.24496127644
1858.2449617232
1858.24496298422
1858.2449661783
1858.24497379244
1858.24499110558
1858.24502914642
1858.24511109416
1858.2452873053
1858.2456735096
1858.24655087681
1858.24861997464
1858.25359628045
1858.2654662864
1858.2924489637
1858.35240734694
1858.21197003387
1858.19221508972
1858.18304901317
1858.17886498575
1858.17705614329
1858.17629248887
1858.17597021011
1858.17583123271
1858.17576939839
1858.1757412009
1858.17572824217
1858.17572235726
1858.17571976553
1858.17571867918
1858.17571825767
1858.17571812001
1858.1757180965
1858.17571810895
1858.17571812894
1858.17571814829
1858.17571816399
1858.17571817576
1858.17571818467
1858.17571819211
1858.17571819721
1858.17571820007
1858.17571820001
1858.17571819688
1858.17571819063
1858.17571818007
1858.17571816493
1858.17571814716
1858.17571813444
1858.17571813284
1858.17571817175
1858.17571832898
1858.17571877251
1858.17571989161
1858.17572254319
1858.17572853251
1858.17574160749
1858.17576963296
1858.17582979732
1858.17596215305
1858.17626584242
1858.17699295232
1858.1787744565
1858.18311394791
1858.19320060954
1858.21613131015
1858.16487700863
1858.1576633984
1858.15436272987
1858.1528784102
1858.15224595557
1858.15198268871
1858.15187311414
1858.15182644507
1858.15180586162
1858.15179651046
1858.15179221002
1858.15179024991
1858.15178938207
1858.151789016
1858.15178887286
1858.15178882494
1858.15178881553
1858.15178881886
1858.15178882493
1858.15178883093
1858.15178883578
1858.15178883939
1858.15178884211
1858.15178884437
1858.15178884587
1858.15178884668
1858.15178884661
1858.15178884555
1858.15178884351
1858.15178884012
1858.15178883531
1858.15178882973
1858.15178882595
1858.15178882636
1858.15178884108
1858.15178889639
1858.15178904984
1858.15178943348
1858.1517903349
1858.15179235528
1858.1517967341
1858.15180606572
1858.15182604724
1858.15187012243
1858.1519721556
1858.15221993009
1858.15283783361
1858.15437336046
1858.15801832916
1858.16647858226
1858.14835858456
1858.14581068475
1858.1446586401
1858.14414750192
1858.14393259549
1858.1438442995
1858.14380801983
1858.14379274628
1858.14378606451
1858.14378303847
1858.1437816445
1858.14378100557
1858.14378072
1858.14378059768
1858.14378054842
1858.14378053057
1858.14378052544
1858.14378052482
1858.14378052552
1858.14378052636
1858.14378052697
1858.14378052736
1858.14378052766
1858.14378052793
1858.14378052809
1858.14378052816
1858.14378052806
1858.14378052781
1858.14378052738
1858.14378052668
1858.14378052569
1858.14378052461
1858.14378052433
1858.14378052589
1858.14378053249
1858.14378055276
1858.1437806061
1858.14378073616
1858.14378103714
1858.14378170435
1858.14378313756
1858.14378617059
1858.1437926412
1858.14380693558
1858.14384028428
1858.14392233826
1858.14413042938
1858.1446574795
1858.1459336139
1858.14895252276
1858.1427346562
1858.14186219695
1858.14147170128
1858.14130053405
1858.14122943648
1858.14120057338
1858.14118885248
1858.14118396946
1858.14118184796
1858.14118088845
1858.14118044426
1858.14118023821
1858.14118014406
1858.14118010199
1858.14118008353
1858.14118007538
1858.14118007159
1858.14118006953
1858.14118006816
1858.14118006708
1858.14118006615
1858.14118006534
1858.14118006469
1858.14118006421
1858.14118006387
1858.14118006365
1858.14118006357
1858.14118006361
1858.14118006379
1858.14118006407
1858.14118006445
1858.14118006503
1858.14118006611
1858.14118006805
1858.14118007193
1858.14118008053
1858.14118010022
1858.1411801451
1858.14118024533
1858.14118046292
1858.14118092381
1858.14118188961
1858.14118393833
1858.14118846363
1858.1411990886
1858.14122554723
1858.14129371855
1858.14146952419
1858.14190323561
1858.14294746396
1858.14087267364
1858.14058246872
1858.14045372769
1858.14039790727
1858.14037497294
1858.14036576171
1858.14036205917
1858.14036052951
1858.14035986733
1858.14035956655
1858.14035942514
1858.14035935746
1858.14035932467
1858.14035930837
1858.14035929976
1858.14035929468
1858.14035929126
1858.14035928867
1858.14035928656
1858.1403592848
1858.1403592833
1858.14035928206
1858.14035928106
1858.1403592803
1858.14035927978
1858.14035927948
1858.1403592794
1858.14035927956
1858.14035927995
1858.14035928057
1858.14035928144
1858.14035928261
1858.14035928416
1858.14035928627
1858.14035928927
1858.14035929408
1858.14035930273
1858.1403593197
1858.14035935443
1858.14035942619
1858.14035957378
1858.14035987743
1858.14036051465
1858.14036191735
1858.14036522436
1858.14037354635
1858.14039530556
1858.14045238042
1858.14059569931
1858.14094651874
1858.1402721795
1858.14017825229
1858.14013693244
1858.14011919312
1858.14011197334
1858.14010909915
1858.14010795222
1858.14010747984
1858.1401072741
1858.14010717856
1858.14010713152
1858.14010710706
1858.14010709349
1858.14010708528
1858.14010707975
1858.14010707561
1858.14010707229
1858.14010706951
1858.14010706715
1858.14010706513
1858.14010706344
1858.14010706203
1858.14010706091
1858.14010706006
1858.14010705948
1858.14010705915
1858.14010705908
1858.14010705928
1858.14010705974
1858.14010706049
1858.14010706153
1858.14010706289
1858.14010706462
1858.14010706679
1858.14010706953
1858.14010707313
1858.14010707825
1858.14010708628
1858.14010710013
1858.14010712565
1858.14010717455
1858.14010727088
1858.14010746793
1858.14010789634
1858.1401089052
1858.140111463
1858.14011823693
1858.14013628442
1858.14018237721
1858.14029704768
1858.14008324667
1858.14005363185
1858.14004073272
1858.14003524744
1858.14003303086
1858.14003215269
1858.14003180212
1858.14003165592
1858.14003158994
1858.14003155702
1858.14003153878
1858.14003152754
1858.14003151988
1858.14003151415
1858.14003150957
1858.14003150572
1858.14003150242
1858.14003149957
1858.14003149712
1858.14003149502
1858.14003149325
1858.14003149179
1858.14003149062
1858.14003148974
1858.14003148914
1858.1400314888
1858.14003148874
1858.14003148895
1858.14003148944
1858.14003149023
1858.14003149134
1858.14003149277
1858.14003149456
1858.14003149676
1858.14003149942
1858.14003150264
1858.14003150665
1858.14003151188
1858.14003151921
1858.14003153038
1858.14003154885
1858.14003158165
1858.14003164439
1858.14003177562
1858.1400320796
1858.14003284974
1858.14003490627
1858.14004045773
1858.14005487608
1858.14009138786
1858.14002517268
1858.14001607804
1858.14001218715
1858.14001055093
1858.14000989092
1858.14000962767
1858.14000952004
1858.14000947244
1858.14000944841
1858.14000943424
1858.14000942462
1858.14000941736
1858.14000941148
1858.14000940651
1858.14000940221
1858.14000939845
1858.14000939516
1858.14000939229
1858.14000938981
1858.14000938768
1858.14000938589
1858.14000938441
1858.14000938323
1858.14000938234
1858.14000938173
1858.14000938139
1858.14000938133
1858.14000938155
1858.14000938206
1858.14000938287
1858.14000938399
1858.14000938545
1858.14000938727
1858.14000938947
1858.1400093921
1858.14000939521
1858.14000939888
1858.14000940325
1858.14000940858
1858.14000941538
1858.14000942465
1858.14000943837
1858.14000946097
1858.14000950347
1858.14000959601
1858.1400098244
1858.14001043089
1858.14001207907
1858.14001644039
1858.14002776613
1858.14000771104
1858.14000500267
1858.1400038995
1858.14000344492
1858.14000325868
1858.14000318092
1858.14000314591
1858.14000312752
1858.14000311584
1858.14000310718
1858.14000310009
1858.14000309401
1858.14000308867
1858.14000308393
1858.14000307973
1858.140003076
1858.14000307272
1858.14000306985
1858.14000306736
1858.14000306523
1858.14000306343
1858.14000306195
1858.14000306077
1858.14000305988
1858.14000305927
1858.14000305894
1858.14000305888
1858.1400030591
1858.14000305962
1858.14000306043
1858.14000306156
1858.14000306303
1858.14000306485
1858.14000306706
1858.14000306968
1858.14000307275
1858.14000307631
1858.14000308041
1858.14000308514
1858.14000309063
1858.14000309717
1858.14000310527
1858.14000311612
1858.14000313268
1858.14000316315
1858.14000323095
1858.14000340173
1858.14000385889
1858.1400051035
1858.14000851423
1858.14000256942
1858.14000180259
1858.14000154272
1858.14000144302
1858.14000139792
1858.14000137492
1858.14000136115
1858.14000135123
1858.14000134311
1858.14000133602
1858.14000132967
1858.14000132393
1858.14000131875
1858.1400013141
1858.14000130993
1858.14000130623
1858.14000130296
1858.1400013001
1858.14000129762
1858.1400012955
1858.14000129371
1858.14000129223
1858.14000129106
1858.14000129017
1858.14000128956
1858.14000128923
1858.14000128918
1858.14000128941
1858.14000128992
1858.14000129074
1858.14000129187
1858.14000129334
1858.14000129516
1858.14000129736
1858.14000129997
1858.14000130303
1858.14000130654
1858.14000131056
1858.1400013151
1858.14000132021
1858.14000132595
1858.14000133245
1858.14000133994
1858.1400013491
1858.14000136178
1858.14000138304
1858.14000142577
1858.14000152759
1858.14000182829
1858.1400028096
1858.14000108572
1858.1400008963
1858.14000088598
1858.14000089051
1858.14000088647
1858.14000087922
1858.14000087146
1858.14000086389
1858.14000085672
1858.14000085006
1858.1400008439
1858.14000083827
1858.14000083315
1858.14000082853
1858.14000082439
1858.14000082071
1858.14000081747
1858.14000081463
1858.14000081216
1858.14000081005
1858.14000080828
1858.14000080682
1858.14000080565
1858.14000080478
1858.14000080418
1858.14000080385
1858.1400008038
1858.14000080403
1858.14000080455
1858.14000080536
1858.14000080649
1858.14000080795
1858.14000080976
1858.14000081195
1858.14000081455
1858.14000081759
1858.14000082108
1858.14000082506
1858.14000082955
1858.14000083455
1858.14000084008
1858.14000084614
1858.14000085274
1858.1400008599
1858.14000086765
1858.14000087582
1858.14000088184
1858.14000088004
1858.14000090115
1858.14000115314
1858.14000066639
1858.14000064518
1858.14000070703
1858.14000074131
1858.14000074878
1858.14000074581
1858.1400007396
1858.14000073257
1858.14000072561
1858.14000071902
1858.1400007129
1858.1400007073
1858.1400007022
1858.14000069761
1858.1400006935
1858.14000068985
1858.14000068663
1858.14000068382
1858.14000068138
1858.1400006793
1858.14000067754
1858.1400006761
1858.14000067495
1858.14000067408
1858.14000067349
1858.14000067318
1858.14000067313
1858.14000067336
1858.14000067387
1858.14000067468
1858.1400006758
1858.14000067725
1858.14000067905
1858.14000068123
1858.14000068381
1858.14000068682
1858.1400006903
1858.14000069426
1858.14000069872
1858.1400007037
1858.14000070919
1858.14000071518
1858.14000072161
1858.14000072832
1858.14000073487
1858.14000073959
1858.14000073551
1858.14000070436
1858.14000064453
1858.14000068208
1858.14000055107
1858.14000057796
1858.14000066
1858.14000070228
1858.14000071264
1858.14000071058
1858.14000070459
1858.14000069758
1858.14000069057
1858.14000068395
1858.14000067782
1858.14000067222
1858.14000066714
1858.14000066257
1858.1400006585
1858.14000065489
1858.14000065171
1858.14000064893
1858.14000064652
1858.14000064447
1858.14000064274
1858.14000064132
1858.14000064019
1858.14000063934
1858.14000063876
1858.14000063845
1858.14000063841
1858.14000063864
1858.14000063915
1858.14000063995
1858.14000064106
1858.14000064249
1858.14000064427
1858.14000064643
1858.14000064899
1858.14000065198
1858.14000065543
1858.14000065937
1858.14000066382
1858.1400006688
1858.14000067432
1858.14000068034
1858.14000068682
1858.14000069356
1858.1400007
1858.14000070405
1858.14000069754
1858.14000065856
1858.14000057602
1858.14000055171
1858.14000052126
1858.14000056169
1858.14000064894
1858.1400006929
1858.14000070359
1858.14000070144
1858.14000069525
1858.14000068805
1858.14000068092
1858.14000067422
1858.14000066805
1858.14000066245
1858.14000065739
1858.14000065286
1858.14000064883
1858.14000064526
1858.14000064212
1858.14000063939
1858.14000063703
1858.14000063501
1858.14000063331
1858.14000063192
1858.14000063081
1858.14000062998
1858.14000062942
1858.14000062911
1858.14000062908
1858.14000062931
1858.14000062981
1858.1400006306
1858.14000063169
1858.14000063311
1858.14000063486
1858.14000063699
1858.14000063952
1858.14000064248
1858.14000064591
1858.14000064983
1858.14000065427
1858.14000065926
1858.14000066482
1858.14000067093
1858.14000067755
1858.14000068448
1858.14000069114
1858.14000069537
1858.14000068866
1858.14000064806
1858.1400005596
1858.14000051773
1858.1400005154
1858.14000055961
1858.14000064773
1858.14000069147
1858.14000070167
1858.14000069906
1858.14000069251
1858.14000068504
1858.14000067774
1858.14000067093
1858.14000066473
1858.14000065912
1858.14000065408
1858.14000064959
1858.14000064561
1858.14000064209
1858.14000063901
1858.14000063633
1858.14000063401
1858.14000063204
1858.14000063038
1858.14000062902
1858.14000062794
1858.14000062713
1858.14000062658
1858.14000062629
1858.14000062626
1858.14000062649
1858.14000062698
1858.14000062776
1858.14000062884
1858.14000063023
1858.14000063195
1858.14000063405
1858.14000063654
1858.14000063947
1858.14000064285
1858.14000064675
1858.14000065118
1858.14000065619
1858.1400006618
1858.14000066802
1858.14000067481
1858.14000068202
1858.14000068906
1858.14000069377
1858.14000068758
1858.14000064722
1858.14000055767
1858.14000051085
1858.14000051647
1858.14000056175
1858.1400006494
1858.14000069224
1858.14000070161
1858.14000069836
1858.14000069134
1858.14000068355
1858.14000067604
1858.14000066912
1858.14000066287
1858.14000065726
1858.14000065225
1858.14000064781
1858.14000064389
1858.14000064044
1858.14000063742
1858.1400006348
1858.14000063254
1858.14000063061
1858.140000629
1858.14000062768
1858.14000062663
1858.14000062585
1858.14000062532
1858.14000062504
1858.14000062501
1858.14000062523
1858.14000062572
1858.14000062648
1858.14000062753
1858.14000062889
1858.14000063059
1858.14000063264
1858.14000063509
1858.14000063797
1858.14000064132
1858.14000064518
1858.1400006496
1858.14000065462
1858.14000066028
1858.14000066662
1858.14000067363
1858.14000068116
1858.14000068867
1858.14000069404
1858.14000068868
1858.14000064921
1858.14000056005
1858.14000051182
1858.14000051994
1858.14000056552
1858.14000065216
1858.14000069372
1858.14000070203
1858.14000069799
1858.14000069042
1858.14000068227
1858.14000067453
1858.1400006675
1858.1400006612
1858.14000065559
1858.14000065063
1858.14000064625
1858.14000064239
1858.14000063902
1858.14000063607
1858.14000063352
1858.14000063133
1858.14000062946
1858.1400006279
1858.14000062662
1858.1400006256
1858.14000062485
1858.14000062434
1858.14000062407
1858.14000062405
1858.14000062427
1858.14000062475
1858.14000062549
1858.14000062651
1858.14000062784
1858.14000062949
1858.1400006315
1858.1400006339
1858.14000063672
1858.14000064002
1858.14000064384
1858.14000064824
1858.14000065326
1858.14000065898
1858.14000066545
1858.14000067269
1858.14000068058
1858.14000068865
1858.1400006948
1858.14000069051
1858.1400006523
1858.14000056409
1858.14000051544
1858.14000052469
1858.14000057032
1858.14000065558
1858.14000069554
1858.14000070256
1858.1400006976
1858.14000068941
1858.14000068085
1858.14000067288
1858.14000066572
1858.14000065938
1858.1400006538
1858.14000064889
1858.14000064458
1858.14000064081
1858.14000063752
1858.14000063465
1858.14000063218
1858.14000063006
1858.14000062826
1858.14000062675
1858.14000062552
1858.14000062455
1858.14000062382
1858.14000062333
1858.14000062308
1858.14000062306
1858.14000062328
1858.14000062374
1858.14000062446
1858.14000062546
1858.14000062675
1858.14000062835
1858.14000063031
1858.14000063265
1858.14000063541
1858.14000063865
1858.14000064241
1858.14000064677
1858.1400006518
1858.14000065757
1858.14000066416
1858.14000067164
1858.14000067994
1858.14000068863
1858.1400006957
1858.14000069269
1858.14000065606
1858.14000056918
1858.14000052043
1858.14000053057
1858.14000057612
1858.1400006596
1858.14000069759
1858.14000070308
1858.14000069707
1858.14000068818
1858.14000067919
1858.14000067098
1858.14000066371
1858.14000065735
1858.14000065179
1858.14000064695
1858.14000064273
1858.14000063906
1858.14000063586
1858.1400006331
1858.14000063071
1858.14000062867
1858.14000062694
1858.1400006255
1858.14000062432
1858.14000062339
1858.1400006227
1858.14000062223
1858.14000062199
1858.14000062198
1858.14000062219
1858.14000062264
1858.14000062334
1858.1400006243
1858.14000062555
1858.1400006271
1858.14000062899
1858.14000063126
1858.14000063395
1858.14000063712