/*--------------------------------*- C++ -*----------------------------------*\
  =========                 |
  \\      /  F ield         | OpenFOAM: The Open Source CFD Toolbox
   \\    /   O peration     | Website:  https://openfoam.org
    \\  /    A nd           | Version:  10
     \\/     M anipulation  |
\*---------------------------------------------------------------------------*/
FoamFile
{
    format      ascii;
    class       volScalarField;
    location    "6.4";
    object      k;
}
// * * * * * * * * * * * * * * * * * * * * * * * * * * * * * * * * * * * * * //

dimensions      [0 2 -2 0 0 0 0];

internalField   nonuniform List<scalar> 
2500
(
9.75563743906478e-10
1.91300391440851e-08
8.15204795887318e-08
1.40614634088991e-07
1.90463645909616e-07
2.2931467258477e-07
2.57397374058325e-07
2.76269009396633e-07
2.88089876085843e-07
2.95011185044574e-07
2.98810563768825e-07
3.0077178196191e-07
3.01726587151099e-07
3.02166246066613e-07
3.02358236237092e-07
3.02437919632816e-07
3.02469398509228e-07
3.02481231374255e-07
3.02485443141142e-07
3.02486837890362e-07
3.02487242695404e-07
3.0248732111612e-07
3.02487303242214e-07
3.02487265009249e-07
3.02487231910767e-07
3.02487209372547e-07
3.02487196023899e-07
3.02487179833199e-07
3.02487123254236e-07
3.02486920154568e-07
3.02486267864244e-07
3.02484330814567e-07
3.02478902075457e-07
3.02464400398487e-07
3.02427345025892e-07
3.02336732883169e-07
3.02124928227301e-07
3.01652583236172e-07
3.00649970148186e-07
2.98629752443223e-07
2.9477667171334e-07
2.87841498787824e-07
2.7609781797512e-07
2.57446710465041e-07
2.29748256911144e-07
1.91390563774782e-07
1.41977885897641e-07
8.29589537921115e-08
1.97425502115918e-08
1.02644575732645e-09
2.40201123183773e-08
5.49063612497302e-07
2.38850037214481e-06
4.12324889311017e-06
5.58962648907965e-06
6.73632384943772e-06
7.56871428561779e-06
8.13088036657948e-06
8.48499340230096e-06
8.69360400155378e-06
8.80886581883732e-06
8.86876890204004e-06
8.89813706492713e-06
8.91175696330818e-06
8.91774743049072e-06
8.9202518403005e-06
8.92124852576346e-06
8.9216260608805e-06
8.92176159764388e-06
8.92180700034108e-06
8.92182046881621e-06
8.92182330245462e-06
8.92182294103738e-06
8.92182185485257e-06
8.92182088757219e-06
8.92182021675464e-06
8.92181979318326e-06
8.92181923129283e-06
8.92181733057112e-06
8.92181065980238e-06
8.92178949971184e-06
8.9217272273329e-06
8.92155398513327e-06
8.92109431025171e-06
8.91992734199534e-06
8.91709208325869e-06
8.91050734413941e-06
8.89591715604893e-06
8.86514639292552e-06
8.80353876620864e-06
8.68676844868448e-06
8.47785829730188e-06
8.12612451976343e-06
7.57047918981949e-06
6.74926129683982e-06
5.61674035584654e-06
4.1627412710973e-06
2.42990563291965e-06
5.66248538297363e-07
2.52217587166159e-08
8.4751388226338e-08
2.45301025262372e-06
1.20661628219637e-05
2.07779972509201e-05
2.80913733919351e-05
3.37916039313546e-05
3.7924759380842e-05
4.07181771669668e-05
4.24817341550108e-05
4.3524212560839e-05
4.41026665972547e-05
4.44047627747716e-05
4.45536525734521e-05
4.46230876171176e-05
4.46538042884859e-05
4.46667225486623e-05
4.4671895469102e-05
4.46738678356281e-05
4.46745812849071e-05
4.46748227531702e-05
4.46748957896368e-05
4.46749122082528e-05
4.46749113228031e-05
4.46749063272174e-05
4.46749016964659e-05
4.46748984082884e-05
4.46748962003266e-05
4.46748930710512e-05
4.46748827875908e-05
4.46748474244934e-05
4.46747363953665e-05
4.46744118454358e-05
4.46735136068171e-05
4.46711410267345e-05
4.46651436300702e-05
4.46506339763867e-05
4.46170783890836e-05
4.45430414377776e-05
4.43875511177321e-05
4.40775065632573e-05
4.34921176323069e-05
4.24484357092275e-05
4.06961734728142e-05
3.79332213441797e-05
3.38519863095072e-05
2.82175217153643e-05
2.09615293798879e-05
1.22582837192229e-05
2.52253074066906e-06
8.83214606440973e-08
1.49252608218127e-07
4.35003942302319e-06
2.14481708835137e-05
3.67727849368358e-05
4.954520008357e-05
5.9448563368043e-05
6.66041624044554e-05
7.1430395648412e-05
7.44746657690886e-05
7.62742609001423e-05
7.72735242331727e-05
7.7796004278253e-05
7.80539079719846e-05
7.8174400173184e-05
7.82278125077035e-05
7.82503264319029e-05
7.82593642770815e-05
7.82628200311091e-05
7.82640743733203e-05
7.82645010208194e-05
7.82646312971646e-05
7.82646614352262e-05
7.82646606923316e-05
7.82646526102446e-05
7.82646448575924e-05
7.82646392697545e-05
7.8264635429842e-05
7.82646299575695e-05
7.82646122627168e-05
7.82645516881975e-05
7.82643615588851e-05
7.82638054562626e-05
7.8262264896824e-05
7.82581914407723e-05
7.82478840740583e-05
7.82229240424191e-05
7.8165153811391e-05
7.80376028458941e-05
7.77695719811964e-05
7.7234861856395e-05
7.62247952029429e-05
7.44228727685428e-05
7.13948504586878e-05
6.66133977134738e-05
5.95345372900794e-05
4.97284801469394e-05
3.70404180301135e-05
2.17265268614093e-05
4.44896186275017e-06
1.54249774258347e-07
2.11979909192112e-07
6.1817876926133e-06
3.03853297579601e-05
5.18892752071145e-05
6.97048001778828e-05
8.34584907611341e-05
9.3367322513532e-05
0.000100039285377547
0.000104244807980912
0.000106730955210274
0.00010811225871951
0.000108835222378507
0.000109192561205641
0.000109359773947204
0.000109434031004126
0.000109465394802937
0.000109478014043221
0.00010948285198262
0.000109484613887469
0.000109485216174396
0.000109485401917429
0.000109485446127407
0.000109485446315927
0.00010948543601672
0.000109485425718015
0.000109485418147716
0.000109485412783753
0.000109485405078845
0.000109485380655203
0.000109485297605485
0.000109485037254491
0.000109484275527935
0.000109482163436155
0.000109476572613445
0.000109462409805938
0.000109428077035106
0.000109348537084983
0.00010917277267821
0.00010880315893685
0.000108065324164456
0.000106670712670678
0.000104181123323509
9.99938928032913e-05
9.33736215114069e-05
8.35538432604812e-05
6.991310956864e-05
5.21950323182272e-05
3.07027877497274e-05
6.29520248752603e-06
2.17784012635798e-07
2.71175079850764e-07
7.90979997803562e-06
3.87416945709555e-05
6.59247251702876e-05
8.83296275711061e-05
0.000105562925966645
0.000117948875144541
0.000126277510642012
0.00013152454217456
0.000134626741192358
0.00013635134284841
0.000137254848298718
0.000137701977494349
0.000137911516021186
0.000138004727026996
0.000138044171603724
0.000138060076593475
0.000138066189821182
0.000138068423532698
0.000138069191003603
0.000138069430207037
0.000138069488874754
0.000138069490854406
0.000138069479160478
0.000138069466926529
0.000138069457709501
0.000138069450922686
0.000138069441037272
0.000138069410390559
0.000138069307200448
0.000138068984607108
0.000138068041115153
0.000138065423597982
0.000138058488729317
0.000138040903919773
0.00013799823492852
0.000137899295467648
0.00013768049351895
0.000137220068665473
0.000136300418997963
0.000134561215979328
0.000131454705470973
0.000126226105593425
0.000117950809568296
0.000105657130327866
8.85408418404e-05
6.62366932853001e-05
3.90665493017447e-05
8.02804752276629e-06
2.77377703899713e-07
3.25835812274881e-07
9.50689888767628e-06
4.64138271975041e-05
7.87324462703877e-05
0.000105252877786637
0.00012558887061697
0.000140176026589602
0.000149974358128731
0.000156145087016587
0.000159794075791246
0.000161823864422645
0.000162888228018214
0.000163415579497761
0.000163663055649299
0.000163773317835903
0.000163820062056606
0.000163838949268806
0.000163846226613049
0.000163848894315843
0.000163849815599503
0.000163850105863226
0.000163850179269213
0.000163850183935708
0.000163850171642279
0.000163850158079677
0.000163850147554133
0.000163850139447094
0.000163850127402603
0.000163850090927197
0.00016384996965976
0.000163849592141695
0.000163848489125452
0.000163845428430342
0.000163837313963746
0.000163816721059335
0.00016376671133008
0.00016365066045734
0.000163393840728198
0.000162853095324557
0.000161772464626447
0.000159727880968728
0.000156074177103555
0.000149920985481088
0.000140174211241461
0.000125676337981392
0.000105453368344086
7.90302009630659e-05
4.67256785410421e-05
9.62368412507858e-06
3.3215749628391e-07
3.75310775575984e-07
1.09545130718135e-05
5.33319235764927e-05
9.02210599929989e-05
0.000120378649387021
0.000143444296764591
0.000159963018611667
0.000171049650478208
0.000178030165965722
0.000182159006078834
0.000184457085553202
0.000185663186357165
0.000186261421249498
0.000186542526431067
0.000186667958235118
0.000186721223231815
0.000186742787049313
0.000186751115226626
0.000186754177751749
0.000186755240722359
0.000186755579201664
0.000186755667451503
0.00018675567564062
0.000186755663496096
0.000186755649171668
0.000186755637659979
0.000186755628335952
0.000186755614146326
0.000186755572180091
0.00018675543470125
0.000186755008999934
0.00018675376715404
0.000186750321591577
0.000186741182425827
0.000186717973214646
0.000186661569229359
0.000186530591159531
0.000186240562666674
0.000185629578712392
0.000184408046529788
0.000182095976531207
0.000177962665178913
0.000170998495798891
0.000159959767842407
0.000143523595369715
0.000120561917393037
9.04936271651342e-05
5.36192368862655e-05
1.10660207542797e-05
3.81566276463695e-07
4.19232206654382e-07
1.22418809130952e-05
5.94596523683939e-05
0.000100352367033104
0.000133677779323583
0.000159112480913347
0.000177304524901761
0.000189506617321914
0.000197188604110975
0.000201733630047287
0.000204264838932282
0.000205594394188253
0.000206254543110061
0.000206565116524184
0.000206703889172016
0.000206762912211227
0.000206786850672336
0.000206796116506091
0.000206799534105412
0.00020680072610667
0.00020680110954452
0.000206801212519387
0.000206801224959525
0.000206801213584452
0.000206801198996998
0.000206801186791366
0.000206801176354668
0.000206801160048823
0.000206801112916972
0.000206800960949371
0.000206800493280069
0.000206799131747843
0.000206795355459392
0.000206785335972854
0.000206759877027113
0.000206697967557276
0.000206554120117911
0.000206235426930977
0.000205563755335714
0.000204220385855452
0.00020167688090426
0.000197128396389517
0.000189461845429532
0.000177303387555214
0.000159185407390943
0.000133842955521262
0.000100596225126281
5.97178090487414e-05
1.23462153524731e-05
4.25311258508149e-07
4.57486996004699e-07
1.33654490640108e-05
6.47920090077206e-05
0.000109136643165275
0.000145180949005324
0.000172643602680671
0.000192266330133887
0.000205422053226869
0.00021370420393425
0.000218605824402259
0.000221337180455198
0.000222772984326485
0.000223486570557246
0.000223822659926603
0.000223973025945139
0.000224037073147837
0.000224063093321237
0.000224073185878393
0.000224076919011296
0.000224078227111814
0.000224078651872386
0.00022407876924784
0.000224078786582683
0.000224078776369344
0.000224078761930683
0.000224078749285741
0.000224078737844506
0.000224078719482225
0.000224078667526602
0.000224078502687926
0.000224077998773443
0.000224076535124185
0.000224072477845671
0.000224061710986967
0.000224034340841931
0.000223967749109151
0.000223812943625813
0.0002234698166675
0.000222746368837556
0.00022129898124423
0.000218557790107399
0.000213654541257351
0.000205387599211093
0.000192271559082911
0.000172714174385837
0.000145331227303214
0.000109353745524067
6.50215318813303e-05
1.34621797188894e-05
4.63338950823257e-07
4.90184920026796e-07
1.4328036599878e-05
6.93514144272733e-05
0.000116625670994143
0.000154969372786591
0.000184143877900964
0.000204973515498151
0.000218933955899133
0.000227723078437661
0.000232926412713445
0.000235827471102392
0.000237353590100845
0.000238112732035951
0.000238470644938959
0.000238630962668164
0.00023869934014664
0.000238727162939254
0.000238737975497734
0.000238741985589535
0.000238743396857533
0.000238743859103
0.000238743990225159
0.000238744012622638
0.000238744004127559
0.000238743990167639
0.000238743977298787
0.000238743964966672
0.000238743944645965
0.00023874388823967
0.000238743712065316
0.000238743177155008
0.000238741627357783
0.000238737334222666
0.000238725940776072
0.000238696967653928
0.000238626444975595
0.00023846242988085
0.000238098747493294
0.000237331706453344
0.000235796686703446
0.000232888879718239
0.000227686539101731
0.000218913309025218
0.000204989537497088
0.000184217344405414
0.000155110500063207
0.000116821580689485
6.95563318892933e-05
1.44177838211081e-05
4.9580426389112e-07
5.17618416725902e-07
1.5137727779476e-05
7.31825729326932e-05
0.000122904229655126
0.000163163862911501
0.000193763034827471
0.000215596955933459
0.000230227444664194
0.000239439238490793
0.00024489456938791
0.000247937683098399
0.000249539601561067
0.00025033709087041
0.00025071343487008
0.000250882188092357
0.000250954251089772
0.000250983615299496
0.000250995047061821
0.000250999297195704
0.000251000798968306
0.000251001294814179
0.000251001438756191
0.000251001466276661
0.000251001459795556
0.000251001446556296
0.000251001433640308
0.00025100142053678
0.00025100139839431
0.000251001337945281
0.000251001151897476
0.000251000590774997
0.000250998969179758
0.000250994480593417
0.000250982568698743
0.000250952268974396
0.000250878490361578
0.000250706839596772
0.000250326099204656
0.000249522855067701
0.000247915018414326
0.000244868712421792
0.000239417696654026
0.000230223460037128
0.000215627899193065
0.000193844993449559
0.000163302791134658
0.000123086462664669
7.33689607625936e-05
1.52217822391442e-05
5.23030876024287e-07
5.40216575840639e-07
1.580658649844e-05
7.63466768787781e-05
0.000128080867170436
0.00016991320668115
0.000201681125645871
0.000224339153893279
0.000239520004629711
0.000249079492799828
0.000254742525673553
0.000257903000939222
0.000259567712214039
0.000260397065269474
0.000260788775544011
0.000260964587576394
0.00026103974728963
0.000261070412749425
0.000261082370229277
0.000261086825736944
0.000261088405862435
0.000261088931420564
0.000261089087117243
0.000261089119628598
0.000261089115293536
0.000261089102938635
0.000261089090115419
0.000261089076363242
0.000261089052568592
0.000261088988513579
0.000261088793978585
0.000261088210962585
0.00026108653029888
0.000261081881907681
0.000261069546890731
0.000261038164433125
0.000260961726456987
0.000260783833389901
0.000260389135840555
0.000259556248885706
0.000257888759438488
0.000254728954613756
0.000249074113582304
0.000239534768642544
0.000224388475987877
0.000201776802952583
0.000170056984273109
0.000128257519523077
7.65214310101868e-05
1.58865757704043e-05
5.45466431835963e-07
5.58497754304846e-07
1.63493198273796e-05
7.89155235278216e-05
0.000132278745974931
0.000175382768109912
0.00020809565943935
0.000231420444559132
0.000247047123917369
0.000256888748581626
0.000262720678156326
0.000265976824683023
0.000267692867327131
0.000268548349268751
0.000268952703300437
0.00026913434527369
0.000269212073201155
0.000269243822928084
0.000269256220962904
0.000269260849887745
0.000269262496936674
0.000269263048376518
0.000269263214638606
0.000269263251862557
0.000269263249728649
0.00026926323835665
0.000269263225734704
0.000269263211458459
0.000269263186207306
0.000269263119001927
0.000269262917281641
0.000269262316226782
0.000269260587629332
0.000269255810398112
0.000269243134937038
0.000269210881376577
0.000269132302412885
0.000268949379509419
0.000268543426591526
0.000267686618933459
0.000265970967981896
0.000262719499118616
0.000256900016733727
0.00024708188860706
0.000231490685578861
0.000208209394524646
0.000175537714718197
0.00013245745072373
7.90854048948803e-05
1.64269375804937e-05
5.63637108275967e-07
5.73025031433124e-07
1.67820108535988e-05
8.09660262714637e-05
0.000135627231181447
0.000179744092474919
0.000213209905741047
0.000237066470237155
0.000253049254565935
0.000263116664620674
0.000269084064098724
0.000272417146990279
0.000274174589072898
0.000275051211782333
0.000275465831565782
0.000275652225027446
0.000275732054863051
0.000275764696201594
0.000275777458576945
0.000275782231999254
0.000275783935436811
0.000275784509091073
0.000275784684676456
0.000275784726245305
0.00027578472627121
0.000275784715922013
0.000275784703582013
0.000275784688904748
0.00027578466240872
0.000275784592513385
0.000275784384813095
0.000275783769114016
0.0002757820021778
0.00027577712257635
0.000275764177193616
0.000275731233078889
0.00027565095582604
0.000275464039815688
0.000275049144344859
0.000274173318819713
0.000272419358929192
0.000269094954838611
0.000263144448195782
0.000253104444599612
0.00023715913786917
0.000213344844727859
0.000179915268138543
0.000135814457252938
8.1136994271389e-05
1.68588182676488e-05
5.78105545521329e-07
5.84367723613216e-07
1.71210136513607e-05
8.25754761879266e-05
0.000138254709858834
0.000183166081752655
0.000217222990656608
0.000241497584067245
0.00025776078347451
0.000268006360111276
0.000274080917376312
0.000277475023576839
0.000279265401348477
0.000280158898209079
0.000280581741214786
0.00028077195554439
0.000280853482791745
0.000280886847601761
0.000280899907294476
0.000280904799511495
0.000280906549814689
0.000280907142260401
0.000280907325934772
0.000280907371420155
0.000280907373488654
0.000280907364156881
0.000280907352156489
0.000280907337196791
0.00028090730967381
0.000280907237539745
0.000280907024956904
0.000280906397559907
0.000280904600426009
0.000280899640714555
0.000280886484557534
0.000280853001291606
0.000280771397278525
0.000280581359129401
0.000280159466043607
0.000279268748937052
0.000277484776832582
0.000274103214028954
0.000268050004736444
0.000257836069251004
0.000241613160917524
0.000217380978254337
0.000183357031432736
0.000138455382380471
8.2752299421796e-05
1.71983141696626e-05
5.89435020631648e-07
5.93070906656495e-07
1.73820681866142e-05
8.38177690871288e-05
0.00014028292904976
0.000185808073065812
0.000220322149361714
0.000244920570377636
0.000261401417516325
0.000271785594639036
0.00027794372736602
0.000281385563523479
0.00028320178296866
0.000284108564468276
0.000284537905183605
0.000284731150590022
0.000284814030199338
0.000284847974198496
0.000284861273272973
0.000284866261842241
0.000284868050562978
0.000284868658672907
0.000284868849249526
0.000284868898194893
0.000284868902148498
0.000284868893794799
0.000284868882172987
0.000284868867042034
0.000284868838706826
0.000284868764762656
0.000284868548278152
0.000284867911701397
0.000284866091170186
0.000284861069766312
0.000284847751617002
0.000284813854011587
0.000284731229684809
0.000284538788406788
0.000284111504648536
0.000283209307479745
0.00028140218592191
0.000277976517519503
0.000271844039838147
0.000261495840340583
0.000245058621567078
0.000220503785419484
0.00018602080442035
0.000140500324824542
8.4003878235777e-05
1.74608488657706e-05
5.9816148318901e-07
5.99633618337054e-07
1.75796573701349e-05
8.47606741142687e-05
0.000141822942376423
0.000187814917539831
0.000222677239750783
0.000247522793760739
0.000264170101164355
0.000274660542365109
0.000280882927061361
0.00028436156773232
0.000286197778704664
0.000287114873591965
0.000287549277805652
0.000287744894848606
0.000287828837263661
0.00028786323867286
0.000287876727884018
0.00028788179354705
0.00028788361332927
0.000287884234309307
0.000287884430681085
0.000287884482637229
0.000287884488301536
0.000287884480856857
0.000287884469637956
0.000287884454437495
0.000287884425494157
0.000287884350135562
0.000287884130609981
0.000287883486973181
0.000287881648639372
0.000287876580543481
0.000287863139989376
0.00028782892924857
0.000287745533162779
0.000287551272305148
0.000287119902923481
0.000286208997770971
0.00028438430518245
0.000280925143277796
0.000274732449250686
0.00026428223221025
0.000247682145589485
0.00022288205792413
0.00018805005559401
0.000142058797726974
8.49582056506219e-05
1.76605844229763e-05
6.04773876859353e-07
6.04495350840102e-07
1.77265983422229e-05
8.54641031264887e-05
0.000142972588319448
0.000189313957548803
0.000224437400439549
0.000249468652386751
0.00026624133860868
0.000276812031024589
0.000283083080665822
0.000286589685819446
0.000288441138603544
0.000289366125447905
0.000289804419543705
0.000290001866182329
0.000290086632217753
0.000290121389876107
0.000290135028038761
0.000290140154544245
0.000290141999097012
0.000290142630503416
0.000290142831661268
0.000290142886219558
0.000290142893432634
0.000290142886786801
0.000290142875982966
0.000290142860803387
0.000290142831439003
0.000290142755021281
0.000290142533195494
0.000290141884256824
0.000290140032659054
0.00029013492991403
0.000290121398607668
0.000290086955550995
0.000290002986182989
0.00028980737187898
0.000289372959752936
0.000288455562540034
0.000286617759025854
0.000283133588699244
0.000276895910449449
0.000266369452427556
0.000249647610766708
0.00022466412259515
0.000189571014990312
0.00014322735032745
8.56740757133894e-05
1.78100516906313e-05
6.09702221517306e-07
6.08029671196425e-07
1.78338376577695e-05
8.59792512284598e-05
0.000143815295434424
0.000190413646108612
0.000225729563692768
0.000250898025774289
0.0002677635986852
0.000278393917445203
0.000284701238903029
0.000288228757980984
0.000290091651355603
0.000291022585043804
0.000291463822455979
0.000291662659597253
0.000291748054564054
0.000291783085684188
0.000291796838876697
0.000291802012727781
0.000291803876763282
0.000291804516502628
0.000291804721556711
0.00029180477830296
0.000291804786849482
0.000291804780987666
0.000291804770606303
0.000291804755526086
0.000291804725907001
0.000291804648740983
0.000291804425241977
0.000291803772441369
0.000291801911219422
0.000291796783381816
0.000291783186325697
0.000291748574678169
0.00029166418843059
0.000291467587951105
0.000291030954778318
0.000290108811450439
0.000288261410903953
0.000284758916034655
0.000278488249306653
0.000267905844101029
0.000251094605750943
0.000225976386864979
0.000190691351576163
0.000144088451055204
8.6201818357081e-05
1.79199692041612e-05
6.1331226560039e-07
6.10543375162561e-07
1.79104069622526e-05
8.63484258044183e-05
0.000144419932592149
0.000191203457809288
0.000226658427011977
0.000251926291573339
0.000268859359299086
0.000279533145836142
0.000285867002514285
0.000289409879283619
0.000291281207672313
0.000292216544686383
0.000292659971369817
0.000292859847766494
0.000292945715217321
0.000292980952936037
0.000292994793598826
0.000293000003747345
0.000293001882891457
0.000293002529204818
0.000293002737403572
0.000293002795959729
0.000293002805675617
0.000293002800542073
0.000293002790584605
0.000293002775669377
0.000293002745938631
0.000293002668289358
0.00029300244363903
0.000293001788144577
0.000292999920197415
0.000292994774801167
0.000292981131604685
0.000292946401215238
0.000292861720259858
0.000292664420236263
0.000292226206872458
0.000291300678339894
0.000289446418231857
0.000285930802996252
0.000279636482758169
0.000269013914413161
0.000252138434887184
0.000226923307372637
0.000191500094011289
0.000144710360213579
8.65831562567618e-05
1.7999209193824e-05
6.15905169618998e-07
6.12279431675191e-07
1.7963490606461e-05
8.66053585066499e-05
0.000144841388521763
0.000191754698506172
0.000227307438401065
0.000252645432284863
0.00026962629092385
0.000280330975687352
0.000286683773565181
0.000290237662134788
0.000292115067471677
0.000293053592858818
0.000293498613208678
0.000293699250381686
0.000293785465780225
0.000293820856635515
0.000293834762620089
0.000293840000131352
0.000293841890816998
0.000293842542253447
0.000293842752976305
0.000293842813032245
0.00029384282375915
0.000293842819290785
0.000293842809753648
0.000293842795056308
0.000293842765332782
0.000293842687420798
0.000293842462048178
0.00029384180480445
0.000293839932444117
0.000293834775443676
0.000293821101516429
0.00029378629140969
0.000293701411127157
0.000293503634854578
0.000293064339653463
0.00029213648257174
0.00029027748544527
0.000286752780016575
0.000280442027388602
0.000269791493834394
0.000252871197219174
0.000227588346836402
0.00019206841478642
0.000145147690495847
8.68515077226175e-05
1.80548651541401e-05
6.17720580379434e-07
6.13422060645024e-07
1.79985582659467e-05
8.67757994890064e-05
0.00014512157177542
0.000192121828287865
0.000227740357159209
0.000253125758842047
0.000270139083911462
0.00028086487057316
0.00028723067811946
0.000290792176283848
0.000292673808047409
0.00029361456592915
0.000294060710092525
0.00029426188773572
0.000294348352261172
0.000294383853690217
0.000294397807298266
0.000294403065002079
0.000294404964351348
0.000294405619732179
0.000294405832474188
0.00029440589377825
0.00029440590537536
0.000294405901510638
0.00029440589238606
0.000294405877946317
0.000294405848324561
0.000294405770328428
0.000294405544582943
0.000294404886358346
0.000294403011456267
0.000294397847640934
0.000294384155302974
0.000294349296512349
0.000294264292397593
0.000294066215894386
0.000293626230293649
0.000292696872030227
0.000290834795305285
0.000287304139211503
0.000280982567917009
0.000270313535269585
0.000253363473630159
0.000228035491072049
0.000192450905111535
0.000145442360670735
8.70325470300967e-05
1.80923773110215e-05
6.18941556281525e-07
6.14102509792944e-07
1.80195213361195e-05
8.68782149420308e-05
0.00014529055460314
0.000192343951395234
0.000228002995261568
0.000253417823482004
0.000270451471069929
0.000281190586469685
0.000287564691407445
0.000291131093371063
0.000293015478074784
0.000293957706476818
0.000294404599499716
0.000294606141604423
0.000294692776212965
0.000294728354129645
0.000294742341170997
0.000294747613312913
0.000294749519015187
0.000294750177393947
0.000294750391746466
0.00029475045409361
0.000294750466450979
0.000294750463136063
0.000294750454414228
0.000294750440259337
0.000294750410810427
0.000294750332870422
0.00029475010703639
0.000294749448469733
0.000294747572594413
0.000294742405972983
0.000294728705478704
0.000294693823653046
0.000294608757659108
0.00029441052441014
0.000293970165574947
0.00029303997291796
0.000291176146054716
0.000287642047332732
0.000281314126318645
0.000270634108263564
0.000253666200397828
0.000228310939721922
0.000192687005305015
0.000145624678350873
8.71448538123194e-05
1.81156776181417e-05
6.19700013906272e-07
6.14404396979701e-07
1.8028880146815e-05
8.69244427446774e-05
0.000145367635045157
0.000192446184651333
0.000228124807166471
0.000253554161738915
0.000270598068104946
0.000281344072023144
0.000287722572251311
0.000291291639984117
0.000293177560093045
0.000294120630374443
0.000294567963527452
0.00029476972554386
0.000294856465555971
0.000294892092231851
0.00029490610128573
0.000294911383331291
0.000294913293642663
0.000294913954362847
0.000294914170078064
0.0002949142333634
0.000294914246431721
0.000294914243651224
0.000294914235323405
0.000294914221452647
0.000294914192191455
0.000294914114361595
0.000294913888600471
0.000294913230153387
0.000294911354585714
0.000294906188607263
0.000294892488931515
0.000294857606553239
0.000294772532719876
0.000294574266989935
0.000294133807513992
0.000293203349372944
0.00029133889914608
0.00028780347099739
0.000281472946649462
0.000270788215265189
0.000253812375814007
0.00022844464781231
0.000192802312396488
0.000145714334707717
8.72005139491539e-05
1.81273233635018e-05
6.20081641587211e-07
6.14367643008251e-07
1.80278328788884e-05
8.69201876135116e-05
0.000145362146246576
0.000192440708505599
0.00022812011190335
0.000253550626943386
0.000270595777802318
0.000281342913516001
0.000287722330282739
0.000291292073311079
0.000293178451268376
0.000294121809959257
0.000294569312933545
0.000294771169105488
0.000294857958686567
0.000294893610433371
0.00029490763189867
0.000294912920143813
0.000294914833720166
0.000294915496336351
0.000294915713288696
0.000294915777481985
0.00029491579126017
0.000294915789017269
0.000294915781071775
0.000294915767460433
0.000294915738357087
0.000294915660626018
0.000294915435014621
0.000294914777044775
0.000294912902938828
0.000294907740875767
0.000294894050657948
0.000294859189358593
0.00029477415934665
0.000294575978914392
0.00029413567484108
0.000293205480964784
0.000291341448260821
0.000287806629040802
0.000281476916825593
0.000270793160895723
0.000253818344952992
0.000228451483229086
0.00019280955854108
0.000145721147628565
8.72055680999302e-05
1.81285963689235e-05
6.20129517154165e-07
6.13990935739656e-07
1.80163457338056e-05
8.68653214199667e-05
0.000145273913520407
0.000192327339511408
0.000227988746660288
0.000253407098097573
0.000270444532608767
0.00028118709854715
0.000287564002202746
0.000291132468636933
0.000293018255026486
0.0002939613668144
0.000294408780237799
0.000294610610928855
0.000294697397436005
0.000294733052119623
0.000294747077099358
0.000294752368132664
0.000294754283735976
0.000294754947831004
0.000294755165894362
0.000294755230956839
0.000294755245430754
0.000294755243715018
0.000294755236132722
0.000294755222754107
0.000294755193783108
0.000294755116153554
0.000294754890800243
0.000294754233734559
0.000294752362398392
0.00029474720786708
0.000294733536500052
0.000294698719502304
0.000294613788169798
0.000294415816870892
0.000293975934976719
0.000293046552759081
0.000291184005127052
0.000287651769770335
0.000281326329892249
0.000270649285400741
0.0002536844877979
0.000228331845383201
0.000192709129173193
0.00014564544402443
8.71602303176331e-05
1.81195471611348e-05
6.19845513431444e-07
6.13232296835784e-07
1.79931665302355e-05
8.67539188308428e-05
0.000145093287015237
0.000192093552413911
0.000227716079484975
0.000253107486128295
0.000270127296574573
0.00028085901529136
0.000287229649605977
0.000290794717413904
0.000292678777816315
0.000293621068659087
0.000294068116889836
0.000294269796204251
0.000294356524812393
0.000294392159618672
0.000294406179025735
0.000294411469380443
0.000294413385745121
0.00029441405087784
0.000294414269904029
0.000294414335778594
0.000294414350916872
0.000294414349704673
0.000294414342461553
0.000294414329292023
0.000294414300440781
0.000294414222943507
0.000294413998014444
0.000294413342405475
0.000294411475436812
0.000294406332741398
0.000294392691247621
0.00029435794554815
0.000294273176202203
0.00029407555604308
0.000293636400505799
0.0002927084508454
0.000290848593533794
0.000287321162571019
0.000281003871971682
0.00027033994747509
0.000253395195686968
0.000228071635012796
0.00019248902798106
0.000145478026297958
8.70588732192644e-05
1.80989961223263e-05
6.19190742260645e-07
6.12006760035858e-07
1.79557617672154e-05
8.65740103165952e-05
0.000144800758355028