/*--------------------------------*- C++ -*----------------------------------*\
  =========                 |
  \\      /  F ield         | OpenFOAM: The Open Source CFD Toolbox
   \\    /   O peration     | Website:  https://openfoam.org
    \\  /    A nd           | Version:  10
     \\/     M anipulation  |
\*---------------------------------------------------------------------------*/
FoamFile
{
    format      ascii;
    class       volScalarField;
    location    "6.4";
    object      nut;
}
// * * * * * * * * * * * * * * * * * * * * * * * * * * * * * * * * * * * * * //

dimensions      [0 2 -1 0 0 0 0];

internalField   nonuniform List<scalar> 
2500
(
7.62182449599719e-15
1.49445335547705e-13
6.36862018982079e-13
1.0985447302586e-12
1.48800521801647e-12
1.79154239391159e-12
2.01094838042093e-12
2.15838942207365e-12
2.2507437176473e-12
2.30481850510374e-12
2.33450221985217e-12
2.34982475777486e-12
2.35728441476077e-12
2.36071936213167e-12
2.36221933706891e-12
2.3628418906e-12
2.3630878308588e-12
2.36318028369688e-12
2.36321319589142e-12
2.36322409735022e-12
2.36322726398482e-12
2.36322788009238e-12
2.36322774325841e-12
2.36322744622672e-12
2.36322718942191e-12
2.36322701481492e-12
2.36322691099597e-12
2.36322678462641e-12
2.36322634220608e-12
2.36322475448698e-12
2.36321965675309e-12
2.36320452022318e-12
2.36316210392336e-12
2.36304880271686e-12
2.36275929533965e-12
2.36205136308382e-12
2.36039658538627e-12
2.35670627365125e-12
2.34887309965572e-12
2.33308960824359e-12
2.30298632541376e-12
2.24880319758064e-12
2.15705191536449e-12
2.0113337846148e-12
1.7949297992722e-12
1.49524686300194e-12
1.1091951458545e-12
6.48099787145922e-13
1.5423028022473e-13
8.01935469933789e-15
7.53227238391899e-13
3.87437738546827e-11
1.68561001710774e-10
2.91010039577517e-10
3.94524188647787e-10
4.7547405098371e-10
5.34236172817373e-10
5.73921811280266e-10
5.9891990596574e-10
6.13646316493771e-10
6.21782891522496e-10
6.26011537713093e-10
6.28084662634125e-10
6.29046097539316e-10
6.29468965629505e-10
6.29645752283033e-10
6.29716108489539e-10
6.29742759305292e-10
6.29752327753195e-10
6.29755533508853e-10
6.29756484971462e-10
6.29756685671501e-10
6.29756660733227e-10
6.29756584451395e-10
6.29756516520651e-10
6.29756469462199e-10
6.29756439709013e-10
6.29756400129874e-10
6.29756265988572e-10
6.29755795034747e-10
6.29754301195652e-10
6.29749905111989e-10
6.29737675575112e-10
6.29705226837212e-10
6.29622850620441e-10
6.29422709928539e-10
6.28957892142524e-10
6.27927963160437e-10
6.25755823913016e-10
6.21406844983828e-10
6.13163769621555e-10
5.98416191106615e-10
5.73586024708699e-10
5.34360667850487e-10
4.76387195570695e-10
3.96437972783172e-10
2.9379737982861e-10
1.71482989108715e-10
3.99563366256414e-11
7.90909670128423e-13
2.66606571610477e-12
6.94613779973798e-10
2.37314680153068e-07
4.08704102404025e-07
5.52597029157034e-07
6.64755396868062e-07
7.46080549212681e-07
8.01044334676486e-07
8.35743985634612e-07
8.56255448373284e-07
8.67636763972828e-07
8.73580553104425e-07
8.76509950761324e-07
8.77876068522185e-07
8.78480407278701e-07
8.78734567896719e-07
8.78836342293258e-07
8.78875147786082e-07
8.7888918507466e-07
8.78893936411757e-07
8.78895373970675e-07
8.78895697623756e-07
8.78895680768319e-07
8.78895582883457e-07
8.78895492102308e-07
8.78895427688194e-07
8.78895384411846e-07
8.78895322970124e-07
8.78895120761515e-07
8.78894425074379e-07
8.78892240661718e-07
8.78885855274428e-07
8.78868182678086e-07
8.78821503281763e-07
8.78703507929997e-07
8.78418037776678e-07
8.77757844207963e-07
8.76301183453392e-07
8.73241916228419e-07
8.67141731901604e-07
8.55623950599914e-07
8.35088773707048e-07
8.00611303969361e-07
7.46246885772701e-07
6.6594320429527e-07
5.55078600681741e-07
4.12314202556539e-07
2.41093034220137e-07
7.14297352605674e-10
2.77836706907832e-12
4.70819354517747e-12
1.23526132417223e-09
4.23027774830829e-07
7.25360866713096e-07
9.77367771941596e-07
1.17277312699422e-06
1.31396226910034e-06
1.40918922244277e-06
1.46925527423224e-06
1.50476232614449e-06
1.52447810819845e-06
1.53478668365522e-06
1.53987509369922e-06
1.54225237074247e-06
1.54330617368966e-06
1.54375036154587e-06
1.54392867263064e-06
1.54399685249935e-06
1.54402160019232e-06
1.54403001810205e-06
1.54403258890703e-06
1.54403318415508e-06
1.54403317013131e-06
1.544033011133e-06
1.54403285851775e-06
1.54403274856707e-06
1.54403267300184e-06
1.5440325652184e-06
1.54403221632394e-06
1.54403102140111e-06
1.54402727050837e-06
1.54401629928195e-06
1.54398590482684e-06
1.54390553779468e-06
1.54370217992737e-06
1.543209732096e-06
1.54206994971653e-06
1.53955340403943e-06
1.53426518169815e-06
1.52371529539109e-06
1.50378633773766e-06
1.46823332228506e-06
1.40848777811767e-06
1.31414427382486e-06
1.17446907972805e-06
9.80983280107448e-07
7.30639853362526e-07
4.28517137851991e-07
1.26334565588671e-09
4.86580155565291e-12
6.70152885025723e-12
1.75922430112669e-09
6.00582700928257e-07
1.02571463127642e-06
1.37795326159963e-06
1.64988933609576e-06
1.84580518930547e-06
1.97772098146937e-06
2.06087019943325e-06
2.11002433836193e-06
2.13733409824542e-06
2.15162768923838e-06
2.15869252051989e-06
2.16199840905027e-06
2.16346650445589e-06
2.16408657805779e-06
2.16433606389031e-06
2.16443171099178e-06
2.16446654428142e-06
2.16447845176528e-06
2.16448212422154e-06
2.16448299870716e-06
2.16448300294016e-06
2.16448279969121e-06
2.16448259632615e-06
2.1644824468716e-06
2.16448234098222e-06
2.16448218883232e-06
2.16448170621711e-06
2.16448006454677e-06
2.16447491770584e-06
2.16445985881638e-06
2.164418102193e-06
2.16430756982342e-06
2.16402756727161e-06
2.16334879655041e-06
2.16177625663962e-06
2.15830129732818e-06
2.15099378153579e-06
2.13640617141551e-06
2.10883328471546e-06
2.05961105684148e-06
1.97682343454034e-06
1.84592955787795e-06
1.65177425031797e-06
1.3820710969832e-06
1.03175818549671e-06
6.06856241610886e-07
1.79149009351626e-09
6.88495786186712e-12
8.58616972843036e-12
2.25437623549329e-09
7.66875188191039e-07
1.30503771148545e-06
1.74862616900775e-06
2.08982734117556e-06
2.33505531970342e-06
2.49995174810394e-06
2.60383544448217e-06
2.66525404806682e-06
2.69939818009764e-06
2.7172859216633e-06
2.72613821166995e-06
2.73028665077192e-06
2.73213203381562e-06
2.7329129515111e-06
2.73322783500609e-06
2.73334886294488e-06
2.73339308521267e-06
2.73340827930297e-06
2.73341301501231e-06
2.73341417670346e-06
2.73341421621731e-06
2.73341398494097e-06
2.73341374286106e-06
2.73341356049739e-06
2.73341342623413e-06
2.73341323066407e-06
2.73341262414523e-06
2.73341058146268e-06
2.73340419523398e-06
2.73338551692046e-06
2.73333369602757e-06
2.73319640085348e-06
2.73284826066336e-06
2.73200350702713e-06
2.73004471360283e-06
2.72571287910969e-06
2.71659736269636e-06
2.6983899962477e-06
2.66395677831016e-06
2.60245279729615e-06
2.49893398199741e-06
2.33509353066373e-06
2.09169223720726e-06
1.7528073616027e-06
1.31121283204455e-06
7.73304170049655e-07
2.28806617617969e-09
8.78247576989081e-12
1.03272004540811e-11
2.71215154966e-09
9.19584468538083e-07
1.55997045729614e-06
2.08548211009776e-06
2.48844898263732e-06
2.77749908599543e-06
2.97165572833481e-06
3.09392975263204e-06
3.16623472279506e-06
3.20645496206893e-06
3.2275452428527e-06
3.23799464129613e-06
3.24289833633217e-06
3.24508315712462e-06
3.24600938170576e-06
3.24638362607862e-06
3.24652782402975e-06
3.24658068338266e-06
3.24659893815222e-06
3.24660468955158e-06
3.24660614407697e-06
3.24660623670332e-06
3.24660599323414e-06
3.24660572452813e-06
3.24660551600848e-06
3.24660535542263e-06
3.24660511685554e-06
3.24660439426775e-06
3.246601991603e-06
3.24659451154861e-06
3.24657265624164e-06
3.24651200970166e-06
3.24635122398173e-06
3.24594318185436e-06
3.24495225248122e-06
3.24265273117083e-06
3.23756389676986e-06
3.2268491024493e-06
3.20543649396649e-06
3.16492309368397e-06
3.09252468998434e-06
2.97059815365871e-06
2.77746309528071e-06
2.49018207125621e-06
2.08945454543835e-06
1.56586955101571e-06
9.25761843377582e-07
2.74545702632487e-09
1.05274706081858e-11
1.19023903246296e-11
3.1268711134352e-09
1.05720888634712e-06
1.78851358044999e-06
2.38637887264026e-06
2.84364934149545e-06
3.17112785276378e-06
3.3909161144854e-06
3.52930173672305e-06
3.61115393756937e-06
3.656712118084e-06
3.68062236967793e-06
3.69248201312869e-06
3.69805474575356e-06
3.70054134932121e-06
3.70159729193917e-06
3.70202477949331e-06
3.70218987940262e-06
3.70225059148771e-06
3.7022716639622e-06
3.7022783739944e-06
3.7022801234533e-06
3.70228028584227e-06
3.7022800451274e-06
3.70227976113504e-06
3.70227953292726e-06
3.70227934810789e-06
3.7022790668598e-06
3.70227823501377e-06
3.70227550974616e-06
3.70226707077296e-06
3.70224245247946e-06
3.70217414684609e-06
3.70199296935885e-06
3.70153286300189e-06
3.70041469230817e-06
3.69781813838131e-06
3.69206850830732e-06
3.67995612504864e-06
3.65573995908312e-06
3.60990442816141e-06
3.52796358960925e-06
3.38990201957191e-06
3.17106342345132e-06
2.84522138852674e-06
2.39001193886105e-06
1.79391653439127e-06
1.06290340957081e-06
3.15869092204541e-09
1.2100692461246e-11
1.32997029231937e-11
3.49539512352304e-09
1.17901322971712e-06
1.98989314237756e-06
2.65072280275402e-06
3.1550830279149e-06
3.51582355475878e-06
3.7577854030071e-06
3.91011538634338e-06
4.00024086802221e-06
4.05043335742107e-06
4.07679768836119e-06
4.08988805972968e-06
4.09604654722172e-06
4.09879832543365e-06
4.09996871617869e-06
4.100443400834e-06
4.10062713624563e-06
4.10069490487823e-06
4.10071854138434e-06
4.10072614464838e-06
4.10072818653874e-06
4.10072843321526e-06
4.10072820765035e-06
4.10072791836605e-06
4.10072767632762e-06
4.10072746938173e-06
4.10072714607576e-06
4.10072621154313e-06
4.10072319821986e-06
4.10071392479486e-06
4.10068692671252e-06
4.10061204546517e-06
4.10041336542341e-06
4.09990853045301e-06
4.09868090368565e-06
4.09582849584215e-06
4.08950899904442e-06
4.07619014147221e-06
4.04955188497516e-06
3.99911557479476e-06
3.90892151490059e-06
3.75689761954926e-06
3.51580102619533e-06
3.15652914553892e-06
2.65399812834245e-06
1.9947284389543e-06
1.1841315529468e-06
3.5251791124944e-09
1.34924930643775e-11
1.45158035887276e-11
3.81679061404355e-09
1.28492945083778e-06
2.16436931980119e-06
2.87920020966e-06
3.42383970613768e-06
3.812997356803e-06
4.07390120038198e-06
4.23815238577068e-06
4.33536100512043e-06
4.3895290532439e-06
4.41800379620885e-06
4.43215557434419e-06
4.43882086674543e-06
4.44180291056923e-06
4.44307308793752e-06
4.44358911704377e-06
4.44378927133194e-06
4.44386330627499e-06
4.44388924828996e-06
4.4438976720424e-06
4.44389999978832e-06
4.44390034355703e-06
4.44390014099349e-06
4.44389985462858e-06
4.44389960384525e-06
4.44389937694568e-06
4.44389901280287e-06
4.4438979824589e-06
4.44389471345462e-06
4.44388471997424e-06
4.44385569318237e-06
4.44377522980972e-06
4.44356170275916e-06
4.44301890111836e-06
4.44169826095169e-06
4.43862817432234e-06
4.43182331365838e-06
4.41747596213486e-06
4.38877149331339e-06
4.33440839871544e-06
4.23716748813948e-06
4.07321792391545e-06
3.81310107744912e-06
3.42523930856143e-06
2.88218053021723e-06
2.1686747592314e-06
1.28948090705112e-06
3.84441014706505e-09
1.4701441721939e-11
1.55546077691293e-11
4.09197856408622e-09
1.37544176015932e-06
2.31303623196425e-06
3.07351142490092e-06
3.65213278248133e-06
4.06524919493392e-06
4.34212795140093e-06
4.51644339448018e-06
4.61964155153714e-06
4.67717846835865e-06
4.70744609993563e-06
4.72250221626997e-06
4.72960072765311e-06
4.73278031992136e-06
4.7341364548637e-06
4.73468826598368e-06
4.73490271202772e-06
4.73498224435316e-06
4.73501023406637e-06
4.7350194017758e-06
4.73502200230837e-06
4.7350224465065e-06
4.73502227801119e-06
4.73502200113087e-06
4.73502174589449e-06
4.7350215013111e-06
4.73502109829746e-06
4.73501997960518e-06
4.73501648555932e-06
4.73500587670061e-06
4.73497513954627e-06
4.7348899935974e-06
4.73466402672211e-06
4.73408940101629e-06
4.73269072019914e-06
4.72943779792294e-06
4.72222486019557e-06
4.70701208079818e-06
4.67656792069917e-06
4.61889715954125e-06
4.51571871140658e-06
4.34171846769389e-06
4.06556697393473e-06
3.65358987244071e-06
3.07631043534723e-06
2.31692168437214e-06
1.37950569440029e-06
4.11760743934722e-09
1.57328966794152e-11
1.6425776757609e-11
4.3233639905278e-09
1.45146825102108e-06
2.43762740756383e-06
3.23612114803442e-06
3.84301303823109e-06
4.27605829574192e-06
4.56623349010802e-06
4.74893645014266e-06
4.85713524341097e-06
4.91749110569139e-06
4.94926289354184e-06
4.96507996557012e-06
4.97254421592741e-06
4.97589119699252e-06
4.97732046436289e-06
4.97790286176625e-06
4.97812959450108e-06
4.97821388983749e-06
4.9782436753377e-06
4.9782535097177e-06
4.97825636459039e-06
4.97825691041139e-06
4.97825678185999e-06
4.97825651927088e-06
4.97825626309591e-06
4.97825600320574e-06
4.97825556404507e-06
4.97825436513254e-06
4.97825067515366e-06
4.97823954611026e-06
4.97820738410316e-06
4.97811835939402e-06
4.97788210389707e-06
4.97728115187302e-06
4.97581785770138e-06
4.97241340801688e-06
4.96486196153422e-06
4.94893075082075e-06
4.91704158432433e-06
4.85662240810385e-06
4.74850920011379e-06
4.56615446423673e-06
4.27667201914057e-06
3.84463858645175e-06
3.23887661177164e-06
2.44124173419648e-06
1.45516489524441e-06
4.34736893751344e-09
1.65975186290165e-11
1.71431900659266e-11
4.51445596890996e-09
1.51424281949506e-06
2.54032869088359e-06
3.37002338902325e-06
4.00010224091191e-06
4.44949720401366e-06
4.75059124011661e-06
4.94019225235033e-06
5.05251172914737e-06
5.11519596973108e-06
5.14821352259433e-06
5.16466274604932e-06
5.17243184953473e-06
5.17591887026591e-06
5.1774095729689e-06
5.17801778553147e-06
5.17825494776473e-06
5.17834331739131e-06
5.17837465726898e-06
5.17838508107326e-06
5.17838816912284e-06
5.17838881394145e-06
5.17838872795608e-06
5.17838848290754e-06
5.17838822857183e-06
5.17838795581345e-06
5.17838748387661e-06
5.17838621342586e-06
5.17838235506476e-06
5.17837079165357e-06
5.17833745772172e-06
5.17824526247704e-06
5.17800061224047e-06
5.17737817887906e-06
5.17586212336051e-06
5.17233382781037e-06
5.16450547534163e-06
5.14798616128658e-06
5.11491350680217e-06
5.05224256377432e-06
4.9400855626838e-06
4.7508840681578e-06
4.45047545245617e-06
4.00199989390901e-06
3.37287505754186e-06
2.54383238090551e-06
1.51770881864378e-06
4.53730082367675e-09
1.73097815682531e-11
1.77234530762854e-11
4.66949133486907e-09
1.56520080713304e-06
2.62360107792232e-06
3.47852158157607e-06
4.12734550425484e-06
4.58996672812194e-06
4.89990455581886e-06
5.09510224372881e-06
5.21077208331772e-06
5.2753541288142e-06
5.30938992605537e-06
5.32635745875088e-06
5.33437737111915e-06
5.33798003755281e-06
5.33952168449397e-06
5.34015140498304e-06
5.34039730619435e-06
5.34048911575787e-06
5.3405217831333e-06
5.34053272032369e-06
5.34053601794337e-06
5.34053675623613e-06
5.34053671390983e-06
5.34053648835675e-06
5.34053623801301e-06
5.34053595485902e-06
5.34053545403083e-06
5.34053412108823e-06
5.34053012019365e-06
5.34051819894409e-06
5.34048391414373e-06
5.34038916308522e-06
5.3401377594289e-06
5.33949804595793e-06
5.33793951965622e-06
5.334311447397e-06
5.32625982290586e-06
5.3092659961125e-06
5.27523796768035e-06
5.2107486984794e-06
5.09532573517889e-06
4.90059407536266e-06
4.59135988237448e-06
4.12960131738527e-06
3.48159478217778e-06
2.62714549153837e-06
1.56857019991121e-06
4.69165930904122e-09
1.78865427665102e-11
1.81845173932746e-11
4.79308227932145e-09
1.60587342635518e-06
2.69001948418058e-06
3.5650298860403e-06
4.22878821936142e-06
4.70195745149691e-06
5.01895873918109e-06
5.21863495638982e-06
5.33699188622061e-06
5.40309998864358e-06
5.43795695576665e-06
5.45534382112914e-06
5.46356735704165e-06
5.4672642701722e-06
5.46884760879167e-06
5.4694950145031e-06
5.46974814243706e-06
5.46984281811177e-06
5.46987660395355e-06
5.46988798176397e-06
5.46989146430845e-06
5.46989228878003e-06
5.4698922892923e-06
5.46989208402587e-06
5.46989183927432e-06
5.46989154816603e-06
5.46989102264573e-06
5.46988963634743e-06
5.46988551683723e-06
5.46987330511223e-06
5.46983825984194e-06
5.46974147821662e-06
5.46948472052644e-06
5.46883130957355e-06
5.46723909691326e-06
5.46353181959178e-06
5.4553028157171e-06
5.43793176164467e-06
5.40314386004443e-06
5.33720789227835e-06
5.21918601364225e-06
5.02005337413503e-06
4.70379541471647e-06
4.23146459051855e-06
3.56842497414941e-06
2.6937329139422e-06
1.60926438679737e-06
4.81501901062984e-09
1.83457421672146e-11
1.85444901187606e-11
4.88990852139918e-09
1.63779632104654e-06
2.74213451997846e-06
3.6329036785675e-06
4.30838613735709e-06
4.78984679952779e-06
5.1124100068584e-06
5.31562008652577e-06
5.43610244747035e-06
5.50342092184717e-06
5.5389311542526e-06
5.55665271092282e-06
5.56503935066569e-06
5.56881204888491e-06
5.57042905482262e-06
5.57109081021709e-06
5.57134983528122e-06
5.57144686718229e-06
5.57148158257628e-06
5.57149333310318e-06
5.57149697608707e-06
5.57149787824001e-06
5.57149791926547e-06
5.57149773417883e-06
5.5714974961631e-06
5.57149719945287e-06
5.57149665356348e-06
5.57149522286106e-06
5.5714910065073e-06
5.57147856275778e-06
5.57144291852556e-06
5.57134454794295e-06
5.57108360961067e-06
5.57041950476787e-06
5.56880097626205e-06
5.56503177239294e-06
5.55666397329597e-06
5.53899755007822e-06
5.50361436724119e-06
5.43654467775218e-06
5.31648573106962e-06
5.1139032199403e-06
4.79213914330173e-06
4.31151965361942e-06
3.6366909633578e-06
2.74611464682584e-06
1.64130341949682e-06
4.91198617042506e-09
1.87052965064099e-11
1.88206870779379e-11
4.9644694335084e-09
1.66243628846081e-06
2.78236270998398e-06
3.68530554870402e-06
4.36985556227649e-06
4.85773909262199e-06
5.18461917413945e-06
5.39057828720903e-06
5.51271830258305e-06
5.58098346339779e-06
5.61700624506825e-06
5.6349912920066e-06
5.6435068086094e-06
5.64733962578069e-06
5.6489834547099e-06
5.64965669784129e-06
5.64992047084211e-06
5.65001941380829e-06
5.6500548911812e-06
5.65006695239409e-06
5.65007073227784e-06
5.65007170305632e-06
5.65007178147111e-06
5.65007161578363e-06
5.65007138527668e-06
5.65007108516971e-06
5.65007052317046e-06
5.650069056566e-06
5.65006476282569e-06
5.65005213700238e-06
5.65001602870136e-06
5.64991643449441e-06
5.64965228316327e-06
5.64897996020111e-06
5.64734119452824e-06
5.64352432638731e-06
5.63504960733956e-06
5.61715548572683e-06
5.58131315097574e-06
5.51336866038915e-06
5.39173748556971e-06
5.18649195046946e-06
4.86047719129092e-06
4.37345812071966e-06
3.68952484967303e-06
2.78667452480906e-06
1.66612756508535e-06
4.98696986243368e-09
1.8982232672872e-11
1.90289526466275e-11
5.02090307942945e-09
1.68113792840895e-06
2.81290741506524e-06
3.72510939671595e-06
4.41656653167009e-06
4.90935170729515e-06
5.23953336847675e-06
5.44760012764824e-06
5.57101451917602e-06
5.64000966213444e-06
5.67642895648045e-06
5.69461855949588e-06
5.70323450567931e-06
5.70711436195417e-06
5.70877927059776e-06
5.70946158600932e-06
5.70972913018436e-06
5.70982960222931e-06
5.70986569567598e-06
5.70987801215468e-06
5.7098819069796e-06
5.70988293747383e-06
5.70988304981865e-06
5.70988290216068e-06
5.70988267964505e-06
5.70988237815943e-06
5.70988180409849e-06
5.70988030944027e-06
5.70987595538304e-06
5.70986318953031e-06
5.7098267281314e-06
5.7097262078321e-06
5.70945962871684e-06
5.70878109500918e-06
5.70712702222509e-06
5.70327406444449e-06
5.69471831092953e-06
5.67665147472782e-06
5.64046063528891e-06
5.57185183296889e-06
5.44902632432779e-06
5.24175736866271e-06
4.91251228159538e-06
4.42062888272882e-06
3.72977311057201e-06
2.81758535578329e-06
1.68505575652629e-06
5.04401654378816e-09
1.91920750463932e-11
1.91832369350908e-11
5.06287078319718e-09
1.69508971158006e-06
2.8357094387407e-06
3.75484128111122e-06
4.45147746818977e-06
4.94794576606992e-06
5.28061418372389e-06
5.49027264107294e-06
5.61465225045575e-06
5.68420203943663e-06
5.72092363904468e-06
5.73926977070476e-06
5.74796286859669e-06
5.75187901297147e-06
5.75356025725608e-06
5.75424963849378e-06
5.75452013696462e-06
5.75462181575549e-06
5.75465840049987e-06
5.7546709237746e-06
5.75467491352627e-06
5.75467599563136e-06
5.75467613869439e-06
5.7546760068807e-06
5.75467579259747e-06
5.75467549152603e-06
5.75467490911406e-06
5.75467339344912e-06
5.75466899376969e-06
5.75465612275988e-06
5.75461939828416e-06
5.75451819075564e-06
5.75424981166475e-06
5.75356667021615e-06
5.75190122698259e-06
5.7480214250178e-06
5.73940532187198e-06
5.72120972249005e-06
5.68475884165308e-06
5.61565402363738e-06
5.49193630036053e-06
5.28315518524047e-06
4.95149521547132e-06
4.4559742613947e-06
3.75993974256292e-06
2.84076237273903e-06
1.69925429482385e-06
5.08670578380811e-09
1.93484732940761e-11
1.92953960388911e-11
5.09349921587301e-09
1.70530710621933e-06
2.85242360130512e-06
3.77665238358746e-06
4.47710609123863e-06
4.97629579901209e-06
5.31080652059587e-06
5.52164760009239e-06
5.64674662062726e-06
5.71671121407778e-06
5.75365972511724e-06
5.77212380584406e-06
5.78087528116492e-06
5.78481900462656e-06
5.78651272307292e-06
5.78720752812472e-06
5.78748030808673e-06
5.78758292592585e-06
5.78761989708908e-06
5.78763258563872e-06
5.78763665266797e-06
5.78763777816888e-06
5.78763794767941e-06
5.78763783141587e-06
5.78763762551195e-06
5.78763732641123e-06
5.78763673894753e-06
5.78763520844095e-06
5.78763077557504e-06
5.78761782796793e-06
5.78758091260737e-06
5.78747920739555e-06
5.78720952423185e-06
5.78652303897248e-06
5.78484932739924e-06
5.78094996574706e-06
5.77228981062216e-06
5.75400007735294e-06
5.71735885009973e-06
5.64789058524255e-06
5.5235185723331e-06
5.313627807288e-06
4.98019475400213e-06
4.48200156665324e-06
3.78216037655048e-06
2.85784135290853e-06
1.70972148877302e-06
5.11809913427954e-09
1.94630354610553e-11
1.93751663532197e-11
5.11536798070033e-09
1.71262925850633e-06
2.86441588031744e-06
3.7923173839775e-06
4.49552901844428e-06
4.99669025864522e-06
5.33253966139027e-06
5.54424287379607e-06
5.66986818970498e-06
5.74013738523388e-06
5.77725319506962e-06
5.79580461071397e-06
5.80459950772762e-06
5.80856384363641e-06
5.81026693326727e-06
5.81096583596844e-06
5.81124035080504e-06
5.81134368856318e-06
5.81138095938891e-06
5.81139377832692e-06
5.81139790772727e-06
5.81139906912577e-06
5.81139926182944e-06
5.8113991600104e-06
5.81139896251396e-06
5.81139866668565e-06
5.81139807700728e-06
5.81139653691588e-06
5.81139208121478e-06
5.81137908017838e-06
5.81134203143105e-06
5.81123997796425e-06
5.81096937966089e-06
5.81028053929552e-06
5.80860098253988e-06
5.80468774625214e-06
5.79599624989194e-06
5.77763937505343e-06
5.74086209642444e-06
5.67113360444417e-06
5.54629245180617e-06
5.33560509780803e-06
5.0008978958062e-06
4.50078263888939e-06
3.79820084779894e-06
2.87017620355075e-06
1.71728488756905e-06
5.14073067003439e-09
1.95453191397464e-11
1.94302584867333e-11
5.13052902112404e-09
1.71772520827559e-06
2.87277494799544e-06
3.80325057405295e-06
4.50840137075209e-06
5.01095354047174e-06
5.34775081778459e-06
5.56006685900849e-06
5.68606785071506e-06
5.75655545205123e-06
5.79379179087832e-06
5.8124064441053e-06
5.82123294960502e-06
5.82521237461646e-06
5.82692236538286e-06
5.82762430536984e-06
5.82790011578858e-06
5.82800399625538e-06
5.82804149599437e-06
5.8280544165431e-06
5.82805859600628e-06
5.82805978715136e-06
5.82805999990747e-06
5.82805991128155e-06
5.82805972212195e-06
5.82805943061519e-06
5.82805884108005e-06
5.82805729577806e-06
5.82805282575117e-06
5.82803979002005e-06
5.82800265374296e-06
5.82790037012157e-06
5.82762916231208e-06
5.82693874085409e-06
5.82525523069316e-06
5.82133254859908e-06
5.81261959533689e-06
5.79421653660465e-06
5.75734530505917e-06
5.6874365202953e-06
5.56226945141743e-06
5.35102744185735e-06
5.01543134789857e-06
4.51397289089722e-06
3.80947280292664e-06
2.87885012199469e-06
1.72260731626935e-06
5.15662638590331e-09
1.96029295243115e-11
1.9466518584749e-11
5.1405445344412e-09
1.72110568529382e-06
2.87833202018034e-06
3.81053211714296e-06
4.51698775230698e-06
5.02048019396362e-06
5.35792140079916e-06
5.57065597094367e-06
5.6969149927472e-06
5.76755352071361e-06
5.80487368537928e-06
5.82353261734264e-06
5.83238141228924e-06
5.83637155686233e-06
5.83808648875756e-06
5.83879062184155e-06
5.83906737681506e-06
5.83917165777726e-06
5.83920932934916e-06
5.83922232813023e-06
5.83922654764104e-06
5.83922776354126e-06
5.83922799355696e-06
5.83922791690365e-06
5.83922773592672e-06
5.83922744952912e-06
5.83922686201249e-06
5.83922531504155e-06
5.83922083761937e-06
5.83920778243402e-06
5.83917059574495e-06
5.83906817695971e-06
5.8387966039994e-06
5.83810521696387e-06
5.83641925076043e-06
5.83249061399954e-06
5.82376396759151e-06
5.80533113493167e-06
5.76839882365692e-06
5.69837201535581e-06
5.57299037255546e-06
5.36138145791881e-06
5.02519501392891e-06
4.52284141954036e-06
3.81705900591315e-06
2.88469452671084e-06
1.72619799968186e-06
5.16734006836948e-09
1.96416759044998e-11
1.9488111720737e-11
5.14653165272585e-09
1.72313694778348e-06
2.88168354942601e-06
3.81493760611183e-06
4.5221967970428e-06
5.02627287132499e-06
5.364117146027e-06
5.57711607267708e-06
5.70353966154404e-06
5.77427544954613e-06
5.81165021500309e-06
5.83033831274806e-06
5.83920196032554e-06
5.84319933351432e-06
5.84491763878772e-06
5.84562328890658e-06
5.84590070698778e-06
5.84600527431206e-06
5.84604307188819e-06
5.84605613012968e-06
5.84606038158317e-06
5.84606161817177e-06
5.84606186326638e-06
5.84606179751792e-06
5.84606162452895e-06
5.84606134378112e-06
5.84606075969269e-06
5.84605921383501e-06
5.84605473465669e-06
5.84604167268724e-06
5.84600446669581e-06
5.84590199225694e-06
5.8456302575309e-06
5.84493841363568e-06
5.84325122016277e-06
5.83931947460571e-06
5.83058542568753e-06
5.81213604413771e-06
5.77516902157066e-06
5.70507393399254e-06
5.57956635410784e-06
5.36773956040502e-06
5.03119916314081e-06
4.52830454772107e-06
3.82174171536258e-06
2.88831053841829e-06
1.72842544604448e-06
5.17399472121505e-09
1.96657445811014e-11
1.94976914555079e-11
5.14920449316259e-09
1.7240537878334e-06
2.88321229236391e-06
3.81696520709824e-06
4.52461270358816e-06
5.02897688112586e-06
5.36702462008171e-06
5.58016016831443e-06
5.70667093021048e-06
5.7774595892968e-06
5.81486480703101e-06
5.83356960213166e-06
5.84244197901965e-06
5.84644371383198e-06
5.84816410963387e-06
5.8488707268235e-06
5.84914858149344e-06
5.84925334524359e-06
5.84929123423543e-06
5.84930433891627e-06
5.84930861739733e-06
5.84930987259394e-06
5.84931013178954e-06
5.84931007664068e-06
5.84930991146661e-06
5.84930963635427e-06
5.84930905598905e-06
5.849307512316e-06
5.84930303458383e-06
5.84928997498629e-06
5.84925277509753e-06
5.8491503134138e-06
5.8488785949286e-06
5.84818674008854e-06
5.84649939116736e-06
5.84256700147423e-06
5.83383095665264e-06
5.81537630992897e-06
5.77839692444936e-06
5.70827547070297e-06
5.58271625931922e-06
5.3707959865703e-06
5.03409828241156e-06
4.53095640230239e-06
3.82402862180074e-06
2.89008871108773e-06
1.72952936628126e-06
5.17732072940122e-09
1.96778548204573e-11
1.94965246502858e-11
5.1489052671282e-09
1.72396935257908e-06
2.88310336223112e-06
3.81685650665548e-06
4.52451947500436e-06
5.02890665769459e-06
5.36697907214326e-06
5.58013706348029e-06
5.70666600106178e-06
5.7774680523038e-06
5.81488235012101e-06
5.83359286509068e-06
5.84246861000087e-06
5.84647221219682e-06
5.84819359110726e-06
5.84890070553589e-06
5.8491788063668e-06
5.84928369307668e-06
5.84932164682509e-06
5.84933478911079e-06
5.84933909212886e-06
5.84934036533373e-06
5.84934063860873e-06
5.84934059412253e-06
5.84934043653146e-06
5.84934016656435e-06
5.84933958932985e-06
5.84933804761626e-06
5.84933357285386e-06
5.84932052272211e-06
5.84928335182597e-06
5.84918096780214e-06
5.84890943691109e-06
5.8482180001647e-06
5.84653152043313e-06
5.84260082261823e-06
5.83386786024127e-06
5.81541845534773e-06
5.77844735183232e-06
5.70833797713446e-06
5.58279487639762e-06
5.37089395557403e-06
5.03421655928314e-06
4.53109187232977e-06
3.82417225427649e-06
2.89022377230181e-06
1.72962957059517e-06
5.17768419289951e-09
1.96793736699963e-11
1.94845696665602e-11
5.14562432176707e-09
1.7228811008195e-06
2.88135329444419e-06
3.81460786650447e-06
4.52191388231187e-06
5.02605980141238e-06
5.36397916262452e-06
5.57704651248213e-06
5.70352560229972e-06
5.77430233204421e-06
5.81170489589334e-06
5.83041051337958e-06
5.83928448194116e-06
5.84328757865969e-06
5.84500889656284e-06
5.84571606922396e-06
5.84599423975365e-06
5.84609918176139e-06
5.84613717571149e-06
5.84615034732818e-06
5.84615467238193e-06
5.8461559628262e-06
5.84615624990024e-06
5.84615621586979e-06
5.84615606548237e-06
5.84615580013115e-06
5.84615522552163e-06
5.84615368582151e-06
5.84614921617807e-06
5.8461361839797e-06
5.84609906802004e-06
5.84599683338274e-06
5.84572567638323e-06
5.84503511832774e-06
5.84335059583606e-06
5.83942404604787e-06
5.83069945734322e-06
5.81226615125459e-06
5.77532450340079e-06
5.70526637847544e-06
5.57980801785303e-06
5.36804021608526e-06
5.03156153056083e-06
4.52871887991574e-06
3.82218025766016e-06
2.88872220613913e-06
1.72873030459178e-06
5.17509954288144e-09
1.96703605638172e-11
1.9460494352288e-11
5.13900402348994e-09
1.72067150996198e-06
2.87777069460816e-06
3.80997086172442e-06
4.51650571651862e-06
5.0201172028672e-06
5.35768700183972e-06
5.57053920376559e-06
5.69689394500634e-06
5.76760326500936e-06
5.80497159489129e-06
5.82366092937965e-06
5.83252765453214e-06
5.83652774876522e-06
5.83824791826405e-06
5.83895469666325e-06
5.83923275665862e-06
5.83933768520472e-06
5.83937569425485e-06
5.83938888645274e-06
5.8393932306031e-06
5.83939453715425e-06
5.83939483740521e-06
5.8393948133619e-06
5.83939466970167e-06
5.83939440849744e-06
5.83939383626317e-06
5.83939229918672e-06
5.83938783795788e-06
5.83937483465219e-06
5.83933780531815e-06
5.8392358054356e-06
5.83896524094632e-06
5.8382760970319e-06
5.83659478740929e-06
5.83267520219386e-06
5.82396502020261e-06
5.80556012777972e-06
5.76867184040537e-06
5.69870900710868e-06
5.57341228160175e-06
5.36190470577241e-06
5.02582361528079e-06
4.52355778141524e-06
3.81781469805283e-06
2.88540158818161e-06
1.72671995520276e-06
5.16922987052563e-09
1.9649581414555e-11
1.94216023640596e-11
5.12832078275676e-09
1.71710317723021e-06