/*--------------------------------*- C++ -*----------------------------------*\
  =========                 |
  \\      /  F ield         | OpenFOAM: The Open Source CFD Toolbox
   \\    /   O peration     | Website:  https://openfoam.org
    \\  /    A nd           | Version:  10
     \\/     M anipulation  |
\*---------------------------------------------------------------------------*/
FoamFile
{
    format      ascii;
    class       volScalarField;
    location    "6.4";
    object      omega;
}
// * * * * * * * * * * * * * * * * * * * * * * * * * * * * * * * * * * * * * //

dimensions      [0 0 -1 0 0 0 0];

internalField   nonuniform List<scalar> 
2500
(
127996.091279565
128006.933598664
128003.362045407
128000.827108688
127999.313176808
127998.462868687
127998.001621726
127997.759149139
127997.636437694
127997.577419353
127997.549639403
127997.537249
127997.531931979
127997.529445331
127997.528211019
127997.527399524
127997.527031952
127997.526663968
127997.526277794
127997.526019444
127997.525800949
127997.525614963
127997.525462842
127997.525372439
127997.525275918
127997.52519596
127997.525170538
127997.52516389
127997.52518494
127997.5252376
127997.525325192
127997.525489668
127997.525676836
127997.525929526
127997.526291571
127997.526899012
127997.528083977
127997.530540291
127997.536432366
127997.549424618
127997.577953651
127997.638520568
127997.762134745
127998.00432644
127998.463786328
127999.308014287
128000.817915827
128003.365280281
128006.965835922
127996.05402305
31889.5959865432
14171.6605758822
14169.9464757758
14168.7513568131
14168.0197309012
14167.5951305879
14167.3564440668
14167.2266269889
14167.15877663
14167.1248859228
14167.1087109971
14167.1013515803
14167.0981545851
14167.09681241
14167.0962627561
14167.0960344869
14167.095942904
14167.0958959854
14167.0958636621
14167.095842145
14167.0958246988
14167.0958092988
14167.095796414
14167.0957876919
14167.0957799126
14167.0957733451
14167.0957700817
14167.0957682255
14167.095767703
14167.0957697342
14167.0957749283
14167.0957866144
14167.0958101492
14167.0958569921
14167.0959578508
14167.0962019643
14167.0968048212
14167.0982627923
14167.1016938994
14167.1094183679
14167.1261073464
14167.1606204777
14167.2289241886
14167.3585750097
14167.5959379102
14168.0180544121
14168.748793899
14169.9514660266
14171.6830449862
31889.5566323276
31788.934426629
3531.47363807878
50.8445698099294
50.8387293611749
50.8351871431294
50.8331396639437
50.8319904879748
50.8313652619632
50.8310378360101
50.830873711258
50.8307951305713
50.8307592436339
50.8307436039414
50.8307370677458
50.8307344347172
50.8307333983385
50.8307330037513
50.8307328386326
50.8307327517201
50.8307326997422
50.8307326591156
50.830732621674
50.8307325890473
50.8307325662614
50.8307325477391
50.8307325318544
50.8307325225322
50.8307325155374
50.830732509793
50.8307325088706
50.8307325158894
50.830732543177
50.8307326255548
50.8307328165277
50.8307332643862
50.8307344068204
50.8307372967351
50.8307443591929
50.8307609756577
50.8307984054662
50.8308791517731
50.8310458070157
50.8313750643366
50.8319995264057
50.8331432638176
50.8351820457641
50.8387274799575
50.8446200400385
3531.48549615529
31788.9819624865
31700.6101779746
3521.55397234526
50.701566562836
50.6958489551114
50.692483940969
50.6905913852304
50.6895547693761
50.6890022367544
50.6887176620861
50.6885769100642
50.6885102630241
50.6884801039422
50.6884670655182
50.6884616656802
50.6884595171938
50.6884586919514
50.6884583882611
50.6884582727101
50.6884582207736
50.6884581926869
50.6884581707991
50.6884581486852
50.6884581279273
50.6884581132204
50.6884581023265
50.6884580928658
50.6884580866306
50.6884580808689
50.6884580744374
50.6884580707305
50.6884580692132
50.6884580769382
50.6884581343386
50.6884582800037
50.6884586233723
50.6884595240183
50.688461846857
50.6884676043986
50.6884813061583
50.6885125390642
50.6885807445341
50.6887234058387
50.6890095660617
50.6895620521125
50.6905957063294
50.6924849335787
50.6958631665756
50.7016521446887
3521.57134670128
31700.7943078043
31631.5745151161
3513.92809242926
50.5930818703182
50.588412824474
50.5857507075126
50.5842961314164
50.5835193521499
50.5831137530945
50.5829081373393
50.5828076339311
50.582760462326
50.5827392549647
50.5827301330267
50.5827263745509
50.5827248902329
50.5827243294393
50.5827241294673
50.5827240594498
50.5827240327323
50.5827240207005
50.5827240115486
50.5827240005132
50.5827239886874
50.5827239802226
50.5827239747035
50.5827239698615
50.5827239662625
50.5827239622189
50.5827239568365
50.58272395242
50.5827239479108
50.5827239447192
50.5827239779723
50.5827240729827
50.582724296783
50.582724898359
50.5827264727943
50.5827304155162
50.5827398808963
50.5827616538177
50.5828096719703
50.5829112625161
50.5831178729133
50.5835236848082
50.5842994249348
50.5857547569347
50.5884354027194
50.5931811267649
3513.94769656251
31631.8584667034
31582.7765380475
3508.64237011655
50.5189047286068
50.5155709985187
50.5137285124974
50.5127499706574
50.5122401808974
50.5119791763125
50.5118487626687
50.5117856551071
50.5117562328201
50.5117430611433
50.5117374111405
50.5117350891326
50.5117341764272
50.5117338360138
50.5117337183739
50.5117336805778
50.5117336689084
50.5117336656388
50.5117336636428
50.5117336595029
50.5117336535539
50.5117336492518
50.5117336470298
50.5117336450094
50.5117336432002
50.5117336407011
50.5117336368983
50.5117336329932
50.5117336279237
50.5117336213538
50.5117336381711
50.511733692539
50.5117338224499
50.5117341810021
50.5117351303977
50.5117375253116
50.5117433115945
50.5117567095557
50.511786480517
50.5118500545137
50.5119809097686
50.5122420234575
50.5127515647022
50.5137323016728
50.5155926380148
50.5189947433443
3508.6605476466
31583.0878635219
31551.2237535892
3505.29781009771
50.4726088635347
50.4704726311631
50.4693266257284
50.4687343374297
50.4684330217753
50.4682816043332
50.4682069409471
50.4681711184648
50.4681544998936
50.4681470783174
50.4681438979614
50.4681425919778
50.4681420802226
50.4681418913582
50.46814182793
50.46814180994
50.4681418066981
50.4681418065012
50.4681418068971
50.4681418065254
50.4681418040042
50.4681418021588
50.4681418016941
50.468141801095
50.4681418003034
50.468141798932
50.4681417965468
50.4681417936479
50.4681417894532
50.4681417834431
50.4681417905486
50.468141818246
50.4681418871138
50.4681420827864
50.4681426056531
50.468143931064
50.4681471473041
50.468154627598
50.4681713396091
50.4682072899943
50.4682820516936
50.4684333986781
50.4687345684697
50.4693287414693
50.4704883697384
50.4726770446343
3505.31224229762
31551.5007019478
31532.3868012759
3503.34653217566
50.4459660387135
50.4447162041115
50.4440643382982
50.4437360371426
50.4435727724608
50.4434921723703
50.4434529111764
50.4434342119028
50.4434255682813
50.4434217122393
50.4434200592561
50.4434193802221
50.4434191147084
50.4434190176308
50.4434189862103
50.4434189790285
50.4434189790226
50.4434189798196
50.4434189804516
50.4434189807623
50.4434189801308
50.4434189795789
50.4434189798808
50.4434189798516
50.4434189795528
50.4434189788746
50.4434189775031
50.4434189756058
50.4434189727278
50.443418968676
50.4434189706261
50.4434189830914
50.4434190172826
50.4434191166092
50.4434193838378
50.4434200632042
50.4434217160508
50.4434255701379
50.4434342113462
50.443452903839
50.4434921161778
50.4435725439731
50.4437355730802
50.4440649156298
50.4447255099533
50.4460108072441
3503.35662063254
31532.5984596096
31521.9226380818
3502.28814782932
50.4317092206505
50.4310331524643
50.4306897668422
50.4305210054962
50.4304388830245
50.4303990244532
50.4303798296296
50.4303707459066
50.4303665577005
50.4303646892272
50.4303638871949
50.4303635573413
50.4303634285657
50.4303633818789
50.4303633675999
50.4303633652058
50.4303633658289
50.4303633667228
50.430363367328
50.4303633677167
50.4303633677537
50.430363367814
50.4303633681208
50.4303633682317
50.4303633681485
50.4303633678051
50.4303633670661
50.4303633659409
50.4303633642072
50.4303633619823
50.4303633619975
50.4303633669141
50.4303633828306
50.4303634301971
50.4303635583357
50.430363884556
50.4303646790799
50.4303665334332
50.4303706988038
50.430379744918
50.4303988598612
50.430438535677
50.4305203758114
50.4306894914255
50.4310377100839
50.431735308572
3502.29448163756
31522.0661206818
31516.4774177549
3501.75066319692
50.4245653062709
50.4242238913738
50.4240547490332
50.4239735204849
50.4239348057383
50.423916320702
50.4239075149228
50.4239033713842
50.423901464242
50.4239006126817
50.4239002463975
50.4239000955024
50.4239000366714
50.4239000155262
50.4239000095268
50.4239000089288
50.4239000094549
50.4239000101185
50.4239000105961
50.423900010917
50.4239000110708
50.4239000112294
50.4239000114487
50.4239000115682
50.4239000115519
50.4239000113763
50.4239000110022
50.4239000103876
50.4239000094365
50.4239000082645
50.4239000079366
50.4239000097241
50.4239000166168
50.4239000379919
50.4239000961109
50.4239002441255
50.4239006045225
50.4239014451754
50.423903334114
50.4239074465205
50.4239161880298
50.4239345293033
50.4239729919413
50.4240542115729
50.4242256975514
50.4245790114305
3501.75428840933
31516.5654897517
31513.8078248202
3501.49356246141
50.4211929840201
50.4210307570945
50.4209522473426
50.4209153578073
50.4208981219619
50.4208900220217
50.420886203506
50.4208844160086
50.4208835941961
50.4208832267014
50.4208830682186
50.4208830028009
50.4208829773297
50.4208829682989
50.4208829659149
50.4208829658286
50.4208829661936
50.420882966604
50.420882966913
50.4208829671265
50.4208829672567
50.4208829673841
50.4208829675173
50.4208829675999
50.420882967599
50.4208829675139
50.4208829673359
50.420882967024
50.4208829665416
50.420882965958
50.4208829657059
50.4208829662928
50.4208829691061
50.420882978289
50.4208830033831
50.4208830672738
50.420883222611
50.4208835842574
50.4208843959993
50.4208861651637
50.4208899434914
50.4208979488771
50.4209150006075
50.4209517612287
50.4210312663817
50.4211995438928
3501.4954760704
31513.8574919791
31512.5685904701
3501.37712499844
50.4196856398414
50.4196126420964
50.4195780836587
50.4195621768326
50.4195548849625
50.4195515106583
50.4195499359863
50.4195492024082
50.4195488653638
50.4195487143519
50.4195486490348
50.4195486220168
50.4195486115115
50.4195486078462
50.4195486069494
50.4195486069857
50.4195486072009
50.4195486074271
50.4195486076025
50.4195486077269
50.4195486078116
50.4195486078917
50.4195486079649
50.4195486080126
50.4195486080161
50.4195486079785
50.419548607898
50.4195486077504
50.4195486075226
50.4195486072495
50.4195486071106
50.419548607279
50.4195486083721
50.4195486121497
50.4195486225188
50.4195486489016
50.4195487128849
50.4195488613899
50.4195491939417
50.419549918591
50.4195514716588
50.4195547912036
50.4195619668012
50.4195777453011
50.4196126669866
50.4196885194035
3501.37806520065
31512.594606154
31512.021611098
3501.32698320604
50.4190450143503
50.41901374026
50.4189992373902
50.4189926905201
50.4189897435859
50.4189884002379
50.4189877795397
50.4189874917007
50.4189873594972
50.4189873001296
50.4189872743702
50.4189872636929
50.4189872595487
50.4189872581282
50.41898725781
50.4189872578554
50.4189872579696
50.418987258085
50.4189872581765
50.4189872582435
50.4189872582924
50.4189872583375
50.4189872583757
50.4189872584014
50.4189872584062
50.4189872583922
50.4189872583586
50.418987258294
50.418987258194
50.4189872580742
50.4189872580101
50.4189872580507
50.4189872584586
50.418987259953
50.4189872640722
50.4189872745427
50.4189872998489
50.4189873583453
50.4189874888862
50.4189877729545
50.4189883832349
50.4189896978398
50.4189925791064
50.4189990355131
50.4190136448463
50.4190461768326
3501.32741640234
31512.0343769313
31511.7912915138
3501.30638540698
50.4187853521303
50.4187725367475
50.4187667079096
50.4187641245024
50.4187629817138
50.4187624683402
50.4187622334393
50.4187621249882
50.418762075184
50.4187620527646
50.418762043006
50.418762038954
50.4187620373856
50.41876203686
50.4187620367551
50.4187620367857
50.4187620368427
50.4187620368991
50.4187620369449
50.4187620369798
50.4187620370067
50.4187620370313
50.4187620370515
50.4187620370658
50.418762037071
50.418762037068
50.4187620370563
50.4187620370311
50.418762036991
50.4187620369425
50.4187620369147
50.418762036924
50.4187620370744
50.4187620376445
50.4187620392241
50.4187620432335
50.4187620528829
50.4187620750784
50.4187621243916
50.418762231441
50.4187624617278
50.4187629611694
50.4187640700575
50.4187665999418
50.4187724472647
50.418785782974
3501.30657373983
31511.7972004791
31511.6986082376
3501.29830359903
50.4186848992395
50.418679856797
50.4186776045688
50.4186766234521
50.4186761965877
50.4186760075305
50.4186759218534
50.4186758824691
50.4186758643843
50.4186758562241
50.4186758526621
50.418675851182
50.4186758506123
50.4186758504272
50.4186758503969
50.4186758504153
50.4186758504436
50.4186758504712
50.4186758504945
50.4186758505131
50.4186758505284
50.4186758505424
50.4186758505542
50.4186758505633
50.4186758505686
50.4186758505704
50.4186758505685
50.418675850561
50.4186758505475
50.4186758505305
50.4186758505205
50.4186758505239
50.4186758505795
50.4186758507909
50.4186758513781
50.4186758528645
50.4186758564236
50.4186758645645
50.4186758825577
50.4186759214862
50.4186760052572
50.4186761879959
50.4186765986182
50.4186775515518
50.4186797993188
50.4186850445758
3501.29838125884
31511.7012030428
31511.6630260994
3501.29528526675
50.4186479886349
50.4186460771882
50.4186452377618
50.4186448779775
50.4186447238884
50.4186446565746
50.4186446263584
50.41864461253
50.418644606182
50.4186446033125
50.4186446020579
50.4186446015379
50.4186446013404
50.4186446012799
50.4186446012743
50.4186446012859
50.4186446013009
50.4186446013156
50.4186446013285
50.4186446013396
50.4186446013493
50.4186446013584
50.4186446013664
50.4186446013733
50.4186446013787
50.4186446013826
50.4186446013849
50.418644601385
50.4186446013826
50.4186446013788
50.4186446013771
50.41864460138
50.4186446014016
50.4186446014788
50.4186446016916
50.4186446022267
50.4186446035001
50.4186446063947
50.4186446127553
50.4186446264598
50.4186446559336
50.4186447205402
50.4186448673268
50.4186452135159
50.4186460461541
50.4186480322851
3501.29531577536
31511.6641123364
31511.6501432994
3501.29423081779
50.4186353900711
50.4186346899997
50.4186343873586
50.4186342596039
50.4186342056998
50.418634182464
50.4186341721331
50.418634167428
50.4186341652708
50.4186341642956
50.4186341638703
50.418634163696
50.4186341636325
50.418634163616
50.4186341636184
50.4186341636265
50.4186341636359
50.4186341636451
50.4186341636536
50.4186341636613
50.4186341636686
50.4186341636755
50.418634163682
50.4186341636881
50.4186341636935
50.4186341636982
50.4186341637023
50.4186341637054
50.4186341637076
50.418634163709
50.4186341637109
50.4186341637142
50.4186341637238
50.4186341637525
50.4186341638284
50.4186341640162
50.4186341644591
50.4186341654588
50.418634167642
50.4186341723242
50.418634182381
50.4186342045134
50.418634255311
50.4186343769539
50.4186346750233
50.4186354011098
3501.29424228155
31511.6505785885
31511.6459361901
3501.29390908947
50.4186317386147
50.4186314902702
50.4186313844657
50.418631340436
50.4186313221209
50.4186313143293
50.4186313109
50.418631309348
50.4186313086393
50.4186313083209
50.418631308184
50.4186313081304
50.4186313081134
50.418631308112
50.4186313081169
50.4186313081235
50.4186313081306
50.4186313081376
50.4186313081443
50.4186313081507
50.4186313081569
50.418631308163
50.4186313081689
50.4186313081746
50.41863130818
50.4186313081851
50.4186313081899
50.4186313081942
50.4186313081981
50.4186313082015
50.4186313082049
50.4186313082085
50.418631308214
50.4186313082256
50.4186313082528
50.4186313083176
50.4186313084676
50.4186313088033
50.4186313095316
50.4186313110862
50.4186313144201
50.4186313217823
50.4186313388394
50.4186313802801
50.4186314836525
50.4186317405674
3501.29391322592
31511.6461037916
31511.6449265313
3501.29385111991
50.4186312633709
50.4186311778615
50.4186311419206
50.4186311271656
50.4186311211127
50.4186311185731
50.4186311174691
50.418631116975
50.4186311167523
50.4186311166548
50.4186311166153
50.4186311166025
50.4186311166013
50.4186311166049
50.4186311166105
50.4186311166166
50.4186311166227
50.4186311166289
50.4186311166349
50.4186311166408
50.4186311166466
50.4186311166524
50.4186311166581
50.4186311166636
50.418631116669
50.4186311166743
50.4186311166794
50.4186311166841
50.4186311166886
50.4186311166928
50.4186311166968
50.4186311167005
50.4186311167047
50.4186311167104
50.4186311167208
50.4186311167431
50.4186311167927
50.4186311169021
50.4186311171378
50.4186311176391
50.4186311187131
50.4186311210935
50.4186311266599
50.4186311403737
50.418631175177
50.418631263351
3501.29385256052
31511.6449887537
31511.6450562042
3501.29388499628
50.4186318786156
50.4186318499894
50.4186318381089
50.4186318332962
50.4186318313509
50.4186318305486
50.4186318302067
50.4186318300578
50.4186318299938
50.4186318299684
50.4186318299609
50.4186318299614
50.4186318299654
50.4186318299706
50.4186318299764
50.4186318299823
50.4186318299881
50.4186318299939
50.4186318299997
50.4186318300054
50.4186318300111
50.4186318300167
50.4186318300224
50.4186318300279
50.4186318300333
50.4186318300386
50.4186318300438
50.4186318300487
50.4186318300535
50.4186318300579
50.4186318300621
50.418631830066
50.4186318300696
50.4186318300734
50.4186318300783
50.4186318300864
50.4186318301025
50.4186318301369
50.4186318302103
50.4186318303662
50.4186318307012
50.4186318314483
50.4186318332142
50.4186318376278
50.4186318490214
50.4186318784259
3501.29388548543
31511.6450785696
31511.6455792961
3501.29394988325
50.4186328567847
50.4186328474567
50.4186328436329
50.4186328421064
50.4186328415012
50.4186328412587
50.4186328411601
50.4186328411208
50.418632841107
50.4186328411045
50.4186328411071
50.4186328411119
50.4186328411174
50.4186328411232
50.4186328411289
50.4186328411348
50.4186328411404
50.4186328411461
50.4186328411518
50.4186328411574
50.4186328411631
50.4186328411687
50.4186328411743
50.4186328411798
50.4186328411852
50.4186328411905
50.4186328411958
50.4186328412008
50.4186328412056
50.4186328412102
50.4186328412145
50.4186328412184
50.4186328412219
50.4186328412251
50.4186328412282
50.4186328412317
50.4186328412371
50.4186328412474
50.4186328412688
50.4186328413145
50.4186328414143
50.4186328416402
50.4186328421832
50.4186328435642
50.4186328471941
50.4186328567341
3501.29395004925
31511.645587128
31511.6462343127
3501.29402494353
50.4186339522793
50.4186339493212
50.418633948125
50.418633947657
50.4186339474779
50.4186339474111
50.418633947388
50.4186339473823
50.4186339473839
50.4186339473883
50.4186339473939
50.4186339473999
50.4186339474058
50.4186339474116
50.4186339474174
50.4186339474231
50.4186339474288
50.4186339474344
50.41863394744
50.4186339474457
50.4186339474513
50.4186339474568
50.4186339474624
50.418633947468
50.4186339474734
50.4186339474788
50.418633947484
50.4186339474891
50.418633947494
50.4186339474986
50.418633947503
50.418633947507
50.4186339475105
50.4186339475136
50.4186339475162
50.4186339475184
50.4186339475205
50.4186339475233
50.4186339475287
50.4186339475404
50.4186339475674
50.4186339476316
50.4186339477916
50.41863394821
50.4186339493343
50.418633952346
3501.29402500378
31511.6462370249
31511.6469323697
3501.29410325267
50.4186350846853
50.418635083776
50.4186350834153
50.4186350832796
50.4186350832323
50.4186350832189
50.4186350832183
50.4186350832224
50.4186350832283
50.4186350832346
50.4186350832409
50.4186350832471
50.4186350832531
50.4186350832589
50.4186350832646
50.4186350832702
50.4186350832759
50.4186350832814
50.418635083287
50.4186350832926
50.4186350832982
50.4186350833038
50.4186350833094
50.4186350833149
50.4186350833204
50.4186350833258
50.418635083331
50.4186350833362
50.4186350833411
50.4186350833458
50.4186350833502
50.4186350833542
50.4186350833578
50.418635083361
50.4186350833635
50.4186350833654
50.4186350833667
50.4186350833675
50.4186350833683
50.4186350833701
50.4186350833756
50.4186350833912
50.4186350834347
50.4186350835556
50.4186350838923
50.4186350848147
3501.29410327942
31511.6469333316
31511.6476441116
3501.29418257351
50.4186362284117
50.418636228145
50.4186362280432
50.4186362280089
50.418636228001
50.418636228003
50.4186362280085
50.418636228015
50.4186362280218
50.4186362280284
50.4186362280347
50.4186362280408
50.4186362280466
50.4186362280524
50.418636228058
50.4186362280636
50.4186362280691
50.4186362280747
50.4186362280803
50.4186362280858
50.4186362280914
50.418636228097
50.4186362281026
50.4186362281081
50.4186362281136
50.418636228119
50.4186362281243
50.4186362281295
50.4186362281344
50.4186362281392
50.4186362281437
50.4186362281478
50.4186362281515
50.4186362281547
50.4186362281574
50.4186362281594
50.4186362281606
50.4186362281611
50.4186362281609
50.4186362281603
50.4186362281599
50.4186362281618
50.4186362281713
50.418636228203
50.4186362282985
50.4186362285693
3501.29418259002
31511.6476444934
31511.6483601006
3501.29426220201
50.4186373755277
50.4186373754574
50.4186373754336
50.4186373754289
50.418637375432
50.4186373754378
50.4186373754445
50.4186373754512
50.4186373754579
50.4186373754643
50.4186373754704
50.4186373754762
50.4186373754819
50.4186373754875
50.4186373754931
50.4186373754986
50.4186373755041
50.4186373755096
50.4186373755151
50.4186373755207
50.4186373755262
50.4186373755318
50.4186373755374
50.418637375543
50.4186373755485
50.4186373755539
50.4186373755592
50.4186373755644
50.4186373755694
50.4186373755743
50.4186373755788
50.418637375583
50.4186373755868
50.4186373755902
50.4186373755931
50.4186373755953
50.4186373755967
50.4186373755974
50.4186373755973
50.4186373755965
50.418637375595
50.4186373755936
50.418637375594
50.4186373756002
50.4186373756242
50.4186373756968
3501.2942622155
31511.6483602963
31511.6490773778
3501.29434192201
50.4186385236361
50.418638523624
50.4186385236225
50.4186385236259
50.4186385236312
50.4186385236375
50.4186385236439
50.4186385236503
50.4186385236565
50.4186385236625
50.4186385236683
50.4186385236739
50.4186385236794
50.4186385236849
50.4186385236903
50.4186385236957
50.4186385237011
50.4186385237066
50.4186385237121
50.4186385237176
50.4186385237232
50.4186385237287
50.4186385237343
50.4186385237399
50.4186385237455
50.4186385237509
50.4186385237563
50.4186385237615
50.4186385237666
50.4186385237715
50.4186385237761
50.4186385237804
50.4186385237844
50.4186385237879
50.4186385237909
50.4186385237933
50.4186385237952
50.4186385237962
50.4186385237966
50.4186385237961
50.418638523795
50.4186385237934
50.4186385237919
50.4186385237917
50.4186385237954
50.4186385238097
3501.29434193464
31511.6490775125
31511.6497950375
3501.29442166866
50.4186396720288
50.4186396720331
50.4186396720374
50.4186396720422
50.4186396720475
50.4186396720532
50.418639672059
50.4186396720648
50.4186396720704
50.418639672076
50.4186396720815
50.4186396720868
50.4186396720921
50.4186396720974
50.4186396721027
50.418639672108
50.4186396721134
50.4186396721187
50.4186396721242
50.4186396721297
50.4186396721353
50.4186396721408
50.4186396721464
50.418639672152
50.4186396721575
50.418639672163
50.4186396721684
50.4186396721737
50.4186396721788
50.4186396721838
50.4186396721885
50.418639672193
50.4186396721971
50.4186396722008
50.418639672204
50.4186396722068
50.4186396722089
50.4186396722105
50.4186396722113
50.4186396722115
50.418639672211
50.4186396722101
50.4186396722088
50.4186396722075
50.4186396722063
50.4186396722042
3501.29442168102
31511.6497951554
31511.6505128085
3501.29450142291
50.4186408205014
50.4186408205097
50.4186408205149
50.4186408205194
50.4186408205239
50.4186408205288
50.4186408205338
50.4186408205389
50.418640820544
50.4186408205492
50.4186408205543
50.4186408205593
50.4186408205644
50.4186408205695
50.4186408205747
50.4186408205799
50.4186408205851
50.4186408205905
50.4186408205959
50.4186408206013
50.4186408206069
50.4186408206124
50.418640820618
50.4186408206236
50.4186408206292
50.4186408206347
50.4186408206402
50.4186408206455
50.4186408206507
50.4186408206557
50.4186408206605
50.4186408206651
50.4186408206694
50.4186408206733
50.4186408206767
50.4186408206798
50.4186408206823
50.4186408206843
50.4186408206857
50.4186408206866
50.4186408206869
50.4186408206868
50.4186408206863
50.4186408206856
50.4186408206836
50.4186408206777
3501.29450143526
31511.650512921
31511.6512306112
3501.29458117929
50.418641968996
50.4186419690047
50.4186419690094
50.418641969013
50.4186419690167
50.4186419690207
50.418641969025
50.4186419690294
50.418641969034
50.4186419690386
50.4186419690433
50.4186419690482
50.418641969053
50.4186419690579
50.4186419690629
50.418641969068
50.4186419690732
50.4186419690784
50.4186419690838
50.4186419690892
50.4186419690948
50.4186419691003
50.4186419691059
50.4186419691115
50.4186419691171
50.4186419691226
50.4186419691281
50.4186419691335
50.4186419691388
50.4186419691439
50.4186419691488
50.4186419691535
50.4186419691579
50.418641969162
50.4186419691658
50.4186419691691
50.4186419691721
50.4186419691745
50.4186419691764
50.418641969178
50.418641969179
50.4186419691798
50.4186419691803
50.4186419691805
50.418641969179
50.4186419691727
3501.29458119164
31511.6512307233
31511.6519484228
3501.29466093626
50.4186431174966
50.4186431175047
50.4186431175086
50.4186431175111
50.4186431175139
50.418643117517
50.4186431175206
50.4186431175243
50.4186431175284
50.4186431175326
50.4186431175369
50.4186431175414
50.418643117546
50.4186431175507
50.4186431175556
50.4186431175605
50.4186431175656
50.4186431175708
50.4186431175761
50.4186431175815
50.418643117587
50.4186431175925
50.4186431175981
50.4186431176037
50.4186431176093
50.4186431176149
50.4186431176204
50.4186431176259
50.4186431176312
50.4186431176365
50.4186431176415
50.4186431176463
50.4186431176509
50.4186431176553
50.4186431176593
50.4186431176629
50.4186431176662
50.4186431176691
50.4186431176716
50.4186431176739
50.4186431176757
50.4186431176774
50.4186431176788
50.4186431176799
50.4186431176793
50.4186431176736
3501.29466094866
31511.6519485346
31511.6526662368
3501.29474069339
50.4186442659987
50.418644266006
50.4186442660089
50.4186442660105
50.4186442660124
50.4186442660146
50.4186442660173
50.4186442660205
50.418644266024
50.4186442660278
50.4186442660317
50.4186442660359
50.4186442660402
50.4186442660448
50.4186442660495
50.4186442660543
50.4186442660593
50.4186442660644
50.4186442660696
50.418644266075
50.4186442660805
50.418644266086
50.4186442660916
50.4186442660972
50.4186442661028
50.4186442661085
50.418644266114
50.4186442661195
50.4186442661249
50.4186442661303
50.4186442661354
50.4186442661404
50.4186442661452
50.4186442661497
50.418644266154
50.4186442661579
50.4186442661617
50.418644266165
50.4186442661681
50.4186442661709
50.4186442661736
50.418644266176
50.4186442661784
50.4186442661805
50.4186442661809
50.4186442661761
3501.29474070577
31511.6526663486
31511.6533840517
3501.29482045057
50.4186454145014
50.4186454145075
50.4186454145095
50.4186454145101
50.4186454145111
50.4186454145125
50.4186454145146
50.4186454145171
50.41864541452
50.4186454145233
50.4186454145269
50.4186454145308
50.4186454145349
50.4186454145392
50.4186454145437
50.4186454145484
50.4186454145534
50.4186454145584
50.4186454145636
50.4186454145689
50.4186454145743
50.4186454145798
50.4186454145854
50.418645414591
50.4186454145967
50.4186454146023
50.418645414608
50.4186454146136
50.4186454146191
50.4186454146245
50.4186454146297
50.4186454146349
50.4186454146398
50.4186454146446
50.4186454146491
50.4186454146534
50.4186454146575
50.4186454146613
50.4186454146649
50.4186454146684
50.4186454146717
50.418645414675
50.4186454146783
50.4186454146814
50.4186454146828
50.418645414679
3501.29482046292
31511.6533841613
31511.6541018668
3501.29490020777
50.4186465630042
50.4186465630093
50.4186465630102
50.4186465630098
50.4186465630099
50.4186465630106
50.4186465630119
50.4186465630138
50.4186465630163
50.4186465630191
50.4186465630223
50.4186465630259
50.4186465630297
50.4186465630339
50.4186465630383
50.4186465630428
50.4186465630476
50.4186465630526
50.4186465630577
50.418646563063
50.4186465630684
50.4186465630738
50.4186465630795
50.4186465630851
50.4186465630908
50.4186465630964
50.4186465631021
50.4186465631078
50.4186465631133
50.4186465631188
50.4186465631243
50.4186465631295
50.4186465631347
50.4186465631397
50.4186465631445
50.4186465631491
50.4186465631535
50.4186465631578
50.4186465631619
50.418646563166
50.41864656317
50.4186465631742
50.4186465631783
50.4186465631823
50.4186465631847
50.418646563182
3501.29490022017
31511.6541019777
31511.6548196821
3501.29497996498
50.418647711507
50.4186477115109
50.4186477115108
50.4186477115095
50.4186477115087
50.4186477115086
50.4186477115093
50.4186477115106
50.4186477115125
50.418647711515
50.4186477115178
50.4186477115211
50.4186477115247
50.4186477115286
50.4186477115328
50.4186477115373
50.4186477115419
50.4186477115468
50.4186477115519
50.4186477115572
50.4186477115625
50.418647711568
50.4186477115736
50.4186477115792
50.4186477115849
50.4186477115906
50.4186477115963
50.418647711602
50.4186477116077
50.4186477116133
50.4186477116188
50.4186477116243
50.4186477116296
50.4186477116348
50.4186477116399
50.4186477116448
50.4186477116496
50.4186477116543
50.418647711659
50.4186477116636
50.4186477116684
50.4186477116733
50.4186477116782
50.4186477116833
50.4186477116867
50.4186477116851
3501.29497997744
31511.6548197942
31511.6555374976
3501.2950597222
50.41864886001
50.4186488600126
50.4186488600115
50.4186488600092
50.4186488600075
50.4186488600067
50.4186488600067
50.4186488600075
50.4186488600089
50.4186488600109
50.4186488600134
50.4186488600164
50.4186488600198
50.4186488600235
50.4186488600275
50.4186488600318
50.4186488600364
50.4186488600412
50.4186488600462
50.4186488600514
50.4186488600567
50.4186488600622
50.4186488600678
50.4186488600734
50.4186488600792
50.4186488600849
50.4186488600907
50.4186488600965
50.4186488601022
50.4186488601079
50.4186488601135
50.4186488601191
50.4186488601246
50.41864886013
50.4186488601353