/*--------------------------------*- C++ -*----------------------------------*\
  =========                 |
  \\      /  F ield         | OpenFOAM: The Open Source CFD Toolbox
   \\    /   O peration     | Website:  https://openfoam.org
    \\  /    A nd           | Version:  10
     \\/     M anipulation  |
\*---------------------------------------------------------------------------*/
FoamFile
{
    format      ascii;
    class       volScalarField;
    location    "6.4";
    object      p;
}
// * * * * * * * * * * * * * * * * * * * * * * * * * * * * * * * * * * * * * //

dimensions      [1 -1 -2 0 0 0 0];

internalField   nonuniform List<scalar> 
2500
(
100094.119908632
100094.119909587
100094.119910545
100094.119911376
100094.11991193
100094.119912302
100094.119912533
100094.119912677
100094.119912764
100094.119912815
100094.119912845
100094.119912861
100094.119912868
100094.119912871
100094.119912869
100094.119912865
100094.11991286
100094.119912853
100094.119912846
100094.119912839
100094.119912831
100094.119912822
100094.119912814
100094.119912806
100094.119912797
100094.119912789
100094.11991278
100094.119912772
100094.119912764
100094.119912755
100094.119912747
100094.119912739
100094.119912731
100094.119912722
100094.119912713
100094.119912703
100094.119912692
100094.119912677
100094.119912658
100094.119912631
100094.119912592
100094.119912531
100094.119912435
100094.119912283
100094.119912046
100094.119911667
100094.119911104
100094.119910261
100094.119909285
100094.119908328
100094.11765996
100094.117660687
100094.117661451
100094.117662161
100094.117662648
100094.117662985
100094.117663197
100094.117663331
100094.117663412
100094.117663461
100094.117663489
100094.117663505
100094.117663512
100094.117663514
100094.117663513
100094.117663509
100094.117663504
100094.117663497
100094.11766349
100094.117663483
100094.117663475
100094.117663466
100094.117663458
100094.11766345
100094.117663441
100094.117663433
100094.117663424
100094.117663416
100094.117663408
100094.117663399
100094.117663391
100094.117663383
100094.117663375
100094.117663366
100094.117663357
100094.117663347
100094.117663335
100094.117663321
100094.117663302
100094.117663276
100094.117663238
100094.117663179
100094.117663089
100094.117662948
100094.117662729
100094.117662385
100094.117661889
100094.117661168
100094.117660387
100094.117659661
100094.11540332
100094.115403828
100094.115404292
100094.115404787
100094.115405135
100094.115405388
100094.115405551
100094.115405658
100094.115405724
100094.115405764
100094.115405788
100094.115405801
100094.115405807
100094.115405809
100094.115405807
100094.115405803
100094.115405798
100094.115405792
100094.115405785
100094.115405777
100094.115405769
100094.115405761
100094.115405753
100094.115405744
100094.115405736
100094.115405727
100094.115405719
100094.115405711
100094.115405702
100094.115405694
100094.115405686
100094.115405678
100094.115405669
100094.115405661
100094.115405652
100094.115405642
100094.11540563
100094.115405616
100094.115405599
100094.115405575
100094.115405541
100094.115405491
100094.115405417
100094.115405303
100094.115405132
100094.115404872
100094.115404515
100094.11540401
100094.115403534
100094.115403021
100094.11313973
100094.113139985
100094.113140157
100094.113140411
100094.113140595
100094.113140742
100094.113140842
100094.113140911
100094.113140957
100094.113140985
100094.113141003
100094.113141013
100094.113141017
100094.113141018
100094.113141016
100094.113141012
100094.113141006
100094.113141
100094.113140993
100094.113140986
100094.113140978
100094.113140969
100094.113140961
100094.113140953
100094.113140944
100094.113140936
100094.113140927
100094.113140919
100094.113140911
100094.113140902
100094.113140894
100094.113140886
100094.113140878
100094.113140869
100094.11314086
100094.11314085
100094.113140839
100094.113140826
100094.11314081
100094.11314079
100094.113140762
100094.113140724
100094.113140671
100094.113140594
100094.113140487
100094.113140332
100094.113140141
100094.11313988
100094.113139699
100094.113139436
100094.11087045
100094.110870481
100094.110870442
100094.110870498
100094.110870545
100094.110870602
100094.110870646
100094.110870681
100094.110870706
100094.110870724
100094.110870735
100094.110870741
100094.110870743
100094.110870742
100094.11087074
100094.110870735
100094.11087073
100094.110870723
100094.110870716
100094.110870709
100094.110870701
100094.110870692
100094.110870684
100094.110870676
100094.110870667
100094.110870659
100094.11087065
100094.110870642
100094.110870633
100094.110870625
100094.110870617
100094.110870609
100094.110870601
100094.110870592
100094.110870583
100094.110870574
100094.110870564
100094.110870552
100094.110870538
100094.110870521
100094.1108705
100094.110870474
100094.11087044
100094.110870398
100094.110870347
100094.110870284
100094.110870231
100094.11087017
100094.110870206
100094.110870168
100094.108596913
100094.108596787
100094.108596624
100094.108596543
100094.108596494
100094.108596483
100094.108596484
100094.108596492
100094.108596501
100094.108596508
100094.108596513
100094.108596516
100094.108596516
100094.108596514
100094.10859651
100094.108596505
100094.1085965
100094.108596493
100094.108596486
100094.108596478
100094.10859647
100094.108596462
100094.108596453
100094.108596445
100094.108596436
100094.108596428
100094.108596419
100094.108596411
100094.108596403
100094.108596394
100094.108596386
100094.108596378
100094.10859637
100094.108596362
100094.108596353
100094.108596344
100094.108596335
100094.108596324
100094.108596313
100094.108596299
100094.108596284
100094.108596268
100094.108596251
100094.108596236
100094.108596229
100094.108596234
100094.108596279
100094.108596358
100094.108596523
100094.108596644
100094.106320504
100094.106320299
100094.106320084
100094.106319927
100094.106319822
100094.106319767
100094.106319738
100094.106319726
100094.106319722
100094.106319721
100094.106319721
100094.10631972
100094.106319718
100094.106319714
100094.10631971
100094.106319704
100094.106319698
100094.106319691
100094.106319684
100094.106319676
100094.106319668
100094.10631966
100094.106319651
100094.106319643
100094.106319634
100094.106319626
100094.106319617
100094.106319609
100094.1063196
100094.106319592
100094.106319584
100094.106319576
100094.106319568
100094.10631956
100094.106319552
100094.106319544
100094.106319535
100094.106319526
100094.106319516
100094.106319506
100094.106319497
100094.106319489
100094.106319485
100094.10631949
100094.106319512
100094.106319563
100094.106319665
100094.106319823
100094.106320043
100094.106320247
100094.104042329
100094.104042108
100094.104041891
100094.104041703
100094.104041572
100094.104041493
100094.104041446
100094.10404142
100094.104041406
100094.104041398
100094.104041393
100094.104041389
100094.104041385
100094.10404138
100094.104041375
100094.104041369
100094.104041362
100094.104041355
100094.104041347
100094.104041339
100094.104041331
100094.104041323
100094.104041314
100094.104041306
100094.104041297
100094.104041289
100094.10404128
100094.104041272
100094.104041263
100094.104041255
100094.104041247
100094.104041239
100094.104041231
100094.104041223
100094.104041216
100094.104041208
100094.1040412
100094.104041192
100094.104041185
100094.104041178
100094.104041173
100094.104041172
100094.104041178
100094.104041197
100094.104041238
100094.104041314
100094.104041443
100094.104041632
100094.104041856
100094.10404208
100094.10176316
100094.101762961
100094.101762765
100094.101762578
100094.101762442
100094.101762351
100094.101762294
100094.101762259
100094.101762238
100094.101762225
100094.101762216
100094.101762209
100094.101762203
100094.101762197
100094.101762191
100094.101762184
100094.101762177
100094.101762169
100094.101762161
100094.101762153
100094.101762145
100094.101762136
100094.101762128
100094.101762119
100094.101762111
100094.101762102
100094.101762093
100094.101762085
100094.101762077
100094.101762068
100094.10176206
100094.101762053
100094.101762045
100094.101762037
100094.10176203
100094.101762023
100094.101762016
100094.10176201
100094.101762004
100094.101762
100094.101761999
100094.101762003
100094.101762016
100094.101762044
100094.101762096
100094.101762183
100094.101762317
100094.101762507
100094.101762709
100094.101762914
100094.099483478
100094.099483315
100094.099483151
100094.099482979
100094.09948285
100094.099482757
100094.099482696
100094.099482655
100094.099482629
100094.099482612
100094.099482599
100094.09948259
100094.099482582
100094.099482574
100094.099482567
100094.09948256
100094.099482552
100094.099482544
100094.099482536
100094.099482528
100094.099482519
100094.099482511
100094.099482502
100094.099482493
100094.099482485
100094.099482476
100094.099482467
100094.099482459
100094.099482451
100094.099482443
100094.099482435
100094.099482427
100094.099482419
100094.099482412
100094.099482405
100094.099482399
100094.099482393
100094.099482388
100094.099482384
100094.099482382
100094.099482385
100094.099482393
100094.099482411
100094.099482445
100094.099482501
100094.09948259
100094.099482718
100094.099482892
100094.099483061
100094.09948323
100094.097203553
100094.097203428
100094.097203296
100094.097203146
100094.097203028
100094.097202939
100094.097202877
100094.097202833
100094.097202804
100094.097202783
100094.097202768
100094.097202757
100094.097202747
100094.097202738
100094.09720273
100094.097202722
100094.097202714
100094.097202705
100094.097202697
100094.097202689
100094.09720268
100094.097202671
100094.097202663
100094.097202654
100094.097202645
100094.097202636
100094.097202628
100094.097202619
100094.097202611
100094.097202603
100094.097202595
100094.097202587
100094.09720258
100094.097202573
100094.097202566
100094.097202561
100094.097202555
100094.097202552
100094.097202549
100094.09720255
100094.097202555
100094.097202566
100094.097202588
100094.097202624
100094.097202681
100094.097202767
100094.097202883
100094.097203034
100094.09720317
100094.0972033
100094.094923525
100094.094923432
100094.094923328
100094.094923201
100094.094923097
100094.094923014
100094.094922953
100094.094922908
100094.094922877
100094.094922854
100094.094922837
100094.094922823
100094.094922812
100094.094922802
100094.094922793
100094.094922785
100094.094922776
100094.094922767
100094.094922759
100094.09492275
100094.094922741
100094.094922732
100094.094922724
100094.094922715
100094.094922706
100094.094922697
100094.094922689
100094.09492268
100094.094922672
100094.094922664
100094.094922656
100094.094922648
100094.094922641
100094.094922634
100094.094922628
100094.094922623
100094.094922619
100094.094922616
100094.094922615
100094.094922617
100094.094922624
100094.094922638
100094.094922661
100094.094922699
100094.094922754
100094.094922834
100094.094922936
100094.094923063
100094.094923169
100094.094923265
100094.092643459
100094.092643391
100094.092643309
100094.092643204
100094.092643113
100094.092643037
100094.092642979
100094.092642935
100094.092642902
100094.092642878
100094.092642859
100094.092642844
100094.092642832
100094.092642821
100094.092642811
100094.092642802
100094.092642793
100094.092642784
100094.092642775
100094.092642766
100094.092642757
100094.092642748
100094.092642739
100094.09264273
100094.092642722
100094.092642713
100094.092642704
100094.092642696
100094.092642687
100094.092642679
100094.092642671
100094.092642664
100094.092642657
100094.09264265
100094.092642645
100094.09264264
100094.092642636
100094.092642634
100094.092642635
100094.092642638
100094.092642647
100094.092642662
100094.092642686
100094.092642723
100094.092642776
100094.092642848
100094.092642936
100094.092643041
100094.092643124
100094.092643193
100094.090363382
100094.090363333
100094.090363269
100094.090363182
100094.090363103
100094.090363034
100094.09036298
100094.090362937
100094.090362904
100094.090362879
100094.090362859
100094.090362843
100094.09036283
100094.090362819
100094.090362808
100094.090362798
100094.090362789
100094.090362779
100094.09036277
100094.090362761
100094.090362752
100094.090362743
100094.090362734
100094.090362725
100094.090362716
100094.090362707
100094.090362698
100094.09036269
100094.090362681
100094.090362673
100094.090362666
100094.090362658
100094.090362651
100094.090362645
100094.09036264
100094.090362635
100094.090362632
100094.090362631
100094.090362632
100094.090362637
100094.090362646
100094.090362662
100094.090362687
100094.090362723
100094.090362771
100094.090362836
100094.090362911
100094.090362997
100094.09036306
100094.090363109
100094.088083304
100094.088083269
100094.088083218
100094.088083146
100094.088083079
100094.088083017
100094.088082967
100094.088082925
100094.088082893
100094.088082868
100094.088082847
100094.088082831
100094.088082816
100094.088082804
100094.088082793
100094.088082783
100094.088082773
100094.088082763
100094.088082754
100094.088082745
100094.088082735
100094.088082726
100094.088082717
100094.088082708
100094.088082699
100094.08808269
100094.088082681
100094.088082673
100094.088082664
100094.088082656
100094.088082648
100094.088082641
100094.088082634
100094.088082628
100094.088082623
100094.088082619
100094.088082616
100094.088082616
100094.088082618
100094.088082623
100094.088082633
100094.088082649
100094.088082673
100094.088082707
100094.088082752
100094.088082809
100094.088082873
100094.088082942
100094.088082991
100094.088083026
100094.085803229
100094.085803202
100094.085803162
100094.085803102
100094.085803045
100094.08580299
100094.085802943
100094.085802904
100094.085802873
100094.085802848
100094.085802827
100094.08580281
100094.085802795
100094.085802783
100094.085802771
100094.08580276
100094.08580275
100094.08580274
100094.085802731
100094.085802721
100094.085802712
100094.085802702
100094.085802693
100094.085802684
100094.085802675
100094.085802666
100094.085802657
100094.085802648
100094.08580264
100094.085802632
100094.085802624
100094.085802617
100094.08580261
100094.085802604
100094.085802599
100094.085802596
100094.085802593
100094.085802593
100094.085802595
100094.085802601
100094.085802611
100094.085802627
100094.08580265
100094.085802682
100094.085802722
100094.085802772
100094.085802826
100094.085802883
100094.085802921
100094.085802945
100094.083523155
100094.083523135
100094.083523102
100094.083523053
100094.083523004
100094.083522955
100094.083522913
100094.083522876
100094.083522846
100094.083522821
100094.083522801
100094.083522783
100094.083522768
100094.083522755
100094.083522743
100094.083522732
100094.083522722
100094.083522712
100094.083522702
100094.083522692
100094.083522683
100094.083522673
100094.083522664
100094.083522655
100094.083522646
100094.083522636
100094.083522628
100094.083522619
100094.08352261
100094.083522602
100094.083522595
100094.083522587
100094.083522581
100094.083522575
100094.08352257
100094.083522566
100094.083522564
100094.083522564
100094.083522567
100094.083522573
100094.083522583
100094.083522598
100094.08352262
100094.083522649
100094.083522685
100094.083522729
100094.083522774
100094.08352282
100094.08352285
100094.083522867
100094.081243082
100094.081243067
100094.081243041
100094.081243
100094.081242957
100094.081242914
100094.081242876
100094.081242842
100094.081242814
100094.081242789
100094.081242769
100094.081242752
100094.081242737
100094.081242723
100094.081242711
100094.0812427
100094.081242689
100094.081242679
100094.081242669
100094.081242659
100094.08124265
100094.08124264
100094.081242631
100094.081242621
100094.081242612
100094.081242603
100094.081242594
100094.081242585
100094.081242576
100094.081242568
100094.081242561
100094.081242553
100094.081242547
100094.081242541
100094.081242536
100094.081242533
100094.081242531
100094.081242531
100094.081242533
100094.081242539
100094.081242549
100094.081242563
100094.081242583
100094.08124261
100094.081242642
100094.08124268
100094.081242718
100094.081242755
100094.081242778
100094.081242791
100094.07896301
100094.078962999
100094.078962977
100094.078962943
100094.078962907
100094.078962869
100094.078962834
100094.078962803
100094.078962776
100094.078962753
100094.078962733
100094.078962716
100094.078962701
100094.078962687
100094.078962675
100094.078962664
100094.078962653
100094.078962643
100094.078962632
100094.078962623
100094.078962613
100094.078962603
100094.078962593
100094.078962584
100094.078962575
100094.078962565
100094.078962556
100094.078962547
100094.078962539
100094.078962531
100094.078962523
100094.078962516
100094.078962509
100094.078962503
100094.078962499
100094.078962495
100094.078962493
100094.078962493
100094.078962496
100094.078962501
100094.07896251
100094.078962524
100094.078962542
100094.078962566
100094.078962594
100094.078962626
100094.078962658
100094.078962689
100094.078962707
100094.078962716
100094.076682939
100094.07668293
100094.076682912
100094.076682884
100094.076682853
100094.07668282
100094.076682789
100094.07668276
100094.076682735
100094.076682713
100094.076682693
100094.076682677
100094.076682662
100094.076682648
100094.076682636
100094.076682624
100094.076682614
100094.076682603
100094.076682593
100094.076682583
100094.076682573
100094.076682563
100094.076682553
100094.076682544
100094.076682534
100094.076682525
100094.076682516
100094.076682507
100094.076682498
100094.07668249
100094.076682482
100094.076682475
100094.076682468
100094.076682463
100094.076682458
100094.076682454
100094.076682452
100094.076682452
100094.076682454
100094.076682459
100094.076682468
100094.07668248
100094.076682496
100094.076682517
100094.076682542
100094.076682569
100094.076682596
100094.076682621
100094.076682636
100094.076682642
100094.074402868
100094.074402861
100094.074402847
100094.074402823
100094.074402796
100094.074402767
100094.074402739
100094.074402713
100094.07440269
100094.074402669
100094.07440265
100094.074402634
100094.074402619
100094.074402606
100094.074402594
100094.074402582
100094.074402571
100094.074402561
100094.07440255
100094.07440254
100094.07440253
100094.07440252
100094.074402511
100094.074402501
100094.074402491
100094.074402482
100094.074402473
100094.074402464
100094.074402455
100094.074402447
100094.074402439
100094.074402432
100094.074402425
100094.074402419
100094.074402414
100094.074402411
100094.074402408
100094.074402408
100094.07440241
100094.074402414
100094.074402422
100094.074402433
100094.074402447
100094.074402465
100094.074402487
100094.07440251
100094.074402532
100094.074402552
100094.074402564
100094.074402568
100094.072122798
100094.072122792
100094.07212278
100094.072122761
100094.072122737
100094.072122712
100094.072122687
100094.072122664
100094.072122642
100094.072122623
100094.072122605
100094.072122589
100094.072122575
100094.072122562
100094.072122549
100094.072122538
100094.072122527
100094.072122516
100094.072122506
100094.072122496
100094.072122486
100094.072122476
100094.072122466
100094.072122456
100094.072122447
100094.072122437
100094.072122428
100094.072122419
100094.07212241
100094.072122402
100094.072122394
100094.072122386
100094.072122379
100094.072122373
100094.072122368
100094.072122365
100094.072122362
100094.072122361
100094.072122363
100094.072122367
100094.072122373
100094.072122382
100094.072122395
100094.072122411
100094.072122429
100094.072122448
100094.072122467
100094.072122483
100094.072122492
100094.072122495
100094.069842727
100094.069842723
100094.069842713
100094.069842697
100094.069842677
100094.069842655
100094.069842633
100094.069842612
100094.069842592
100094.069842574
100094.069842557
100094.069842542
100094.069842528
100094.069842515
100094.069842503
100094.069842492
100094.069842481
100094.06984247
100094.06984246
100094.06984245
100094.069842439
100094.069842429
100094.069842419
100094.06984241
100094.0698424
100094.06984239
100094.069842381
100094.069842372
100094.069842363
100094.069842354
100094.069842346
100094.069842339
100094.069842332
100094.069842326
100094.069842321
100094.069842317
100094.069842314
100094.069842313
100094.069842314
100094.069842317
100094.069842322
100094.06984233
100094.069842341
100094.069842354
100094.069842369
100094.069842385
100094.0698424
100094.069842413
100094.06984242
100094.069842422
100094.067562657
100094.067562654
100094.067562646
100094.067562632
100094.067562616
100094.067562597
100094.067562577
100094.067562558
100094.06756254
100094.067562523
100094.067562508
100094.067562493
100094.06756248
100094.067562467
100094.067562455
100094.067562444
100094.067562433
100094.067562423
100094.067562412
100094.067562402
100094.067562392
100094.067562382
100094.067562372
100094.067562362
100094.067562352
100094.067562342
100094.067562333
100094.067562324
100094.067562315
100094.067562306
100094.067562298
100094.06756229
100094.067562283
100094.067562277
100094.067562271
100094.067562267
100094.067562264
100094.067562262
100094.067562263
100094.067562265
100094.067562269
100094.067562276
100094.067562284
100094.067562295
100094.067562308
100094.067562321
100094.067562333
100094.067562343
100094.067562348
100094.067562349
100094.065282587
100094.065282585
100094.065282578
100094.065282567
100094.065282553
100094.065282537
100094.06528252
100094.065282503
100094.065282487
100094.065282471
100094.065282456
100094.065282443
100094.06528243
100094.065282418
100094.065282406
100094.065282395
100094.065282384
100094.065282374
100094.065282363
100094.065282353
100094.065282343
100094.065282333
100094.065282323
100094.065282313
100094.065282303
100094.065282293
100094.065282283
100094.065282274
100094.065282265
100094.065282256
100094.065282248
100094.06528224
100094.065282233
100094.065282226
100094.065282221
100094.065282216
100094.065282213
100094.065282211
100094.06528221
100094.065282211
100094.065282214
100094.06528222
100094.065282227
100094.065282235
100094.065282245
100094.065282256
100094.065282265
100094.065282273
100094.065282276
100094.065282277
100094.063002516
100094.063002515
100094.063002511
100094.063002502
100094.06300249
100094.063002476
100094.063002462
100094.063002447
100094.063002432
100094.063002417
100094.063002404
100094.063002391
100094.063002379
100094.063002367
100094.063002356
100094.063002345
100094.063002334
100094.063002324
100094.063002313
100094.063002303
100094.063002293
100094.063002283
100094.063002273
100094.063002263
100094.063002253
100094.063002243
100094.063002233
100094.063002224
100094.063002215
100094.063002206
100094.063002197
100094.063002189
100094.063002182
100094.063002175
100094.063002169
100094.063002164
100094.06300216
100094.063002157
100094.063002156
100094.063002157
100094.063002159
100094.063002162
100094.063002168
100094.063002174
100094.063002182
100094.06300219
100094.063002197
100094.063002202
100094.063002204
100094.063002204
100094.060722446
100094.060722446
100094.060722443
100094.060722436
100094.060722427
100094.060722415
100094.060722402
100094.060722389
100094.060722376
100094.060722363
100094.06072235
100094.060722338
100094.060722326
100094.060722315
100094.060722304
100094.060722294
100094.060722283
100094.060722273
100094.060722263
100094.060722252
100094.060722242
100094.060722232
100094.060722222
100094.060722212
100094.060722202
100094.060722192
100094.060722182
100094.060722172
100094.060722163
100094.060722154
100094.060722145
100094.060722137
100094.06072213
100094.060722123
100094.060722116
100094.060722111
100094.060722107
100094.060722103
100094.060722101
100094.060722101
100094.060722102
100094.060722104
100094.060722108
100094.060722112
100094.060722118
100094.060722123
100094.060722128
100094.060722131
100094.060722132
100094.060722131
100094.058442376
100094.058442376
100094.058442375
100094.05844237
100094.058442362
100094.058442353
100094.058442342
100094.058442331
100094.058442319
100094.058442307
100094.058442296
100094.058442284
100094.058442273
100094.058442263
100094.058442252
100094.058442242
100094.058442231
100094.058442221
100094.058442211
100094.058442201
100094.058442191
100094.05844218
100094.05844217
100094.05844216
100094.05844215
100094.05844214
100094.05844213
100094.05844212
100094.058442111
100094.058442102
100094.058442093
100094.058442085
100094.058442077
100094.058442069
100094.058442063
100094.058442057
100094.058442052
100094.058442048
100094.058442046
100094.058442044
100094.058442044
100094.058442045
100094.058442047
100094.05844205
100094.058442053
100094.058442057
100094.058442059
100094.058442061
100094.05844206
100094.058442058
100094.056162305
100094.056162307
100094.056162306
100094.056162303
100094.056162298
100094.05616229
100094.056162281
100094.056162272
100094.056162261
100094.056162251
100094.05616224
100094.05616223
100094.056162219
100094.056162209
100094.056162199
100094.056162189
100094.056162179
100094.056162169
100094.056162159
100094.056162149
100094.056162138
100094.056162128
100094.056162118
100094.056162108
100094.056162098
100094.056162088
100094.056162078
100094.056162068
100094.056162058
100094.056162049
100094.05616204
100094.056162031
100094.056162023
100094.056162016
100094.056162009
100094.056162002
100094.056161997
100094.056161992
100094.056161989
100094.056161987
100094.056161985
100094.056161985
100094.056161985
100094.056161986
100094.056161988
100094.056161989
100094.05616199
100094.05616199
100094.056161988
100094.056161986
100094.053882235
100094.053882237
100094.053882238
100094.053882237
100094.053882233
100094.053882227
100094.05388222
100094.053882212
100094.053882203
100094.053882194
100094.053882184
100094.053882174
100094.053882165
100094.053882155
100094.053882145
100094.053882136
100094.053882126
100094.053882116
100094.053882106
100094.053882096
100094.053882086
100094.053882075
100094.053882065
100094.053882055
100094.053882045
100094.053882035
100094.053882025
100094.053882015
100094.053882005
100094.053881995
100094.053881986
100094.053881977
100094.053881969
100094.053881961
100094.053881954
100094.053881947
100094.053881941
100094.053881936
100094.053881932
100094.053881928
100094.053881926
100094.053881924
100094.053881923
100094.053881923
100094.053881922
100094.053881922
100094.053881921
100094.053881919
100094.053881916
100094.053881913
100094.051602164
100094.051602167
100094.051602169
100094.05160217
100094.051602168
100094.051602164
100094.051602158
100094.051602152
100094.051602144
100094.051602136
100094.051602127
100094.051602118
100094.051602109
100094.0516021
100094.051602091
100094.051602081
100094.051602072
100094.051602062
100094.051602052
100094.051602042
100094.051602032
100094.051602022
100094.051602012
100094.051602002
100094.051601991
100094.051601981
100094.051601971
100094.051601961
100094.051601951
100094.051601941
100094.051601932
100094.051601923
100094.051601914
100094.051601906
100094.051601898
100094.051601891
100094.051601885
100094.051601879
100094.051601874
100094.05160187
100094.051601866
100094.051601863
100094.051601861
100094.051601859
100094.051601857
100094.051601854
100094.051601851
100094.051601848
100094.051601844
100094.05160184
100094.049322093
100094.049322097
100094.0493221
100094.049322103
100094.049322102
100094.0493221
100094.049322096
100094.049322091
100094.049322084
100094.049322077
100094.04932207
100094.049322062
100094.049322053
100094.049322045
100094.049322036
100094.049322027
100094.049322017
100094.049322008
100094.049321998
100094.049321988
100094.049321978
100094.049321968
100094.049321958
100094.049321948
100094.049321937
100094.049321927
100094.049321917
100094.049321907
100094.049321897
100094.049321887
100094.049321877
100094.049321868
100094.049321859
100094.04932185
100094.049321842
100094.049321835
100094.049321828
100094.049321821
100094.049321815
100094.04932181
100094.049321806
100094.049321801
100094.049321798
100094.049321794
100094.04932179
100094.049321786
100094.049321782
100094.049321776
100094.049321771
100094.049321766
100094.047042021
100094.047042027
100094.047042031
100094.047042035
100094.047042036
100094.047042036
100094.047042033
100094.047042029
100094.047042024
100094.047042019
100094.047042012
100094.047042005
100094.047041997
100094.047041989
100094.04704198
100094.047041972
100094.047041963
100094.047041953
100094.047041944
100094.047041934
100094.047041924
100094.047041914
100094.047041904
100094.047041893
100094.047041883
100094.047041873
100094.047041862
100094.047041852
100094.047041842
100094.047041832
100094.047041822
100094.047041812
100094.047041803
100094.047041794
100094.047041786
100094.047041778
100094.04704177
100094.047041763
100094.047041756
100094.04704175
100094.047041745
100094.047041739
100094.047041734
100094.047041729
100094.047041724
100094.047041718
100094.047041712
100094.047041705
100094.047041699
100094.047041693
100094.04476195
100094.044761956
100094.044761962
100094.044761968
100094.04476197
100094.044761971
100094.04476197
100094.044761968
100094.044761964
100094.044761959
100094.044761953
100094.044761947
100094.04476194
100094.044761932
100094.044761924
100094.044761916
100094.044761907
100094.044761898
100094.044761889
100094.044761879
100094.044761869
100094.044761859
100094.044761849
100094.044761838
100094.044761828
100094.044761818
100094.044761807
100094.044761797
100094.044761786
100094.044761776
100094.044761766
100094.044761756
100094.044761747
100094.044761738
100094.044761729
100094.04476172
100094.044761712
100094.044761704
100094.044761697
100094.04476169
100094.044761683
100094.044761677
100094.044761671
100094.044761664
100094.044761658
100094.04476165
100094.044761643
100094.044761634
100094.044761626
100094.044761619
100094.042481877
100094.042481885
100094.042481893
100094.0424819
100094.042481904
100094.042481907
100094.042481907
100094.042481906
100094.042481903
100094.042481899
100094.042481895
100094.042481889
100094.042481883
100094.042481875
100094.042481868
100094.04248186
100094.042481851
100094.042481842
100094.042481833
100094.042481824
100094.042481814
100094.042481804
100094.042481794
100094.042481783
100094.042481773
100094.042481762
100094.042481752
100094.042481741
100094.042481731
100094.04248172
100094.04248171
100094.0424817
100094.04248169
100094.042481681
100094.042481671
100094.042481662