/*--------------------------------*- C++ -*----------------------------------*\
  =========                 |
  \\      /  F ield         | OpenFOAM: The Open Source CFD Toolbox
   \\    /   O peration     | Website:  https://openfoam.org
    \\  /    A nd           | Version:  10
     \\/     M anipulation  |
\*---------------------------------------------------------------------------*/
FoamFile
{
    format      ascii;
    class       volScalarField;
    location    "6.4";
    object      p_rgh;
}
// * * * * * * * * * * * * * * * * * * * * * * * * * * * * * * * * * * * * * //

dimensions      [1 -1 -2 0 0 0 0];

internalField   nonuniform List<scalar> 
2500
(
94.2333314644202
94.2333347839449
94.2333404902893
94.2333446907578
94.2333472575847
94.2333487594005
94.2333496026549
94.2333500684763
94.2333503179543
94.2333504478593
94.2333505140123
94.2333505461429
94.233350560462
94.2333505655261
94.2333505654387
94.2333505624556
94.2333505574788
94.2333505513961
94.2333505445713
94.2333505371207
94.2333505292772
94.2333505211864
94.2333505129354
94.2333505045244
94.2333504961134
94.2333504877024
94.2333504792914
94.2333504709677
94.2333504627022
94.2333504544949
94.2333504463022
94.2333504380658
94.2333504296985
94.2333504209964
94.233350411625
94.2333504010021
94.233350387949
94.2333503703703
94.2333503437258
94.2333502998372
94.2333502224064
94.2333500812529
94.2333498218795
94.233349348433
94.2333485006966
94.2333469994628
94.2333444289543
94.2333401996293
94.2333344364597
94.2333312034461
94.2336913656036
94.2337043183361
94.2337191203114
94.233729619853
94.2337361004611
94.2337399157113
94.2337420831318
94.2337432807835
94.2337439182593
94.2337442447752
94.2337444056029
94.2337444812438
94.2337445146695
94.2337445276644
94.2337445307639
94.233744528945
94.2337445244484
94.2337445185112
94.23374451173
94.233744504294
94.2337444964651
94.2337444883742
94.2337444801087
94.2337444717123
94.2337444633013
94.2337444548757
94.2337444464647
94.2337444381265
94.233744429861
94.2337444216537
94.233744413461
94.2337444051955
94.2337443967263
94.2337443877768
94.233744377867
94.2337443658034
94.2337443491851
94.2337443228462
94.233744275858
94.2337441863492
94.2337440112751
94.2337436704256
94.2337430207699
94.2337418167735
94.2337396529329
94.233735850823
94.2337293688033
94.2337187960511
94.2337038348778
94.2336912097526
94.234062317948
94.2340840008255
94.2341046560032
94.2341187877028
94.2341274077189
94.2341324430017
94.2341352903168
94.234136856976
94.2341376878176
94.2341381115839
94.2341383189778
94.2341384158935
94.2341384585598
94.2341384753236
94.2341384798783
94.2341384785541
94.2341384742322
94.2341384683386
94.2341384615283
94.2341384540778
94.2341384462488
94.234138438158
94.2341384298779
94.2341384214815
94.2341384130414
94.2341384046013
94.2341383961902
94.234138387852
94.234138379572
94.2341383713356
94.2341383631428
94.2341383548774
94.234138346379
94.2341383373569
94.2341383272142
94.2341383145686
94.2341382963496
94.2341382659797
94.234138209431
94.2341380981088
94.2341378756973
94.2341374368552
94.2341365933244
94.2341350207571
94.2341321788117
94.2341271565092
94.2341185206169
94.2341042573389
94.2340833078488
94.234061841431
94.2343958041602
94.2344214031618
94.2344426509371
94.2344565857056
94.2344648222643
94.2344694998901
94.2344720808906
94.2344734726503
94.2344741989509
94.2344745647279
94.2344747418829
94.2344748238538
94.2344748594769
94.2344748730102
94.2344748760806
94.234474874087
94.2344748694595
94.2344748634059
94.2344748564938
94.234474848985
94.2344748411269
94.234474833007
94.2344748246978
94.2344748163014
94.2344748078322
94.234474799392
94.2344747909665
94.2344747825991
94.2344747743045
94.2344747660682
94.2344747578754
94.2344747496682
94.234474741228
94.2344747323514
94.2344747225579
94.2344747106545
94.2344746940798
94.234474667348
94.2344746185699
94.2344745232695
94.2344743324793
94.2344739530672
94.2344732146739
94.2344718154054
94.2344692342303
94.2344645575067
94.2344562818907
94.2344421686576
94.2344205188274
94.234394805957
94.2346625802747
94.2346869647881
94.2347052377736
94.2347167231346
94.234723287751
94.2347269059974
94.2347288517485
94.2347298801615
94.2347304089199
94.2347306723968
94.2347307989985
94.234730857017
94.2347308816679
94.2347308902827
94.2347308911849
94.2347308882163
94.2347308831231
94.2347308768367
94.2347308697936
94.2347308622266
94.2347308542812
94.2347308461176
94.2347308377939
94.2347308293538
94.23473082087
94.2347308124008
94.2347308039607
94.2347307955642
94.2347307872697
94.2347307790333
94.2347307708696
94.2347307626769
94.2347307543823
94.2347307457385
94.2347307364107
94.2347307255841
94.2347307113814
94.234730689961
94.2347306528973
94.2347305827425
94.2347304441791
94.234730169017
94.2347296296211
94.2347285932192
94.2347266431316
94.2347230166924
94.2347164009407
94.2347047230724
94.2346859988611
94.2346611862886
94.2348552364419
94.2348750834499
94.2348887810367
94.2348970348976
94.2349015929503
94.2349040287518
94.2349053042999
94.2349059650442
94.2349062998983
94.2349064650625
94.2349065437011
94.2349065790913
94.2349065933668
94.2349065972812
94.2349065960152
94.2349065919989
94.2349065864255
94.2349065798626
94.2349065726594
94.2349065649905
94.234906556987
94.2349065487651
94.2349065403978
94.234906531914
94.2349065234157
94.2349065149028
94.2349065064482
94.2349064980517
94.2349064897426
94.2349064815062
94.2349064733571
94.2349064652371
94.234906457059
94.2349064486771
94.2349064398877
94.2349064300943
94.2349064181763
94.2349064017035
94.2349063754955
94.2349063287838
94.2349062393623
94.2349060640263
94.2349057199172
94.234905051635
94.2349037702807
94.2349013235653
94.2348967168946
94.2348882901715
94.234874164511
94.2348537229554
94.2349822915567
94.2349965386675
94.2350057044387
94.2350109939289
94.2350138110196
94.2350152662839
94.2350160058995
94.2350163800875
94.2350165663229
94.2350166566466
94.2350166987744
94.2350167167315
94.2350167228142
94.2350167228433
94.2350167197146
94.2350167147524
94.2350167086552
94.2350167017867
94.2350166943943
94.2350166865945
94.2350166785182
94.2350166702236
94.2350166618126
94.2350166532997
94.2350166447577
94.2350166362157
94.235016627732
94.235016619321
94.2350166109973
94.2350166027754
94.2350165946555
94.2350165866228
94.2350165786047
94.2350165704993
94.2350165621901
94.2350165533426
94.2350165433309
94.2350165308453
94.2350165130483
94.2350164841191
94.2350164318486
94.235016332168
94.2350161376089
94.2350157565088
94.2350150112616
94.2350135465822
94.235010692224
94.2350052694237
94.2349957520782
94.2349809055013
94.2350595377065
94.2350687412691
94.2350743000134
94.2350773591024
94.2350789217744
94.2350796949177
94.2350800719432
94.2350802555156
94.2350803436129
94.2350803843874
94.235080401937
94.2350804078742
94.2350804080052
94.2350804050511
94.2350804003363
94.2350803945155
94.2350803878944
94.2350803807203
94.2350803731097
94.2350803651498
94.235080356957
94.2350803485897
94.2350803400914
94.2350803315348
94.2350803229638
94.2350803143927
94.2350803058798
94.2350802974688
94.2350802891451
94.2350802809378
94.2350802728761
94.2350802649016
94.2350802570436
94.2350802492438
94.2350802414003
94.2350802333967
94.2350802249421
94.2350802154542
94.2350802036526
94.2350801868888
94.2350801593711
94.2350801095745
94.2350800135464
94.2350798234838
94.2350794413796
94.235078661528
94.2350770745543
94.2350739251997
94.2350681113894
94.2350584093219
94.2351031785074
94.235108602079
94.2351116857462
94.2351132858312
94.2351140579995
94.235114413721
94.2351145736757
94.2351146441652
94.2351146739238
94.2351146847213
94.2351146869332
94.2351146849396
94.2351146808796
94.2351146756409
94.2351146696019
94.2351146629662
94.2351146558358
94.2351146483124
94.2351146404544
94.235114632349
94.2351146240253
94.2351146155561
94.2351146069996
94.2351145983848
94.2351145897555
94.2351145811554
94.2351145726134
94.2351145641733
94.2351145558496
94.2351145476714
94.2351145396387
94.2351145318098
94.2351145241119
94.2351145165885
94.2351145092107
94.2351145019638
94.2351144947897
94.2351144875574
94.2351144799031
94.235114471041
94.2351144589047
94.2351144391432
94.2351144015411
94.2351143246633
94.2351141599793
94.2351137996448
94.2351130134775
94.2351113587938
94.2351081090455
94.235102325154
94.235126244108
94.2351291859086
94.2351307553909
94.2351315021224
94.2351318276778
94.2351319536392
94.2351319960726
94.2351320054004
94.235132003043
94.2351319967274
94.2351319896698
94.2351319825102
94.2351319754671
94.235131968424
94.2351319612353
94.2351319538429
94.2351319462177
94.2351319383306
94.2351319302252
94.235131921916
94.2351319134614
94.2351319048903
94.2351318962319
94.235131887559
94.2351318788715
94.2351318702276
94.2351318616566
94.2351318532019
94.2351318448782
94.2351318367291
94.2351318287547
94.2351318210131
94.2351318135043
94.235131806272
94.2351317993598
94.2351317927969
94.2351317866996
94.2351317812136
94.2351317764987
94.2351317727444
94.2351317697903
94.2351317670982
94.2351317615685
94.2351317458233
94.235131698646
94.2351315691194
94.2351312360115
94.2351304593903
94.2351287915226
94.2351256167603
94.2351377132436
94.2351391887496
94.2351399166655
94.2351402110071
94.2351403081411
94.2351403196517
94.2351403042849
94.2351402830682
94.2351402640925
94.2351402483473
94.2351402356871
94.2351402250933
94.2351402158529
94.2351402073109
94.2351401991327
94.2351401910273
94.2351401829073
94.2351401746564
94.2351401662891
94.2351401577907
94.235140149176
94.235140140474
94.2351401317428
94.235140122968
94.2351401142223
94.2351401055348
94.2351400969346
94.2351400884509
94.2351400801417
94.2351400720072
94.2351400641055
94.2351400564658
94.2351400491461
94.2351400421903
94.2351400356711
94.235140029763
94.2351400245971
94.235140020508
94.2351400179468
94.2351400175685
94.2351400201442
94.2351400268235
94.2351400378247
94.235140052464
94.2351400629123
94.2351400480838
94.2351399466424
94.2351396371232
94.2351388555253
94.235137242722
94.2351431026618
94.2351437861071
94.2351440848142
94.2351441614301
94.2351441535284
94.2351441142528
94.2351440734637
94.2351440384082
94.2351440113125
94.235143990416
94.2351439743361
94.2351439613703
94.2351439504127
94.2351439406775
94.2351439315971
94.2351439228514
94.2351439142367
94.235143905622
94.2351438969927
94.2351438882761
94.2351438795013
94.2351438706828
94.2351438618498
94.2351438530022
94.2351438441838
94.2351438354381
94.2351438267942
94.2351438182959
94.2351438099722
94.2351438018668
94.2351437940233
94.2351437865
94.2351437793404
94.2351437726466
94.2351437665493
94.2351437611796
94.2351437568286
94.2351437538891
94.2351437529433
94.2351437548787
94.2351437608158
94.2351437725738
94.2351437916222
94.2351438199694
94.2351438555488
94.2351438913174
94.2351438961341
94.2351438120095
94.2351434857555
94.2351427274407
94.2351455032185
94.2351457918558
94.2351458893827
94.2351458725316
94.2351458229532
94.2351457650657
94.2351457151963
94.2351456748002
94.2351456440811
94.2351456204342
94.2351456022152
94.2351455875614
94.2351455753087
94.2351455645548
94.2351455547032
94.2351455453463
94.2351455362805
94.235145527331
94.2351455184253
94.2351455095195
94.2351455005701
94.2351454916352
94.2351454826712
94.2351454737509
94.2351454648597
94.2351454560558
94.2351454473683
94.2351454388408
94.2351454305026
94.2351454224117
94.2351454146265
94.2351454071904
94.2351454002055
94.235145393759
94.2351453879965
94.2351453831361
94.2351453794836
94.2351453774754
94.2351453777665
94.235145381288
94.2351453893207
94.2351454037562
94.2351454263408
94.2351454598829
94.2351455042808
94.2351455583266
94.2351456050092
94.235145617713
94.2351455064199
94.2351451792929
94.2351465173415
94.2351466238761
94.2351466356777
94.2351465854881
94.2351465240063
94.2351464624662
94.2351464111998
94.2351463696832
94.235146337669
94.2351463127125
94.2351462931547
94.2351462773222
94.2351462640509
94.2351462524675
94.2351462419319
94.2351462320657
94.2351462225779
94.2351462133083
94.2351462041406
94.2351461950311
94.2351461859362
94.2351461768558
94.2351461677899
94.2351461587677
94.2351461498038
94.2351461409417
94.2351461322105
94.2351461236394
94.2351461152866
94.2351461072103
94.2351460994687
94.23514609212
94.235146085266
94.2351460790233
94.2351460735808
94.2351460691571
94.235146066072
94.235146064806
94.2351460660138
94.2351460706705
94.23514607994
94.2351460956415
94.2351461194339
94.2351461539656
94.2351461995568
94.2351462568622
94.2351463151863
94.2351463623781
94.2351463432715
94.2351462175866
94.2351469216082
94.2351469507848
94.2351469308051
94.235146873747
94.235146813051
94.2351467542321
94.2351467049448
94.2351466643304
94.2351466323598
94.2351466068794
94.2351465865941
94.2351465699612
94.2351465559186
94.2351465436659
94.2351465325919
94.23514652226
94.2351465124084
94.2351465028332
94.2351464934327
94.235146484134
94.235146474879
94.2351464656531
94.2351464564854
94.2351464473613
94.2351464383246
94.2351464293897
94.2351464206004
94.2351464120002
94.2351464036328
94.2351463955565
94.2351463878294
94.2351463805535
94.235146373816
94.2351463677624
94.2351463625673
94.2351463584928
94.2351463558589
94.2351463551604
94.2351463570521
94.2351463624072
94.2351463723462
94.2351463884697
94.2351464121602
94.2351464456588
94.2351464890671
94.2351465433312
94.2351466005202
94.2351466547116
94.2351466700929
94.2351466311229
94.2351470704598
94.2351470701396
94.2351470415597
94.2351469879359
94.2351469326677
94.2351468788838
94.2351468329725
94.2351467942644
94.2351467630215
94.2351467376138
94.2351467170083
94.2351466998807
94.2351466853288
94.2351466725668
94.2351466610271
94.2351466503169
94.2351466401451
94.235146630308
94.2351466206892
94.2351466112013
94.2351466018008
94.2351465924585
94.2351465831744
94.2351465739484
94.2351465648389
94.2351465558313
94.2351465469837
94.2351465383254
94.2351465299289
94.235146521838
94.2351465141401
94.2351465069078
94.2351465002575
94.2351464943495
94.2351464893582
94.235146485531
94.2351464832464
94.2351464829553
94.2351464852545
94.2351464910171
94.2351465012034
94.2351465171669
94.2351465400134
94.2351465714892
94.2351466113905
94.2351466603286
94.2351467117696
94.2351467623084
94.2351467872068
94.2351467819535
94.2351471171569
94.235147107509
94.2351470792782
94.2351470322901
94.2351469836285
94.2351469354762
94.2351468933484
94.2351468569832
94.235146826948
94.2351468020206
94.2351467814296
94.2351467640692
94.2351467491826
94.2351467360568
94.2351467241824
94.2351467131666
94.2351467027183
94.235146692663
94.2351466828404
94.2351466731925
94.2351466636464
94.2351466541731
94.2351466447872
94.2351466354885
94.2351466262771
94.2351466171967
94.2351466082764
94.2351465995744
94.2351465911343
94.2351465830288
94.2351465753309
94.2351465681131
94.2351465615357
94.2351465557149
94.2351465508691
94.2351465472311
94.2351465451648
94.2351465451211
94.2351465476677
94.2351465535321
94.235146563602
94.235146578998
94.2351466005639
94.2351466295804
94.2351466655091
94.235146708641
94.2351467532135
94.2351467968692
94.235146821622
94.2351468274428
94.235147124753
94.2351471135335
94.2351470885915
94.2351470485301
94.2351470063004
94.2351469636196
94.2351469253335
94.2351468915294
94.235146862964
94.2351468387933
94.2351468184497
94.2351468011038
94.2351467860717
94.2351467727276
94.2351467606059
94.2351467493572
94.2351467387052
94.2351467284461
94.2351467184635
94.2351467086701
94.235146698993
94.2351466894033
94.2351466799155
94.235146670515
94.2351466612163
94.2351466520631
94.2351466430846
94.2351466343243
94.2351466258115
94.2351466176769
94.2351466099499
94.2351466027467
94.2351465961838
94.2351465904212
94.2351465856482
94.2351465821266
94.2351465801767
94.2351465802349
94.2351465828106
94.2351465885877
94.2351465982792
94.2351466128166
94.2351466327964
94.2351466591499
94.2351466911059
94.2351467286062
94.2351467665721
94.2351468030683
94.2351468246052
94.2351468326815
94.2351471179718
94.2351471078
94.235147086627
94.2351470528956
94.2351470164431
94.2351469788118
94.235146944251
94.2351469130517
94.2351468861307
94.2351468629349
94.2351468430716
94.2351468259003
94.2351468108536
94.2351467974077
94.2351467851549
94.2351467737317
94.2351467629196
94.235146752515
94.2351467424014
94.235146732477
94.2351467226836
94.235146712992
94.2351467034023
94.2351466938999
94.2351466845284
94.235146675288
94.2351466662367
94.2351466574037
94.2351466488617
94.235146640669
94.2351466329128
94.2351466256805
94.2351466191176
94.2351466133696
94.2351466086111
94.2351466051186
94.2351466031978
94.2351466032123
94.2351466056862
94.2351466111431
94.2351466202526
94.2351466336986
94.2351466519176
94.2351466755354
94.2351467036642
94.2351467359986
94.2351467680419
94.2351467981061
94.2351468158886
94.2351468232373
94.235147106112
94.2351470976428
94.2351470799913
94.2351470516733
94.2351470203139
94.2351469872665
94.2351469561836
94.2351469276036
94.2351469023997
94.2351468803099
94.2351468611014
94.2351468442648
94.2351468293637
94.2351468159322
94.2351468036068
94.2351467920962
94.2351467811823
94.2351467706612
94.2351467604312
94.2351467503904
94.2351467404951
94.2351467307162
94.2351467210246
94.2351467114495
94.2351467019762
94.235146692663
94.2351466835244
94.2351466746331
94.2351466660184
94.2351466577675
94.2351466499385
94.2351466426771
94.2351466360706
94.2351466302789
94.2351466255059
94.2351466219698
94.2351466199616
94.2351466198452
94.2351466220425
94.2351466270629
94.2351466354012
94.2351466476102
94.2351466639957
94.2351466848922
94.2351467094122
94.2351467370463
94.2351467639382
94.235146788531
94.2351468028792
94.2351468087436
94.2351470925205
94.2351470857247
94.2351470711292
94.2351470474241
94.235147020474
94.2351469915448
94.235146963736
94.235146937659
94.2351469142304
94.2351468933484
94.2351468749112
94.2351468585548
94.2351468438865
94.2351468305715
94.2351468182751
94.2351468067354
94.2351467957487
94.2351467851549
94.2351467748376
94.235146764724
94.2351467547414
94.2351467448752
94.2351467350964
94.2351467254339
94.2351467158878
94.2351467064873
94.2351466972614
94.2351466882828
94.2351466795953
94.2351466712571
94.23514666337
94.2351466560358
94.2351466493565
94.2351466435066
94.2351466386317
94.2351466349937
94.2351466328255
94.2351466324762
94.2351466342952
94.235146638719
94.235146646155
94.2351466570399
94.2351466715336
94.2351466897962
94.2351467109402
94.2351467343542
94.2351467567642
94.235146776773
94.2351467881672
94.235146792591
94.2351470784051
94.23514707305
94.2351470610593
94.2351470412541
94.2351470182039
94.2351469929563
94.2351469681598
94.2351469444984
94.2351469228597
94.2351469032728
94.2351468856941
94.2351468698907
94.2351468555717
94.2351468424458
94.2351468302513
94.2351468187408
94.2351468077541
94.2351467971166
94.2351467867411
94.2351467765548
94.2351467664994
94.2351467565604
94.2351467467088
94.235146736959
94.2351467273256
94.2351467178378
94.2351467085391
94.2351466994733
94.2351466906985
94.2351466822729
94.2351466742984
94.2351466668624
94.2351466600812
94.2351466541149
94.2351466491236
94.2351466452965
94.23514664291
94.235146642226
94.2351466435648
94.2351466473046
94.2351466537511
94.235146663239
94.2351466758264
94.2351466915425
94.2351467095432
94.2351467292028
94.2351467476838
94.2351467638218
94.2351467728004
94.2351467759581
94.235147064086
94.2351470600115
94.2351470502617
94.235147033789
94.2351470141148
94.2351469921705
94.2351469701825
94.2351469488349
94.2351469289715
94.2351469106798
94.2351468940469
94.2351468788838
94.2351468650013
94.2351468521374
94.235146840103
94.2351468286797
94.2351468177076
94.2351468070847
94.2351467966801
94.2351467864501
94.2351467763365
94.2351467663248
94.2351467564004
94.2351467465778
94.2351467368571
94.235146727282
94.235146717896
94.2351467087428
94.2351466998662
94.2351466913387
94.2351466832624
94.23514667571
94.2351466687978
94.235146662686
94.2351466575055
94.2351466534601
94.235146650768
94.2351466496766
94.235146650477
94.2351466534456
94.2351466588298
94.235146666877
94.2351466775726
94.2351466908731
94.235146705978
94.2351467222325
94.2351467373082
94.235146750143
94.2351467570552
94.2351467591798
94.2351470497379
94.2351470467838
94.2351470389403
94.235147025378
94.2351470086869
94.2351469897258
94.2351469703426
94.2351469511923
94.2351469330461
94.2351469160785
94.2351469004352
94.2351468859706
94.2351468725828
94.2351468600536
94.2351468482229
94.2351468369452
94.2351468260458
94.2351468154375
94.2351468050329
94.2351467947738
94.2351467846311
94.2351467745611
94.235146764564
94.2351467546687
94.2351467448752
94.2351467352273
94.2351467257395
94.2351467164845
94.2351467075059
94.2351466988766
94.2351466906694
94.2351466829714
94.2351466759137
94.2351466696127
94.235146664214
94.2351466598921
94.2351466568507
94.2351466552936
94.2351466554683
94.2351466576074
94.2351466619002
94.2351466684922
94.2351466773398
94.2351466883265
94.2351467007393
94.2351467139233
94.2351467260014
94.235146735984
94.2351467411354
94.2351467423578
94.2351470353606
94.2351470333961
94.2351470272697
94.2351470162539
94.2351470022113
94.2351469859568
94.2351469689747
94.2351469519053
94.2351469354326
94.2351469198038
94.2351469051646
94.2351468914567
94.2351468786073
94.235146866471
94.2351468549023
94.2351468437846
94.2351468330016
94.2351468224515
94.235146812076
94.2351468018023
94.2351467916305
94.235146781517
94.2351467714761
94.2351467615081
94.2351467516419
94.2351467418921
94.2351467323169
94.2351467229601
94.2351467138651
94.2351467051049
94.2351466967521
94.2351466889231
94.2351466816763
94.235146675157
94.2351466695109
94.2351466648688
94.23514666142
94.2351466593536
94.2351466588589
94.2351466601249
94.2351466632826
94.2351466684195
94.2351466754917
94.2351466842811
94.2351466941909
94.2351467045955
94.2351467139815
94.2351467214612
94.2351467250555
94.2351467254775
94.2351470209251
94.2351470198628
94.2351470152789
94.2351470065478
94.2351469948917
94.235146981111
94.2351469663554
94.2351469512505
94.2351469364075
94.235146922103
94.2351469084824
94.2351468955603
94.2351468832931
94.2351468715788
94.2351468603301
94.2351468494162
94.2351468387642
94.2351468283014
94.2351468179695
94.2351468077104
94.2351467975241
94.2351467873814
94.2351467772824
94.2351467672561
94.2351467573171
94.23514674748
94.2351467378176
94.2351467283443
94.2351467191329
94.2351467102417
94.2351467017434
94.2351466937253
94.2351466862892
94.2351466795371
94.2351466735854
94.2351466685941
94.2351466647087
94.2351466620748
94.235146660867
94.2351466612308
94.2351466632535
94.2351466669643
94.2351466722903
94.2351466790133
94.2351466866094
94.2351466944674
94.2351467014232
94.2351467066765
94.2351467088592
94.2351467085391
94.2351470063732
94.2351470061985
94.2351470030262
94.2351469963469
94.2351469868736
94.235146975363
94.2351469626738
94.2351469494461
94.2351469361747
94.2351469231508
94.2351469105633
94.2351468984562
94.2351468868001
94.2351468755514
94.2351468646375
94.2351468539709
94.2351468434936
94.2351468331472
94.235146822859
94.2351468126435
94.2351468024572
94.2351467922854
94.2351467821572
94.2351467720728
94.2351467620465
94.2351467521366
94.2351467423578
94.2351467327826
94.2351467234403
94.2351467144035
94.2351467057451
94.2351466975379
94.2351466898835
94.2351466828695
94.2351466766122
94.235146671228
94.2351466668624
94.2351466636464
94.2351466616965
94.235146661129
94.2351466620021
94.2351466643158
94.2351466679829
94.2351466727414
94.2351466781693
94.235146683699
94.2351466884429
94.2351466916589
94.2351466925466
94.2351466914988
94.2351469916903
94.2351469923597
94.2351469905261
94.2351469857531
94.2351469782734
94.2351469688583
94.235146958119
94.2351469466666
94.2351469349087
94.2351469231653
94.2351469115965
94.2351469003042
94.2351468892884
94.2351468785346
94.2351468679844
94.2351468575798
94.2351468473062
94.2351468370762
94.2351468268898
94.2351468167035
94.2351468065317
94.2351467963599
94.2351467861881
94.2351467760454
94.235146765961
94.2351467559638
94.2351467460976
94.2351467363915
94.2351467269327
94.2351467177359
94.2351467089029
94.2351467004919
94.2351466925902
94.2351466852997
94.2351466787077
94.235146672916
94.2351466680557
94.235146664214
94.2351466615073
94.2351466600085
94.2351466597465
94.2351466606924
94.2351466627442
94.2351466656546
94.2351466690598
94.2351466724213
94.2351466751279
94.2351466764521
94.2351466761174
94.2351466743276
94.2351469767891
94.2351469783171
94.235146977735
94.2351469747664
94.2351469691639
94.2351469617133
94.2351469528076
94.2351469430287
94.2351469327259
94.2351469222049
94.2351469116693
94.2351469012065
94.2351468908455
94.2351468805864
94.2351468704292
94.2351468603301
94.2351468502602
94.2351468401903
94.2351468301058
94.2351468199777
94.2351468098204
94.2351467996486
94.2351467894478
94.2351467792614
94.2351467691187
94.2351467590343
94.2351467490662
94.2351467392436
94.2351467296394
94.2351467202971
94.2351467112749
94.2351467026456
94.2351466944965
94.2351466869004
94.2351466799591
94.2351466737455
94.2351466683467
94.2351466638793
94.2351466604014
94.2351466579712
94.2351466565742
94.2351466561959
94.2351466566906
94.2351466578548
94.2351466593682
94.235146660707
94.2351466615073
94.2351466610562
94.2351466595283
94.2351466569962
94.2351469615969
94.2351469640125
94.2351469646819
94.2351469634305
94.2351469596033
94.2351469539863
94.2351469468122
94.2351469386194
94.2351469297282
94.235146920415
94.2351469108835
94.2351469012356
94.235146891544
94.2351468818233
94.2351468720735
94.2351468622801
94.235146852443
94.2351468425331
94.2351468325651
94.2351468225097
94.2351468123961
94.2351468022243
94.2351467920089
94.2351467817789
94.2351467715634
94.2351467614062
94.2351467513363
94.2351467413973
94.2351467316475
94.2351467221451
94.2351467129192
94.2351467040862
94.2351466956752
94.235146687759
94.2351466804394
94.2351466737746
94.235146667852
94.2351466627442
94.2351466584805
94.2351466551045
94.2351466526161
94.2351466509426
94.2351466499676
94.2351466494438
94.2351466491673
94.2351466486143
94.2351466476393
94.2351466454566
94.2351466427644
94.2351466394321
94.23514694607
94.235146949417
94.2351469513233
94.2351469517744
94.2351469496207
94.2351469457644
94.2351469402201
94.2351469335699
94.2351469260175
94.235146917883
94.235146909341
94.235146900508
94.2351468914858
94.235146882289
94.2351468729612
94.2351468635025
94.2351468539127
94.2351468441921
94.2351468343404
94.2351468243724
94.2351468143024
94.2351468041452
94.2351467939152
94.2351467836561
94.2351467733824
94.2351467631379
94.2351467529661
94.2351467429107
94.2351467330154
94.2351467233384
94.2351467139379
94.2351467048575
94.23514669617
94.2351466879336
94.2351466802356
94.2351466731197
94.2351466666441
94.2351466608816
94.2351466558466
94.2351466515538
94.235146647974
94.2351466450491
94.235146642648
94.235146640538
94.2351466385735
94.2351466362161
94.235146633524
94.2351466296677
94.2351466257824
94.235146621606
94.2351469301357
94.2351469344867
94.2351469376445
94.2351469397981
94.2351469392597
94.2351469370915
94.2351469331043
94.2351469279092
94.2351469216519
94.2351469146524
94.2351469070709
94.2351468990528
94.2351468907
94.2351468820416
94.2351468731504
94.2351468640263
94.235146854684
94.235146845167
94.2351468354609
94.2351468255802
94.2351468155684
94.2351468054258
94.2351467951958
94.235146784893
94.2351467745611
94.2351467642438
94.2351467539847
94.2351467437984
94.2351467337576
94.2351467239205
94.2351467143017
94.2351467049884
94.2351466960245
94.2351466874679
94.2351466793771
94.2351466717955
94.2351466647669
94.2351466583495
94.2351466525433
94.2351466473483
94.2351466427208
94.2351466385735
94.2351466348191
94.2351466311811
94.2351466276159
94.2351466235414
94.2351466192049
94.2351466136606
94.235146608582
94.2351466034597
94.2351469137211
94.2351469191781
94.2351469236601
94.2351469275018
94.2351469285786
94.2351469280111
94.2351469255227
94.2351469217247
94.2351469167043
94.2351469107962
94.2351469041751
94.2351468969428
94.2351468892448
94.2351468811394
94.2351468726847
94.2351468639099
94.2351468548441
94.2351468455163
94.2351468359557
94.2351468261913
94.2351468162233
94.2351468061242
94.2351467958797
94.2351467855478
94.2351467751869
94.2351467647823
94.2351467544213
94.2351467441185
94.2351467339467
94.2351467239205
94.2351467141125
94.2351467045519
94.2351466952969
94.2351466864056
94.2351466779073
94.2351466698601
94.2351466622931
94.2351466552209
94.235146648658
94.2351466425607
94.2351466369146
94.2351466316031
94.2351466265391
94.2351466214604
94.2351466163527
94.2351466106338
94.2351466046966
94.2351465974643
94.2351465911051
94.2351465849351
94.2351468967827
94.2351469035057
94.2351469093555
94.235146914958
94.2351469175919
94.235146918596
94.2351469175337
94.2351469150599
94.2351469112473
94.2351469064015
94.2351469006826
94.2351468942506
94.2351468872075
94.2351468796405
94.2351468716224
94.2351468631969
94.2351468544075
94.2351468452835
94.2351468358829
94.2351468262204
94.2351468163251
94.2351468062552
94.2351467960252
94.2351467856643
94.2351467752451
94.2351467647823
94.2351467543194
94.2351467439003
94.235146733583
94.2351467233821
94.2351467133703
94.2351467035769
94.2351466940308
94.2351466848049
94.2351466759137
94.2351466674008
94.2351466592809
94.2351466515684
94.2351466442487
94.2351466372929
94.2351466306427
94.2351466242108
94.2351466178952
94.2351466114342
94.2351466048713
94.2351465975516
94.2351465900429
94.2351465810643
94.2351465733809
94.2351465660031
94.2351468792622
94.2351468874404
94.2351468947745
94.2351469021814
94.2351469063724
94.2351469088899
94.23514690921
94.2351469079877
94.2351469053247
94.2351469014975
94.2351468966663
94.235146890991
94.2351468846027
94.2351468775742
94.2351468699926
94.2351468619163
94.2351468534034
94.2351468444976
94.2351468352572
94.2351468257111
94.2351468159031
94.2351468058623
94.2351467956323
94.2351467852568
94.235146774794
94.2351467642584
94.2351467537082
94.2351467431872
94.2351467327098
94.2351467223489
94.2351467121189
94.2351467020781
94.2351466922701
94.2351466827095
94.2351466734253
94.2351466644468
94.2351466557739