/*--------------------------------*- C++ -*----------------------------------*\
  =========                 |
  \\      /  F ield         | OpenFOAM: The Open Source CFD Toolbox
   \\    /   O peration     | Website:  https://openfoam.org
    \\  /    A nd           | Version:  10
     \\/     M anipulation  |
\*---------------------------------------------------------------------------*/
FoamFile
{
    format      ascii;
    class       surfaceScalarField;
    location    "6.4";
    object      phi;
}
// * * * * * * * * * * * * * * * * * * * * * * * * * * * * * * * * * * * * * //

dimensions      [1 0 -1 0 0 0 0];

internalField   nonuniform List<scalar> 
4900
(
-5.85091179634286e-12
5.8863699062786e-12
-8.01647982571713e-12
2.21970484944263e-12
-7.18497025555647e-12
-7.73777391701909e-13
-5.31414401647361e-12
-1.81400746617734e-12
-3.60922833900349e-12
-1.6490291144038e-12
-2.37105901920591e-12
-1.18272596757201e-12
-1.54824674047038e-12
-7.6761226284365e-13
-1.01796635431865e-12
-4.75323378197163e-13
-6.77525751214635e-13
-2.85792966901093e-13
-4.56521545818539e-13
-1.66734867474958e-13
-3.09711473220572e-13
-9.29681499910617e-14
-2.09257754606123e-13
-4.70670250666317e-14
-1.38160112108079e-13
-1.81732254854177e-14
-8.61114768407504e-14
4.19421559845279e-16
-4.68501895033525e-14
1.27661270465046e-14
-1.6474077952833e-14
2.12307495696318e-14
7.47531714191308e-15
2.72597269371789e-14
2.66531860438627e-14
3.16566980165909e-14
4.21973703807706e-14
3.49397185444883e-14
5.49273329701701e-14
3.74258393723635e-14
6.54664199564186e-14
3.93119830976475e-14
7.43088402852714e-14
4.07257964832735e-14
8.18582692005341e-14
4.17586045288474e-14
8.84604167217431e-14
4.24671749544282e-14
9.44344500728232e-14
4.28786194239148e-14
1.00077081322946e-13
4.30139777323776e-14
1.05682882144104e-13
4.28759062164981e-14
1.11569550218521e-13
4.24398655190896e-14
1.18070600402153e-13
4.16908357446336e-14
1.25583137811308e-13
4.05638591382986e-14
1.34586499598597e-13
3.89780711053231e-14
1.45684256892462e-13
3.68090650786871e-14
1.59677601175906e-13
3.38610789167768e-14
1.77677898418419e-13
2.98249833724237e-14
2.01339765985953e-13
2.41592761765236e-14
2.33139021810243e-13
1.60434414480308e-14
2.76982656377782e-13
4.04581673221202e-15
3.39161778234164e-13
-1.42204279332707e-14
4.29975750671991e-13
-4.27700664905001e-14
5.66472949812928e-13
-8.83622265198639e-14
7.76493944894867e-13
-1.6180354386827e-13
1.10530791987588e-12
-2.80538730321031e-13
1.62364041411556e-12
-4.7003215307465e-13
2.4357262318834e-12
-7.63768634001741e-13
3.66898476657683e-12
-1.18482940549909e-12
5.38476386407207e-12
-1.66691914947551e-12
7.28930383753081e-12
-1.85466097677212e-12
8.14483193694932e-12
-8.03915913744655e-13
5.9229081678471e-12
2.27359735870905e-12
5.95862832281412e-12
-8.59575725603764e-12
1.45311898550288e-11
-1.35532065189883e-11
7.24669843432508e-12
-1.27860582268266e-11
-1.46816113303154e-12
-9.87183040313713e-12
-4.65678578741588e-12
-6.96117243548183e-12
-4.48954093223531e-12
-4.75655690939601e-12
-3.31793880039152e-12
-3.23760589756138e-12
-2.21763713610742e-12
-2.22747462355429e-12
-1.41695847190653e-12
-1.55644462985499e-12
-8.88793774161028e-13
-1.10384255512593e-12
-5.51825478814868e-13
-7.90347853986033e-13
-3.39507106813085e-13
-5.66194157518851e-13
-2.04840263816137e-13
-4.00532610978184e-13
-1.18030884526468e-13
-2.7427761794868e-13
-6.05974410351766e-14
-1.75487319003468e-13
-2.13303954511619e-14
-9.65207272532241e-14
6.43807065679269e-15
-3.23323839108971e-14
2.6754341394421e-14
2.05496898036871e-14
4.19945326857883e-14
6.46275519977362e-14
5.36483942866524e-14
1.01756582452851e-13
6.26779420797334e-14
1.33402462998274e-13
6.96706292279778e-14
1.60743825481911e-13
7.50398170004493e-14
1.84787047715636e-13
7.90499655855341e-14
2.06402810356235e-13
8.18919053892477e-14
2.26399753599985e-13
8.36555774826105e-14
2.45545758768126e-13
8.44007733539231e-14
2.64609084821094e-13
8.41311246019393e-14
2.84385930316926e-13
8.27917177688417e-14
3.05740106278543e-13
8.03003951991409e-14
3.29649205140951e-13
7.64783091653816e-14
3.57276300863682e-13
7.10598432142713e-14
3.90046536366404e-13
6.36588253603784e-14
4.29782795479824e-13
5.36839197174134e-14
4.78949416583672e-13
4.01861175597081e-14
5.41022955898166e-13
2.16134802421783e-14
6.21066381119768e-13
-4.44002325197344e-15
7.26745616935986e-13
-4.20102127202391e-14
8.70033623700133e-13
-9.77948188609184e-14
1.07005793050821e-12
-1.8297048200113e-13
1.35774446626841e-12
-3.1610762037932e-13
1.7829418909996e-12
-5.26952341087869e-13
2.42516209958115e-12
-8.62626950007926e-13
3.4059335460265e-12
-1.39061415141452e-12
4.89809966687644e-12
-2.19566364540683e-12
7.08752261006454e-12
-3.31370862415281e-12
1.00128810498447e-11
-4.53094236730265e-12
1.2985498089807e-11
-4.76431130210415e-12
1.37981176971121e-11
-1.55153234799213e-12
8.75026826770145e-12
7.3842143632714e-12
1.47494401994471e-11
-6.52583055367472e-12
2.11086808887852e-11
-1.21417239794771e-11
1.29328543867505e-11
-1.22012920981176e-11
-1.33652863798629e-12
-9.94450408624428e-12
-6.84331065490454e-12
-7.38431100796889e-12
-6.98116774826626e-12
-5.31901707413133e-12
-5.31576936164044e-12
-3.81841113702289e-12
-3.65153014819693e-12
-2.7697318293523e-12
-2.39953314645535e-12
-2.03731935270572e-12
-1.55566996560013e-12
-1.51768090649422e-12
-1.00649328499938e-12
-1.13970037740015e-12
-6.5308684408749e-13
-8.56952198144351e-13
-4.23758415639848e-13
-6.39554923444985e-13
-2.72161338178204e-13
-4.68242515898833e-13
-1.69191878026645e-13
-3.30395849106739e-13
-9.69870184548428e-14
-2.17571639590039e-13
-4.47004244579922e-14
-1.23918348626673e-13
-5.68975846358602e-15
-4.52559904441517e-14
2.40910211780273e-14
2.15360058894501e-14
4.71935166978955e-14
7.88556216102647e-14
6.53008047438883e-14
1.28634391076233e-13
7.94680461917214e-14
1.72470519600329e-13
9.04398057623195e-14
2.11738541636394e-13
9.87057432701192e-14
2.47663075994055e-13
1.04605110862643e-13
2.81376650162087e-13
1.0832053230507e-13
3.13968558081314e-13
1.09953603322306e-13
3.46529360120236e-13
1.09506501683206e-13
3.80178729388475e-13
1.06894751793947e-13
4.16130569855489e-13
1.0194164572586e-13
4.55736632858495e-13
9.43300516253777e-14
5.00572984939156e-13
8.35704679900919e-14
5.52542170619631e-13
6.89513467051037e-14
6.14006344571915e-13
4.94238648348552e-14
6.88058822029468e-13
2.3308813272747e-14
7.78882100187331e-13
-1.20324938060608e-14
8.92331339463057e-13
-6.06788209063844e-14
1.03687649343955e-12
-1.29280934489282e-13
1.22515234806981e-12
-2.28704487310178e-13
1.47648255781489e-12
-3.76821945319785e-13
1.8208246873453e-12
-6.0284668837772e-13
2.30476588070814e-12
-9.53165219616471e-13
2.99978317171368e-12
-1.49979904817152e-12
4.01047755698212e-12
-2.3433442473791e-12
5.47587187249227e-12
-3.60290561980011e-12
7.51806710057853e-12
-5.29730050402383e-12
1.00863498847208e-11
-7.03953228504114e-12
1.23999123349635e-11
-7.01610806838281e-12
1.23999800203533e-11
-1.48770016302929e-12
6.71266443164854e-12
1.31325109517078e-11
2.1500586074447e-11
-3.40305570607156e-12
2.45635600633264e-11
-7.85136499334179e-12
1.74499426555768e-11
-8.74586232875073e-12
-3.72495529390752e-13
-7.77571721227059e-12
-7.74617067363935e-12
-6.25620699565577e-12
-8.43544584894797e-12
-4.85529298057181e-12
-6.65286148878665e-12
-3.73102323486682e-12
-4.71295178863971e-12
-2.87559464341762e-12
-3.19285954659872e-12
-2.23114851406395e-12
-2.13865095467762e-12
-1.74221566123611e-12
-1.43454875315827e-12
-1.36567547255019e-12
-9.69313816093609e-13
-1.07050831223559e-12
-6.59162258184519e-13
-8.3499388947159e-13
-4.48448694877175e-13
-6.43964949680668e-13
-3.01514642720754e-13
-4.86726203173874e-13
-1.96020315743435e-13
-3.55637019987614e-13
-1.18062662131534e-13
-2.45090692269606e-13
-5.89635494146554e-14
-1.50887447228133e-13
-1.32690647533804e-14
-6.97907775015934e-14
2.25370866679273e-14
7.88327931465559e-16
5.07846082899618e-14
6.29531599073598e-14
7.30151728072016e-14
1.18495887175575e-13
9.02842058332768e-14
1.6896566559385e-13
1.03324633453373e-13
2.1577065420941e-13
1.12615514258475e-13
2.60211671224564e-13
1.18446793359204e-13
3.03551510552528e-13
1.2095766524522e-13
3.47045519708265e-13
1.20157395634337e-13
3.9199073939887e-13
1.15918668706796e-13
4.39773870510067e-13
1.07975302517412e-13
4.91938421411182e-13
9.58529606536892e-14
5.50244082176057e-13
7.88469760802903e-14
6.16783241563593e-13
5.5913224357345e-14
6.94104722185737e-13
2.55485902535324e-14
7.85432280173525e-13
-1.46002106246904e-14
8.94950599283803e-13
-6.81300794901174e-14
1.02825483954313e-12
-1.40530544872188e-13
1.19298944795113e-12
-2.40501677132417e-13
1.39982979914578e-12
-3.81942801711514e-13
1.66396954900087e-12
-5.87248955754629e-13
2.00717522889753e-12
-8.92213777524897e-13
2.46061216876908e-12
-1.35262889260713e-12
3.0677523070893e-12
-2.05282635394337e-12
3.88500165103931e-12
-3.10632047999486e-12
4.97283278565575e-12
-4.63620890160627e-12
6.34643100872483e-12
-6.61581427343163e-12
7.86387977864918e-12
-8.50062925018811e-12
8.87546843554279e-12
-7.96898651930522e-12
8.04375366768062e-12
-5.94958492128599e-13
3.56293080571907e-12
1.76713286494847e-11
2.50997447176289e-11
-8.28819542411022e-13
2.54422452196285e-11
-3.50293057088793e-12
2.0188959825436e-11
-4.92579758924339e-12
1.11489077865704e-12
-5.13783891893585e-12
-7.47214062594576e-12
-4.68579683499886e-12
-8.82775059003493e-12
-4.01678700603794e-12
-7.26372976056234e-12
-3.34191232784301e-12
-5.33079241170424e-12
-2.74388826862921e-12
-3.73466849394116e-12
-2.24022896294455e-12
-2.58675703248162e-12
-1.82457346496974e-12
-1.79523263913917e-12
-1.48362776298817e-12
-1.25582682926739e-12
-1.20354426614671e-12
-8.8533043205232e-13
-9.72216904156962e-13
-6.263616514345e-13
-7.79730885847029e-13
-4.41072588641317e-13
-6.1820751311345e-13
-3.05084673000198e-13
-4.81476874607528e-13
-2.02784302657335e-13
-3.64692284912432e-13
-1.24167476768116e-13
-2.64020660641353e-13
-6.27659282465844e-14
-1.76396213434216e-13
-1.42942131505294e-14
-9.92926319586764e-14
2.41168240533931e-14
-3.06119137698462e-14
5.44373240472923e-14
3.14594097659182e-14
7.8007420713011e-14
8.85177553126644e-14
9.57773291690964e-14
1.42016880858256e-13
1.08367947682792e-13
1.93312482705951e-13
1.16167843857155e-13
2.43720554107576e-13
1.19354144645323e-13
2.94547163833305e-13
1.17946878893345e-13
3.4714607208509e-13
1.11768906451657e-13
4.02952386591016e-13
1.00474084332647e-13
4.63547993042238e-13
8.34394835445984e-14
5.30721315096299e-13
5.97560434500259e-14
6.06556308706557e-13
2.80834982667279e-14
6.93547864288958e-13
-1.34901985956415e-14
7.94743661130747e-13
-6.78699718260258e-14
9.1394345610111e-13
-1.39403096642209e-13
1.05596284192878e-12
-2.34594661945041e-13
1.22694064069671e-12
-3.63468319671028e-13
1.43470546199777e-12
-5.41614729184519e-13
1.68913734709897e-12
-7.93484661225253e-13
2.00230500645316e-12
-1.15706487758862e-12
2.38809098733022e-12
-1.68996667214041e-12
2.85990836393843e-12
-2.47605316691139e-12
3.42454172182887e-12
-3.62219425233398e-12
4.06584980951844e-12
-5.22849001778178e-12
4.70590613452147e-12
-7.20627086248814e-12
5.14578970801618e-12
-8.88960750859246e-12
4.95538626862367e-12
-7.72522415560892e-12
3.58686863294158e-12
8.29268287194475e-13
9.19614930281896e-13
2.03914759295484e-11
2.60517670643337e-11
7.46022446971498e-13
2.47430682282772e-11
-3.9139835128454e-13
2.13862671459222e-11
-1.99168093936674e-12
2.77396532443819e-12
-2.96112717007221e-12
-6.4466078702068e-12
-3.27777247956596e-12
-8.45737897756341e-12
-3.17547382833867e-12
-7.31400062224318e-12
-2.87414135781949e-12
-5.58127605810347e-12
-2.50714501088393e-12
-4.0516674164611e-12
-2.14232126148711e-12
-2.90224589758095e-12
-1.80872629968713e-12
-2.08005361368334e-12
-1.51591187008866e-12
-1.50037521952036e-12
-1.26392321763876e-12
-1.08953441611403e-12
-1.04889103273616e-12
-7.94074231965811e-13
-8.65704110097677e-13
-5.77392583680101e-13
-7.09273888231963e-13
-4.15085872333103e-13
-5.75038532826285e-13
-2.9101278793001e-13
-4.59090002864844e-13
-1.94512419884629e-13
-3.58146396778897e-13
-1.18488907362953e-13
-2.6946480216408e-13
-5.81161766772185e-14
-1.90721961238099e-13
-1.01055269756083e-14
-1.19927780369888e-13
2.78483590025871e-14
-5.53543663266781e-14
5.73469052869388e-14
4.55426301708574e-15
7.95127212954364e-14
6.12147567971553e-14
9.51053353654286e-14
1.15966705879325e-13
1.04591129089961e-13
1.70103554703951e-13
1.0819115639024e-13
2.24914948909677e-13
1.05930505395958e-13
2.81727069749594e-13
9.75941412671705e-14
3.41949778130201e-13
8.2751947929601e-14
4.07110899994243e-13
6.06624212670903e-14
4.7892640995733e-13
3.02297104417454e-14
5.59354556058181e-13
-1.01293223244695e-14
6.5069140867916e-13
-6.26619227989713e-14
7.55655865701506e-13
-1.30695926138062e-13
8.77481079067205e-13
-2.19091074279526e-13
1.02002449816441e-12
-3.34976531110561e-13
1.18778486168615e-12
-4.8901690627931e-13
1.3857703933896e-12
-6.97315327720935e-13
1.61899513270987e-12
-9.84330436041731e-13
1.89120495547029e-12
-1.38678543157247e-12
2.20222873543041e-12
-1.95837881535068e-12
2.54232324956887e-12
-2.7734029573041e-12
2.88225789233495e-12
-3.91922599378459e-12
3.15434938320891e-12
-5.45742945727432e-12
3.22775614371146e-12
-7.2359862407256e-12
2.89117872249292e-12
-8.50808000742998e-12
1.92566542110406e-12
-6.71234894304432e-12
3.64986575619975e-13
2.4396794678086e-12
-7.34263830075175e-13
2.15378663681742e-11
2.53461297200747e-11
1.45933412819306e-12
2.33259730078262e-11
1.290055850231e-12
2.16083752616279e-11
-2.28414124417928e-13
4.34337257420698e-12
-1.51535609387102e-12
-5.11140145279243e-12
-2.2427211705532e-12
-7.68404250102057e-12
-2.48544759975409e-12
-7.02698090640277e-12
-2.43745609293059e-12
-5.58614247784765e-12
-2.24317387072185e-12
-4.20365463213571e-12
-1.9925037719114e-12
-3.11125147736514e-12
-1.73332715815831e-12
-2.29808805104218e-12
-1.48898795636132e-12
-1.70403904532016e-12
-1.26878180868764e-12
-1.26950590259938e-12
-1.07482788926848e-12
-9.48220096615329e-13
-9.05807312011324e-13
-7.07022136848079e-13
-7.59024268444049e-13
-5.22884563837738e-13
-6.31409931544778e-13
-3.80036856214702e-13
-5.2000547184621e-13
-2.6770472070645e-13
-4.22134363803235e-13
-1.78508046885771e-13
-3.35437698572132e-13
-1.07300789893978e-13
-2.57856114927432e-13
-5.04952128609176e-14
-1.87577144310276e-13
-5.53642154508585e-15
-1.22995824528574e-13
2.93834872038084e-14
-6.26476395218427e-14
5.55281699650926e-14
-5.18933690202294e-15
7.37783430051002e-14
5.06590651621857e-14
8.46634194097528e-14
1.06131607555464e-13
8.84495506229848e-14
1.62466243605901e-13
8.51580544039335e-14
2.20920127018763e-13
7.4553000876053e-14
2.82835785726161e-13
5.61197119408467e-14
3.49645387706778e-13
2.90265476394147e-14
4.22935941781615e-13
-7.97703426703974e-15
5.04489628354527e-13
-5.66691367702372e-14
5.9633565349429e-13
-1.19542643089709e-13
7.00797126324225e-13
-2.00218917386435e-13
8.20490710829895e-13
-3.03849468343595e-13
9.58315035786245e-13
-4.37845685135003e-13
1.11724969653738e-12
-6.12953982620726e-13
1.29989293407405e-12
-8.44897337309103e-13
1.5074155748104e-12
-1.15671050449818e-12
1.73750761924223e-12
-1.58163946609103e-12
1.98060105424487e-12
-2.16612983752615e-12
2.21291079519404e-12
-2.97025994628905e-12
2.38590887071949e-12
-4.05664542841424e-12
2.40900616426775e-12
-5.44474887896689e-12
2.13880471912908e-12
-6.92955045605249e-12
1.38742887520445e-12
-7.71933632551644e-12
9.28849262886782e-14
-5.3781859413937e-12
-1.3996872217509e-12
3.9740561864264e-12
-1.51006088237739e-12
2.16878269709701e-11
2.3859473547091e-11
1.62017844870745e-12
2.17427693403012e-11
1.89041430063823e-12
2.13832838158296e-11
5.91606613483929e-13
5.68511366234859e-12
-7.02849864212378e-13
-3.77655959652608e-12
-1.56413492193225e-12
-6.78452688242709e-12
-1.96911290161405e-12
-6.58536517248932e-12
-2.06768479393456e-12
-5.45204480056174e-12
-1.9890530197333e-12
-4.24754340736075e-12
-1.82412102996914e-12
-3.24202577263535e-12
-1.62646779100465e-12
-2.46206181965333e-12
-1.42565115444489e-12
-1.87160130293324e-12
-1.23613605590887e-12
-1.42616864823942e-12
-1.06391907189601e-12
-1.0879760096727e-12
-9.10433583766629e-13
-8.28432084539369e-13
-7.74883487280826e-13
-6.26736803302446e-13
-6.55493814988574e-13
-4.68096797950543e-13
-5.50174784974011e-13
-3.42048725001695e-13
-4.56841764938857e-13
-2.41205457052012e-13
-3.73538439975398e-13
-1.60289770538446e-13
-2.98481918150256e-13
-9.55397073309516e-14
-2.30060798801646e-13
-4.42274822094597e-14
-1.66807980882766e-13
-4.40083143318066e-15
-1.0738033809547e-13
2.53289600715109e-14
-5.05156869625027e-14
4.59217666794141e-14
4.98203068300433e-15
5.79746912729035e-14
6.02761137489508e-14
6.17847139874534e-14
1.16533881109089e-13
5.7369948619487e-14
1.74936305671957e-13
4.4479194829276e-14
2.36730915872297e-13
2.25315335359518e-14
3.03241879287249e-13
-9.38203038792782e-15
3.75906278865508e-13
-5.26248024820643e-14
4.5630396471392e-13
-1.09116548335954e-13
5.46184846054098e-13
-1.81520442291656e-13
6.47461939433991e-13
-2.73619332270534e-13
7.62160405938179e-13
-3.90677163512263e-13
8.92293874658278e-13
-5.40093178623941e-13
1.03954271024026e-12
-7.3228167891332e-13
1.20458688449513e-12
-9.81966655398506e-13
1.38582196764393e-12
-1.30990233907059e-12
1.57701469881104e-12
-1.74470996714679e-12
1.76334855614482e-12
-2.32425841422937e-12
1.91468266209406e-12
-3.09330614848496e-12
1.97655503186222e-12
-4.0901432193015e-12
1.85700073808714e-12
-5.29668087523812e-12
1.4271325869608e-12
-6.47080901709656e-12
5.41580635404433e-13
-6.80393582431993e-12
-7.65046983832712e-13
-4.03969500949927e-12
-2.04629342516376e-12
5.28919814166182e-12
-1.70654031436818e-12
2.138002153025e-11
2.21715401668493e-11
1.4933466688581e-12
2.02798707596815e-11
1.86726936128477e-12
2.10453051934044e-11
8.30110953743112e-13
6.75567837573791e-12
-3.11018350992937e-13
-2.60424515677475e-12
-1.1431557934719e-12
-5.92306695083789e-12
-1.59307992412307e-12
-6.10752644302332e-12
-1.76361324002972e-12
-5.25458857188738e-12
-1.75717181423142e-12
-4.22775863736902e-12
-1.65398931563499e-12
-3.31950025015033e-12
-1.50528016109012e-12
-2.58548617651743e-12
-1.34174353581355e-12
-2.01023137877071e-12
-1.18007457577861e-12
-1.56329216331084e-12
-1.02850358307835e-12
-1.21535734455663e-12
-8.9034790763602e-13
-9.42751770059543e-13
-7.66253478219819e-13
-7.2734453564052e-13
-6.55517427356726e-13
-5.55688946294777e-13
-5.56808019101515e-13
-4.17945756667969e-13
-4.6858858143073e-13
-3.06931019447626e-13
-3.89285101274431e-13
-2.17401337355382e-13
-3.17392361506588e-13
-1.45524851870618e-13
-2.51501187094849e-13
-8.84767693783127e-14
-1.90293262649273e-13
-4.42134235649311e-14
-1.32546223083643e-13
-1.12490365619637e-14
-7.70913559211618e-14
1.14284624616803e-14
-2.28167528861701e-14
2.44741797110511e-14
3.13652411895415e-14
2.82075363236217e-14
8.65382753553476e-14
2.26517163948937e-14
1.43807200916995e-13
7.53227445509454e-15
2.04315620455286e-13
-1.77696516883407e-14
2.69274719970824e-13
-5.42318561559695e-14
3.3996814069491e-13
-1.03289553047022e-13
4.17771610857604e-13
-1.66954810960554e-13
5.041601856783e-13
-2.4798864355077e-13
6.00651488876065e-13
-3.50217067964384e-13
7.08730981240738e-13
-4.78870903778482e-13
8.29640594316185e-13
-6.41106766882819e-13
9.63994819401222e-13
-8.46711807066989e-13
1.11101607050878e-12
-1.10902102670437e-12
1.26721773000157e-12
-1.44608281733562e-12
1.42411308824833e-12
-1.88152448011664e-12
1.56463529078935e-12
-2.44464134519223e-12
1.65747126147308e-12
-3.16595530476518e-12
1.65051059124605e-12
-4.06295801240662e-12
1.4624599184217e-12
-5.0883405033275e-12
9.91081896983791e-13
-5.97890008185009e-12
1.37332968330923e-13
-5.92887684076363e-12
-1.01514186931876e-12
-2.86419425745562e-12
-2.03732032482719e-12
6.33609092608604e-12
-1.59134567836908e-12
2.0957220371271e-11
2.05930042451874e-11
1.25015699444197e-12
1.90535186343168e-11
1.57500865106802e-12
2.07473887195418e-11
7.84160162795496e-13
7.5710471996735e-12
-1.51590336893893e-13
-1.64583239811588e-12
-8.81869394454714e-13
-5.17167714395577e-12
-1.31478490908629e-12
-5.65469604293125e-12
-1.51226143689572e-12
-5.03805062740149e-12
-1.54871856192909e-12
-4.17284275983481e-12
-1.48936496130933e-12
-3.36084475833956e-12
-1.37916667674282e-12
-2.67804573120223e-12
-1.24707043364099e-12
-2.12502413202674e-12
-1.11011949496957e-12
-1.6832646622334e-12
-9.77620008273622e-13
-1.33120242496817e-12
-8.54086772811555e-13
-1.04995608461933e-12
-7.41220475710323e-13
-8.24206062912373e-13
-6.39170138728272e-13
-6.4205408153328e-13
-5.47255729682716e-13
-4.94485598171046e-13
-4.6442171987564e-13
-3.74689822833565e-13
-3.89445947920346e-13
-2.77585685727849e-13
-3.21092439564287e-13
-1.99355623514269e-13
-2.58140191748037e-13
-1.37156555748796e-13
-1.99429227081334e-13
-8.88843307794055e-14
-1.43848033769834e-13
-5.30039782078991e-14
-9.03330886495443e-14
-2.84556356242318e-14
-3.78558865794365e-14
-1.45494740002346e-14
1.45889769591487e-14
-1.09429129646344e-14
6.80063544255764e-14
-1.76128076671455e-14
1.23418613360507e-13
-3.48520934146972e-14
1.81868114691302e-13
-6.32996160536718e-14
2.44446861056383e-13
-1.03983525928843e-13
3.12290404257701e-13
-1.58381859820195e-13
3.8657440808247e-13
-2.28547539844974e-13
4.6850930157415e-13
-3.1727561458889e-13
5.59258711646357e-13
-4.28345113235481e-13
6.59824749264013e-13
-5.66825665544817e-13
7.70798786260725e-13
-7.39463164343128e-13
8.9194689848806e-13
-9.55221247986179e-13
1.02144028292762e-12
-1.22584257777026e-12
1.15459565113111e-12
-1.56652592192475e-12
1.2818639077437e-12
-1.99603838729347e-12
1.38584770750071e-12
-2.53583665690037e-12
1.43704210169291e-12
-3.20434608066795e-12
1.38971694856214e-12
-4.00283752116062e-12
1.17782911068359e-12
-4.86365972519392e-12
7.27308680983282e-13
-5.51545469681561e-12
-2.03289559116884e-14
-5.16773059083583e-12
-9.63660928893795e-13
-1.90596741301654e-12
-1.73834462445769e-12
7.12710340709665e-12
-1.34435001088881e-12
2.05782856878991e-11
1.92565456489306e-11
9.85677302236776e-13
1.80844210618646e-11
1.2216961559676e-12
2.05287393737338e-11
6.36025489667022e-13
8.17179817648367e-12
-1.01751243510524e-13
-8.94330661114332e-13
-7.11600454019115e-13
-4.54924779504432e-12
-1.10100494953816e-12
-5.25363861180754e-12
-1.30082727039028e-12
-4.82725613633822e-12
-1.36148121464762e-12
-4.10170520176889e-12
-1.33310016298326e-12
-3.37911331451508e-12
-1.25316968182958e-12
-2.74817699500378e-12
-1.14749727472094e-12
-2.22118870209337e-12
-1.03235657563288e-12
-1.7891868959787e-12
-9.1733840884949e-13
-1.43729508001756e-12
-8.0763321461203e-13
-1.15103398419409e-12
-7.05677392569882e-13
-9.17833597246492e-13
-6.12264140037569e-13
-7.27435787998142e-13
-5.27254719876504e-13
-5.71752738749552e-13
-4.50006010342346e-13
-4.4447584333215e-13
-3.79619647401853e-13
-3.40775368212923e-13
-3.15101414223074e-13
-2.56928622766623e-13
-2.5541672834322e-13
-1.90130588197437e-13
-1.99554831824987e-13
-1.38253832215366e-13
-1.46518202971278e-13
-9.97483106511476e-14
-9.53464093711557e-14
-7.35182676917418e-14
-4.50956227974326e-14
-5.88566751379462e-14
5.15865927131386e-15
-5.54026390890304e-14
5.63366562861524e-14
-6.31287998799046e-14
1.09372886650212e-13
-8.23431413786697e-14
1.65215430830749e-13
-1.13698183716015e-13
2.24832406589267e-13
-1.58242767657486e-13
2.89215901823803e-13
-2.17478679155577e-13
3.59355985986699e-13
-2.93457519767008e-13
4.36218705983412e-13
-3.88949511590056e-13
5.20647643615381e-13
-5.07611124769304e-13
6.13228491495807e-13
-6.54254951431796e-13
7.14021946600176e-13
-8.35102352686488e-13
8.22145274588207e-13
-1.05817580590491e-12
9.35047488299592e-13
-1.33355233944509e-12
1.0473829058638e-12
-1.6736410930668e-12
1.14934252097358e-12
-2.09275388548215e-12
1.22434098767606e-12
-2.60558129009337e-12
1.24612336855489e-12
-3.22089299552029e-12
1.17663049867686e-12
-3.92816408577334e-12
9.65202968498814e-13
-4.64712224330497e-12
5.62026133312549e-13
-5.10715004119622e-12
-6.04891922982572e-14
-4.53971094489962e-12
-8.01208653093238e-13
-1.15871105559393e-12
-1.36808489604352e-12
7.70152871875433e-12
-1.06868151865591e-12
2.02855530773908e-11
1.81903964604154e-11
7.45772413925059e-13
1.73486110644757e-11
9.02499424523725e-13
2.03809398282768e-11
4.75415359801053e-13
8.60596901878313e-12
-9.52822820571285e-14
-3.17440718563794e-13
-5.91833123809885e-13
-4.04728388479702e-12
-9.30163803590075e-13
-4.91057080490964e-12
-1.11986801166331e-12
-4.63333282435238e-12
-1.19290431640938e-12
-4.02483365367918e-12
-1.18625285030475e-12
-3.3822306303091e-12
-1.13008840847691e-12
-2.80107083128602e-12
-1.04658803928524e-12
-2.30167271768882e-12
-9.50644802160762e-13
-1.88237219668327e-12
-8.51607122592415e-13
-1.53384139117983e-12
-7.54944097762935e-13
-1.24547989563374e-12
-6.63558993580866e-13
-1.0072781485981e-12
-5.78715828145998e-13
-8.10614521183519e-13
-5.00706158330015e-13
-6.48368628818288e-13
-4.29230091698276e-13
-5.14819612998218e-13
-3.63674238017702e-13
-4.05448108400379e-13
-3.03261159581889e-13
-3.16694492688362e-13
-2.47137309043163e-13
-2.45827566524265e-13
-1.94428713187934e-13
-1.90740135945313e-13
-1.44256543647631e-13
-1.49885699989054e-13
-9.57576252140443e-14
-1.22154122722732e-13
-4.80778489710665e-14
-1.06828265276581e-13
-3.77275222644183e-16
-1.03534985757028e-13
4.81848333993831e-14
-1.12246522865354e-13
9.84514545191675e-14
-1.33274778288049e-13
1.51272224515919e-13
-1.67278553477431e-13
2.07502555828039e-13
-2.15313236331596e-13
2.67991725663021e-13
-2.78874562978775e-13
3.33555454880631e-13
-3.5998094550474e-13
4.04936750822447e-13
-4.61329336727893e-13
4.82702488699186e-13
-5.86401053924374e-13
5.6709018638297e-13
-7.39678965667285e-13
6.57742906519596e-13
-9.26791948849733e-13
7.53306216844094e-13
-1.15476653836114e-12
8.50779422328851e-13
-1.43203717112272e-12
9.44554150453794e-13
-1.76841084329767e-12
1.02509544090188e-12
-2.17428102757569e-12
1.07726159123537e-12
-2.6587441018296e-12
1.07854703242063e-12
-3.2232204298294e-12
9.98393897846637e-13
-3.84914405757889e-12
7.99608047247824e-13
-4.44959454049723e-12
4.51030475273734e-13
-4.75990500477232e-12
-5.38047968541937e-14
-4.03602195862908e-12
-6.23219078589101e-13
-5.89766028410901e-13
-1.02907138303427e-12
8.10762884014879e-12
-8.15688228566606e-13
2.00717703316743e-11
1.73731015790588e-11
5.47907576614253e-13
1.6804234301571e-11
6.47342689637215e-13
2.02823775621323e-11
3.37124578294187e-13
8.91560959008411e-12
-1.01282585387901e-13
1.20012503890749e-13
-5.0067130433112e-13
-3.64923165438341e-12
-7.89076313198733e-13
-4.62391293140098e-12
-9.62860479226057e-13
-4.46164476591303e-12
-1.04075118235097e-12
-3.94931515744251e-12
-1.0490672152111e-12
-3.37651744387825e-12
-1.01147795694888e-12
-2.84147836879653e-12
-9.46530471102923e-13
-2.36965630485675e-12
-8.67435729300153e-13
-1.96473275882946e-12
-7.82959440708949e-13
-1.62182435187604e-12
-6.98562690476181e-13
-1.33363405938065e-12
-6.17384521294852e-13
-1.09246906246793e-12
-5.41017012000546e-13
-8.91249777369177e-13
-4.70066205358536e-13
-7.23838015346161e-13
-4.0451937764808e-13
-5.8512771475966e-13
-3.44005536459408e-13
-4.70955351530369e-13
-2.87940210527357e-13
-3.77972585850775e-13
-2.35637432154608e-13
-3.03547717315659e-13
-1.86351781411944e-13
-2.45633215675851e-13
-1.39319296024167e-13
-2.02700409231803e-13
-9.37752486794999e-14
-1.73639918759356e-13
-4.89548454506161e-14
-1.57734446182932e-13
-4.10224372418976e-15
-1.54602900909138e-13
4.15404387483405e-14
-1.6421932969683e-13
8.87257961017364e-14
-1.86891042153807e-13
1.38208096130015e-13
-2.23279284635382e-13
1.90729153991805e-13
-2.74427241650517e-13
2.47003013041501e-13
-3.41802726215481e-13
3.07688006938085e-13
-4.27369191906963e-13
3.73329705634233e-13
-5.33710794517541e-13
4.44258185128235e-13
-6.64093654068092e-13
5.20423437439331e-13
-8.22620744261687e-13
6.01160909192233e-13
-1.01430814180671e-12
6.84794169322048e-13
-1.24517337126141e-12
7.6810217617116e-13
-1.52210944124053e-12
8.45509669024061e-13
-1.85257523208317e-12
9.08095345980346e-13
-2.24362768037163e-12
9.4245935290028e-13
-2.69989729740083e-12
9.29840642278715e-13
-3.21745972743614e-12
8.46362296260782e-13
-3.77264764904924e-12
6.65738290796932e-13
-4.27612510749973e-12
3.70155853398782e-13
-4.47164164614886e-12
-3.38031303789222e-14
-3.63938324025166e-12
-4.67622671725964e-13
-1.62941887660601e-13
-7.55117420112357e-13
8.38840919313693e-12
-6.05580966471006e-13
1.99151868711807e-11
1.67617797657276e-11
3.94276601313424e-13
1.64082217935328e-11
4.55972831712141e-13
2.02152233272692e-11
2.29621376666395e-13
9.13560829386075e-12
-1.07004047039599e-13
4.5032301512035e-13
-4.26451299719039e-13
-3.33616887542584e-12
-6.69476688537486e-13
-4.38746594720401e-12
-8.25094884852123e-13
-4.31281443787991e-12
-9.03014333838943e-13
-3.87837203757586e-12
-9.21300844111225e-13
-3.36538184342076e-12
-8.98112066989798e-13
-2.87199493892181e-12
-8.48619766319274e-13
-2.42666549071525e-12
-7.8425938245515e-13
-2.03681515830521e-12
-7.13005459566073e-13
-1.70102018785827e-12
-6.40094985661432e-13
-1.41471688273804e-12
-5.68727883577772e-13
-1.17224395179061e-12
-5.00692868121182e-13
-9.67929375881413e-13
-4.36816359275883e-13
-7.96591643311498e-13
-3.77313691458532e-13
-6.5373341990373e-13
-3.22012810802037e-13
-5.35574785994582e-13
-2.70501043219227e-13
-4.39007165668774e-13
-2.22239399841705e-13
-3.61522861614167e-13
-1.76606398476135e-13
-3.01156515320827e-13
-1.32951043385976e-13
-2.5640843720962e-13
-9.06004043102133e-14
-2.26191393148488e-13
-4.88819274543189e-14
-2.09787305230128e-13
-7.12049578321633e-15
-2.06818666750564e-13
3.53549399677833e-14
-2.1725521330829e-13
7.92095168563243e-14
-2.41399492819566e-13
1.25103310782278e-13
-2.79907947111199e-13
1.73667174025289e-13
-3.33794820966376e-13
2.25493810175241e-13
-4.04489724795718e-13
2.81093986808889e-13
-4.93874915145491e-13
3.40842491383435e-13
-6.04398218026786e-13
4.04871363321975e-13
-7.39084468176149e-13
4.72911842669995e-13
-9.01635551839995e-13
5.44077289031017e-13
-1.09645140011361e-12
6.16509558178602e-13
-1.32858104916197e-12
6.86936965022071e-13
-1.60350765386063e-12
7.50031104601727e-13