/*--------------------------------*- C++ -*----------------------------------*\
  =========                 |
  \\      /  F ield         | OpenFOAM: The Open Source CFD Toolbox
   \\    /   O peration     | Website:  https://openfoam.org
    \\  /    A nd           | Version:  10
     \\/     M anipulation  |
\*---------------------------------------------------------------------------*/
FoamFile
{
    format      ascii;
    class       volScalarField;
    location    "6.4";
    object      rho;
}
// * * * * * * * * * * * * * * * * * * * * * * * * * * * * * * * * * * * * * //

dimensions      [1 -3 0 0 0 0 0];

internalField   nonuniform List<scalar> 
2500
(
1.14474856690053
1.14477242646535
1.14482035056683
1.14485436244984
1.14487467184771
1.14488607553825
1.14489226111639
1.14489550860103
1.14489714834999
1.14489793745229
1.14489830498832
1.1448984678964
1.14489853723369
1.14489856787397
1.14489858202768
1.14489859012978
1.14489859383017
1.14489859710383
1.14489860038149
1.14489860263747
1.14489860453297
1.14489860615815
1.14489860748851
1.14489860831408
1.14489860915456
1.14489860985476
1.14489861010905
1.14489861019235
1.14489861005488
1.144898609647
1.14489860892848
1.14489860758703
1.14489860592848
1.14489860357764
1.1448985999611
1.14489859327269
1.14489857908124
1.14489854740882
1.14489847134317
1.1448982996588
1.14489791987763
1.14489711069086
1.14489545613229
1.14489220889147
1.14488605010957
1.14487472297925
1.14485446434035
1.14482028699977
1.14477197135
1.14474899770367
1.14833690635193
1.14845790078078
1.14859682662734
1.14869370953635
1.14875302721792
1.14878745514236
1.14880680949987
1.1488173362421
1.14882283823933
1.14882558646234
1.14882689810389
1.14882749488766
1.14882775413596
1.1488278629746
1.14882790754677
1.14882792605739
1.14882793348397
1.14882793728868
1.1488279399098
1.14882794165466
1.14882794306939
1.1488279443182
1.14882794536302
1.14882794607034
1.14882794670116
1.14882794723371
1.14882794749837
1.14882794764891
1.14882794769124
1.14882794752656
1.14882794710535
1.14882794615771
1.14882794424924
1.14882794045071
1.14882793227194
1.14882791247644
1.14882786359002
1.14882774536132
1.14882746712861
1.14882684074243
1.14882548741598
1.14882268872073
1.14881714996273
1.14880663670538
1.14878738968019
1.14875316314883
1.14869391731782
1.14859642212447
1.14845607990888
1.14833832348981
1.15197318376687
1.1521787519565
1.15237478100479
1.15250716798493
1.15258747518782
1.15263389960466
1.15265995758834
1.15267413531078
1.15268156021186
1.15268528203604
1.15268706400307
1.1526878778097
1.15268823247073
1.15268838069198
1.15268844040117
1.15268846390312
1.15268847285118
1.15268847659557
1.15268847856649
1.15268847974519
1.15268848066648
1.15268848151554
1.15268848225542
1.15268848277214
1.15268848319216
1.15268848355238
1.15268848376378
1.1526884839224
1.15268848405267
1.15268848407359
1.15268848391442
1.15268848329562
1.15268848142754
1.15268847709685
1.15268846694076
1.15268844103378
1.1526883754992
1.1526882153439
1.15268783853264
1.15268698973847
1.15268515866219
1.15268137945557
1.15267391302794
1.15265975263403
1.15263381797806
1.15258759076053
1.15250721063188
1.15237364255767
1.1521748831529
1.15197146115641
1.15518281176314
1.1554242589612
1.15562504222399
1.15575537657689
1.15583209669169
1.15587525019627
1.15589888817485
1.15591148798575
1.15591797746001
1.15592118721263
1.15592270705855
1.15592339481971
1.155923692154
1.15592381529446
1.15592386428957
1.15592388310879
1.15592389003429
1.15592389266937
1.15592389385375
1.15592389449426
1.1559238949934
1.15592389549769
1.15592389597107
1.15592389630645
1.15592389655488
1.15592389677063
1.15592389691282
1.15592389704421
1.15592389719088
1.15592389727541
1.15592389731001
1.15592389713385
1.15592389582486
1.15592389250304
1.1559238846727
1.15592386413394
1.15592381116282
1.15592367986511
1.15592336740382
1.15592265515475
1.15592109976995
1.15591784647808
1.15591132084833
1.15589872210305
1.15587515166416
1.15583207405934
1.15575505258643
1.15562309158673
1.15541855845127
1.15517610203804
1.15770398917386
1.15793174528963
1.15810300210975
1.15820988895809
1.15827084071124
1.15830414735395
1.15832193470164
1.15833122266847
1.15833593119864
1.15833823270609
1.15833931292934
1.15833979857564
1.15834000746717
1.15834009353594
1.15834012752669
1.15834014036882
1.15834014494816
1.15834014655156
1.15834014716338
1.15834014743891
1.15834014764849
1.1583401479012
1.15834014817201
1.15834014836585
1.15834014849224
1.15834014860312
1.15834014868554
1.15834014877814
1.15834014890139
1.15834014900253
1.15834014910579
1.15834014917888
1.15834014841739
1.15834014624165
1.15834014111664
1.15834012734061
1.15834009128617
1.15834000099819
1.15833978424187
1.15833928564432
1.15833818603532
1.15833585963287
1.15833112832642
1.15832183548725
1.15830407193735
1.15827074799092
1.15820937203467
1.15810073008047
1.15792528524805
1.15769359674354
1.1594927366783
1.15967615381494
1.15980345010967
1.15987999030473
1.15992229687626
1.15994476709417
1.15995647372136
1.15996246742746
1.15996546226799
1.15996691148605
1.15996758714815
1.15996788962669
1.15996801937518
1.15996807269853
1.1599680936582
1.15996810147556
1.15996810417709
1.15996810504505
1.15996810531303
1.15996810538811
1.15996810543395
1.15996810552902
1.15996810566563
1.15996810576443
1.15996810581546
1.15996810586185
1.1599681059034
1.15996810596079
1.15996810604812
1.1599681061378
1.15996810625422
1.15996810640509
1.15996810601889
1.15996810477037
1.15996810178705
1.15996809355314
1.15996807175091
1.15996801675332
1.15996788387525
1.15996757620025
1.15996689253111
1.15996543260178
1.15996242762019
1.15995643140905
1.15994473048947
1.15992220986727
1.15987949344392
1.15980138357205
1.1596701458105
1.15948130715537
1.16065228677015
1.16078265223789
1.16086727671276
1.16091641202152
1.16094277291449
1.16095639744518
1.16096332879445
1.16096681197422
1.1609685295251
1.16096935358458
1.16096973587817
1.16096990660418
1.16096997976513
1.160970009808
1.16097002158042
1.16097002592506
1.16097002738417
1.16097002779801
1.16097002787259
1.16097002787712
1.16097002786801
1.16097002787656
1.16097002793456
1.16097002797701
1.1609700279877
1.16097002800148
1.16097002801969
1.16097002805124
1.16097002810611
1.1609700281728
1.16097002826929
1.16097002840755
1.16097002824409
1.16097002760694
1.1609700260227
1.16097002152145
1.16097000949341
1.16096997900364
1.16096990501721
1.16096973294045
1.16096934849738
1.16096852149564
1.16096680168319
1.16096332012427
1.16095639213045
1.16094272424623
1.1609160500046
1.16086570855327
1.16077787302105
1.1606420989585
1.1613456422055
1.16142917964841
1.16148038388312
1.16150916109673
1.16152417075394
1.16153173025998
1.16153548965088
1.16153734558633
1.16153824963513
1.16153868021489
1.16153887924777
1.16153896803919
1.16153900610172
1.16153902173755
1.16153902785142
1.16153903008678
1.16153903081029
1.16153903097566
1.1615390309758
1.16153903095744
1.16153903094289
1.16153903093574
1.16153903095028
1.16153903096299
1.16153903095603
1.16153903095671
1.16153903096359
1.1615390309792
1.16153903101078
1.16153903105447
1.16153903112074
1.16153903121404
1.16153903116914
1.1615390308821
1.1615390300948
1.16153902780765
1.16153902165429
1.16153900601081
1.16153896795142
1.16153887920502
1.1615386802277
1.16153824980409
1.16153734688025
1.16153549491213
1.16153174094561
1.16152415746031
1.16150894682615
1.16147935312233
1.16142583513358
1.16133784682881
1.16173116787487
1.16178016118141
1.16180872917962
1.16182430415144
1.16183221508352
1.16183610305383
1.16183799502333
1.16183891330285
1.16183935552227
1.16183956479749
1.16183966128744
1.16183970433425
1.16183972281186
1.1618397304112
1.16183973337799
1.16183973445358
1.16183973478255
1.16183973483771
1.16183973482335
1.16183973480276
1.16183973478882
1.16183973477986
1.16183973477901
1.16183973477762
1.16183973477055
1.161839734768
1.16183973476991
1.16183973477782
1.16183973479485
1.16183973482077
1.16183973486071
1.16183973491197
1.16183973491162
1.16183973479835
1.16183973443166
1.16183973334041
1.16183973038829
1.16183972287266
1.16183970456803
1.16183966184652
1.16183956588266
1.16183935747389
1.1618389170948
1.16183800302568
1.16183611756073
1.16183222142862
1.16182419915353
1.16180812818553
1.16177806013227
1.16172587988998
1.16193188453764
1.16195848312461
1.16197332875596
1.16198119630402
1.16198509405124
1.16198696590614
1.16198785806244
1.16198828403863
1.16198848696246
1.16198858244781
1.16198862639676
1.16198864602046
1.16198865446126
1.16198865793854
1.16198865929427
1.16198865978155
1.1619886599198
1.16198865993358
1.16198865992146
1.16198865990616
1.16198865989516
1.16198865988776
1.16198865988422
1.16198865988056
1.16198865987551
1.16198865987276
1.16198865987313
1.16198865987718
1.1619886598858
1.16198865989996
1.16198865992188
1.16198865994889
1.16198865995645
1.16198865991525
1.16198865975641
1.16198865926384
1.16198865792452
1.16198865451361
1.16198864620848
1.16198862683614
1.16198858330668
1.16198848853875
1.16198828709598
1.16198786443271
1.16198697808608
1.16198510643661
1.16198115468227
1.16197301293717
1.16195728020003
1.16192863755751
1.16203031393617
1.16204380111115
1.16205104505499
1.16205478389106
1.16205659331014
1.16205744350747
1.16205784074439
1.16205802742493
1.16205811543086
1.16205815662759
1.16205817556804
1.16205818403775
1.16205818769033
1.16205818919802
1.16205818978506
1.16205818999319
1.16205819004814
1.16205819005013
1.16205819004171
1.16205819003225
1.16205819002513
1.16205819002021
1.16205819001721
1.16205819001427
1.16205819001121
1.1620581900093
1.16205819000932
1.16205819001128
1.16205819001539
1.16205819002258
1.16205819003369
1.16205819004714
1.16205819005295
1.16205819003943
1.16205818997459
1.16205818976295
1.1620581891846
1.1620581877121
1.16205818413202
1.1620581757971
1.16205815708875
1.16205811631454
1.16205802923483
1.1620578447335
1.1620574517399
1.16205660451365
1.16205477215351
1.16205089387043
1.16204316604037
1.16202848252772
1.16207601087378
1.16208244460119
1.16208578566981
1.16208746814291
1.16208826465746
1.16208863128372
1.16208879934946
1.16208887712169
1.16208891341533
1.16208893032311
1.16208893809144
1.16208894157202
1.16208894307747
1.16208894370019
1.16208894394232
1.1620889440268
1.16208894404747
1.16208894404663
1.16208894404168
1.16208894403646
1.16208894403242
1.16208894402955
1.1620889440276
1.16208894402575
1.16208894402407
1.16208894402297
1.16208894402289
1.16208894402375
1.16208894402561
1.16208894402901
1.16208894403426
1.16208894404056
1.16208894404376
1.16208894403987
1.16208894401468
1.16208894392761
1.16208894368862
1.16208894308054
1.16208894160583
1.16208893818303
1.16208893051825
1.16208891381626
1.16208887802056
1.16208880151044
1.16208863612461
1.16208827245604
1.16208746756923
1.16208571930093
1.16208213255478
1.16207505150489
1.16209618195689
1.16209908654779
1.16210055115728
1.16210127198926
1.16210160626411
1.16210175716217
1.16210182508573
1.16210185604842
1.16210187035482
1.16210187698919
1.16210188003634
1.16210188140469
1.16210188199842
1.16210188224452
1.16210188234004
1.16210188237278
1.16210188238012
1.16210188237907
1.16210188237644
1.16210188237378
1.16210188237167
1.16210188237012
1.162101882369
1.16210188236796
1.16210188236707
1.16210188236648
1.16210188236637
1.16210188236669
1.16210188236747
1.16210188236896
1.16210188237126
1.16210188237402
1.1621018823755
1.16210188237457
1.16210188236516
1.16210188233072
1.16210188223578
1.16210188199444
1.16210188141116
1.16210188006289
1.16210187705406
1.1621018705066
1.16210185644031
1.16210182614013
1.16210175973013
1.16210161091715
1.16210127418843
1.16210052436341
1.16209894276889
1.16209571118034
1.16210467571426
1.16210592304847
1.16210653610132
1.16210683148416
1.16210696583358
1.16210702537878
1.16210705171903
1.16210706355183
1.16210706896608
1.16210707146578
1.16210707261372
1.16210707313047
1.1621070733554
1.16210707344879
1.16210707348494
1.16210707349706
1.16210707349948
1.16210707349877
1.16210707349746
1.16210707349616
1.1621070734951
1.1621070734943
1.16210707349368
1.16210707349311
1.16210707349264
1.16210707349232
1.1621070734922
1.16210707349226
1.16210707349254
1.16210707349312
1.16210707349404
1.16210707349516
1.1621070734958
1.16210707349559
1.16210707349212
1.16210707347898
1.16210707344257
1.16210707335016
1.16210707312775
1.16210707261616
1.16210707147953
1.16210706901214
1.16210706370424
1.16210705219256
1.16210702663369
1.16210696832214
1.16210683354665
1.16210652617077
1.1621058605396
1.16210445780104
1.16210809373593
1.16210860545827
1.16210885145249
1.16210896767661
1.16210901958862
1.16210904220255
1.16210905204142
1.16210905639904
1.16210905837382
1.1621090592816
1.16210905969844
1.16210905988653
1.16210905996863
1.16210906000274
1.16210906001587
1.16210906002014
1.16210906002084
1.16210906002041
1.16210906001976
1.16210906001912
1.16210906001859
1.16210906001816
1.16210906001781
1.16210906001748
1.16210906001721
1.162109060017
1.16210906001688
1.16210906001684
1.16210906001688
1.16210906001705
1.16210906001737
1.16210906001776
1.16210906001799
1.16210906001791
1.16210906001663
1.16210906001176
1.16210905999822
1.16210905996396
1.16210905988193
1.16210905969429
1.16210905927956
1.16210905838229
1.16210905645144
1.16210905223946
1.16210904277495
1.16210902081062
1.16210896900144
1.1621088481026
1.16210857968237
1.16210799804306
1.16210940595771
1.1621096072675
1.16210970221192
1.16210974626924
1.16210976561736
1.1621097739101
1.16210977746173
1.16210977901326
1.16210977970972
1.16210978002845
1.16210978017477
1.16210978024091
1.16210978026983
1.16210978028181
1.16210978028636
1.16210978028776
1.16210978028789
1.16210978028762
1.16210978028727
1.16210978028694
1.16210978028664
1.16210978028638
1.16210978028616
1.16210978028595
1.16210978028577
1.16210978028561
1.16210978028548
1.16210978028539
1.16210978028534
1.16210978028534
1.16210978028539
1.16210978028548
1.16210978028552
1.16210978028545
1.16210978028495
1.16210978028317
1.16210978027827
1.16210978026594
1.16210978023658
1.16210978016987
1.16210978002326
1.16210977970738
1.16210977902804
1.1621097775389
1.16210977415559
1.16210976617621
1.16210974698456
1.16210970120582
1.16210959714142
1.16210936589863
1.16210988105892
1.16210995724816
1.16210999259886
1.16211000873495
1.1621100157106
1.16211001865524
1.16211001989769
1.16211002043325
1.16211002067137
1.16211002077982
1.16211002082954
1.16211002085202
1.16211002086182
1.16211002086584
1.16211002086731
1.16211002086769
1.16211002086763
1.16211002086744
1.16211002086723
1.16211002086702
1.16211002086682
1.16211002086664
1.16211002086647
1.16211002086631
1.16211002086616
1.16211002086602
1.1621100208659
1.16211002086579
1.1621100208657
1.16211002086562
1.16211002086558
1.16211002086554
1.1621100208655
1.16211002086542
1.1621100208652
1.16211002086454
1.16211002086279
1.16211002085846
1.16211002084825
1.16211002082521
1.16211002077489
1.16211002066697
1.16211002043517
1.16211001992503
1.16211001875419
1.16211001595041
1.16211000908015
1.16210999234442
1.16210995344324
1.16210986500594
1.16211003621182
1.16211006403259
1.16211007676207
1.16211008248621
1.16211008492493
1.16211008593978
1.16211008636193
1.16211008654152
1.16211008662056
1.16211008665633
1.16211008667266
1.16211008668001
1.16211008668316
1.1621100866844
1.16211008668479
1.16211008668482
1.16211008668471
1.16211008668455
1.16211008668439
1.16211008668423
1.16211008668408
1.16211008668393
1.16211008668378
1.16211008668364
1.16211008668351
1.16211008668338
1.16211008668325
1.16211008668313
1.16211008668302
1.16211008668292
1.16211008668284
1.16211008668276
1.16211008668268
1.1621100866826
1.16211008668247
1.1621100866822
1.16211008668157
1.16211008668008
1.16211008667662
1.16211008666889
1.1621100866521
1.16211008661627
1.16211008653942
1.16211008636973
1.16211008597658
1.1621100850214
1.16211008263875
1.16211007671706
1.16211006265967
1.1621100300309
1.16211007344677
1.1621100832732
1.16211008771607
1.16211008968699
1.1621100905154
1.16211009085549
1.16211009099501
1.16211009105354
1.16211009107899
1.16211009109038
1.16211009109551
1.16211009109776
1.16211009109867
1.16211009109896
1.16211009109899
1.16211009109891
1.16211009109878
1.16211009109864
1.1621100910985
1.16211009109836
1.16211009109822
1.16211009109808
1.16211009109795
1.16211009109781
1.16211009109768
1.16211009109756
1.16211009109743
1.16211009109731
1.16211009109719
1.16211009109708
1.16211009109698
1.16211009109688
1.16211009109679
1.1621100910967
1.16211009109661
1.16211009109648
1.16211009109624
1.16211009109572
1.16211009109458
1.16211009109206
1.16211009108662
1.16211009107507
1.16211009105032
1.16211009099545
1.16211009086715
1.16211009055106
1.16211008974887
1.16211008771653
1.16211008279503
1.16211007115202
1.1621100686646
1.16211007202933
1.16211007353516
1.16211007419497
1.16211007446881
1.16211007457973
1.16211007462457
1.16211007464306
1.16211007465094
1.16211007465438
1.16211007465585
1.16211007465644
1.16211007465661
1.1621100746566
1.16211007465651
1.16211007465639
1.16211007465625
1.16211007465612
1.16211007465598
1.16211007465585
1.16211007465572
1.16211007465558
1.16211007465545
1.16211007465532
1.16211007465519
1.16211007465507
1.16211007465494
1.16211007465482
1.1621100746547
1.16211007465459
1.16211007465448
1.16211007465437
1.16211007465428
1.16211007465419
1.1621100746541
1.16211007465402
1.1621100746539
1.16211007465372
1.16211007465335
1.16211007465255
1.16211007465086
1.16211007464727
1.16211007463955
1.16211007462233
1.16211007458162
1.16211007447989
1.16211007421728
1.16211007353953
1.16211007186699
1.16211006783977
1.16211004937363
1.16211005049278
1.16211005098912
1.16211005120413
1.16211005129226
1.16211005132745
1.1621100513414
1.16211005134699
1.16211005134926
1.16211005135016
1.16211005135048
1.16211005135054
1.16211005135048
1.16211005135037
1.16211005135024
1.16211005135011
1.16211005134998
1.16211005134984
1.16211005134971
1.16211005134958
1.16211005134945
1.16211005134932
1.16211005134919
1.16211005134906
1.16211005134893
1.16211005134881
1.16211005134868
1.16211005134856
1.16211005134844
1.16211005134832
1.16211005134821
1.1621100513481
1.16211005134801
1.16211005134792
1.16211005134783
1.16211005134776
1.16211005134769
1.16211005134761
1.16211005134748
1.16211005134725
1.16211005134675
1.1621100513457
1.1621100513434
1.16211005133819
1.16211005132568
1.16211005129385
1.16211005121018
1.16211005099029
1.16211005043768
1.16211004908473
1.16211002521743
1.16211002557962
1.16211002573883
1.16211002580701
1.16211002583458
1.16211002584537
1.1621100258495
1.16211002585104
1.16211002585157
1.1621100258517
1.16211002585167
1.16211002585156
1.16211002585144
1.1621100258513
1.16211002585116
1.16211002585103
1.16211002585089
1.16211002585076
1.16211002585063
1.1621100258505
1.16211002585037
1.16211002585024
1.16211002585011
1.16211002584998
1.16211002584986
1.16211002584973
1.1621100258496
1.16211002584948
1.16211002584936
1.16211002584924
1.16211002584913
1.16211002584902
1.16211002584892
1.16211002584883
1.16211002584875
1.16211002584868
1.16211002584862
1.16211002584857
1.16211002584852
1.16211002584845
1.16211002584833
1.16211002584806
1.16211002584744
1.16211002584596
1.16211002584227
1.16211002583263
1.16211002580671
1.16211002573729
1.16211002555963
1.16211002511742
1.16210999947397
1.16210999958813
1.16210999963776
1.16210999965872
1.16210999966703
1.16210999967016
1.16210999967125
1.16210999967156
1.16210999967157
1.16210999967148
1.16210999967134
1.1621099996712
1.16210999967105
1.16210999967091
1.16210999967077
1.16210999967064
1.16210999967051
1.16210999967038
1.16210999967025
1.16210999967012
1.16210999966999
1.16210999966986
1.16210999966973
1.1621099996696
1.16210999966947
1.16210999966935
1.16210999966922
1.1621099996691
1.16210999966897
1.16210999966886
1.16210999966874
1.16210999966864
1.16210999966853
1.16210999966844
1.16210999966836
1.16210999966829
1.16210999966823
1.16210999966818
1.16210999966815
1.16210999966813
1.16210999966812
1.16210999966807
1.16210999966795
1.16210999966759
1.16210999966659
1.1621099996638
1.16210999965604
1.16210999963478
1.16210999957925
1.16210999943847
1.16210997322582
1.16210997326086
1.16210997327576
1.16210997328191
1.16210997328426
1.16210997328505
1.16210997328523
1.16210997328519
1.16210997328506
1.16210997328491
1.16210997328475
1.1621099732846
1.16210997328445
1.16210997328431
1.16210997328418
1.16210997328405
1.16210997328392
1.16210997328379
1.16210997328366
1.16210997328353
1.1621099732834
1.16210997328328
1.16210997328315
1.16210997328302
1.16210997328289
1.16210997328276
1.16210997328263
1.16210997328251
1.16210997328239
1.16210997328227
1.16210997328215
1.16210997328205
1.16210997328194
1.16210997328185
1.16210997328176
1.16210997328169
1.16210997328163
1.16210997328158
1.16210997328155
1.16210997328154
1.16210997328154
1.16210997328156
1.16210997328157
1.16210997328152
1.16210997328131
1.16210997328057
1.16210997327837
1.16210997327213
1.16210997325538
1.16210997321171
1.16210994682105
1.16210994683146
1.16210994683564
1.16210994683726
1.16210994683781
1.16210994683792
1.16210994683785
1.16210994683771
1.16210994683756
1.1621099468374
1.16210994683725
1.1621099468371
1.16210994683696
1.16210994683683
1.1621099468367
1.16210994683657
1.16210994683644
1.16210994683631
1.16210994683619
1.16210994683606
1.16210994683593
1.1621099468358
1.16210994683568
1.16210994683555
1.16210994683542
1.16210994683529
1.16210994683516
1.16210994683504
1.16210994683491
1.1621099468348
1.16210994683468
1.16210994683457
1.16210994683446
1.16210994683437
1.16210994683428
1.1621099468342
1.16210994683414
1.16210994683409
1.16210994683405
1.16210994683404
1.16210994683404
1.16210994683406
1.16210994683409
1.16210994683412
1.16210994683411
1.16210994683397
1.16210994683342
1.16210994683174
1.16210994682699
1.16210994681384
1.16210992036876
1.1621099203717
1.16210992037265
1.16210992037293
1.16210992037296
1.16210992037288
1.16210992037276
1.16210992037262
1.16210992037247
1.16210992037232
1.16210992037218
1.16210992037204
1.1621099203719
1.16210992037178
1.16210992037165
1.16210992037152
1.1621099203714
1.16210992037127
1.16210992037115
1.16210992037102
1.1621099203709
1.16210992037077
1.16210992037064
1.16210992037051
1.16210992037038
1.16210992037025
1.16210992037013
1.16210992037
1.16210992036988
1.16210992036976
1.16210992036964
1.16210992036953
1.16210992036942
1.16210992036932
1.16210992036923
1.16210992036915
1.16210992036908
1.16210992036902
1.16210992036898
1.16210992036896
1.16210992036895
1.16210992036896
1.16210992036898
1.16210992036902
1.16210992036906
1.16210992036906
1.16210992036898
1.16210992036864
1.16210992036751
1.16210992036373
1.16210989390238
1.1621098939031
1.1621098939031
1.162109893903
1.1621098939029
1.16210989390279
1.16210989390267
1.16210989390254
1.1621098939024
1.16210989390227
1.16210989390214
1.16210989390201
1.16210989390189
1.16210989390176
1.16210989390164
1.16210989390152
1.1621098939014
1.16210989390127
1.16210989390115
1.16210989390103
1.1621098939009
1.16210989390077
1.16210989390065
1.16210989390052
1.16210989390039
1.16210989390026
1.16210989390013
1.16210989390001
1.16210989389988
1.16210989389976
1.16210989389964
1.16210989389953
1.16210989389942
1.16210989389932
1.16210989389922
1.16210989389914
1.16210989389906
1.162109893899
1.16210989389895
1.16210989389891
1.16210989389889
1.16210989389889
1.1621098938989
1.16210989389892
1.16210989389895
1.16210989389898
1.16210989389901
1.16210989389906
1.16210989389899
1.16210989389801
1.16210986743189
1.16210986743198
1.16210986743171
1.16210986743152
1.1621098674314
1.1621098674313
1.16210986743119
1.16210986743108
1.16210986743097
1.16210986743085
1.16210986743073
1.16210986743061
1.16210986743049
1.16210986743038
1.16210986743026
1.16210986743014
1.16210986743002
1.1621098674299
1.16210986742978
1.16210986742966
1.16210986742953
1.16210986742941
1.16210986742928
1.16210986742915
1.16210986742902
1.1621098674289
1.16210986742877
1.16210986742864
1.16210986742851
1.16210986742839
1.16210986742827
1.16210986742816
1.16210986742804
1.16210986742794
1.16210986742784
1.16210986742775
1.16210986742767
1.1621098674276
1.16210986742754
1.1621098674275
1.16210986742746
1.16210986742744
1.16210986742744
1.16210986742744
1.16210986742745
1.16210986742747
1.16210986742751
1.16210986742765
1.16210986742788
1.16210986742772
1.16210984096024
1.16210984096015
1.16210984095982
1.16210984095962
1.16210984095951
1.16210984095943
1.16210984095934
1.16210984095925
1.16210984095915
1.16210984095905
1.16210984095894
1.16210984095884
1.16210984095873
1.16210984095862
1.16210984095851
1.16210984095839
1.16210984095828
1.16210984095816
1.16210984095804
1.16210984095792
1.1621098409578
1.16210984095767
1.16210984095754
1.16210984095742
1.16210984095729
1.16210984095716
1.16210984095703
1.1621098409569
1.16210984095677
1.16210984095665
1.16210984095653
1.16210984095641
1.1621098409563
1.16210984095619
1.16210984095609
1.16210984095599
1.16210984095591
1.16210984095583
1.16210984095576
1.16210984095571
1.16210984095566
1.16210984095562
1.1621098409556
1.16210984095558
1.16210984095557
1.16210984095557
1.1621098409556
1.16210984095575
1.16210984095605
1.16210984095612
1.16210981448825
1.16210981448812
1.16210981448779
1.1621098144876
1.16210981448751
1.16210981448745
1.16210981448739
1.16210981448732
1.16210981448724
1.16210981448715
1.16210981448706
1.16210981448696
1.16210981448686
1.16210981448676
1.16210981448665
1.16210981448654
1.16210981448643
1.16210981448632
1.1621098144862
1.16210981448608
1.16210981448596
1.16210981448583
1.16210981448571
1.16210981448558
1.16210981448545
1.16210981448532
1.16210981448519
1.16210981448506
1.16210981448493
1.16210981448481
1.16210981448469
1.16210981448457
1.16210981448445
1.16210981448434
1.16210981448423
1.16210981448413
1.16210981448404
1.16210981448396
1.16210981448388
1.16210981448381
1.16210981448375
1.1621098144837
1.16210981448366
1.16210981448362
1.16210981448359
1.16210981448356
1.16210981448358
1.16210981448371
1.16210981448402
1.16210981448415
1.16210978801618
1.16210978801605
1.16210978801572
1.16210978801556
1.16210978801549
1.16210978801545
1.16210978801541
1.16210978801536
1.1621097880153
1.16210978801522
1.16210978801514
1.16210978801506
1.16210978801496
1.16210978801487
1.16210978801477
1.16210978801466
1.16210978801456
1.16210978801444
1.16210978801433
1.16210978801421
1.16210978801409
1.16210978801397
1.16210978801384
1.16210978801371
1.16210978801358
1.16210978801346
1.16210978801333
1.1621097880132
1.16210978801307
1.16210978801294
1.16210978801282
1.16210978801269
1.16210978801257
1.16210978801246
1.16210978801235
1.16210978801224
1.16210978801215
1.16210978801205
1.16210978801197
1.16210978801189
1.16210978801182
1.16210978801176
1.1621097880117
1.16210978801164
1.16210978801158
1.16210978801153
1.16210978801153
1.16210978801164
1.16210978801194
1.16210978801207
1.16210976154408
1.16210976154395
1.16210976154365
1.16210976154351
1.16210976154346
1.16210976154345
1.16210976154343
1.16210976154339
1.16210976154335
1.16210976154329
1.16210976154322
1.16210976154314
1.16210976154306
1.16210976154297
1.16210976154288
1.16210976154278
1.16210976154267
1.16210976154256
1.16210976154245
1.16210976154234
1.16210976154222
1.16210976154209
1.16210976154197
1.16210976154184
1.16210976154171
1.16210976154158
1.16210976154145
1.16210976154132
1.16210976154119
1.16210976154106
1.16210976154094
1.16210976154081
1.16210976154069
1.16210976154057
1.16210976154046
1.16210976154035
1.16210976154024
1.16210976154015
1.16210976154005
1.16210976153996
1.16210976153988
1.1621097615398
1.16210976153972
1.16210976153965
1.16210976153957
1.1621097615395
1.16210976153947
1.16210976153956
1.16210976153984
1.16210976153997
1.16210973507197
1.16210973507186
1.16210973507157
1.16210973507146
1.16210973507143
1.16210973507144
1.16210973507144
1.16210973507142
1.16210973507139
1.16210973507135
1.16210973507129
1.16210973507123
1.16210973507115
1.16210973507107
1.16210973507098
1.16210973507089
1.16210973507079
1.16210973507068
1.16210973507057
1.16210973507046
1.16210973507034
1.16210973507022
1.16210973507009
1.16210973506997
1.16210973506984
1.16210973506971
1.16210973506958
1.16210973506945
1.16210973506931
1.16210973506918
1.16210973506906
1.16210973506893
1.1621097350688
1.16210973506868
1.16210973506856
1.16210973506845
1.16210973506834
1.16210973506823
1.16210973506813
1.16210973506803
1.16210973506794
1.16210973506784
1.16210973506775
1.16210973506765
1.16210973506756
1.16210973506747
1.16210973506741
1.16210973506747
1.16210973506774
1.16210973506786
1.16210970859986
1.16210970859976
1.16210970859949
1.1621097085994
1.16210970859941
1.16210970859944
1.16210970859945
1.16210970859946
1.16210970859944
1.16210970859941
1.16210970859937
1.16210970859931
1.16210970859925
1.16210970859917
1.16210970859909
1.162109708599
1.1621097085989
1.1621097085988
1.16210970859869
1.16210970859858
1.16210970859846
1.16210970859834
1.16210970859822
1.16210970859809
1.16210970859796
1.16210970859783
1.1621097085977
1.16210970859757
1.16210970859744
1.1621097085973
1.16210970859717
1.16210970859704
1.16210970859692
1.16210970859679
1.16210970859667
1.16210970859655
1.16210970859643
1.16210970859632
1.16210970859621
1.1621097085961
1.16210970859599
1.16210970859589
1.16210970859578
1.16210970859566
1.16210970859555
1.16210970859543
1.16210970859535
1.16210970859539
1.16210970859564
1.16210970859574
1.16210968212773
1.16210968212765
1.16210968212742
1.16210968212736
1.16210968212738
1.16210968212743
1.16210968212747
1.16210968212749
1.16210968212749
1.16210968212747
1.16210968212744
1.16210968212739
1.16210968212734
1.16210968212727
1.16210968212719
1.1621096821271
1.16210968212701
1.16210968212691
1.16210968212681
1.1621096821267
1.16210968212658
1.16210968212646
1.16210968212634
1.16210968212621
1.16210968212608
1.16210968212595
1.16210968212582
1.16210968212569
1.16210968212556
1.16210968212542
1.16210968212529
1.16210968212516
1.16210968212503
1.1621096821249
1.16210968212477