/*--------------------------------*- C++ -*----------------------------------*\
  =========                 |
  \\      /  F ield         | OpenFOAM: The Open Source CFD Toolbox
   \\    /   O peration     | Website:  https://openfoam.org
    \\  /    A nd           | Version:  10
     \\/     M anipulation  |
\*---------------------------------------------------------------------------*/
FoamFile
{
    format      ascii;
    class       volScalarField;
    location    "6.4";
    object      T;
}
// * * * * * * * * * * * * * * * * * * * * * * * * * * * * * * * * * * * * * //

dimensions      [0 0 0 1 0 0 0];

internalField   nonuniform List<scalar> 
2500
(
304.549998493532
304.543651007507
304.530902302033
304.521855154319
304.516453118827
304.513419969762
304.511774757506
304.510911013327
304.510474885797
304.510265007042
304.51016725303
304.510123924189
304.510105482474
304.510097333037
304.510093568542
304.510091413595
304.510090429372
304.510089558646
304.510088686851
304.510088086793
304.510087582612
304.510087150327
304.510086796455
304.510086576843
304.510086353266
304.510086167001
304.510086099334
304.510086077146
304.510086113678
304.510086222132
304.510086413207
304.510086769963
304.51008721106
304.510087836286
304.510088798151
304.510090577042
304.51009435152
304.51010277543
304.510123006647
304.510168669685
304.510269680519
304.510484901145
304.510924967624
304.511788647003
304.513426732194
304.516439517699
304.521828051211
304.530919210241
304.543772080656
304.549883881119
303.598329518932
303.566344276962
303.529627121115
303.504026884492
303.48835497493
303.479259756347
303.474146933783
303.471366166488
303.469912767152
303.469186805915
303.468840328383
303.46868268484
303.468614203096
303.468585452823
303.46857367885
303.468568789156
303.468566827364
303.468565822304
303.468565129892
303.468564668945
303.468564295203
303.468563965291
303.468563689263
303.468563502389
303.468563335719
303.468563195012
303.468563125068
303.468563085271
303.468563074058
303.468563117528
303.468563228761
303.468563479056
303.468563983157
303.468564986528
303.468567146957
303.468572376004
303.468585289555
303.468616520212
303.468690016738
303.468855479883
303.469212968729
303.469952262668
303.471415373067
303.474192579003
303.479277048711
303.48831906239
303.503971984104
303.529734014477
303.566825578863
303.597954854064
302.639995050194
302.585998954568
302.534526426026
302.499774684999
302.478697838233
302.466514961864
302.459677154309
302.455956945039
302.45400870068
302.453032128378
302.452564558924
302.452351025086
302.452257966052
302.452219074484
302.452203407466
302.452197240802
302.45219489291
302.452193910396
302.452193393221
302.452193083911
302.452192842142
302.452192619325
302.452192425156
302.452192289542
302.452192179298
302.452192084748
302.452192029247
302.452191987594
302.452191953383
302.452191947864
302.452191989596
302.452192151933
302.452192642066
302.45219377836
302.452196443169
302.452203240829
302.452220436315
302.452262459191
302.452361330153
302.452584044315
302.453064499566
302.454056128715
302.456015270015
302.459730933655
302.466536380768
302.478667506941
302.499763490347
302.534825303302
302.587014984777
302.640447604362
301.799115428445
301.736048940666
301.683624022859
301.649603208541
301.629580757489
301.618319704012
301.612151649758
301.60886397947
301.607170708102
301.606333207821
301.605936645747
301.605757193696
301.605679612684
301.60564748265
301.605634698746
301.605629788382
301.605627981344
301.605627293766
301.605626984704
301.605626817551
301.605626687283
301.605626555668
301.605626432121
301.605626344579
301.605626279725
301.605626223399
301.605626186266
301.605626151951
301.605626113651
301.605626091564
301.605626082506
301.605626128441
301.605626469954
301.605627336658
301.605629379734
301.60563473871
301.605648559991
301.605682818378
301.605764346313
301.605950187771
301.606356022749
301.607204883576
301.608907589252
301.612194982404
301.618345414344
301.629586662672
301.649687768307
301.684133249505
301.737537620287
301.800868397349
301.141868822742
301.082636573047
301.038113369995
301.010331691293
300.99449160739
300.985836613074
300.981214634133
300.978801245481
300.977577794103
300.97697978044
300.976699100765
300.976572913086
300.976518635881
300.97649627225
300.976487440269
300.976484103422
300.976482913526
300.976482496881
300.976482337877
300.976482266254
300.976482211766
300.976482146071
300.976482075672
300.976482025271
300.976481992398
300.976481963555
300.976481942108
300.976481918016
300.976481885958
300.976481859649
300.976481832788
300.976481813768
300.9764820116
300.9764825769
300.976483908523
300.976487487979
300.976496856124
300.976520316004
300.976576636707
300.976706189529
300.976991906278
300.977596388573
300.97882575822
300.981240413276
300.985856209117
300.994515701174
301.010466034951
301.038703962992
301.084316305872
301.144572124052
300.677290935363
300.62973510001
300.59673894711
300.576902642032
300.565939512471
300.560117009194
300.557083666714
300.55553064163
300.554754656574
300.554379155034
300.554204087043
300.554125713152
300.554092094592
300.554078278206
300.554072847422
300.554070821877
300.554070121871
300.554069896949
300.554069827483
300.554069807997
300.554069796088
300.554069771421
300.554069735991
300.554069710359
300.554069697105
300.55406968505
300.554069674253
300.554069659351
300.554069636693
300.554069613426
300.554069583231
300.55406954411
300.554069644147
300.554069967617
300.554070740582
300.554072874002
300.554078523048
300.554092773191
300.554127202597
300.554206922879
300.554384065506
300.554762342385
300.555540955075
300.557094629319
300.560126493062
300.565962057746
300.57703139997
300.597274550253
300.631292597706
300.680254844097
300.376892345854
300.343157542238
300.321263236774
300.308552262577
300.301733320106
300.29820909612
300.29641621272
300.295515251177
300.295070990341
300.294857840003
300.294758956454
300.294714796707
300.294695872992
300.294688102132
300.294685057074
300.294683933271
300.294683555834
300.294683448761
300.294683429441
300.294683428237
300.29468343056
300.294683428315
300.294683413281
300.294683402267
300.294683399469
300.294683395871
300.294683391129
300.294683382937
300.294683368714
300.294683351434
300.294683326445
300.294683290655
300.294683332905
300.294683497682
300.294683907429
300.294685071688
300.294688182812
300.294696069219
300.294715206405
300.294759715492
300.294859154986
300.295073066334
300.295517912118
300.296418454398
300.298210469864
300.301745908145
300.308645908964
300.321668925779
300.344394130165
300.37952897435
300.197552208966
300.17596007308
300.162726719083
300.155289973983
300.151411252744
300.149457800566
300.148486345697
300.148006760332
300.147773148999
300.147661884871
300.147610453721
300.147587509545
300.147577673973
300.147573633575
300.147572053695
300.147571476039
300.147571289053
300.14757124629
300.147571246224
300.147571250934
300.147571254662
300.147571256477
300.147571252687
300.147571249369
300.147571251133
300.147571250926
300.147571249116
300.147571245049
300.147571236857
300.147571225538
300.147571208384
300.147571184246
300.147571195821
300.147571269965
300.147571473381
300.147572064366
300.147573654398
300.147577696727
300.147587531441
300.147610463941
300.147661880694
300.147773104438
300.148006425042
300.148484985192
300.149455038325
300.151414686971
300.155345344433
300.162993099021
300.17682447765
300.19956725727
300.097923478812
300.085268080869
300.077889210436
300.073866480575
300.071823272944
300.070819111812
300.070330467921
300.070093302028
300.069979089251
300.069925039394
300.06990011877
300.069889000984
300.06988422872
300.069882266004
300.069881499739
300.069881221916
300.069881136924
300.069881122648
300.069881126323
300.06988113161
300.069881135178
300.069881137457
300.069881137644
300.069881137969
300.069881139762
300.069881140389
300.069881139862
300.069881137787
300.069881133359
300.069881126633
300.069881116288
300.069881103021
300.069881103084
300.069881132312
300.069881226992
300.069881508806
300.069882271231
300.069884212279
300.069888939822
300.069899973548
300.069924758259
300.0699785843
300.070092321742
300.070328400179
300.07081536409
300.071821633165
300.073893598239
300.078044437336
300.085810777249
300.099289474165
300.046076554777
300.039208149109
300.035374780537
300.033343299021
300.032336870811
300.031853545835
300.031623185835
300.031513196369
300.031460800293
300.031436145424
300.031424797537
300.031419730563
300.031417551074
300.031416653192
300.031416303106
300.031416177259
300.03141614153
300.03141613794
300.031416141039
300.031416144954
300.031416147763
300.031416149639
300.031416150521
300.031416151431
300.031416152703
300.031416153381
300.031416153252
300.031416152175
300.031416149918
300.031416146232
300.031416140543
300.031416133542
300.031416131563
300.031416142173
300.031416183162
300.031416310324
300.031416656122
300.031417536817
300.031419681231
300.031424683261
300.031435922795
300.031460392386
300.031512406013
300.031621540037
300.031850399922
300.032333671827
300.033354045102
300.035456327738
300.039518765855
300.04691502496
300.020654415866
300.017172248073
300.015302013534
300.014336733271
300.013869585568
300.013650085832
300.013547529219
300.013499332964
300.013476612008
300.013465976006
300.013461086021
300.013458899319
300.013457956282
300.013457567002
300.013457415411
300.013457361645
300.013457347427
300.013457346881
300.01345734902
300.013457351429
300.013457353234
300.013457354471
300.013457355212
300.013457355937
300.013457356696
300.013457357155
300.013457357117
300.013457356579
300.01345735549
300.013457353604
300.013457350704
300.013457347204
300.013457345677
300.013457349145
300.013457365861
300.01345742048
300.013457569775
300.013457949921
300.013458874197
300.013461026058
300.013465856081
300.013476382963
300.013498864762
300.013546498373
300.013647959447
300.013866692103
300.014339762617
300.015341044969
300.017336210124
300.021127260747
300.008849709006
300.007188746404
300.006326206845
300.005891856573
300.005686227257
300.005591578492
300.005548190351
300.005528112491
300.005518742808
300.005514377812
300.005512372281
300.005511473686
300.005511084998
300.005510924199
300.005510861657
300.005510839814
300.005510834444
300.005510834627
300.005510835874
300.005510837186
300.005510838196
300.005510838903
300.005510839373
300.005510839816
300.005510840218
300.00551084047
300.005510840458
300.005510840203
300.005510839693
300.005510838785
300.005510837401
300.005510835749
300.005510834896
300.005510835874
300.005510842356
300.005510864814
300.005510926495
300.005511083466
300.005511464173
300.005512347808
300.00551432657
300.005518638402
300.005527879505
300.00554763151
300.005590327785
300.00568421297
300.005892003666
300.006343339755
300.007269304394
300.009097384918
300.003635471858
300.002885632129
300.002507534594
300.002321447745
300.002235152758
300.00219619746
300.00217866249
300.002170669191
300.002166975823
300.002165263051
300.002164476356
300.002164123058
300.002163969741
300.002163906171
300.002163881476
300.002163872988
300.00216387106
300.002163871297
300.002163871942
300.002163872595
300.002163873105
300.00216387347
300.002163873727
300.002163873961
300.002163874156
300.002163874276
300.002163874272
300.002163874158
300.002163873927
300.002163873513
300.002163872889
300.00216387215
300.002163871743
300.002163871961
300.002163874367
300.002163883241
300.002163907736
300.002163970028
300.002164120603
300.002164468675
300.002165245439
300.002166935739
300.002170567087
300.002178389333
300.002195533546
300.002233950554
300.002320879006
300.002514450561
300.002922748509
300.003757005308
300.00143592838
300.001113924836
300.000955663306
300.000879409186
300.000844726307
300.000829354358
300.000822554394
300.000819499597
300.000818101794
300.00081745641
300.000817160003
300.00081702655
300.000816968439
300.000816944288
300.000816934917
300.000816931754
300.000816931094
300.000816931241
300.000816931546
300.000816931847
300.000816932085
300.000816932259
300.000816932385
300.000816932497
300.000816932584
300.000816932636
300.000816932635
300.000816932586
300.000816932486
300.000816932306
300.00081693204
300.000816931725
300.000816931534
300.000816931566
300.000816932442
300.000816935816
300.000816945203
300.000816969052
300.000817026468
300.000817158546
300.000817451994
300.000818089001
300.000819459319
300.000822431191
300.000829029419
300.000844082879
300.000878875735
300.000958225885
300.001130060665
300.001492182433
300.000546722734
300.00041462053
300.000351116545
300.000321112881
300.000307711514
300.000301873506
300.000299333433
300.000298208383
300.00029769849
300.000297464066
300.000297356392
300.000297307782
300.00029728654
300.000297277691
300.000297274262
300.000297273123
300.000297272906
300.000297272981
300.000297273114
300.000297273243
300.000297273347
300.000297273424
300.000297273481
300.00029727353
300.000297273567
300.000297273588
300.000297273587
300.000297273567
300.000297273525
300.000297273451
300.000297273343
300.000297273215
300.000297273131
300.000297273129
300.00029727344
300.000297274682
300.000297278165
300.000297287004
300.000297308184
300.000297356636
300.000297463726
300.000297695403
300.000298193923
300.00029928135
300.000301724757
300.000307395051
300.00032076986
300.000351980298
300.000421273594
300.000571425005
300.000201136583
300.000149168104
300.000124657955
300.000113284323
300.000108289412
300.000106148465
300.000105231467
300.000104830819
300.000104650931
300.000104568569
300.000104530732
300.000104513601
300.000104506087
300.000104502949
300.000104501733
300.000104501335
300.000104501265
300.000104501298
300.000104501352
300.000104501404
300.000104501446
300.000104501478
300.000104501501
300.000104501521
300.000104501536
300.000104501544
300.000104501544
300.000104501536
300.000104501519
300.00010450149
300.000104501448
300.000104501399
300.000104501365
300.000104501361
300.00010450147
300.000104501915
300.00010450317
300.00010450635
300.000104513931
300.000104531168
300.000104569043
300.000104650631
300.000104826071
300.000105210583
300.000106084107
300.00010814414
300.000113098646
300.000124916653
300.000151781127
300.000211476849
300.000071654753
300.00005198635
300.000042860427
300.000038694729
300.00003689381
300.000036133501
300.000035812635
300.000035674266
300.000035612703
300.000035584629
300.000035571727
300.000035565867
300.000035563287
300.000035562205
300.000035561786
300.000035561649
300.000035561625
300.000035561638
300.000035561658
300.000035561677
300.000035561693
300.000035561704
300.000035561713
300.00003556172
300.000035561726
300.000035561728
300.000035561728
300.000035561725
300.000035561719
300.000035561709
300.000035561693
300.000035561676
300.000035561663
300.000035561661
300.0000355617
300.000035561857
300.000035562298
300.000035563413
300.000035566053
300.000035572016
300.000035585033
300.000035612936
300.000035672837
300.000035804613
300.000036106972
300.000036830896
300.000038604596
300.000042925078
300.000052967552
300.0000757978
300.000024768029
300.00001758602
300.000014299811
300.000012821993
300.000012192309
300.000011930196
300.000011821101
300.000011774637
300.000011754143
300.000011744833
300.000011740552
300.0000117386
300.000011737736
300.000011737372
300.000011737229
300.000011737181
300.000011737172
300.000011737175
300.000011737181
300.000011737187
300.000011737192
300.000011737196
300.000011737198
300.000011737201
300.000011737202
300.000011737203
300.000011737203
300.000011737202
300.0000117372
300.000011737196
300.000011737192
300.000011737186
300.000011737182
300.000011737183
300.000011737197
300.000011737252
300.000011737405
300.000011737787
300.000011738685
300.000011740696
300.000011745056
300.000011754347
300.000011774241
300.000011818123
300.000011919709
300.000012166398
300.000012781595
300.000014310395
300.000017939396
300.000026362587
300.000008321968
300.00000578523
300.000004638232
300.000004129333
300.000003915368
300.000003827459
300.000003791338
300.000003776131
300.000003769479
300.000003766466
300.000003765078
300.000003764442
300.000003764158
300.000003764036
300.000003763987
300.000003763969
300.000003763964
300.000003763963
300.000003763964
300.000003763965
300.000003763965
300.000003763966
300.000003763966
300.000003763966
300.000003763967
300.000003763967
300.000003763967
300.000003763966
300.000003763966
300.000003763965
300.000003763964
300.000003763963
300.000003763963
300.000003763964
300.000003763971
300.000003763991
300.000003764044
300.000003764174
300.000003764473
300.000003765138
300.000003766565
300.000003769584
300.000003776027
300.000003790258
300.000003823461
300.000003905156
300.000004112335
300.000004637076
300.00000590762
300.000008913304
300.000002722676
300.000001854039
300.000001465254
300.000001294837
300.000001224051
300.000001195314
300.000001183644
300.000001178783
300.000001176671
300.000001175715
300.000001175273
300.000001175068
300.000001174974
300.000001174932
300.000001174914
300.000001174906
300.000001174902
300.0000011749
300.000001174899
300.000001174898
300.000001174897
300.000001174896
300.000001174895
300.000001174895
300.000001174894
300.000001174894
300.000001174894
300.000001174894
300.000001174894
300.000001174895
300.000001174895
300.000001174895
300.000001174897
300.000001174899
300.000001174902
300.000001174911
300.000001174931
300.000001174975
300.000001175075
300.000001175292
300.00000117575
300.000001176712
300.000001178752
300.000001183257
300.000001193836
300.000001220178
300.000001288051
300.000001463087
300.000001894898
300.000002934552
300.000000868851
300.000000579917
300.00000045174
300.000000396164
300.00000037333
300.000000364159
300.000000360473
300.00000035895
300.000000358291
300.000000357991
300.000000357851
300.000000357783
300.000000357751
300.000000357734
300.000000357726
300.000000357721
300.000000357717
300.000000357715
300.000000357713
300.000000357711
300.000000357709
300.000000357708
300.000000357707
300.000000357706
300.000000357706
300.000000357706
300.000000357705
300.000000357706
300.000000357706
300.000000357707
300.000000357708
300.000000357709
300.00000035771
300.000000357712
300.000000357715
300.00000035772
300.000000357729
300.000000357746
300.00000035778
300.000000357852
300.000000357999
300.000000358301
300.000000358935
300.000000360332
300.000000363624
300.00000037191
300.000000393574
300.000000450399
300.00000059309
300.000000942372
300.000000270987
300.000000177471
300.000000136333
300.000000118671
300.000000111483
300.000000108621
300.000000107479
300.000000107009
300.000000106804
300.000000106709
300.000000106662
300.000000106638
300.000000106624
300.000000106616
300.000000106611
300.000000106607
300.000000106603
300.0000001066
300.000000106598
300.000000106596
300.000000106594
300.000000106593
300.000000106592
300.000000106591
300.00000010659
300.00000010659
300.00000010659
300.00000010659
300.000000106591
300.000000106591
300.000000106592
300.000000106594
300.000000106596
300.000000106598
300.0000001066
300.000000106604
300.000000106609
300.000000106617
300.000000106631
300.000000106656
300.000000106705
300.000000106801
300.000000106997
300.000000107424
300.000000108428
300.000000110975
300.000000117719
300.000000135687
300.000000181578
300.000000295746
300.000000082882
300.000000053397
300.000000040554
300.000000035093
300.000000032886
300.000000032012
300.000000031663
300.000000031517
300.000000031452
300.000000031419
300.000000031401
300.000000031389
300.000000031382
300.000000031376
300.000000031371
300.000000031368
300.000000031364
300.000000031362
300.000000031359
300.000000031357
300.000000031355
300.000000031354
300.000000031353
300.000000031352
300.000000031351
300.000000031351
300.000000031351
300.000000031351
300.000000031351
300.000000031352
300.000000031353
300.000000031355
300.000000031357
300.000000031359
300.000000031361
300.000000031365
300.000000031369
300.000000031374
300.000000031381
300.000000031392
300.000000031411
300.000000031443
300.000000031506
300.000000031636
300.000000031939
300.000000032706
300.000000034753
300.00000004028
300.000000054636
300.000000090987
300.000000025062
300.000000016008
300.000000012134
300.000000010505
300.000000009848
300.000000009585
300.000000009478
300.000000009431
300.000000009407
300.000000009393
300.000000009383
300.000000009376
300.00000000937
300.000000009365
300.000000009361
300.000000009357
300.000000009354
300.000000009351
300.000000009349
300.000000009347
300.000000009345
300.000000009343
300.000000009342
300.000000009341
300.000000009341
300.00000000934
300.00000000934
300.00000000934
300.000000009341
300.000000009342
300.000000009343
300.000000009344
300.000000009346
300.000000009348
300.000000009351
300.000000009354
300.000000009358
300.000000009362
300.000000009367
300.000000009374
300.000000009383
300.000000009397
300.00000000942
300.000000009462
300.000000009554
300.000000009781
300.000000010385
300.000000012026
300.000000016368
300.000000027644
300.000000007677
300.000000004981
300.000000003882
300.00000000343
300.000000003244
300.000000003167
300.000000003132
300.000000003114
300.000000003102
300.000000003094
300.000000003086
300.00000000308
300.000000003075
300.00000000307
300.000000003066
300.000000003062
300.000000003059
300.000000003056
300.000000003054
300.000000003052
300.00000000305
300.000000003049
300.000000003047
300.000000003046
300.000000003046
300.000000003045
300.000000003045
300.000000003046
300.000000003046
300.000000003047
300.000000003048
300.00000000305
300.000000003051
300.000000003054
300.000000003056
300.000000003059
300.000000003063
300.000000003067
300.000000003072
300.000000003077
300.000000003084
300.000000003092
300.000000003102
300.000000003119
300.000000003149
300.000000003217
300.000000003387
300.000000003842
300.000000005081
300.000000008477
300.000000002558
300.000000001795
300.000000001536
300.000000001437
300.000000001392
300.000000001369
300.000000001355
300.000000001345
300.000000001337
300.00000000133
300.000000001324
300.000000001318
300.000000001313
300.000000001308
300.000000001304
300.0000000013
300.000000001297
300.000000001294
300.000000001292
300.00000000129
300.000000001288
300.000000001287
300.000000001285
300.000000001284
300.000000001284
300.000000001284
300.000000001284
300.000000001284
300.000000001284
300.000000001285
300.000000001286
300.000000001288
300.000000001289
300.000000001292
300.000000001294
300.000000001297
300.000000001301
300.000000001305
300.000000001309
300.000000001314
300.00000000132
300.000000001327
300.000000001334
300.000000001343
300.000000001356
300.000000001377
300.000000001419
300.000000001521
300.00000000182
300.000000002797
300.000000001081
300.000000000892
300.000000000882
300.000000000887
300.000000000883
300.000000000875
300.000000000868
300.00000000086
300.000000000853
300.000000000846
300.00000000084
300.000000000835
300.000000000829
300.000000000825
300.000000000821
300.000000000817
300.000000000814
300.000000000811
300.000000000809
300.000000000806
300.000000000805
300.000000000803
300.000000000802
300.000000000801
300.000000000801
300.0000000008
300.0000000008
300.0000000008
300.000000000801
300.000000000802
300.000000000803
300.000000000804
300.000000000806
300.000000000808
300.000000000811
300.000000000814
300.000000000817
300.000000000821
300.000000000826
300.000000000831
300.000000000836
300.000000000842
300.000000000849
300.000000000856
300.000000000864
300.000000000872
300.000000000878
300.000000000876
300.000000000897
300.000000001148
300.000000000663
300.000000000642
300.000000000704
300.000000000738
300.000000000746
300.000000000743
300.000000000736
300.000000000729
300.000000000722
300.000000000716
300.00000000071
300.000000000704
300.000000000699
300.000000000695
300.00000000069
300.000000000687
300.000000000684
300.000000000681
300.000000000678
300.000000000676
300.000000000675
300.000000000673
300.000000000672
300.000000000671
300.000000000671
300.00000000067
300.00000000067
300.00000000067
300.000000000671
300.000000000672
300.000000000673
300.000000000674
300.000000000676
300.000000000678
300.000000000681
300.000000000684
300.000000000687
300.000000000691
300.000000000696
300.000000000701
300.000000000706
300.000000000712
300.000000000718
300.000000000725
300.000000000732
300.000000000736
300.000000000732
300.000000000701
300.000000000642
300.000000000679
300.000000000549
300.000000000575
300.000000000657
300.000000000699
300.00000000071
300.000000000707
300.000000000702
300.000000000695
300.000000000688
300.000000000681
300.000000000675
300.000000000669
300.000000000664
300.00000000066
300.000000000656
300.000000000652
300.000000000649
300.000000000646
300.000000000644
300.000000000642
300.00000000064
300.000000000638
300.000000000637
300.000000000637
300.000000000636
300.000000000636
300.000000000636
300.000000000636
300.000000000636
300.000000000637
300.000000000638
300.00000000064
300.000000000641
300.000000000644
300.000000000646
300.000000000649
300.000000000653
300.000000000656
300.000000000661
300.000000000666
300.000000000671
300.000000000677
300.000000000684
300.00000000069
300.000000000697
300.000000000701
300.000000000694
300.000000000656
300.000000000573
300.000000000549
300.000000000519
300.000000000559
300.000000000646
300.00000000069
300.0000000007
300.000000000698
300.000000000692
300.000000000685
300.000000000678
300.000000000671
300.000000000665
300.000000000659
300.000000000654
300.00000000065
300.000000000646
300.000000000642
300.000000000639
300.000000000637
300.000000000634
300.000000000632
300.000000000631
300.000000000629
300.000000000628
300.000000000627
300.000000000627
300.000000000626
300.000000000626
300.000000000627
300.000000000627
300.000000000628
300.000000000629
300.00000000063
300.000000000632
300.000000000634
300.000000000637
300.00000000064
300.000000000643
300.000000000647
300.000000000651
300.000000000656
300.000000000662
300.000000000668
300.000000000675
300.000000000681
300.000000000688
300.000000000692
300.000000000686
300.000000000645
300.000000000557
300.000000000515
300.000000000513
300.000000000557
300.000000000645
300.000000000688
300.000000000699
300.000000000696
300.000000000689
300.000000000682
300.000000000675
300.000000000668
300.000000000662
300.000000000656
300.000000000651
300.000000000647
300.000000000643
300.000000000639
300.000000000636
300.000000000634
300.000000000631
300.000000000629
300.000000000628
300.000000000626
300.000000000625
300.000000000624
300.000000000624
300.000000000624
300.000000000624
300.000000000624
300.000000000624
300.000000000625
300.000000000626
300.000000000627
300.000000000629
300.000000000631
300.000000000634
300.000000000637
300.00000000064
300.000000000644
300.000000000648
300.000000000653
300.000000000659
300.000000000665
300.000000000672
300.000000000679
300.000000000686
300.000000000691
300.000000000685
300.000000000644
300.000000000555
300.000000000509
300.000000000514
300.000000000559
300.000000000647
300.000000000689
300.000000000698
300.000000000695
300.000000000688
300.000000000681
300.000000000673
300.000000000666
300.00000000066
300.000000000654
300.000000000649
300.000000000645
300.000000000641
300.000000000638
300.000000000635
300.000000000632
300.00000000063
300.000000000628
300.000000000626
300.000000000625
300.000000000624
300.000000000623
300.000000000623
300.000000000622
300.000000000622
300.000000000622
300.000000000623
300.000000000624
300.000000000625
300.000000000626
300.000000000628
300.00000000063
300.000000000632
300.000000000635
300.000000000638
300.000000000642
300.000000000647
300.000000000652
300.000000000657
300.000000000664
300.000000000671
300.000000000678
300.000000000686
300.000000000691
300.000000000686
300.000000000646
300.000000000558
300.00000000051
300.000000000518
300.000000000563
300.000000000649
300.000000000691
300.000000000699
300.000000000695
300.000000000687
300.000000000679
300.000000000672
300.000000000665
300.000000000658
300.000000000653
300.000000000648
300.000000000643
300.00000000064
300.000000000636
300.000000000633
300.000000000631
300.000000000629
300.000000000627
300.000000000625
300.000000000624
300.000000000623
300.000000000622
300.000000000622
300.000000000621
300.000000000621
300.000000000622
300.000000000622
300.000000000623
300.000000000624
300.000000000625
300.000000000627
300.000000000629
300.000000000631
300.000000000634
300.000000000637
300.000000000641
300.000000000645
300.00000000065
300.000000000656
300.000000000663
300.00000000067
300.000000000678
300.000000000686
300.000000000692
300.000000000687
300.000000000649
300.000000000562
300.000000000513
300.000000000522
300.000000000568
300.000000000653
300.000000000692
300.000000000699
300.000000000695
300.000000000686
300.000000000678
300.00000000067
300.000000000663
300.000000000656
300.000000000651
300.000000000646
300.000000000642
300.000000000638
300.000000000635
300.000000000632
300.000000000629
300.000000000627
300.000000000626
300.000000000624
300.000000000623
300.000000000622
300.000000000621
300.000000000621
300.00000000062
300.00000000062
300.000000000621
300.000000000621
300.000000000622
300.000000000623
300.000000000624
300.000000000626
300.000000000628
300.00000000063
300.000000000633
300.000000000636
300.00000000064
300.000000000644
300.000000000649
300.000000000655
300.000000000661
300.000000000669
300.000000000677
300.000000000686
300.000000000693
300.00000000069
300.000000000653
300.000000000567
300.000000000518
300.000000000528
300.000000000574
300.000000000657
300.000000000695
300.0000000007
300.000000000694
300.000000000685
300.000000000676
300.000000000668
300.000000000661
300.000000000654
300.000000000649
300.000000000644
300.00000000064
300.000000000636
300.000000000633
300.00000000063
300.000000000628
300.000000000626
300.000000000624
300.000000000623
300.000000000622
300.000000000621
300.00000000062
300.000000000619
300.000000000619
300.000000000619
300.000000000619
300.00000000062
300.000000000621
300.000000000622
300.000000000623
300.000000000624
300.000000000626
300.000000000628