/*--------------------------------*- C++ -*----------------------------------*\
  =========                 |
  \\      /  F ield         | OpenFOAM: The Open Source CFD Toolbox
   \\    /   O peration     | Website:  https://openfoam.org
    \\  /    A nd           | Version:  10
     \\/     M anipulation  |
\*---------------------------------------------------------------------------*/
FoamFile
{
    format      ascii;
    class       volVectorField;
    location    "6.4";
    object      U;
}
// * * * * * * * * * * * * * * * * * * * * * * * * * * * * * * * * * * * * * //

dimensions      [0 1 -1 0 0 0 0];

internalField   nonuniform List<vector> 
2500
(
(-1.45718725129684e-06 -2.61284455040485e-06 4.72013129676796e-25)
(-3.54816946740838e-06 -3.51803866556949e-06 3.78456830322819e-24)
(-3.50053213448199e-06 -3.78565342469495e-06 6.60692100283922e-25)
(-2.7678424222573e-06 -3.88543403368203e-06 2.89593231357123e-25)
(-1.89594374420182e-06 -3.88131698770848e-06 -3.58789985386608e-26)
(-1.25808359235745e-06 -3.85405023677975e-06 -6.87019618049387e-25)
(-8.1649442061074e-07 -3.82518294927561e-06 -1.156913593781e-25)
(-5.3471777799194e-07 -3.80338598614016e-06 -1.08028189455981e-25)
(-3.53563523919566e-07 -3.78817236639478e-06 -3.33644805330383e-25)
(-2.37087058882579e-07 -3.77835376135883e-06 4.95356287226032e-24)
(-1.60634886074985e-07 -3.77235486266028e-06 2.48673870571001e-24)
(-1.08944181692118e-07 -3.76882433506061e-06 5.24630324042047e-24)
(-7.28757585692533e-08 -3.76680883377414e-06 5.4756062094699e-24)
(-4.68081524631504e-08 -3.76568373869681e-06 1.93907980281582e-24)
(-2.7365050378635e-08 -3.76504123355332e-06 5.06191171362278e-24)
(-1.24657965376404e-08 -3.76467699330874e-06 1.44898010543724e-24)
(-8.04875520424771e-10 -3.76445820907572e-06 5.61385299125596e-24)
(8.47257224212335e-09 -3.76432473648083e-06 5.10006173160581e-24)
(1.59542059492246e-08 -3.76424183397399e-06 1.30780552895506e-24)
(2.20482641122518e-08 -3.76419144340095e-06 4.65331665135809e-24)
(2.70585105100478e-08 -3.76415876551278e-06 4.50763768457807e-25)
(3.12303026678008e-08 -3.76414109778824e-06 -1.75932865949909e-25)
(3.47555182785562e-08 -3.76413297725522e-06 5.91872359093038e-24)
(3.77942065717686e-08 -3.76413392355406e-06 6.50210006039386e-25)
(4.04871538234726e-08 -3.76414118383395e-06 -2.15656027344464e-26)
(4.29697394675516e-08 -3.76415163787998e-06 4.44596078339765e-24)
(4.53733054397306e-08 -3.76417244356251e-06 1.59773349257727e-25)
(4.78224146988663e-08 -3.76419651061124e-06 1.34460844631257e-24)
(5.04641146777898e-08 -3.76422788376949e-06 4.41010700023745e-24)
(5.34561519919743e-08 -3.76427210671772e-06 -1.82580678538949e-25)
(5.69787538426964e-08 -3.76432719775883e-06 4.55763494346122e-25)
(6.12715483824057e-08 -3.76440061806514e-06 -7.0455613474918e-25)
(6.66312255431751e-08 -3.76450683622074e-06 9.56171430389573e-25)
(7.34563453614298e-08 -3.76466361573356e-06 1.00654448542544e-24)
(8.23242634808734e-08 -3.76490711908753e-06 -1.41705445549296e-25)
(9.40951956792866e-08 -3.76530098674765e-06 5.18658713051077e-24)
(1.10081386119084e-07 -3.76597549461594e-06 -3.75633058331526e-24)
(1.32372445250979e-07 -3.76713746390534e-06 -5.19419586947311e-25)
(1.64344527031898e-07 -3.76918296318793e-06 -3.3658649837853e-26)
(2.11649137853746e-07 -3.77273398523757e-06 -2.89136916514334e-24)
(2.83416217660916e-07 -3.77872354101869e-06 -7.24303957320251e-24)
(3.94944629099721e-07 -3.78846906962055e-06 -6.98189672660489e-24)
(5.70840708991616e-07 -3.80353154508235e-06 -3.67909249006358e-24)
(8.47437125671675e-07 -3.82521869929047e-06 -5.98103324708741e-24)
(1.28472992170546e-06 -3.85426740462544e-06 -7.0619262784304e-24)
(1.9226083265742e-06 -3.88254662245058e-06 -3.96828677081243e-24)
(2.80357576990592e-06 -3.88834983290054e-06 -6.28948843921384e-24)
(3.55671285312305e-06 -3.78790739031912e-06 -7.22257185204232e-24)
(3.6007378689069e-06 -3.51203394982134e-06 -3.39422104752208e-24)
(1.46999425113068e-06 -2.60769481928402e-06 -3.97683317190693e-24)
(-1.77327534511805e-06 -3.34736957062674e-06 2.42224141267224e-25)
(-5.91917339454058e-06 -5.43913530099227e-06 4.34699805370931e-26)
(-6.13786216413828e-06 -6.79587484689189e-06 5.86863418155553e-25)
(-5.04942477303483e-06 -7.25901221480185e-06 3.0532870620582e-25)
(-3.58664706431162e-06 -7.19812747037718e-06 -1.40887383870557e-24)
(-2.46603003661026e-06 -6.9929421653009e-06 -2.81308596140925e-24)
(-1.6654634358181e-06 -6.80533001962599e-06 -5.39871593842845e-25)
(-1.13826927660355e-06 -6.66929835068827e-06 -5.62025294417908e-25)
(-7.89371080192167e-07 -6.57951437243625e-06 -2.69208123114265e-24)
(-5.56952261279768e-07 -6.52264397838678e-06 5.31470019126152e-25)
(-3.98182641455168e-07 -6.48751056717489e-06 5.09987498155326e-24)
(-2.86039177015508e-07 -6.46594236824333e-06 4.77204876744147e-24)
(-2.04192754172424e-07 -6.45262540731977e-06 2.09253744506139e-24)
(-1.42452214393781e-07 -6.44424504537271e-06 3.43409993073969e-24)
(-9.45611715457104e-08 -6.43878350562841e-06 9.12347875250958e-25)
(-5.65613643718231e-08 -6.43509555225525e-06 1.60142960089854e-24)
(-2.58567657606063e-08 -6.43248446792973e-06 3.94915151041078e-24)
(-6.94241006507815e-10 -6.43058397213318e-06 2.04960490519963e-24)
(2.01750095971978e-08 -6.42916191069667e-06 1.05460073809174e-24)
(3.76645585972814e-08 -6.4280801299898e-06 4.89094511431648e-25)
(5.24753084884839e-08 -6.42725461132645e-06 -2.44032078239348e-25)
(6.51777947350177e-08 -6.42662810566738e-06 -2.30968360889225e-24)
(7.62395043861359e-08 -6.42616489793372e-06 2.57909763187168e-24)
(8.6062316398727e-08 -6.4258432206216e-06 4.75821987169369e-25)
(9.50065062427152e-08 -6.42565110148962e-06 -1.68785394238729e-24)
(1.03410079168247e-07 -6.42557603376285e-06 2.08366841935044e-24)
(1.11613046387745e-07 -6.42562292609135e-06 -1.14332606121522e-24)
(1.19943118801879e-07 -6.42579748320613e-06 3.2428701641392e-24)
(1.28760359591013e-07 -6.42610541053147e-06 2.62009889988745e-24)
(1.384662906498e-07 -6.42657585515313e-06 -1.77988387493558e-24)
(1.49509765806141e-07 -6.4272464392008e-06 1.58116795621557e-24)
(1.62448262102251e-07 -6.42816251549916e-06 -2.18026156467636e-24)
(1.77968951391133e-07 -6.42941043409274e-06 3.18627681882827e-24)
(1.96970100484311e-07 -6.43113099786335e-06 3.18667732064943e-24)
(2.20688787302173e-07 -6.43356483257117e-06 -1.72389945839177e-24)
(2.50884416443173e-07 -6.43708879713157e-06 1.58821351834549e-24)
(2.90164208395559e-07 -6.44238972362369e-06 -2.24528347011194e-24)
(3.4250575199756e-07 -6.45063170840862e-06 -4.33273081764039e-25)
(4.14174780050413e-07 -6.46381019309134e-06 7.33209729922027e-25)
(5.15421436648409e-07 -6.48523828102308e-06 -6.57254167291688e-24)
(6.62577634361651e-07 -6.52020176641352e-06 -6.40298930959938e-24)
(8.82795391466151e-07 -6.57682687181639e-06 -6.47052603919718e-24)
(1.21885378257384e-06 -6.66638497085367e-06 -8.08978082100093e-24)
(1.73336197486031e-06 -6.80273743569842e-06 -6.0390569610742e-24)
(2.52297160118284e-06 -6.99261965591603e-06 -6.58664812601331e-24)
(3.64071725162201e-06 -7.20439554021884e-06 -8.61012525839406e-24)
(5.11794143245734e-06 -7.27504439343017e-06 -6.52187727255825e-24)
(6.24425657377547e-06 -6.80714135498224e-06 -6.49125065186726e-24)
(6.02652983292325e-06 -5.41308545944913e-06 -7.18664730957593e-24)
(1.80336584731098e-06 -3.30904953214582e-06 -3.45823335211144e-24)
(-8.26405232474802e-07 3.33979189433353e-07 -2.66566150213049e-25)
(-5.19617318836609e-06 -1.83789314433497e-06 -4.1930060465507e-24)
(-5.68377781865489e-06 -4.27154085641343e-06 6.83338962376245e-26)
(-4.94785116854257e-06 -5.1174329507172e-06 -1.13491515602829e-25)
(-3.69642415089359e-06 -5.01745914620473e-06 -5.15249696872801e-24)
(-2.6781003297975e-06 -4.63605717713571e-06 -5.16136370118593e-24)
(-1.90877173016551e-06 -4.28756879580939e-06 -8.63978855345268e-25)
(-1.37666362889648e-06 -4.0354856645358e-06 -9.0445268412113e-25)
(-1.00671978234893e-06 -3.86999915482945e-06 -6.28643646379251e-24)
(-7.47274050668267e-07 -3.76497737184928e-06 -4.81316220664236e-24)
(-5.60818963208201e-07 -3.69916021407462e-06 7.32357287755426e-24)
(-4.22658259566517e-07 -3.65763220656141e-06 2.80410244475927e-24)
(-3.17414310227452e-07 -3.63094899989119e-06 -3.01551676090183e-24)
(-2.35090293126337e-07 -3.6133065292638e-06 4.04157346439379e-24)
(-1.69276355113327e-07 -3.60122550518118e-06 -4.29534983676973e-24)
(-1.15711053292285e-07 -3.59264875358593e-06 6.64555298495647e-25)
(-7.14725094625837e-08 -3.5863450164366e-06 1.23674527257138e-24)
(-3.44930505389982e-08 -3.58159196868021e-06 -3.00976328694041e-24)
(-3.23995605151318e-09 -3.57793613462151e-06 -5.7982140063947e-26)
(2.34403291971538e-08 -3.5750921321006e-06 -4.70140594979959e-24)
(4.64659719327139e-08 -3.5728837929343e-06 -1.17593400539421e-24)
(6.65956801938889e-08 -3.57117377145855e-06 -5.68511593960444e-24)
(8.44620702093289e-08 -3.56989606100898e-06 5.68164118122661e-26)
(1.00621423550348e-07 -3.56898023659382e-06 -6.68179686092849e-26)
(1.15579743901907e-07 -3.56841272815943e-06 -4.37721305850696e-24)
(1.29815101686868e-07 -3.56816678130781e-06 -3.83872579223331e-25)
(1.43798769743975e-07 -3.5682423178945e-06 -3.05194045066557e-24)
(1.58001644258705e-07 -3.56865542020551e-06 5.64709734298686e-24)
(1.72929778141866e-07 -3.56943332180872e-06 6.7660373497677e-25)
(1.89129184145112e-07 -3.57062289299617e-06 -4.72417151541362e-24)
(2.07223307632944e-07 -3.57232127499446e-06 2.39798540332726e-24)
(2.27962575798971e-07 -3.57463120125929e-06 -4.68273584320383e-24)
(2.5224523871572e-07 -3.57773692589452e-06 6.15981454560195e-24)
(2.81212360142715e-07 -3.58192482599456e-06 5.1294781373608e-24)
(3.16387837733887e-07 -3.58766406040076e-06 -4.3874438527484e-24)
(3.59845958421203e-07 -3.59568568705626e-06 -4.76474123495394e-25)
(4.14509723534623e-07 -3.60722209874105e-06 -6.06069596173689e-25)
(4.84657218388236e-07 -3.62434527196419e-06 1.50516384303881e-25)
(5.76713866571782e-07 -3.65053213172492e-06 3.38643652311055e-24)
(7.00737200904901e-07 -3.69162221416753e-06 -8.75065119304507e-24)
(8.72110689805731e-07 -3.75704699285739e-06 -4.29339411868685e-24)
(1.11573011303456e-06 -3.8617624743891e-06 -4.25759877100519e-24)
(1.46911727384834e-06 -4.02728425990883e-06 -1.02454174539775e-23)
(1.98488442343964e-06 -4.28065095262758e-06 -4.29509541268489e-24)
(2.73964176166825e-06 -4.63419637308454e-06 -4.63701235063323e-24)
(3.75165852171224e-06 -5.02864037768732e-06 -1.08183733087178e-23)
(5.01501827469624e-06 -5.14777231233479e-06 -4.51499340701102e-24)
(5.79058539757058e-06 -4.29535839244577e-06 -4.39641988739567e-24)
(5.32118304229665e-06 -1.79641902706375e-06 -8.81225510042409e-24)
(8.73404009270787e-07 4.16789917983462e-07 -2.1288937653858e-24)
(-7.62129305341602e-08 3.76617321379529e-06 -1.74838838405369e-25)
(-3.18848109202337e-06 2.12998152580182e-06 -4.56413504474554e-24)
(-3.84076892558588e-06 -1.23997738152132e-06 1.9918884820445e-25)
(-3.68781922021772e-06 -2.53222069085012e-06 1.10450593914039e-25)
(-2.99577100284336e-06 -2.53803021512654e-06 -2.13763405061722e-24)
(-2.35113095761948e-06 -2.10684387807051e-06 -2.8241548708631e-24)
(-1.80349175028864e-06 -1.682866626137e-06 -3.56649134070467e-25)
(-1.38892286576445e-06 -1.36499729675807e-06 -3.77257742677402e-25)
(-1.07600875259819e-06 -1.15102495246269e-06 -3.10889344552983e-24)
(-8.3970273276983e-07 -1.01158216627037e-06 -4.28732531574724e-24)
(-6.58777743008859e-07 -9.21424468254783e-07 3.77624698821452e-24)
(-5.17510655949823e-07 -8.62449650421708e-07 1.69991285203292e-25)
(-4.05358405344286e-07 -8.23049126286439e-07 -3.08469510389248e-24)
(-3.14781639884831e-07 -7.95968046562737e-07 2.01373726506806e-24)
(-2.40556861484936e-07 -7.76766914432157e-07 -3.60321372650058e-24)
(-1.7894940548756e-07 -7.62715124907056e-07 3.67836093886428e-25)
(-1.27222359903758e-07 -7.521511568701e-07 -1.25542949855058e-24)
(-8.33399917308994e-08 -7.4403183719503e-07 -2.41074370249793e-24)
(-4.57367819313432e-08 -7.37700835786041e-07 6.681929978357e-26)
(-1.31910714025797e-08 -7.3272572422344e-07 -3.65025932733444e-24)
(1.52991212655691e-08 -7.28815077034328e-07 -6.13827210783273e-25)
(4.05640591578766e-08 -7.25785693008061e-07 -2.63262836020013e-24)
(6.33158622396673e-08 -7.23500692908072e-07 -1.70300158928875e-24)
(8.41883658107453e-08 -7.21869222312159e-07 6.40856697452943e-26)
(1.03758822772272e-07 -7.20841102697423e-07 -1.98367918565187e-24)
(1.2258203190263e-07 -7.20393951069658e-07 -1.70700274038665e-24)
(1.41199810610341e-07 -7.20524741901656e-07 -1.61814786743187e-24)
(1.60153653314594e-07 -7.21247065007187e-07 2.50691152426457e-24)
(1.80023789975721e-07 -7.22620671741013e-07 -1.51467345663925e-24)
(2.01433813265353e-07 -7.247302615591e-07 -2.30914771878007e-24)
(2.25087695870103e-07 -7.27699741704036e-07 1.33937368285212e-24)
(2.51814085751723e-07 -7.31718467025978e-07 -2.34192262123168e-24)
(2.82590033191759e-07 -7.37071802538318e-07 2.91736052599346e-24)
(3.18635787426675e-07 -7.44189817647048e-07 2.93059365165885e-24)
(3.61505767327992e-07 -7.53751380199508e-07 -2.20801224342302e-24)
(4.13230936630497e-07 -7.6680257689028e-07 -1.80181068478994e-24)
(4.76543622197147e-07 -7.85014032189827e-07 1.42928113650225e-24)
(5.55184846222135e-07 -8.11113625725638e-07 2.68117498270399e-25)
(6.54367000489229e-07 -8.49558160613015e-07 1.25197267130737e-24)
(7.81677707190305e-07 -9.07649427915434e-07 -4.53608026171625e-24)
(9.47650392392197e-07 -9.97026974124025e-07 -7.27604619014288e-25)
(1.16821155306783e-06 -1.13591044300691e-06 -1.54300285110173e-25)
(1.4646053980976e-06 -1.34998289416783e-06 -5.21364816988122e-24)
(1.86272706095598e-06 -1.66998112557458e-06 -4.32109196052271e-25)
(2.39502518655542e-06 -2.10174803881323e-06 -3.11797552609916e-25)
(3.03063609240386e-06 -2.55245705862873e-06 -5.88464539558473e-24)
(3.72868137374418e-06 -2.576181246905e-06 -2.79387574298112e-25)
(3.91326187592337e-06 -1.28130123142261e-06 -6.61906938386528e-25)
(3.29367685356487e-06 2.17480085294485e-06 -5.34705730792261e-24)
(1.27325563373032e-07 3.87511106621817e-06 7.64036119369931e-25)
(3.02121399479417e-07 6.01879893632553e-06 4.23565509866112e-25)
(-1.18627473019285e-06 4.98593837548935e-06 -6.9829061791151e-25)
(-1.89772738496462e-06 1.03469343247331e-06 8.78415682613447e-25)
(-2.24018182435331e-06 -6.7037906489156e-07 5.01415095673393e-25)
(-2.10689781693027e-06 -8.81933896467818e-07 6.05997370841611e-25)
(-1.85635639796668e-06 -5.16393951206865e-07 -6.12123742793415e-25)
(-1.55980321786852e-06 -9.91273170018351e-08 2.27684038123091e-25)
(-1.29003588492098e-06 2.34435257358117e-07 2.51220235979818e-25)
(-1.05754442657426e-06 4.69165277814103e-07 -6.66157626011499e-25)
(-8.63659398103364e-07 6.28378388682119e-07 -9.90907845892834e-25)
(-7.03997806122972e-07 7.35436834102537e-07 2.21256415491796e-24)
(-5.72420089411792e-07 8.08179976794897e-07 1.07767023686542e-24)
(-4.63796229513377e-07 8.58549854808024e-07 -2.61537340598304e-25)
(-3.73534896289823e-07 8.94290223183781e-07 1.23185753296007e-24)
(-2.97985800600582e-07 9.20327071635971e-07 -6.6663809903783e-25)
(-2.3423998201623e-07 9.39789255838128e-07 9.23873390722499e-25)
(-1.79997666172282e-07 9.54665316868715e-07 6.31481965020665e-25)
(-1.33437201262233e-07 9.66237007231184e-07 2.94687648025931e-25)
(-9.30978470303481e-08 9.75338538531523e-07 9.66233868905405e-25)
(-5.77965706961966e-08 9.82535235356878e-07 -4.89285614850515e-25)
(-2.65542594707194e-08 9.88209656413371e-07 4.63801284901714e-25)
(1.46829529499084e-09 9.92614585550597e-07 -3.57848712332602e-25)
(2.70001165938613e-08 9.95942657967836e-07 1.57433596069364e-25)
(5.06911445247813e-08 9.98305335400474e-07 6.49548370228451e-25)
(7.31419608238678e-08 9.99781001910215e-07 -7.91416822322786e-26)
(9.49241436862567e-08 1.00040495316051e-06 1.18563255609889e-25)
(1.166077624174e-07 1.00017220648779e-06 -1.51724260910764e-25)
(1.38754579524906e-07 9.99055407529715e-07 1.06397185315363e-24)
(1.61959295980715e-07 9.96989919474851e-07 -2.3516673074848e-25)
(1.86872508722342e-07 9.93850390627204e-07 -7.93459196644592e-25)
(2.14213528251683e-07 9.89470510567799e-07 2.77088989400311e-25)
(2.44806587377421e-07 9.83584808421857e-07 -1.2328507658508e-24)
(2.79623561376975e-07 9.75828069646979e-07 8.82277453624896e-25)
(3.19840816173272e-07 9.65629656972659e-07 1.0167849270468e-24)
(3.66903652131206e-07 9.52130915740427e-07 -7.92314298930502e-25)
(4.22621942570141e-07 9.34050732558697e-07 -4.06698827575373e-25)
(4.89279392507761e-07 9.09404317414853e-07 3.90740934124342e-25)
(5.69773523816917e-07 8.75052864254476e-07 -4.38551940424547e-26)
(6.67723684575288e-07 8.26065558681486e-07 3.02915805569554e-25)
(7.87737383455158e-07 7.54656348085081e-07 -2.53285456163261e-24)
(9.3488834082125e-07 6.48821136947667e-07 -7.17907283736953e-25)
(1.11545744623889e-06 4.90553468425179e-07 -5.92471126699635e-25)
(1.33371870273463e-06 2.55926353350741e-07 -2.72109144221095e-24)
(1.58888793775303e-06 -8.01238692901267e-08 -5.68303459946275e-25)
(1.87081936025881e-06 -5.07014464191204e-07 -7.85538172336421e-25)
(2.11031624553133e-06 -8.97118382529995e-07 -3.38749683549501e-24)
(2.24295172387193e-06 -7.24069410208681e-07 -6.61688730784075e-25)
(1.92035797676676e-06 9.76382505120971e-07 -6.52526185563299e-25)
(1.24617155628651e-06 5.02629798143314e-06 -3.41425274760986e-24)
(-2.63391108734832e-07 6.1386529349392e-06 5.70136538661231e-26)
(4.13502280361353e-07 6.97923568323628e-06 7.99701912276931e-25)
(2.17073414023816e-07 6.40349163152301e-06 1.0995759911692e-24)
(-4.73224544342365e-07 2.28113665423993e-06 1.26995410742104e-24)
(-1.09722006672122e-06 2.98521589399376e-07 6.20390990344917e-25)
(-1.35336815588578e-06 -1.18183232036755e-07 4.0985693773695e-25)
(-1.39401077440798e-06 1.35153138965847e-07 3.58947451062604e-25)
(-1.29731677681165e-06 5.03536114247171e-07 5.25833584926867e-25)
(-1.1510408547055e-06 8.22987500375143e-07 5.80635067233784e-25)
(-9.9334741625862e-07 1.05982479436494e-06 5.59279005696135e-25)
(-8.43590995165783e-07 1.22756947050397e-06 7.24947912857567e-25)
(-7.098730268839e-07 1.34491441395655e-06 1.50739110540355e-24)
(-5.93502624591168e-07 1.42755173402065e-06 1.52430214781429e-24)
(-4.93789333289777e-07 1.48663115260812e-06 1.10017169507474e-24)
(-4.08711737419129e-07 1.5297138446559e-06 1.12829975435638e-24)
(-3.361140373887e-07 1.56181486558392e-06 8.49596994757386e-25)
(-2.7395287725375e-07 1.5862312106199e-06 1.29094096438854e-24)
(-2.20424159146974e-07 1.6051372806711e-06 1.57503104895553e-24)
(-1.74005264379183e-07 1.61998226084865e-06 1.55261547231116e-24)
(-1.33410525088139e-07 1.63173764415785e-06 1.53250393816143e-24)
(-9.75634792097393e-08 1.64106841730204e-06 1.15707650225591e-24)
(-6.55453459351533e-08 1.64843810624879e-06 1.10307850813757e-24)
(-3.65583105897944e-08 1.6541697319871e-06 7.33659628679674e-25)
(-9.90378693568445e-09 1.65848070936037e-06 1.15431210233119e-24)
(1.50519842257592e-08 1.66152296097032e-06 9.79998410655017e-25)
(3.89025974701919e-08 1.66339012607987e-06 8.55924317135657e-25)
(6.2207146642077e-08 1.66412527247856e-06 1.12053968919431e-24)
(8.55217820357116e-08 1.66373803398002e-06 5.03126373607198e-25)
(1.09408209190672e-07 1.66216985829794e-06 5.33733773853455e-25)
(1.34447735666478e-07 1.6593528807883e-06 4.8976455730524e-25)
(1.61269512155338e-07 1.65513391497101e-06 -2.29762273977589e-26)
(1.90567099361344e-07 1.64929481409874e-06 -4.88547243592954e-26)
(2.23125503421464e-07 1.64151978202756e-06 -6.86330389056093e-25)
(2.59848366889831e-07 1.63135934340476e-06 -7.10293343192466e-26)
(3.01804652390398e-07 1.61814102886561e-06 1.02069438680819e-25)
(3.50262395487705e-07 1.60088000734876e-06 -6.83586679425486e-26)
(4.0672843910505e-07 1.57812955566632e-06 2.8620802475144e-25)
(4.72974820631589e-07 1.54770358465304e-06 -1.98675863903482e-25)
(5.51021916756963e-07 1.50632370310805e-06 -2.97313733702628e-25)
(6.42977745953995e-07 1.44895675244789e-06 -1.2907358284739e-26)
(7.50842299841908e-07 1.36801552254051e-06 -6.75191156471408e-25)
(8.75198595598237e-07 1.25227508988384e-06 -6.9083766750795e-25)
(1.01478750879982e-06 1.08587895636821e-06 -6.09815029336436e-25)
(1.16122526637669e-06 8.49509580022045e-07 -6.95875066006225e-25)
(1.29535810709251e-06 5.27769686980438e-07 -5.87176346839631e-25)
(1.37872356004721e-06 1.49156084862563e-07 -6.63852615128465e-25)
(1.3258426336489e-06 -1.31558106854179e-07 -1.03536110392376e-24)
(1.06349994495315e-06 2.40513269043533e-07 -6.42101187881663e-25)
(4.4833155399832e-07 2.21084628662145e-06 -5.82964411276793e-25)
(-2.08974969424443e-07 6.43571364748701e-06 -9.08437138283878e-25)
(-3.95518446903661e-07 7.09927382171612e-06 -7.80899357289169e-26)
(4.02130942436163e-07 6.9257906434487e-06 8.57058323396244e-25)
(9.38299373685492e-07 6.64709685772175e-06 2.27698011058931e-24)
(3.20190742005821e-07 2.66587270622288e-06 1.25714353569781e-24)
(-3.82232453481357e-07 5.50869787491296e-07 5.37483460477151e-25)
(-8.32503296612023e-07 -2.39170712147354e-08 4.18704651544664e-25)
(-1.03700584713606e-06 1.14405874305041e-07 7.36691224989891e-25)
(-1.06839219742187e-06 4.20222137168339e-07 5.31822283888307e-25)
(-1.00951296695178e-06 7.11813230166342e-07 5.94934748078048e-25)
(-9.10363954697284e-07 9.40388142067222e-07 1.03535208701207e-24)
(-7.98760950636396e-07 1.10943744416777e-06 1.47774692055733e-24)
(-6.89947664376896e-07 1.23221718369222e-06 9.20713026304777e-25)
(-5.89910101860069e-07 1.32155506520927e-06 1.62434649513431e-24)
(-5.01027272107186e-07 1.38725879126244e-06 1.75813707940566e-24)
(-4.23232907287382e-07 1.43632712492416e-06 8.8537893670166e-25)
(-3.55600843350811e-07 1.47358877427668e-06 1.56746472545589e-24)
(-2.96860490025322e-07 1.50235752030933e-06 1.25695304021198e-24)
(-2.45701201708665e-07 1.5248870367073e-06 1.80323469494443e-24)
(-2.00909913628158e-07 1.54271560290909e-06 2.08011701716598e-24)
(-1.61406660608672e-07 1.55691397594784e-06 1.53622908890724e-24)
(-1.26244392577864e-07 1.5682216083659e-06 1.89532568045317e-24)
(-9.45970408114924e-08 1.57716214076449e-06 1.17652494375276e-24)
(-6.57340210139391e-08 1.58411120916543e-06 1.12869416229585e-24)
(-3.89989336596372e-08 1.58931768501226e-06 1.51345708087867e-24)
(-1.37892840324263e-08 1.59296367767067e-06 9.60784140767887e-25)
(1.0455216473135e-08 1.59515751625461e-06 1.17525698403689e-24)
(3.42728168839108e-08 1.59594737390841e-06 1.46038615911467e-24)
(5.81909258376531e-08 1.59534892792241e-06 7.74841312736359e-25)
(8.27441846442823e-08 1.59330199117431e-06 1.95577773984996e-25)
(1.0849103224324e-07 1.58971185799777e-06 8.43692041044235e-25)
(1.36020474613817e-07 1.58440361666844e-06 4.11580160009918e-25)
(1.65983436193498e-07 1.57712160747464e-06 -2.14787612791261e-25)
(1.99096091772765e-07 1.56750960615727e-06 -2.42177732177316e-25)
(2.36172808196783e-07 1.55504939631944e-06 -4.9903289804073e-25)
(2.78149689258108e-07 1.53899315354327e-06 -3.54176646831667e-25)
(3.26086212992266e-07 1.51827456592929e-06 3.42154549972582e-25)
(3.81164545080387e-07 1.4913449574641e-06 6.17911374329564e-25)
(4.44667233917153e-07 1.45594851049918e-06 -5.53338107187326e-25)
(5.17830365001814e-07 1.40879701042839e-06 -3.7128489281694e-25)
(6.01515227052618e-07 1.34504202679121e-06 -1.79017953727618e-25)
(6.95745216484948e-07 1.25767738713847e-06 2.83487758077628e-25)
(7.97990198074398e-07 1.13682211216082e-06 -7.28397244036661e-25)
(9.0222675983482e-07 9.69524354576461e-07 -7.86008968085142e-25)
(9.927970967045e-07 7.41922409624702e-07 1.94900542464213e-25)
(1.04181931677999e-06 4.48640468941878e-07 -6.68517303642851e-25)
(9.9857255514893e-07 1.3286860658775e-07 -6.88900345668065e-25)
(7.81650574507845e-07 -3.39906391074045e-08 1.47759469689083e-25)
(3.21858521199548e-07 4.92300042442354e-07 -8.05456903873034e-25)
(-3.79158445315339e-07 2.58814398787067e-06 -6.84980542701098e-25)
(-9.72180572908528e-07 6.66841585843722e-06 6.01248654901723e-25)
(-4.03173948266892e-07 7.03790751011083e-06 -1.3868681974181e-25)
(3.58653516022631e-07 6.32559455314273e-06 6.64130662271087e-25)
(1.14851510225297e-06 6.25674692342134e-06 2.00636592399194e-24)
(6.28946430973633e-07 2.58188655813908e-06 9.51057944978749e-25)
(-2.00597756597541e-08 4.41693369252894e-07 3.65840510176542e-25)
(-5.17611549025207e-07 -2.37007944539379e-07 1.11656597291364e-25)
(-7.86022550466706e-07 -1.97215250962365e-07 7.31881005801236e-25)
(-8.84973152646052e-07 4.69827161149758e-08 4.12320099593498e-25)
(-8.80700599022175e-07 3.05853860176433e-07 4.62285995738051e-25)
(-8.23397548277767e-07 5.20551860501228e-07 9.75206605556433e-25)
(-7.42141945747413e-07 6.86055762637273e-07 1.16054304718382e-24)
(-6.54989333722845e-07 8.1056323718834e-07 4.06203742942167e-25)
(-5.70293312129207e-07 9.03909836523842e-07 1.04167225563368e-24)
(-4.92290184814167e-07 9.74344563085429e-07 1.35308327299965e-24)
(-4.22268342137944e-07 1.02807272308459e-06 5.04332754046887e-25)
(-3.60248249013882e-07 1.06959010388628e-06 1.2212383809299e-24)
(-3.05605237437569e-07 1.10207180996742e-06 9.08154380968695e-25)
(-2.57473202595305e-07 1.12777683946051e-06 1.26326142429075e-24)
(-2.14939681010863e-07 1.14826248694048e-06 1.61665908766812e-24)
(-1.77126120699354e-07 1.16466676367515e-06 1.14937019624152e-24)
(-1.43232753156923e-07 1.17776610251078e-06 1.5056677246819e-24)
(-1.12525408452742e-07 1.18813601093353e-06 9.02451712365948e-25)
(-8.43465261912008e-08 1.19618701633676e-06 1.00820957827321e-24)
(-5.80973271421781e-08 1.2022017606298e-06 1.02318748423336e-24)
(-3.32166113991049e-08 1.20638266947814e-06 7.01169272552341e-25)
(-9.17981482062145e-09 1.20884215314881e-06 1.01199402772998e-24)
(1.45207031970882e-08 1.20965359274884e-06 1.06549925533629e-24)
(3.83815957981125e-08 1.20881223755851e-06 6.76221992242142e-25)
(6.2906118053363e-08 1.20627234025034e-06 -2.93645797396625e-26)
(8.86149546440947e-08 1.20190940473541e-06 5.50013779758317e-25)
(1.16054129271548e-07 1.19554052021251e-06 4.70566296573007e-25)
(1.45821632361473e-07 1.18687850787031e-06 -2.66153382624426e-25)
(1.78562666704417e-07 1.17552212646226e-06 -1.32993455644551e-26)
(2.14985134280556e-07 1.16092429257405e-06 -5.65092984070926e-25)
(2.55886000181435e-07 1.14227788851064e-06 -4.75360622876344e-25)
(3.02117495688971e-07 1.11847158580867e-06 4.36054535172462e-25)
(3.54559236167437e-07 1.08791567495392e-06 4.56328657876716e-25)
(4.14047119057596e-07 1.04839201416965e-06 -3.18716897286822e-25)
(4.81161212397881e-07 9.96717946747657e-07 -2.9124575743993e-25)
(5.55815398366844e-07 9.28412150987253e-07 -2.21607871835036e-25)
(6.3665735448758e-07 8.37251278540899e-07 7.4330411216622e-25)
(7.1927888669406e-07 7.14959669241493e-07 -3.38573007191513e-25)
(7.95239052486276e-07 5.51596561999581e-07 -3.42054935396443e-25)
(8.45994291991236e-07 3.38453196735717e-07 7.96951005108296e-25)
(8.42273907763029e-07 7.86807925249141e-08 -2.90571629817581e-25)
(7.32987635741421e-07 -1.74766716375963e-07 -2.81864701568204e-25)
(4.52972251772952e-07 -2.43399793036616e-07 9.13256153261257e-25)
(-5.50149254877625e-08 3.84147660049592e-07 -3.50175961145513e-25)
(-7.05777885751953e-07 2.49905062963583e-06 -2.14290227449975e-25)
(-1.20725552901563e-06 6.26414442021552e-06 1.54216599883088e-24)
(-3.71728735609063e-07 6.42304431263475e-06 5.34477233550036e-26)
(3.12964019575355e-07 5.57241908794394e-06 4.6280992819708e-25)
(1.07030962289687e-06 5.68583656998352e-06 1.83600038586712e-24)
(6.56432060049952e-07 2.3547064339573e-06 6.50427390236691e-25)
(1.1922032713372e-07 2.47297206131512e-07 2.78335119347097e-25)
(-3.42774053749376e-07 -4.93488711473548e-07 6.30115682545235e-25)
(-6.14771236785057e-07 -5.31860131327415e-07 9.35605194733158e-25)
(-7.41066108278429e-07 -3.42798378936295e-07 3.11214586196499e-25)
(-7.67803054730064e-07 -1.17166046569842e-07 3.36376641408981e-25)
(-7.39080653401304e-07 8.0706274295062e-08 1.032939590391e-24)
(-6.8114544986166e-07 2.39377210665104e-07 1.03821137332629e-24)
(-6.12085882769339e-07 3.62744293458232e-07 -1.69104077566673e-25)
(-5.41041777456618e-07 4.57856749230172e-07 5.5116873167222e-25)
(-4.73203867224006e-07 5.31351294621142e-07 1.13739046300971e-24)
(-4.10734722625009e-07 5.8853222438786e-07 1.02519028841673e-26)
(-3.54351911269725e-07 6.33434732360919e-07 1.04539196487231e-24)
(-3.03950310898932e-07 6.69021036647476e-07 5.68240007167341e-25)
(-2.59046746285585e-07 6.97449990470514e-07 7.65307569195886e-25)
(-2.18997733908896e-07 7.20279801000023e-07 1.26503574675684e-24)
(-1.83119784629705e-07 7.38645809230421e-07 7.724986171347e-25)
(-1.50752408845882e-07 7.53356984144499e-07 1.30626470340524e-24)
(-1.21258053113537e-07 7.65025872025919e-07 6.30710501084865e-25)
(-9.4057581286434e-08 7.74072440470999e-07 1.01327753364509e-24)
(-6.86041479010325e-08 7.80815117307612e-07 6.07318320412924e-25)
(-4.43857644354181e-08 7.85461663456832e-07 4.52257818763305e-25)
(-2.091193556059e-08 7.88155253492961e-07 9.32292667523119e-25)
(2.28998153310542e-09 7.88955295695705e-07 6.81322105543188e-25)
(2.56812706670967e-08 7.87868280158625e-07 5.97399604554372e-25)
(4.97313983002698e-08 7.84837962707586e-07 -2.79261813551839e-25)
(7.49247532770549e-08 7.79731453552341e-07 2.81424041751361e-25)
(1.0176371034086e-07 7.7234782553896e-07 6.20233700743101e-25)
(1.30782337705948e-07 7.62391344423315e-07 -4.97090258453297e-25)
(1.6255794812912e-07 7.49420840176127e-07 2.77787553072144e-25)
(1.97699233497045e-07 7.32865451954702e-07 -7.55161607981947e-25)
(2.36858038380514e-07 7.11899963046363e-07 -7.17729996130225e-25)
(2.80691727838067e-07 6.85393454216445e-07 6.35518536245975e-25)
(3.29811463409233e-07 6.51792464548835e-07 3.01429124266969e-25)
(3.84671623575552e-07 6.08950014013869e-07 -1.53045584109753e-25)
(4.45322938096754e-07 5.53922817637883e-07 -2.09496146020969e-25)
(5.10984569300044e-07 4.82691370562667e-07 -4.92032899605499e-25)
(5.79426560238768e-07 3.89951674869012e-07 6.91274363370134e-25)
(6.45277494236028e-07 2.69057692784368e-07 -8.23718722042417e-26)
(6.9929053504464e-07 1.12920690983989e-07 -7.40334351627058e-26)
(7.22897838097905e-07 -8.28265190658983e-08 8.67950358228008e-25)
(6.89637468747713e-07 -3.08552604960299e-07 -5.17849536689989e-26)