/*--------------------------------*- C++ -*----------------------------------*\
  =========                 |
  \\      /  F ield         | OpenFOAM: The Open Source CFD Toolbox
   \\    /   O peration     | Website:  https://openfoam.org
    \\  /    A nd           | Version:  10
     \\/     M anipulation  |
\*---------------------------------------------------------------------------*/
FoamFile
{
    format      ascii;
    class       volScalarField;
    location    "6.4";
    object      wallHeatFlux;
}
// * * * * * * * * * * * * * * * * * * * * * * * * * * * * * * * * * * * * * //

dimensions      [1 0 -3 0 0 0 0];

internalField   uniform 0;

boundaryField
{
    back
    {
        type            calculated;
        value           uniform 0;
    }
    bottom
    {
        type            calculated;
        value           nonuniform List<scalar> 
50
(
94.0285783457094
95.6838656546204
99.0083701225131
101.366912545639
102.774587303799
103.564484976176
103.99287653492
104.217196036898
104.329938423695
104.384257810645
104.409015256482
104.419845184772
104.424373806802
104.42611977497
104.426766735272
104.426941664414
104.427027231945
104.427023215737
104.42698616292
104.426974518937
104.426962079047
104.426953941611
104.4269475171
104.426950952454
104.426946129697
104.426942941884
104.426948510309
104.426953467935
104.426964061413
104.426977247219
104.426990840265
104.427017988813
104.427021382733
104.4270027291
104.426924313667
104.426663589092
104.42591683584
104.423899550535
104.41904154068
104.407505881622
104.381594948326
104.325979471076
104.211835930193
103.987043929626
103.560901255538
102.775614745785
101.370999421846
99.0011625361432
95.6491604810789
94.0556429706057
)
;
    }
    left
    {
        type            calculated;
        value           uniform 0;
    }
    front
    {
        type            calculated;
        value           uniform 0;
    }
    right
    {
        type            calculated;
        value           uniform 0;
    }
    top
    {
        type            calculated;
        value           uniform 0;
    }
}


// ************************************************************************* //
