/*--------------------------------*- C++ -*----------------------------------*\
  =========                 |
  \\      /  F ield         | OpenFOAM: The Open Source CFD Toolbox
   \\    /   O peration     | Website:  https://openfoam.org
    \\  /    A nd           | Version:  10
     \\/     M anipulation  |
\*---------------------------------------------------------------------------*/
FoamFile
{
    format      ascii;
    class       volScalarField;
    location    "9.2";
    object      alphat;
}
// * * * * * * * * * * * * * * * * * * * * * * * * * * * * * * * * * * * * * //

dimensions      [1 -1 -1 0 0 0 0];

internalField   nonuniform List<scalar> 
2500
(
5.06847021442896e-15
9.99332533844723e-14
4.29283299362597e-13
7.5169950222564e-13
1.04034735163573e-12
1.2852390220992e-12
1.48260027316589e-12
1.63379959493554e-12
1.74399793433205e-12
1.82047600674536e-12
1.87106916850654e-12
1.90300956832055e-12
1.92227665323553e-12
1.93339583977545e-12
1.93954299050525e-12
1.94280269616264e-12
1.94446276297116e-12
1.94527562885264e-12
1.94565870258982e-12
1.94583255410068e-12
1.94590852640348e-12
1.94594044077896e-12
1.94595324992192e-12
1.94595803773733e-12
1.94595944338836e-12
1.94595904571463e-12
1.94595665002999e-12
1.94595021629222e-12
1.94593428996563e-12
1.94589630216795e-12
1.94580868579559e-12
1.94561330530085e-12
1.94519229823685e-12
1.94431632695548e-12
1.94255815401997e-12
1.93915792073677e-12
1.93282950025464e-12
1.92150925687161e-12
1.90207323078976e-12
1.87008724043703e-12
1.81969933188732e-12
1.74381801493869e-12
1.63471388087117e-12
1.485109270824e-12
1.28967146089342e-12
1.0466311427062e-12
7.59101689709642e-13
4.36070325637271e-13
1.02577986518285e-13
5.27677677755877e-15
5.03846040544547e-13
2.60557318626902e-11
1.14247433028506e-10
2.00167315108318e-10
2.77152265431158e-10
3.42566998741404e-10
3.95388166260713e-10
4.35949185061828e-10
4.65591034060849e-10
4.86225078253953e-10
4.99920909118314e-10
5.08598591086887e-10
5.13853307981198e-10
5.16898152639316e-10
5.18588596245297e-10
5.19488929957352e-10
5.19949508629004e-10
5.20176075182712e-10
5.20283349739311e-10
5.20332268555221e-10
5.20353752690611e-10
5.20362825752072e-10
5.20366489020635e-10
5.20367868370188e-10
5.20368278081344e-10
5.20368167861712e-10
5.20367483631527e-10
5.20365647486394e-10
5.20361120109064e-10
5.20350369149048e-10
5.2032568260261e-10
5.20270873342156e-10
5.20153277199965e-10
5.19909639353338e-10
5.1942268669409e-10
5.18484832151067e-10
5.16746379673413e-10
5.13648868309237e-10
5.08350840879524e-10
4.99663455323079e-10
4.86025018712517e-10
4.65551952245907e-10
4.36201517273594e-10
3.96061865840566e-10
3.43745714467705e-10
2.78813757428991e-10
2.02116171853908e-10
1.16027658049719e-10
2.67328581535875e-11
5.23834416138962e-13
1.79318864816899e-12
4.69748933735685e-10
1.62079899380302e-07
2.83664670904156e-07
3.92043385699278e-07
4.83874820920762e-07
5.57896470176842e-07
6.14692190402103e-07
6.56202539289634e-07
6.85123975311308e-07
7.04350141545269e-07
7.16557071539182e-07
7.23967294695966e-07
7.28273224604383e-07
7.30671128897775e-07
7.31952427559819e-07
7.3261014142977e-07
7.32934836225472e-07
7.33089141368396e-07
7.33159778083771e-07
7.33190926148251e-07
7.33204138325075e-07
7.33209499675852e-07
7.33211531400598e-07
7.33212142084713e-07
7.3321198827534e-07
7.33210995506825e-07
7.33208329730738e-07
7.33201773010987e-07
7.3318624864584e-07
7.3315070528632e-07
7.33072017125833e-07
7.3290366192757e-07
7.3255582812913e-07
7.31862521931195e-07
7.30530818279477e-07
7.28068741050939e-07
7.23692839403202e-07
7.16225663047946e-07
7.04007056482242e-07
6.8485875017843e-07
6.56152683565375e-07
6.15030344673408e-07
5.58794403449751e-07
4.85442963543322e-07
3.94251385376903e-07
2.8625034957986e-07
1.64431925194841e-07
4.80939348256323e-10
1.85408656585376e-12
3.18385889860299e-12
8.39943638769494e-10
2.91105609606919e-07
5.08113281920487e-07
7.00613715525128e-07
8.63098812075905e-07
9.93680775465652e-07
1.0936544925244e-06
1.16661409776289e-06
1.21740285647196e-06
1.25115331168513e-06
1.27258243437133e-06
1.28559529666979e-06
1.29316107895908e-06
1.29737749250754e-06
1.29963250962721e-06
1.3007912299888e-06
1.30136390432671e-06
1.30163639472465e-06
1.30176130329739e-06
1.30181646640535e-06
1.30183990569514e-06
1.30184943746419e-06
1.30185306126649e-06
1.30185416077989e-06
1.30185390583757e-06
1.30185217910091e-06
1.30184752463367e-06
1.30183606442417e-06
1.30180891203871e-06
1.30174670997513e-06
1.30160892991571e-06
1.3013140051619e-06
1.3007044148566e-06
1.29948893783078e-06
1.29715354078645e-06
1.29283469291108e-06
1.28515686178982e-06
1.27205177823869e-06
1.25060072520266e-06
1.21696783086641e-06
1.16651110389524e-06
1.09415290963999e-06
9.95048492689661e-07
8.65506864944744e-07
7.0400959762169e-07
5.12074959218429e-07
2.94664602134263e-07
8.56444894667621e-10
3.27188231857823e-12
4.56570104287045e-12
1.20515324158325e-09
4.17076215151476e-07
7.26119787426349e-07
9.99120483715982e-07
1.22878443643882e-06
1.41287869583503e-06
1.55355575332617e-06
1.65608962877829e-06
1.72741200149453e-06
1.77479198605766e-06
1.80487505727789e-06
1.82314791106675e-06
1.83377688920541e-06
1.8397041691247e-06
1.84287662135449e-06
1.84450820084649e-06
1.84531537957958e-06
1.8456998778884e-06
1.84587634838287e-06
1.84595439178621e-06
1.84598760768884e-06
1.8460011434242e-06
1.84600630591627e-06
1.84600788625748e-06
1.84600755055705e-06
1.84600515262739e-06
1.84599866124265e-06
1.84598266002116e-06
1.84594472095861e-06
1.84585775022245e-06
1.84566498491089e-06
1.84525211907427e-06
1.84439829700599e-06
1.84269503166761e-06
1.83942103737059e-06
1.83336419924104e-06
1.82259299170544e-06
1.80420166606786e-06
1.77408631063571e-06
1.72684575075214e-06
1.65592702570914e-06
1.55412853109803e-06
1.41451609708107e-06
1.23169464294181e-06
1.00323264353969e-06
7.30903631286344e-07
4.21339874652397e-07
1.22484592557524e-09
4.67150686445364e-12
5.90420512249445e-12
1.55859807060183e-09
5.38206891211683e-07
9.34748102362691e-07
1.28373252331918e-06
1.57644603640431e-06
1.81054819831943e-06
1.9891473108946e-06
2.11918007783727e-06
2.2095741415358e-06
2.26960838687887e-06
2.30772760415523e-06
2.33088799350008e-06
2.3443660591838e-06
2.35188665032246e-06
2.35591480587921e-06
2.35798820356553e-06
2.35901492850113e-06
2.35950452461252e-06
2.35972949856758e-06
2.35982912840426e-06
2.35987160107792e-06
2.35988894578093e-06
2.35989558260498e-06
2.35989763149961e-06
2.35989723416857e-06
2.35989422694748e-06
2.35988605054268e-06
2.35986587503707e-06
2.35981800893077e-06
2.35970821768611e-06
2.3594647336691e-06
2.35894295654536e-06
2.35786336573635e-06
2.35570876040492e-06
2.35156557400235e-06
2.34389807355356e-06
2.33025821519006e-06
2.30696158505277e-06
2.2688009229385e-06
2.20891471182139e-06
2.11896029570406e-06
1.98973285909113e-06
1.8123009692707e-06
1.5795926005095e-06
1.28818949370146e-06
9.3992618917258e-07
5.42807501285486e-07
1.58002631382197e-09
6.0213604071113e-12
7.17829876896836e-12
1.89504954726056e-09
6.52958566326357e-07
1.1315253459425e-06
1.55128109661542e-06
1.90242587432201e-06
2.18270253704798e-06
2.39622776491074e-06
2.55154668121703e-06
2.65946360256571e-06
2.73112232024065e-06
2.77662604746062e-06
2.80428085660085e-06
2.82038156406072e-06
2.82937074414026e-06
2.83418883657381e-06
2.83667081610787e-06
2.83790097620302e-06
2.83848817646207e-06
2.83875831104896e-06
2.83887810030452e-06
2.83892925023241e-06
2.83895018350125e-06
2.83895822026249e-06
2.8389607217906e-06
2.8389602804854e-06
2.83895672467863e-06
2.83894701546495e-06
2.83892303620912e-06
2.83886611730179e-06
2.83873549808756e-06
2.83844568080204e-06
2.83782431539253e-06
2.83653809554358e-06
2.83397007280566e-06
2.82903014696857e-06
2.81988530980753e-06
2.80361279804253e-06
2.7758120976692e-06
2.73026028187854e-06
2.65874929176603e-06
2.55128118209829e-06
2.39678779343125e-06
2.18445943195706e-06
1.90560967128991e-06
1.55580159726269e-06
1.13677583263402e-06
6.57625876814175e-07
1.91716099381195e-09
7.30202789595104e-12
8.37246774223285e-12
2.21051634485176e-09
7.60128348670404e-07
1.31457695273182e-06
1.7994265067599e-06
2.20408180700997e-06
2.52651241036648e-06
2.77185576211537e-06
2.95018186397405e-06
3.07403338928818e-06
3.15626284085783e-06
3.20848458196139e-06
3.24023138011085e-06
3.25872247467307e-06
3.26905196769476e-06
3.27459211871935e-06
3.27744823192859e-06
3.27886504677989e-06
3.27954200215671e-06
3.27985377331584e-06
3.27999220623293e-06
3.28005141220959e-06
3.28007569491714e-06
3.28008504949764e-06
3.28008798486257e-06
3.28008751511655e-06
3.28008346909251e-06
3.28007237700804e-06
3.28004496175511e-06
3.27997986186687e-06
3.2798304097053e-06
3.27949866599334e-06
3.27878711123154e-06
3.27731361440888e-06
3.27437061832444e-06
3.26870757476029e-06
3.25822116588922e-06
3.23955679433644e-06
3.20766223062919e-06
3.15538953519168e-06
3.07330271172871e-06
2.9498906689799e-06
2.77237408995424e-06
2.52820299102894e-06
2.20716646440314e-06
1.80381257443117e-06
1.31967182494919e-06
7.64671252578014e-07
2.23255273805335e-09
8.49915877639569e-12
9.47578384509933e-12
2.50216265085476e-09
8.58878338992419e-07
1.48265685341699e-06
2.0266796332722e-06
2.47979718138886e-06
2.84030489602045e-06
3.11434025575631e-06
3.31339334578636e-06
3.45159525933983e-06
3.54334584855018e-06
3.60162178256688e-06
3.63705937780903e-06
3.65770891326774e-06
3.66925030154054e-06
3.6754443515947e-06
3.67863988301437e-06
3.68022637146486e-06
3.68098510093196e-06
3.6813349054685e-06
3.68149042206732e-06
3.68155703951867e-06
3.68158442070833e-06
3.68159500518447e-06
3.68159835292107e-06
3.68159786850389e-06
3.68159338744387e-06
3.68158105760662e-06
3.68155056450318e-06
3.68147813564694e-06
3.68131180612613e-06
3.68094246768483e-06
3.68014998544105e-06
3.67850832503203e-06
3.67522840321923e-06
3.66891523694291e-06
3.65722208399376e-06
3.63640533948698e-06
3.60082548902547e-06
3.54250059193077e-06
3.45088645321819e-06
3.31310380483862e-06
3.11482043010646e-06
2.84189553565368e-06
2.48270295466334e-06
2.03080777484004e-06
1.4874500093764e-06
8.63172141179772e-07
2.52360219448683e-09
9.60276961110152e-12
1.04814328264978e-11
2.76821353506391e-09
9.48715021359709e-07
1.63509671635748e-06
2.23231814175691e-06
2.72886716501205e-06
3.12342548079141e-06
3.42308420301062e-06
3.64063479667703e-06
3.79164154915285e-06
3.89189019845191e-06
3.95557317062588e-06
3.99431005793602e-06
4.01689131465214e-06
4.02951879631907e-06
4.03629979285532e-06
4.03980053274414e-06
4.04153989918916e-06
4.04237247534423e-06
4.0427567165276e-06
4.04292775034883e-06
4.04300112706643e-06
4.04303134992077e-06
4.04304307217367e-06
4.04304680881985e-06
4.04304632187713e-06
4.04304145726918e-06
4.04302802811383e-06
4.04299480038002e-06
4.04291586114365e-06
4.04273453730112e-06
4.0423317839536e-06
4.04146732915534e-06
4.0396760190752e-06
4.03609608681715e-06
4.02920372415092e-06
4.01643500272252e-06
3.99369915537245e-06
3.95483242997918e-06
3.89110814584446e-06
3.79099181261321e-06
3.64037977602642e-06
3.42354607597257e-06
3.12491374739593e-06
2.73156267192047e-06
2.23612834546057e-06
1.6395111802154e-06
9.52690311191167e-07
2.78873129117083e-09
1.06068532918746e-11
1.13862103556446e-11
3.00782366100939e-09
1.02944446279422e-06
1.77171938348949e-06
2.41626041405862e-06
2.95133926122207e-06
3.37605234790764e-06
3.69837940481295e-06
3.93228692507451e-06
4.09461694504478e-06
4.20238341320841e-06
4.27085314330539e-06
4.3125136859134e-06
4.33680878593791e-06
4.35040121407911e-06
4.35770451989377e-06
4.36147734451937e-06
4.36335327146617e-06
4.36425196247757e-06
4.36466711621824e-06
4.36485212383214e-06
4.36493161252051e-06
4.3649644194618e-06
4.36497718505829e-06
4.36498128520005e-06
4.3649808055496e-06
4.36497560580163e-06
4.36496120793701e-06
4.36492557026501e-06
4.36484089637048e-06
4.36464636539957e-06
4.36421417052028e-06
4.3632862693681e-06
4.36136296361169e-06
4.35751826956082e-06
4.3501145161812e-06
4.33639576169997e-06
4.31196425719351e-06
4.27019261501716e-06
4.20169535220116e-06
4.09406152058963e-06
3.93210264903494e-06
3.69885508516417e-06
3.37746043073201e-06
2.95383199654508e-06
2.41974401271039e-06
1.77573408817272e-06
1.03307661725647e-06
3.02725772656857e-09
1.1508896802262e-11
1.2189971422599e-11
3.22093479857901e-09
1.10112240313752e-06
1.89274871096853e-06
2.57893984008046e-06
3.14785865962614e-06
3.59901953812267e-06
3.94121344960644e-06
4.18945305035233e-06
4.36170638533282e-06
4.47606460513143e-06
4.54873478586287e-06
4.59296353038364e-06
4.61876597720513e-06
4.6332083041799e-06
4.64097239008953e-06
4.64498568124804e-06
4.64698254335519e-06
4.64793991818289e-06
4.64838258283477e-06
4.64858006654551e-06
4.64866503465969e-06
4.64870017132201e-06
4.64871388529787e-06
4.64871832187017e-06
4.64871785739028e-06
4.64871236743641e-06
4.64869712293841e-06
4.64865937927496e-06
4.64856969745186e-06
4.64836363529938e-06
4.64790572935699e-06
4.64692239690439e-06
4.64488371152648e-06
4.64080746944985e-06
4.63295628030573e-06
4.61840600026509e-06
4.59248992952718e-06
4.54817444573758e-06
4.47549675149687e-06
4.36127760161699e-06
4.18937682923495e-06
3.94174304644688e-06
3.60038737349677e-06
3.15018518348544e-06
2.58212719705414e-06
1.89638548163377e-06
1.10442158223097e-06
3.23925432679258e-09
1.2309333700301e-11
1.28950930561242e-11
3.40813982202045e-09
1.16400779698421e-06
1.99872900228914e-06
2.72119558220676e-06
3.31953639586452e-06
3.79366816022626e-06
4.1531087323008e-06
4.41378966960606e-06
4.59465996972333e-06
4.71474573072658e-06
4.79106885016971e-06
4.83753347750712e-06
4.8646499096748e-06
4.8798341962981e-06
4.88800120249276e-06
4.89222514900611e-06
4.89432816935069e-06
4.89533717589219e-06
4.89580410995032e-06
4.89601263526083e-06
4.89610247283125e-06
4.89613969151997e-06
4.8961542598953e-06
4.89615900482487e-06
4.89615856150165e-06
4.8961528226303e-06
4.89613684465539e-06
4.89609727686175e-06
4.89600326105395e-06
4.89578722267336e-06
4.89530706966955e-06
4.89427575578855e-06
4.89213715063583e-06
4.8878602920601e-06
4.87962127655713e-06
4.86435000308186e-06
4.83714636462172e-06
4.79062417487834e-06
4.7143195685645e-06
4.59438634663167e-06
4.41385772201791e-06
4.1537362458183e-06
3.79504679329927e-06
3.32175290090361e-06
2.7241443562455e-06
2.00204029256316e-06
1.16700956443106e-06
3.42541421953161e-09
1.30110062912464e-11
1.35059717909756e-11
3.57055669440746e-09
1.2185210616405e-06
2.09045478800828e-06
2.84417938548124e-06
3.46783857037142e-06
3.96172270184635e-06
4.33598963142731e-06
4.60736738018153e-06
4.795649732635e-06
4.92066569985096e-06
5.00013621107916e-06
5.04852949857162e-06
5.07678087383471e-06
5.09260698313103e-06
5.10112311263632e-06
5.10552992603135e-06
5.10772529028588e-06
5.10877931374586e-06
5.10926746467024e-06
5.10948567407184e-06
5.10957980011351e-06
5.10961886270427e-06
5.10963419381661e-06
5.10963921860912e-06
5.1096388007033e-06
5.10963285053448e-06
5.10961624309301e-06
5.10957511020039e-06
5.109477379376e-06
5.10925279293553e-06
5.10875357604852e-06
5.10768113172693e-06
5.10545683529128e-06
5.10100784986319e-06
5.09243594848294e-06
5.07654561305795e-06
5.04823615751535e-06
4.99981841360519e-06
4.9203979140582e-06
4.79555524810384e-06
4.60761292629736e-06
4.3367592745446e-06
3.96316829371589e-06
3.47001234822856e-06
2.84696392775917e-06
2.09351261178858e-06
1.22127785183261e-06
3.58692655982145e-09
1.36186648428322e-11
1.4028550465979e-11
3.70970927070691e-09
1.26520552458782e-06
2.16890742613457e-06
2.94927273690089e-06
3.59448894680332e-06
4.10518311450542e-06
4.49206724077546e-06
4.7725506168027e-06
4.96714608525243e-06
5.09636470904831e-06
5.17852089355773e-06
5.22856189572804e-06
5.25778422457924e-06
5.27416026537663e-06
5.28297604394302e-06
5.28754010556227e-06
5.28981504237128e-06
5.29090794764919e-06
5.29141447346055e-06
5.29164109711708e-06
5.29173896477762e-06
5.29177964514575e-06
5.29179565078221e-06
5.29180092706085e-06
5.29180053733124e-06
5.29179440984487e-06
5.291777267731e-06
5.29173480562364e-06
5.29163392281978e-06
5.29140208699934e-06
5.29088670148078e-06
5.28977936128435e-06
5.28748232991751e-06
5.28288717591034e-06
5.27403247434877e-06
5.25761604162044e-06
5.22836658552625e-06
5.17833722835401e-06
5.09626725193581e-06
4.96724968342267e-06
4.7730023779359e-06
4.49302040008956e-06
4.10675188506984e-06
3.59669111359394e-06
2.95197500302929e-06
2.17179381676941e-06
1.26777918204232e-06
3.72536003052895e-09
1.41385006063774e-11
1.44698655948795e-11
3.82741194540939e-09
1.30469067653343e-06
2.23519556481456e-06
3.03800982996569e-06
3.70137896892585e-06
4.22622554579053e-06
4.62373362752096e-06
4.91188751518097e-06
5.11180477721284e-06
5.24456934260379e-06
5.32899401822014e-06
5.38042855405968e-06
5.41047323185298e-06
5.42731577854199e-06
5.43638619438582e-06
5.44108414045658e-06
5.44342697101487e-06
5.4445531304451e-06
5.4450754146886e-06
5.44530927824732e-06
5.44541037879284e-06
5.445452464826e-06
5.44546906122165e-06
5.44547456123554e-06
5.44547420119834e-06
5.44546792683986e-06
5.44545033571464e-06
5.44540675725264e-06
5.44530322975425e-06
5.44506531386498e-06
5.44453636650642e-06
5.44339974564395e-06
5.44104165385174e-06
5.43632373210899e-06
5.42723139979146e-06
5.41037273566632e-06
5.38033289927934e-06
5.32894816975606e-06
5.24464966368789e-06
5.11212017156114e-06
4.91256870853329e-06
4.62490659702489e-06
4.22796983364777e-06
3.70367867004001e-06
3.04071204237534e-06
2.23799478179638e-06
1.30714625009643e-06
3.84255111572741e-09
1.45777041075931e-11
1.48376150804231e-11
3.92565814326413e-09
1.33765695208264e-06
2.29049861037136e-06
3.11200482445303e-06
3.79048307240285e-06
4.32710907809547e-06
4.73346257250652e-06
5.02800656040744e-06
5.23236082810934e-06
5.36808475249022e-06
5.45440488769479e-06
5.5070053682303e-06
5.53773912340408e-06
5.5549732204346e-06
5.56425774773822e-06
5.56906849402035e-06
5.57146865141577e-06
5.57262295791748e-06
5.57315861784758e-06
5.57339864723639e-06
5.57350251275163e-06
5.5735458078287e-06
5.57356291644877e-06
5.57356861351731e-06
5.57356828368665e-06
5.57356188951559e-06
5.57354392612556e-06
5.57349942167707e-06
5.57339370232167e-06
5.57315074918167e-06
5.57261056419116e-06
5.57144966976533e-06
5.56904093060955e-06
5.56422111984583e-06
5.55493146855055e-06
5.53770543412492e-06
5.50700878713868e-06
5.45449744470989e-06
5.36834620064984e-06
5.23289662010484e-06
5.02893442572489e-06
4.73488511639164e-06
4.32907459322001e-06
3.79294325651337e-06
3.11478398107772e-06
2.29329119227825e-06
1.34005784997244e-06
3.94049689547977e-09
1.49440475948418e-11
1.51397544251074e-11
4.00651512499336e-09
1.36480265439532e-06
2.33601395523524e-06
3.17288415823963e-06
3.86377999326777e-06
4.41008910904336e-06
4.82371736943151e-06
5.12352055252134e-06
5.33152993006291e-06
5.46969439783683e-06
5.55757968144771e-06
5.61114430347519e-06
5.64244877485867e-06
5.66000773206811e-06
5.66947024085357e-06
5.67437494780835e-06
5.6768229663688e-06
5.67800083204057e-06
5.67854771999269e-06
5.67879294315616e-06
5.6788991479267e-06
5.67894347186166e-06
5.67896101998538e-06
5.67896688885985e-06
5.67896658898734e-06
5.67896009887828e-06
5.67894183144075e-06
5.67889656986742e-06
5.67878905947714e-06
5.67854199101688e-06
5.67799262216358e-06
5.67681187823818e-06
5.67436169298171e-06
5.66945844455157e-06
5.66000710323754e-06
5.64247986680646e-06
5.61124446698697e-06
5.55780868788329e-06
5.47013678492972e-06
5.33229003072378e-06
5.12470639600533e-06
4.82541209605682e-06
4.41231335452589e-06
3.86645472373516e-06
3.17580835054516e-06
2.3388725928807e-06
1.36720717107966e-06
4.02125445724166e-09
1.52454982290854e-11
1.53841331925953e-11
4.07202853264522e-09
1.38681400568458e-06
2.37290938982989e-06
3.22222562384838e-06
3.92318198290772e-06
4.4773394245696e-06
4.89686783734756e-06
5.2009401188652e-06
5.4119196041509e-06
5.55206966285223e-06
5.64123010155894e-06
5.69558144817384e-06
5.72735241320717e-06
5.74517740317539e-06
5.7547859609838e-06
5.75976794195637e-06
5.76225541764684e-06
5.76345275816295e-06
5.76400895621206e-06
5.76425850177176e-06
5.76436666230594e-06
5.76441185170233e-06
5.76442977276125e-06
5.76443578988871e-06
5.76443551917745e-06
5.76442895406506e-06
5.7644104428108e-06
5.7643645728888e-06
5.7642556237952e-06
5.76400524925339e-06
5.76344849793386e-06
5.76225178358907e-06
5.7597682187739e-06
5.75479770715442e-06
5.74521590551454e-06
5.72744545832764e-06
5.69577475657724e-06
5.64159166441082e-06
5.55268995946491e-06
5.41290391591349e-06
5.20238981390427e-06
4.89885030085119e-06
4.4798511763356e-06
3.92611514777154e-06
3.22535200827941e-06
2.37589647587312e-06
1.38927313718388e-06
4.08684995491662e-09
1.54898720322607e-11
1.55781818332612e-11
4.12413958908115e-09
1.40433917394588e-06
2.4022819548013e-06
3.26150575376109e-06
3.97047368771692e-06
4.53088488671479e-06
4.95511859368689e-06
5.26259891362949e-06
5.47595231785603e-06
5.61769160616286e-06
5.70787425245598e-06
5.76285735987048e-06
5.79500364695233e-06
5.81304312217767e-06
5.82276969669763e-06
5.82781427359708e-06
5.83033379757765e-06
5.83154700332877e-06
5.83211081161717e-06
5.83236390460582e-06
5.83247367834373e-06
5.83251958638521e-06
5.83253782006712e-06
5.83254396377274e-06
5.83254372106938e-06
5.83253709924788e-06
5.83251839713194e-06
5.83247204938585e-06
5.83236196995176e-06
5.83210899641523e-06
5.8315464350291e-06
5.83033713404695e-06
5.82782722309222e-06
5.82280354613254e-06
5.81311849519858e-06
5.79515534892762e-06
5.76313942075027e-06
5.70836317933034e-06
5.61848472643538e-06
5.47715761096907e-06
5.26431376163596e-06
4.95739798713124e-06
4.53370454966409e-06
3.97369888243936e-06
3.26487992266542e-06
2.40544856720364e-06
1.40689555382448e-06
4.13919986305955e-09
1.56845370208033e-11
1.57286545730455e-11
4.16461664103099e-09
1.41796676977373e-06
2.42512394770635e-06
3.29205638616417e-06
4.00726168897807e-06
4.57254583256317e-06
5.00044976541329e-06
5.31059174509414e-06
5.52580185048353e-06
5.66878616114848e-06
5.75977109608235e-06
5.81525106017619e-06
5.84769318686631e-06
5.86590213955251e-06
5.87572221413601e-06
5.88081652660746e-06
5.88336159480219e-06
5.88458749008186e-06
5.88515740936754e-06
5.88541336425186e-06
5.8855244470303e-06
5.88557094270636e-06
5.88558943481658e-06
5.88559568537347e-06
5.8855954693343e-06
5.88558880678784e-06
5.88556996033754e-06
5.88552324923073e-06
5.88541230923402e-06
5.88515735417623e-06
5.88459035400795e-06
5.88337141441301e-06
5.88084127999646e-06
5.87577670133527e-06
5.86601205633194e-06
5.84790009450833e-06
5.81561714784054e-06
5.76038152952065e-06
5.6697457834887e-06
5.5272227512369e-06
5.31256957338089e-06
5.00303003127668e-06
4.57568644048985e-06
4.01080298290149e-06
3.29571281224364e-06
2.42850994980978e-06
1.42065449466652e-06
4.18004583217262e-09
1.5836169871347e-11
1.58414286866362e-11
4.19500128396316e-09
1.42820887132217e-06
2.442296127582e-06
3.31503043999595e-06
4.03493472900399e-06
4.60389421812169e-06
5.0345701858726e-06
5.34672569350477e-06
5.56334298357286e-06
5.7072728757184e-06
5.79886857948238e-06
5.85472778146034e-06
5.88739636418801e-06
5.90573545391335e-06
5.91562756944118e-06
5.9207603444251e-06
5.92332524651577e-06
5.92456103836051e-06
5.92513574752877e-06
5.92539395884481e-06
5.92550608126066e-06
5.92555304809312e-06
5.92557175019714e-06
5.92557808980549e-06
5.92557789903687e-06
5.92557120981421e-06
5.92555226010558e-06
5.9255052865344e-06
5.92539372325142e-06
5.92513732867641e-06
5.92456709139702e-06
5.92334109287667e-06
5.92079608593946e-06
5.91570131121413e-06
5.90587770040316e-06
5.88765515346422e-06
5.85517325844453e-06
5.79959459415994e-06
5.70839224310092e-06
5.56497298498004e-06
5.34896205535012e-06
5.0374513513821e-06
4.60736281924952e-06
4.03880799409195e-06
3.3189936306845e-06
2.44593102761215e-06
1.4310539471808e-06
4.21090319907242e-09
1.5950565480449e-11
1.5921356042431e-11
4.21656813007299e-09
1.43548828748019e-06
2.45450762558422e-06
3.33137625285622e-06
4.05463386922007e-06
4.62622068177445e-06
5.05888220786955e-06
5.37248332415842e-06
5.59011360643635e-06
5.73472627408168e-06
5.82676451389759e-06
5.8828995428679e-06
5.91573352330038e-06
5.93416809779331e-06
5.94411333442258e-06
5.94927462307296e-06
5.95185431436985e-06
5.95309753270088e-06
5.95367586197657e-06
5.95393579288158e-06
5.95404871566678e-06
5.95409604997598e-06
5.95411491881849e-06
5.95412133148799e-06
5.95412116465954e-06
5.95411446127083e-06
5.95409544499518e-06
5.95404829901024e-06
5.95393632382704e-06
5.95367897161849e-06
5.95310656347572e-06
5.95187579069751e-06
5.94932064191993e-06
5.94420512039697e-06
5.93434072368959e-06
5.91604123750271e-06
5.88342022434617e-06
5.82760064302465e-06
5.73599891772192e-06
5.59194601134395e-06
5.37497266454751e-06
5.06206174968458e-06
4.63001984731972e-06
4.05884834377676e-06
3.33566224362175e-06
2.45841182848187e-06
1.43850941659908e-06
4.2330221373473e-09
1.6032494816437e-11
1.59721597439309e-11
4.23029646584362e-09
1.44012952368553e-06
2.46230169488946e-06
3.34181936398702e-06
4.06723128200109e-06
4.64051110301633e-06
5.07445662373272e-06
5.38899643122766e-06
5.60728763763902e-06
5.75234822026713e-06
5.84467857321559e-06
5.90099691662267e-06
5.93394164631824e-06
5.95244067882445e-06
5.96242209038102e-06
5.96760297903296e-06
5.97019293858947e-06
5.97144136929602e-06
5.97202226993377e-06
5.97228343905961e-06
5.97239694763394e-06
5.97244455641212e-06
5.97246355316541e-06
5.97247002452012e-06
5.97246988045546e-06
5.97246317429322e-06
5.97244412489852e-06
5.97239688859989e-06
5.97228469399605e-06
5.97202682208792e-06
5.97145320993707e-06
5.97021972988966e-06
5.96765870975321e-06
5.96253095359185e-06
5.95264211595601e-06
5.93429588603099e-06
5.90158936158873e-06
5.84562023456926e-06
5.75376855649063e-06
5.60931635253978e-06
5.39173309294985e-06
5.07793068132406e-06
4.64464031506056e-06
4.0717910648341e-06
3.34643720468509e-06
2.46648780256506e-06
1.44333896645051e-06
4.24735971530524e-09
1.6085603813843e-11
1.59963674831832e-11
4.23685173308882e-09
1.44235282378375e-06
2.46604629799305e-06
3.34685043680834e-06
4.07331608799662e-06
4.64743088661141e-06
5.08201581682229e-06
5.39702837791755e-06
5.61565679768009e-06
5.76094930502149e-06
5.85343343183097e-06
5.90985000774866e-06
5.94285523814799e-06
5.96139021088665e-06
5.97139223047869e-06
5.97658453767879e-06
5.97918062076974e-06
5.98043223746506e-06
5.98101475214665e-06
5.98127672190911e-06
5.98139062251564e-06
5.98143842265803e-06
5.98145751314228e-06
5.98146403075966e-06
5.98146390858171e-06
5.98145720991331e-06
5.98143815783746e-06
5.9813909068693e-06
5.98127867156588e-06
5.98102068795697e-06
5.98044677311535e-06
5.97921251094271e-06
5.97664959038945e-06
5.97151749942359e-06
5.96161935989117e-06
5.9432543002396e-06
5.91051173274936e-06
5.85447724209326e-06
5.76251308272368e-06
5.61787693287958e-06
5.40000737297525e-06
5.0857801379785e-06
4.65188763582032e-06
4.07822132909709e-06
3.35180337369032e-06
2.47052015969594e-06
1.44575710384716e-06
4.25456089936166e-09
1.6112345320381e-11
1.59952711964547e-11
4.23657406878952e-09
1.44227051557269e-06
2.46592846908109e-06
3.34671817753101e-06
4.07318621997354e-06
4.64731597388423e-06
5.08192408068681e-06
5.39696387446833e-06
5.61561997966795e-06
5.76093791725153e-06
5.85344356854724e-06
5.90987710988468e-06
5.94289489021935e-06
5.96143861788648e-06
5.97144642456741e-06
5.97664237254776e-06
5.97924064597126e-06
5.98049352982691e-06
5.98107675448753e-06
5.98133911309991e-06
5.98145322427555e-06
5.9815011384666e-06
5.98152029115952e-06
5.98152684372469e-06
5.98152674280505e-06
5.98152006152193e-06
5.98150103613826e-06
5.98145384388533e-06
5.98134174171651e-06
5.98108404332599e-06
5.98051070153777e-06
5.97927752411925e-06
5.97671654528664e-06
5.97158774564174e-06
5.96169488656801e-06
5.94333782993314e-06
5.91060668406993e-06
5.85458747218327e-06
5.7626423421983e-06
5.61802802920181e-06
5.4001811327378e-06
5.08597434768648e-06
4.65209617385053e-06
4.07843364010141e-06
3.35200428485415e-06
2.47068985944866e-06
1.4458709535088e-06
4.25494667755456e-09
1.61139369595032e-11
1.59689134782064e-11
4.2294744452412e-09
1.43988569977672e-06
2.46195204751726e-06
3.34142620579317e-06
4.0668446078437e-06
4.64016849636653e-06
5.07418287866355e-06
5.3888039507131e-06
5.60717801820694e-06
5.75231488084466e-06
5.84470990446065e-06
5.90107930112078e-06
5.93406183160417e-06
5.95258725619561e-06
5.96258612467323e-06
5.96777800129728e-06
5.97037457358885e-06
5.97162683060144e-06
5.97220987505763e-06
5.97247221804143e-06
5.97258636194051e-06
5.97263431452528e-06
5.97265349861063e-06
5.97266007509901e-06
5.97265999500821e-06
5.97265334135064e-06
5.97263437284335e-06
5.97258731449865e-06
5.97247552306826e-06
5.97221851425978e-06
5.97164663522919e-06
5.97041643423731e-06
5.96786128079947e-06
5.96274346374318e-06
5.95287056210396e-06
5.93454846628457e-06
5.90187635230267e-06
5.84595319991951e-06
5.75415869010867e-06
5.60977194516684e-06
5.39225640836231e-06
5.07851479297786e-06
4.64526655338307e-06
4.0724275335315e-06
3.34703835752197e-06
2.46699451908727e-06
1.44367817934457e-06
4.24850713721097e-09
1.60903330545642e-11
1.59160959982606e-11
4.21523663530896e-09
1.43509263068173e-06
2.45393801681142e-06
3.33073329467244e-06
4.0539993182974e-06
4.62565685269167e-06
5.05843087442082e-06
5.37216594729276e-06
5.58993364610115e-06
5.73467338282786e-06
5.82681972369883e-06
5.88304032216343e-06
5.91593779368793e-06
5.93441677162007e-06
5.94439141760896e-06
5.94957123626721e-06
5.95216208735252e-06
5.9534117659047e-06
5.95399371519856e-06
5.95425562775142e-06
5.95436962227654e-06
5.95441753582877e-06
5.95443671973969e-06
5.95444330891619e-06
5.95444324947498e-06
5.95443663462025e-06
5.95441775547869e-06
5.95437091143279e-06
5.95425961974376e-06
5.9540037293379e-06
5.95343425402293e-06
5.95220902565443e-06
5.94966378811961e-06
5.94456504125807e-06
5.93472750837884e-06
5.9164686454515e-06
5.88390544388364e-06
5.8281629146045e-06
5.73665669346343e-06
5.59271266117755e-06
5.37585123556277e-06
5.06303974518317e-06
4.63106514887724e-06
4.05990705596553e-06
3.33665842421664e-06
2.45924809693817e-06
1.43906689238078e-06
4.23490181393961e-09
1.60402323451541e-11
1.58343953354543e-11
4.19322173449731e-09
1.42767836475967e-06