/*--------------------------------*- C++ -*----------------------------------*\
  =========                 |
  \\      /  F ield         | OpenFOAM: The Open Source CFD Toolbox
   \\    /   O peration     | Website:  https://openfoam.org
    \\  /    A nd           | Version:  10
     \\/     M anipulation  |
\*---------------------------------------------------------------------------*/
FoamFile
{
    format      ascii;
    class       volScalarField;
    location    "9.2";
    object      h;
}
// * * * * * * * * * * * * * * * * * * * * * * * * * * * * * * * * * * * * * //

dimensions      [0 2 -2 0 0 0 0];

internalField   nonuniform List<scalar> 
2500
(
6053.78281674249
6052.46918279279
6044.65425644585
6037.94649557037
6033.25543776734
6030.21104036972
6028.30459684084
6027.1387140123
6026.44346614573
6026.0417353684
6025.81579866215
6025.69341464527
6025.62941730635
6025.59657899592
6025.58014227183
6025.57182786607
6025.56795419076
6025.56582760976
6025.56446772212
6025.56369222583
6025.56315583297
6025.5627525618
6025.5624470154
6025.56226233832
6025.5620851459
6025.56195600401
6025.56192279999
6025.56194434743
6025.56203764412
6025.56222796054
6025.56256924069
6025.56324243588
6025.56433937284
6025.56641882997
6025.57055380391
6025.57894846639
6025.59594067958
6025.62961234781
6025.69571001252
6025.82004715747
6026.04744497155
6026.45051932937
6027.14368178945
6028.30325973702
6030.20126183428
6033.23637514374
6037.93435436408
6044.67906559752
6052.51832731135
6053.70565008963
5376.80117963369
5362.07584468087
5338.91189093844
5319.80633324858
5306.35988695132
5297.50806945013
5291.86779209224
5288.35495350837
5286.21934501009
5284.95760344344
5284.23492317734
5283.83493087737
5283.62112805473
5283.51051623663
5283.455115287
5283.4281183815
5283.41544120558
5283.40947213632
5283.40658146827
5283.40518525039
5283.4044457455
5283.40400122725
5283.4037089161
5283.40352520737
5283.40337547034
5283.40326752336
5283.40322767541
5283.40324259784
5283.40334113838
5283.40360450993
5283.40421370276
5283.40558939525
5283.40853475037
5283.4148874417
5283.42842701347
5283.45674270902
5283.51443511981
5283.62849326706
5283.84728905309
5284.25275290285
5284.98005121068
5286.2434624606
5288.3731487107
5291.86930010861
5297.4847008703
5306.31924448409
5319.7995946394
5339.02882592494
5362.29642860653
5376.39871253786
4656.86525609898
4627.00178419342
4592.02769039537
4564.38004264786
4545.16074759006
4532.58168662241
4524.5937600668
4519.62843179641
4516.61155661478
4514.82769476033
4513.80468715703
4513.23721052144
4512.93306563944
4512.77549747447
4512.69656475362
4512.65826793797
4512.64030758863
4512.63204851198
4512.62826873936
4512.62654814371
4512.62572802931
4512.62529437642
4512.62503783734
4512.62488058695
4512.62476440921
4512.62468169068
4512.62464485881
4512.62465279118
4512.62474694949
4512.62504132803
4512.62578511899
4512.62755269077
4512.63156074237
4512.64041893084
4512.65952057209
4512.69967756715
4512.78164403173
4512.94372195285
4513.25401203542
4513.82839312069
4514.85737163966
4516.64323943651
4519.65315373689
4524.59888938835
4532.55929816596
4545.1304128537
4564.42825671234
4592.30734633026
4627.54264919874
4656.71296306678
3969.12925832931
3928.58585055897
3888.50306259846
3858.11718911904
3837.49545001867
3824.26176907574
3816.00811004044
3810.96051622045
3807.93726571863
3806.17161690709
3805.17000704548
3804.6196524531
3804.32716514951
3804.1768485532
3804.10213623053
3804.06619776266
3804.04947891112
3804.04190014474
3804.03851838424
3804.03702543184
3804.03634773678
3804.03601055522
3804.03582087099
3804.03570657217
3804.0356259513
3804.03556748606
3804.03553566336
3804.03553022933
3804.03558803567
3804.03581537576
3804.03643627841
3804.03797225289
3804.04156967218
3804.04965708944
3804.06730455409
3804.10478706222
3804.18202200869
3804.33615203258
3804.63389762402
3805.19045019833
3806.19792009824
3807.9665633851
3810.98595192552
3816.02019664649
3824.25788276518
3837.50712019796
3858.25718253697
3888.97627848336
3929.51283625252
3969.69780407467
3368.93285094117
3324.5163260459
3285.2145229159
3256.57904493655
3237.64184889397
3225.75083562077
3218.47931560702
3214.10941997824
3211.53094077946
3210.04378780919
3209.20896205601
3208.75425270965
3208.5143773199
3208.39189812486
3208.33138270326
3208.30244849246
3208.28906991671
3208.28306405968
3208.28042970432
3208.27929514277
3208.27880071013
3208.27856759989
3208.27844226875
3208.27836868183
3208.27831857909
3208.27828092825
3208.2782562587
3208.2782448864
3208.27826944555
3208.27841726241
3208.2788675713
3208.28002647601
3208.28281564493
3208.28917026531
3208.303160254
3208.33311322678
3208.39530480584
3208.52036361376
3208.7638729406
3209.22305388916
3210.06244228226
3211.55260776345
3214.12997850775
3218.49354241231
3225.7619019545
3237.68928499536
3256.78910266697
3285.82655669952
3325.75613498841
3370.29120913656
2885.17584712382
2843.14494605124
2808.84738538115
2784.75927788312
2769.24146648172
2759.7131809482
2754.00270440053
2750.63086964067
2748.67043267914
2747.55320050382
2746.93203417973
2746.5962839685
2746.42024542447
2746.33081161258
2746.28681431921
2746.26586646046
2746.2562246789
2746.25192828723
2746.25006942876
2746.24928705099
2746.24895989583
2746.24881469136
2746.24874067541
2746.24869887669
2746.24867150817
2746.2486496362
2746.24863212806
2746.24862033076
2746.24862385946
2746.24870588436
2746.24899824245
2746.2497879669
2746.25174064221
2746.25624230214
2746.26622309603
2746.28772767678
2746.33264647044
2746.42352528439
2746.60165178347
2746.94007721707
2747.56415550977
2748.68364971411
2750.64432256957
2754.01446841461
2759.7300509708
2769.30478250116
2784.9941858775
2809.5030402496
2844.52716878874
2887.09271621082
2522.27610666494
2486.74775189726
2459.53970317616
2441.06686361976
2429.46989636981
2422.50666059179
2418.41658094342
2416.04330517318
2414.68311726911
2413.91670396085
2413.49430157196
2413.26749787087
2413.14917354055
2413.08928829229
2413.05991716578
2413.04597349577
2413.03957756206
2413.03674485635
2413.03553411096
2413.03503610703
2413.03483727644
2413.03475574307
2413.03471724155
2413.03469684796
2413.03468436383
2413.03467315936
2413.03466163188
2413.0346507972
2413.03464565638
2413.03468456929
2413.03485565222
2413.03535092874
2413.03661107779
2413.03954956603
2413.0461033694
2413.06029544655
2413.09007825293
2413.15062336371
2413.26993187912
2413.49805034954
2413.92196433471
2414.68966566981
2416.05028310235
2418.42380842358
2422.52179597771
2429.53033964639
2441.28416137406
2460.14751818349
2488.08441965829
2524.3955477897
2267.3624810671
2240.00107137018
2220.11295221055
2207.02505638115
2199.01226170957
2194.30606316685
2191.59616486209
2190.05053880487
2189.17698793266
2188.69005023529
2188.42381800051
2188.28168964515
2188.20783940819
2188.170567206
2188.15232401963
2188.14367972223
2188.13972492997
2188.13798268969
2188.13724659651
2188.13695096124
2188.13683928081
2188.13679851708
2188.13678148623
2188.13677354933
2188.13676961641
2188.13676488072
2188.13675782544
2188.13674917429
2188.13674248014
2188.13675680818
2188.13684742439
2188.13713645304
2188.13789513507
2188.13968515983
2188.14369870427
2188.15242494552
2188.1708019331
2188.20829637387
2188.28249622712
2188.42511739493
2188.69193986653
2189.17936901777
2190.05302726032
2191.5991111355
2194.31601700355
2199.05917151092
2207.19929467029
2220.61372762493
2241.15148472672
2269.3606538022
2098.85494166735
2079.40399318338
2065.87830491576
2057.2305865587
2052.06264736904
2049.09211427347
2047.41478457211
2046.47415081711
2045.94972978215
2045.66040248847
2045.50337731495
2045.41997014411
2045.3767717996
2045.35501254553
2045.34437541064
2045.33934091864
2045.33704223532
2045.33603449713
2045.33561355138
2045.33544861174
2045.33539063791
2045.33537324329
2045.33536711293
2045.33536510381
2045.33536556959
2045.33536443354
2045.33536042909
2045.33535423654
2045.33534842616
2045.33535125658
2045.33539498032
2045.33555286325
2045.33598249717
2045.3370088861
2045.33932175706
2045.34436641867
2045.35501696191
2045.37680396206
2045.42005939612
2045.50356079429
2045.66069476289
2045.95003400879
2046.47420443616
2047.41485039912
2049.09682316031
2052.09356001149
2057.35484024455
2066.25158435933
2080.30097265528
2100.52571824418
1993.57648574938
1980.69146938181
1972.06900569226
1966.70163746195
1963.56752492271
1961.80345939644
1960.82631759952
1960.28740786174
1959.99095163062
1959.82901310253
1959.74172837568
1959.69557020759
1959.67172546096
1959.65973024159
1959.65386969542
1959.65109746988
1959.64983368661
1959.64928221062
1959.64905448353
1959.6489674913
1959.6489393691
1959.64893383615
1959.64893374161
1959.64893437731
1959.64893552312
1959.6489354979
1959.64893343657
1959.64892943727
1959.64892481815
1959.64892372138
1959.64894317298
1959.6490241108
1959.64925441022
1959.64981196379
1959.65107455131
1959.65383518136
1959.65967296688
1959.67163485673
1959.69543874848
1959.74154782291
1959.82875418563
1959.99050107024
1960.28651360681
1960.82499565292
1961.80449039298
1963.58501920685
1966.78167471058
1972.3239774227
1981.33334422638
1994.84384653596
1931.17279210147
1923.16109769586
1917.97760914374
1914.83004377898
1913.03234607587
1912.0408858204
1911.50194296495
1911.20956196166
1911.05083366675
1910.96496472323
1910.91898140913
1910.89475987584
1910.88227261091
1910.87599537857
1910.87292860678
1910.87147804814
1910.87081760326
1910.87053072492
1910.87041368654
1910.87037033687
1910.87035835109
1910.87035772093
1910.87035889472
1910.87036032521
1910.87036144983
1910.87036165789
1910.87036065867
1910.87035815077
1910.87035488425
1910.87035301843
1910.87036079178
1910.87040002475
1910.87051752264
1910.87080595733
1910.87146235005
1910.87290014255
1910.87594296332
1910.8821828423
1910.89461804562
1910.9187678986
1910.96463834678
1911.05028240662
1911.20854454068
1911.50029264035
1912.04001344556
1913.04071151529
1914.87705888346
1918.1387437663
1923.58686931254
1932.05791111926
1895.95851416939
1891.2553028756
1888.30199193153
1886.54953135898
1885.56951191091
1885.03955483192
1884.75673964643
1884.6057886875
1884.5249075647
1884.48156713359
1884.45850180276
1884.4463950662
1884.44016320934
1884.43703127399
1884.43550052168
1884.43477627717
1884.43444686553
1884.43430444789
1884.43424711434
1884.4342269202
1884.43422235717
1884.43422291173
1884.4342241934
1884.43422547775
1884.43422632865
1884.43422659701
1884.43422612695
1884.43422462804
1884.43422253475
1884.43422098437
1884.43422367002
1884.434241736
1884.43429905102
1884.43444178124
1884.43476820063
1884.43548407944
1884.43699912998
1884.44010598414
1884.44630138576
1884.45835479799
1884.48133077052
1884.52448851063
1884.60498162625
1884.75530846673
1885.03807326596
1885.57264986961
1886.5748472507
1888.39691416663
1891.51917285354
1896.53369338612
1876.98218079431
1874.36278049033
1872.76120156995
1871.83099313427
1871.32111529927
1871.05058412907
1870.90879319149
1870.83432375159
1870.7949400682
1870.77403435893
1870.76297513971
1870.75718885486
1870.75421385172
1870.75271845443
1870.75198698991
1870.75164070624
1870.75148334381
1870.75141564434
1870.75138879108
1870.75137994104
1870.75137844674
1870.75137909265
1870.75138006597
1870.75138096678
1870.75138152967
1870.75138175041
1870.75138153261
1870.75138068336
1870.75137944424
1870.75137841805
1870.75137914173
1870.75138707314
1870.75141390754
1870.75148173059
1870.75163759496
1870.75197965766
1870.75270308089
1870.75418541709
1870.75714088577
1870.76289680496
1870.77390014256
1870.79468207183
1870.83378716015
1870.90775524704
1871.0491915796
1871.32174690753
1871.84350157122
1872.81363434413
1874.51655663735
1877.33275290807
1867.18911369022
1865.79935642498
1864.96960780375
1864.49718529035
1864.24310697677
1864.11074316122
1864.0425798358
1864.00734734531
1863.98895607048
1863.97928501214
1863.97419887174
1863.97154556958
1863.97018249404
1863.96949697532
1863.96916128144
1863.96900222567
1863.96893000325
1863.96889909551
1863.96888703463
1863.96888334284
1863.96888297595
1863.96888347397
1863.96888410064
1863.96888465423
1863.96888499169
1863.96888513774
1863.9688850375
1863.96888458212
1863.96888389548
1863.96888326561
1863.9688833703
1863.9688867359
1863.96889881636
1863.96892987089
1863.96900157228
1863.96915895603
1863.96949135569
1863.97017143824
1863.97152614544
1863.97416527111
1863.97922145866
1863.98881819665
1864.00702994569
1864.04191074305
1864.1096950626
1864.24279677896
1864.50283205897
1864.99689464659
1865.88408092652
1867.39079970702
1862.33665909214
1861.63170966938
1861.21969653695
1860.98941081201
1860.86776335805
1860.80549490134
1860.77397455002
1860.75793779735
1860.74967534807
1860.74537131326
1860.74312078825
1860.74194994351
1860.74134875899
1860.74104615377
1860.74089776054
1860.74082737549
1860.74079543931
1860.74078184836
1860.74077665537
1860.74077520197
1860.74077516748
1860.74077547156
1860.74077583389
1860.74077614436
1860.74077633132
1860.74077641605
1860.7407763702
1860.74077613807
1860.74077577932
1860.74077542453
1860.74077537832
1860.74077675792
1860.7407820138
1860.7407957577
1860.74082763017
1860.74089756745
1860.74104498903
1860.74134595362
1860.74194448962
1860.74311000407
1860.74534638131
1860.7496097021
1860.75776593664
1860.77357971974
1860.80480430253
1860.86725742876
1860.99170895481
1861.23312604864
1861.67604321766
1862.44674989406
1860.0226173156
1859.679675046
1859.48302909055
1859.37498562189
1859.31887085098
1859.29062681857
1859.27656648788
1859.26952387888
1859.26594256841
1859.26409460827
1859.26313384398
1859.26263527207
1859.26237933838
1859.26225036744
1859.26218701571
1859.26215692923
1859.26214328706
1859.26213751498
1859.26213536206
1859.26213481249
1859.26213484932
1859.26213502324
1859.26213521666
1859.26213537865
1859.26213547551
1859.26213552032
1859.26213549956
1859.2621353866
1859.26213520886
1859.26213502382
1859.26213496781
1859.26213551636
1859.26213773379
1859.26214363007
1859.26215735736
1859.26218745474
1859.26225073846
1859.26237957158
1859.26263519193
1859.26313239047
1859.26408723744
1859.26591449343
1859.26943724325
1859.27634947211
1859.29021310934
1859.31844684364
1859.37580083741
1859.48929811313
1859.70179403404
1860.07988280596
1858.95824045314
1858.79779195886
1858.7073491746
1858.65843893183
1858.63343776625
1858.62105482725
1858.61498943349
1858.61199781917
1858.61049630807
1858.60972888161
1858.6093321569
1858.60912677439
1858.60902134514
1858.60896814155
1858.60894195675
1858.60892950294
1858.60892385895
1858.60892148463
1858.60892062081
1858.60892042121
1858.60892045788
1858.60892054926
1858.60892064575
1858.60892072515
1858.60892077237
1858.60892079438
1858.60892078513
1858.60892073254
1858.60892064873
1858.60892055842
1858.60892052138
1858.60892073442
1858.60892164539
1858.60892410399
1858.60892984667
1858.60894242107
1858.60896878065
1858.6090222622
1858.60912806172
1858.60933347494
1858.60972804273
1858.61048557968
1858.61195668281
1858.61487702957
1858.62082482504
1858.63315295223
1858.65866731462
1858.71013084766
1858.80835019796
1858.98673208218
1858.48508169178
1858.41270796998
1858.37253199927
1858.35112131216
1858.34033913552
1858.33507991069
1858.33254383673
1858.33131177068
1858.33070141411
1858.33039243742
1858.33023361412
1858.33015157626
1858.33010945375
1858.33008816101
1858.33007765816
1858.33007265398
1858.33007038648
1858.33006943741
1858.33006910048
1858.33006903037
1858.33006905285
1858.33006909712
1858.33006914227
1858.33006917893
1858.33006920061
1858.33006921072
1858.33006920669
1858.33006918327
1858.33006914565
1858.33006910422
1858.33006908456
1858.3300691663
1858.33006953231
1858.33007053155
1858.33007287067
1858.33007798253
1858.3300886606
1858.33011024063
1858.33015277873
1858.33023516331
1858.3303933398
1858.33069783924
1858.33129320568
1858.33248850625
1858.33495969893
1858.34017042841
1858.35115069141
1858.37370679533
1858.41754428107
1858.49868440537
1858.28141938223
1858.24987461537
1858.23260229632
1858.22352093716
1858.2190110173
1858.21684290809
1858.21581303581
1858.21532006347
1858.21507900009
1858.2149581371
1858.21489635978
1858.21486451623
1858.21484815793
1858.21483987204
1858.21483577414
1858.21483381707
1858.21483292956
1858.21483255925
1858.21483243011
1858.2148324054
1858.21483241648
1858.21483243615
1858.2148324558
1858.21483247162
1858.21483248091
1858.21483248522
1858.21483248352
1858.2148324736
1858.21483245764
1858.2148324399
1858.21483243108
1858.21483246274
1858.21483260748
1858.21483300478
1858.21483393496
1858.21483596175
1858.21484017777
1858.21484865994
1858.21486531007
1858.21489745612
1858.21495910691
1858.21507803415
1858.21531203755
1858.21578698068
1858.21678331144
1858.21891945992
1858.22349981237
1858.23307474672
1858.25200611905
1858.28766892235
1858.19639360897
1858.18308132927
1858.17588140406
1858.1721425975
1858.17030981523
1858.16944071211
1858.16903379003
1858.16884179632
1858.16874911028
1858.16870308434
1858.16867968983
1858.16866765364
1858.16866146521
1858.16865832255
1858.16865676296
1858.1686560154
1858.16865567526
1858.16865553301
1858.16865548334
1858.1686554737
1858.16865547792
1858.16865548558
1858.16865549326
1858.16865549942
1858.168655503
1858.16865550464
1858.16865550394
1858.16865550003
1858.1686554938
1858.16865548695
1858.16865548387
1858.16865549684
1858.1686555539
1858.16865570943
1858.16865607198
1858.16865685798
1858.16865848427
1858.16866173891
1858.16866809661
1858.16868032458
1858.16870373349
1858.16874895469
1858.16883844761
1858.16902198978
1858.1694125003
1858.17026337654
1858.17211864848
1858.17606219453
1858.18398733971
1858.19916357813
1858.16190982473
1858.15646036861
1858.15354547433
1858.15204899549
1858.15132420184
1858.15098490625
1858.15082821285
1858.15075530656
1858.15072055219
1858.15070345712
1858.15069481469
1858.15069037488
1858.1506880886
1858.15068692328
1858.15068634189
1858.15068606123
1858.15068593224
1858.15068587736
1858.15068585728
1858.15068585238
1858.150685853
1858.15068585514
1858.15068585745
1858.15068585933
1858.15068586039
1858.15068586086
1858.15068586058
1858.15068585926
1858.15068585722
1858.15068585516
1858.15068585482
1858.15068586092
1858.15068588402
1858.15068594481
1858.15068608441
1858.150686384
1858.15068699897
1858.15068822129
1858.15069059483
1858.15069513854
1858.15070381423
1858.15072058546
1858.15075394698
1858.15082304898
1858.15097208801
1858.15130192057
1858.15203276389
1858.15361115046
1858.15683256672
1858.16309690405
1858.14830348181
1858.14613599955
1858.14498813999
1858.14440498913
1858.14412568279
1858.14399649923
1858.14393761068
1858.14391057534
1858.14389784442
1858.14389163951
1858.1438885179
1858.14388691514
1858.14388608716
1858.14388566238
1858.14388544827
1858.14388534323
1858.14388529359
1858.14388527131
1858.14388526205
1858.14388525859
1858.14388525744
1858.14388525715
1858.14388525716
1858.14388525723
1858.14388525723
1858.14388525719
1858.14388525708
1858.14388525683
1858.14388525655
1858.1438852565
1858.14388525739
1858.14388526098
1858.14388527119
1858.14388529572
1858.14388534981
1858.14388546328
1858.14388569278
1858.14388614409
1858.14388701325
1858.14388866668
1858.14389181167
1858.14389788954
1858.14391003233
1858.14393541727
1858.14399088476
1858.14411548693
1858.14439587357
1858.14501067917
1858.14628405878
1858.14879635771
1858.14307323852
1858.14223431589
1858.14179405866
1858.14157254842
1858.14146754181
1858.14141951615
1858.14139788847
1858.14138808376
1858.14138351953
1858.1413813133
1858.14138020715
1858.14137963806
1858.14137934182
1858.1413791877
1858.14137910818
1858.14137906761
1858.14137904709
1858.14137903669
1858.14137903126
1858.14137902822
1858.14137902631
1858.141379025
1858.14137902406
1858.14137902339
1858.14137902294
1858.1413790227
1858.14137902269
1858.14137902287
1858.14137902329
1858.14137902405
1858.14137902545
1858.14137902814
1858.14137903355
1858.14137904451
1858.14137906654
1858.14137911039
1858.14137919628
1858.14137936176
1858.14137967595
1858.14138026772
1858.14138138626
1858.14138354347
1858.1413878665
1858.14139697904
1858.14141713561
1858.14146306493
1858.14156795264
1858.1418012982
1858.14229144596
1858.14327186597
1858.14111210894
1858.14079569616
1858.1406310465
1858.14054895417
1858.14051040856
1858.14049296011
1858.14048518912
1858.14048170584
1858.14048010016
1858.14047932842
1858.14047894114
1858.14047874004
1858.14047863328
1858.14047857583
1858.14047854453
1858.14047852711
1858.14047851705
1858.14047851088
1858.1404785068
1858.14047850388
1858.14047850166
1858.14047849994
1858.14047849863
1858.14047849767
1858.14047849704
1858.14047849673
1858.14047849676
1858.14047849711
1858.1404784978
1858.14047849888
1858.14047850048
1858.14047850285
1858.1404785065
1858.14047851247
1858.14047852273
1858.14047854109
1858.14047857464
1858.14047863643
1858.14047875034
1858.14047896074
1858.14047935352
1858.14048010639
1858.14048161565
1858.14048481759
1858.14049197816
1858.14050851263
1858.14054680386
1858.14063318319
1858.14081711244
1858.1411899309
1858.14039397373
1858.14027753763
1858.14021745349
1858.14018776379
1858.14017394825
1858.14016775153
1858.14016501723
1858.14016380202
1858.14016324484
1858.14016297656
1858.14016284014
1858.14016276722
1858.14016272653
1858.14016270289
1858.14016268851
1858.14016267924
1858.14016267287
1858.1401626682
1858.14016266459
1858.14016266171
1858.14016265938
1858.14016265751
1858.14016265606
1858.140162655
1858.1401626543
1858.14016265397
1858.14016265402
1858.14016265442
1858.14016265522
1858.14016265642
1858.14016265809
1858.14016266034
1858.14016266335
1858.14016266752
1858.14016267354
1858.14016268275
1858.1401626976
1858.14016272255
1858.14016276567
1858.14016284195
1858.14016298033
1858.14016324118
1858.14016376061
1858.14016486477
1858.14016735429
1858.14017316969
1858.14018681348
1858.14021801003
1858.14028534865
1858.14042366155
1858.14013687629
1858.14009502933
1858.14007364079
1858.14006317868
1858.14005835376
1858.14005620554
1858.14005526265
1858.14005484415
1858.14005465086
1858.14005455564
1858.14005450496
1858.14005447577
1858.14005445766
1858.14005444562
1858.14005443707
1858.14005443063
1858.14005442556
1858.14005442142
1858.14005441799
1858.14005441514
1858.14005441278
1858.14005441087
1858.14005440937
1858.14005440828
1858.14005440757
1858.14005440723
1858.14005440728
1858.14005440771
1858.14005440854
1858.14005440979
1858.14005441148
1858.14005441367
1858.14005441645
1858.14005441996
1858.14005442447
1858.14005443045
1858.14005443874
1858.14005445084
1858.14005446945
1858.14005449949
1858.14005455054
1858.1400546426
1858.14005482127
1858.14005519716
1858.14005604529
1858.14005804133
1858.14006277748
1858.14007375503
1858.14009780512
1858.14014791855
1858.14004679747
1858.14003210041
1858.14002469611
1858.14002112879
1858.14001950063
1858.14001877814
1858.14001845924
1858.14001831493
1858.14001824539
1858.14001820847
1858.14001818649
1858.14001817193
1858.1400181614
1858.14001815328
1858.14001814672
1858.14001814127
1858.14001813666
1858.14001813273
1858.14001812939
1858.14001812657
1858.14001812421
1858.1400181223
1858.14001812081
1858.14001811971
1858.140018119
1858.14001811867
1858.14001811873
1858.14001811917
1858.14001812
1858.14001812125
1858.14001812294
1858.1400181251
1858.14001812778
1858.14001813105
1858.14001813501
1858.14001813986
1858.14001814588
1858.14001815358
1858.14001816384
1858.14001817827
1858.14001819993
1858.14001823529
1858.14001829911
1858.14001842752
1858.14001871128
1858.1400193763
1858.14002096553
1858.14002470566
1858.14003306318
1858.14005080676
1858.14001588135
1858.14001084022
1858.14000837674
1858.14000722801
1858.14000671243
1858.14000648163
1858.14000637563
1858.14000632375
1858.14000629542
1858.1400062777
1858.14000626513
1858.14000625536
1858.14000624734
1858.14000624053
1858.14000623467
1858.14000622958
1858.14000622517
1858.14000622135
1858.14000621806
1858.14000621528
1858.14000621295
1858.14000621106
1858.14000620958
1858.1400062085
1858.1400062078
1858.14000620748
1858.14000620754
1858.14000620797
1858.14000620881
1858.14000621005
1858.14000621172
1858.14000621385
1858.14000621647
1858.14000621963
1858.14000622339
1858.14000622782
1858.14000623305
1858.14000623926
1858.14000624673
1858.14000625599
1858.14000626799
1858.14000628472
1858.14000631068
1858.14000635683
1858.14000645069
1858.14000666178
1858.14000716335
1858.14000837007
1858.14001116711
1858.14001730387
1858.14000547904
1858.14000379725
1858.140003042
1858.14000272373
1858.14000258723
1858.14000252239
1858.14000248744
1858.14000246596
1858.14000245099
1858.14000243941
1858.14000242984
1858.14000242161
1858.1400024144
1858.14000240805
1858.14000240246
1858.14000239753
1858.14000239322
1858.14000238948
1858.14000238625
1858.14000238351
1858.14000238123
1858.14000237937
1858.14000237792
1858.14000237685
1858.14000237617
1858.14000237586
1858.14000237592
1858.14000237635
1858.14000237718
1858.1400023784
1858.14000238005
1858.14000238215
1858.14000238472
1858.14000238782
1858.14000239147
1858.14000239574
1858.14000240068
1858.14000240637
1858.14000241292
1858.14000242052
1858.14000242944
1858.14000244024
1858.14000245408
1858.14000247358
1858.14000250504
1858.14000256474
1858.14000269847
1858.1400030374
1858.14000390669
1858.14000597264
1858.14000204616
1858.14000150886
1858.14000133191
1858.14000129267
1858.14000128237
1858.14000127211
1858.14000126014
1858.14000124828
1858.14000123742
1858.14000122769
1858.14000121901
1858.14000121125
1858.14000120432
1858.14000119816
1858.14000119269
1858.14000118787
1858.14000118364
1858.14000117997
1858.14000117681
1858.14000117413
1858.14000117189
1858.14000117007
1858.14000116865
1858.14000116761
1858.14000116695
1858.14000116664
1858.1400011667
1858.14000116713
1858.14000116795
1858.14000116915
1858.14000117077
1858.14000117283
1858.14000117536
1858.1400011784
1858.14000118198
1858.14000118616
1858.14000119096
1858.14000119647
1858.14000120272
1858.1400012098
1858.1400012178
1858.14000122683
1858.14000123701
1858.14000124826
1858.14000125991
1858.14000127048
1858.14000128272
1858.14000133083
1858.1400015458
1858.14000221373
1858.14000093569
1858.14000078064
1858.14000079528
1858.14000084742
1858.14000087779
1858.14000088469
1858.14000087966
1858.14000087054
1858.14000086076
1858.14000085149
1858.14000084302
1858.1400008354
1858.14000082858
1858.14000082251
1858.14000081713
1858.1400008124
1858.14000080826
1858.14000080467
1858.14000080158
1858.14000079896
1858.14000079678
1858.14000079501
1858.14000079362
1858.14000079262
1858.14000079197
1858.14000079168
1858.14000079174
1858.14000079217
1858.14000079296
1858.14000079414
1858.14000079573
1858.14000079775
1858.14000080023
1858.1400008032
1858.14000080672
1858.14000081082
1858.14000081555
1858.14000082096
1858.14000082711
1858.14000083405
1858.14000084183
1858.14000085045
1858.1400008597
1858.14000086869
1858.14000087452
1858.14000086992
1858.14000084337
1858.14000079647
1858.14000079405
1858.14000099137
1858.14000058521
1858.14000055546
1858.14000063192
1858.14000071273
1858.14000075525
1858.14000076689
1858.14000076351
1858.14000075487
1858.14000074517
1858.14000073589
1858.14000072743
1858.14000071984
1858.14000071308
1858.14000070709
1858.1400007018
1858.14000069717
1858.14000069312
1858.14000068961
1858.14000068661
1858.14000068406
1858.14000068194
1858.14000068023
1858.14000067889
1858.14000067791
1858.14000067729
1858.14000067701
1858.14000067708
1858.14000067749
1858.14000067827
1858.14000067942
1858.14000068097
1858.14000068294
1858.14000068536
1858.14000068827
1858.14000069172
1858.14000069574
1858.1400007004
1858.14000070575
1858.14000071184
1858.14000071876
1858.14000072654
1858.14000073518
1858.14000074441
1858.14000075309
1858.14000075766
1858.14000074903
1858.14000071101
1858.14000063435
1858.14000056151
1858.14000060337
1858.14000047953
1858.14000049013
1858.14000058557
1858.14000067431
1858.14000071955
1858.14000073178
1858.14000072827
1858.14000071935
1858.14000070941
1858.14000069998
1858.14000069146
1858.14000068387
1858.14000067717
1858.14000067126
1858.14000066607
1858.14000066154
1858.1400006576
1858.1400006542
1858.14000065128
1858.14000064882
1858.14000064677
1858.14000064511
1858.14000064382
1858.14000064288
1858.14000064228
1858.14000064202
1858.14000064209
1858.14000064249
1858.14000064325
1858.14000064437
1858.14000064587
1858.14000064779
1858.14000065015
1858.14000065298
1858.14000065635
1858.14000066029
1858.14000066487
1858.14000067015
1858.14000067621
1858.14000068313
1858.14000069098
1858.14000069978
1858.14000070927
1858.14000071829
1858.14000072312
1858.14000071413
1858.14000067364
1858.1400005887
1858.14000049404
1858.14000048544
1858.14000045196
1858.14000047532
1858.1400005757
1858.14000066543
1858.14000071016
1858.14000072153
1858.14000071726
1858.14000070778
1858.14000069749
1858.14000068787
1858.14000067927
1858.1400006717
1858.14000066506
1858.14000065925
1858.14000065418
1858.14000064976
1858.14000064594
1858.14000064265
1858.14000063983
1858.14000063746
1858.14000063549
1858.1400006339
1858.14000063266
1858.14000063176
1858.14000063119
1858.14000063094
1858.14000063101
1858.14000063141
1858.14000063214
1858.14000063322
1858.14000063468
1858.14000063653
1858.14000063882
1858.14000064157
1858.14000064484
1858.14000064869
1858.14000065318
1858.14000065838
1858.1400006644
1858.14000067132
1858.14000067926
1858.14000068826
1858.14000069811
1858.1400007077
1858.14000071334
1858.14000070527
1858.14000066537
1858.14000057928
1858.14000047873
1858.14000045404
1858.14000044967
1858.14000047692
1858.14000057748
1858.1400006657
1858.14000070865
1858.14000071856
1858.14000071326
1858.14000070311
1858.14000069242
1858.14000068261
1858.14000067395
1858.14000066641
1858.14000065985
1858.14000065416
1858.14000064922
1858.14000064495
1858.14000064125
1858.14000063808
1858.14000063538
1858.14000063311
1858.14000063122
1858.1400006297
1858.14000062852
1858.14000062767
1858.14000062713
1858.14000062689
1858.14000062696
1858.14000062735
1858.14000062806
1858.1400006291
1858.1400006305
1858.14000063229
1858.14000063449
1858.14000063715
1858.14000064032