/*--------------------------------*- C++ -*----------------------------------*\
  =========                 |
  \\      /  F ield         | OpenFOAM: The Open Source CFD Toolbox
   \\    /   O peration     | Website:  https://openfoam.org
    \\  /    A nd           | Version:  10
     \\/     M anipulation  |
\*---------------------------------------------------------------------------*/
FoamFile
{
    format      ascii;
    class       volScalarField;
    location    "9.2";
    object      k;
}
// * * * * * * * * * * * * * * * * * * * * * * * * * * * * * * * * * * * * * //

dimensions      [0 2 -2 0 0 0 0];

internalField   nonuniform List<scalar> 
2500
(
5.65157599974898e-10
1.11436948105335e-08
4.7867931608365e-08
8.38164067639603e-08
1.15998407331186e-07
1.43301372185357e-07
1.65305005364019e-07
1.82162068235776e-07
1.94448000593257e-07
2.02974519830367e-07
2.08615161900551e-07
2.12176219945258e-07
2.14324330225013e-07
2.15564025549023e-07
2.16249382636111e-07
2.16612813442724e-07
2.16797897895686e-07
2.16888525685638e-07
2.16931234677166e-07
2.1695061720351e-07
2.16959086989873e-07
2.16962644714062e-07
2.16964072434385e-07
2.16964605994322e-07
2.16964762463885e-07
2.1696471794117e-07
2.16964450790964e-07
2.16963733495295e-07
2.16961957925933e-07
2.16957722745552e-07
2.16947954424143e-07
2.16926171385099e-07
2.16879232606721e-07
2.16781568772317e-07
2.16585546304967e-07
2.16206447336062e-07
2.15500880170506e-07
2.14238768825613e-07
2.1207182498298e-07
2.08505685877463e-07
2.02887929731481e-07
1.94427947180144e-07
1.8226401151344e-07
1.65584747997728e-07
1.43795571169428e-07
1.16699035120763e-07
8.46417631774767e-08
4.86247362065738e-08
1.14386156160027e-08
5.88384470578315e-10
1.39802475133636e-08
3.21288965432714e-07
1.40855229970322e-06
2.4675459193364e-06
3.41627002787592e-06
4.22234827500893e-06
4.87322116193944e-06
5.37301821057047e-06
5.73826980074506e-06
5.99252858268995e-06
6.1612949690715e-06
6.26822694820544e-06
6.33297985772188e-06
6.37050139014381e-06
6.39133290619804e-06
6.40242791340438e-06
6.4081037702137e-06
6.41089583248465e-06
6.41221781318073e-06
6.41282065301786e-06
6.41308540252561e-06
6.41319720451062e-06
6.41324234005893e-06
6.41325933208207e-06
6.41326437525346e-06
6.4132630123111e-06
6.41325457785823e-06
6.41323194896684e-06
6.41317615557823e-06
6.41304366675563e-06
6.41273944373859e-06
6.41206400641983e-06
6.41061481993126e-06
6.40761237910851e-06
6.40161151298224e-06
6.39005413631867e-06
6.36863103092566e-06
6.33046054906268e-06
6.26517405715142e-06
6.15812269019898e-06
5.9900638117451e-06
5.73778903726772e-06
5.37612881492647e-06
4.88152466323555e-06
4.23687601920737e-06
3.43674920838119e-06
2.49157017851173e-06
1.43050172456034e-06
3.29638975992312e-07
1.45348278380681e-08
4.95209813662201e-08
1.44112369340256e-06
7.15858525267336e-06
1.25263432555294e-05
1.73100482835551e-05
2.13629503397655e-05
2.46296929195943e-05
2.71361912443273e-05
2.89681314188233e-05
3.02445163354261e-05
3.10930382597221e-05
3.16317864368897e-05
3.19588403162305e-05
3.21488881236056e-05
3.22547244428252e-05
3.23112779110052e-05
3.23403081834147e-05
3.2354639737278e-05
3.23614505711971e-05
3.2364568388455e-05
3.23659432124015e-05
3.23665263577181e-05
3.23667629742828e-05
3.23668526291488e-05
3.23668795624162e-05
3.23668727550475e-05
3.23668289224812e-05
3.23667112462868e-05
3.23664218268355e-05
3.23657365827379e-05
3.23641677168619e-05
3.23606944870266e-05
3.23532634767581e-05
3.23379106032745e-05
3.23073093868938e-05
3.22485312355654e-05
3.2139862702832e-05
3.19467269910354e-05
3.16171601934622e-05
3.10778978598542e-05
3.0232813984118e-05
2.89659365706103e-05
2.71511238134283e-05
2.46693351944894e-05
2.14321802810662e-05
1.74075355017683e-05
1.26405282042814e-05
7.26248057016471e-06
1.47545956066465e-06
5.12026966128489e-08
8.75287319962487e-08
2.56500605557252e-06
1.27978363858092e-05
2.23336403300178e-05
3.07906282905361e-05
3.79282264518596e-05
4.36641757041786e-05
4.80556065342817e-05
5.12604581293336e-05
5.34914687110019e-05
5.49740669602344e-05
5.59154320974902e-05
5.64870894923027e-05
5.68194620590439e-05
5.70046965454353e-05
5.71037648647563e-05
5.71546708743769e-05
5.71798304042089e-05
5.71918019171608e-05
5.71972896350455e-05
5.71997131572886e-05
5.72007429146311e-05
5.72011616536121e-05
5.7201320834514e-05
5.72013691149434e-05
5.72013578911345e-05
5.720128200911e-05
5.72010774972886e-05
5.72005739760007e-05
5.71993810297993e-05
5.71966482057984e-05
5.71905949518116e-05
5.71776377907975e-05
5.71508564244962e-05
5.7097456967404e-05
5.69948574605916e-05
5.68051231079984e-05
5.64678286814792e-05
5.58921210850962e-05
5.49497944293776e-05
5.3472363394859e-05
5.12559425319578e-05
4.80775152420486e-05
4.37242792200628e-05
3.80340455445861e-05
3.09398731728203e-05
2.25077928974978e-05
1.29543403075517e-05
2.61541330147224e-06
8.99489559416873e-08
1.25021445605673e-07
3.66563655582105e-06
1.82630073957505e-05
3.17894477411142e-05
4.3735916942795e-05
5.37850966843675e-05
6.18401111849654e-05
6.7995424358028e-05
7.24818522114538e-05
7.56026659761173e-05
7.76758905242235e-05
7.89922747137446e-05
7.97918791012452e-05
8.025700193234e-05
8.05163828184382e-05
8.06552127525745e-05
8.07266132130093e-05
8.07619369342566e-05
8.07787634527527e-05
8.07864862416141e-05
8.07899016194139e-05
8.07913552196701e-05
8.07919475567374e-05
8.07921734586919e-05
8.07922425970382e-05
8.0792227884698e-05
8.07921229239183e-05
8.0791838816391e-05
8.07911385212455e-05
8.07894781619957e-05
8.0785672047669e-05
8.07772361140673e-05
8.07591681470767e-05
8.07218032229587e-05
8.0647265690002e-05
8.05039922115601e-05
8.02389419670247e-05
7.97675956595743e-05
7.89628080514884e-05
7.76450130267767e-05
7.55778925156471e-05
7.24747459610431e-05
6.80205027131708e-05
6.19117842156614e-05
5.39124832116543e-05
4.39159381068945e-05
3.19989283293306e-05
1.84497798713113e-05
3.7255650269023e-06
1.27919847429745e-07
1.61157256524014e-07
4.72562545786657e-06
2.34929935484812e-05
4.07957081634923e-05
5.60208678602078e-05
6.87902698769971e-05
7.90026361089557e-05
8.67938090376785e-05
9.24664169824397e-05
9.64098782543384e-05
9.90289326115352e-05
0.000100691949733299
0.00010170237718791
0.000102290397807468
0.000102618509625766
0.000102794253556261
0.000102884714340516
0.000102929509899955
0.000102950870892423
0.000102960686515358
0.000102965033382372
0.000102966886468557
0.00010296764320932
0.000102967932761467
0.000102968022141027
0.000102968004789612
0.000102967873565377
0.000102967516801089
0.000102966636497553
0.000102964548039852
0.000102959757782409
0.000102949134525866
0.000102926369462153
0.000102879267376836
0.00010278526353712
0.000102604500908635
0.000102269979697117
0.000101674900617928
0.000100658529972284
9.89937061233824e-05
9.6381112485534e-05
9.2456835291608e-05
8.68193663873941e-05
7.90791238115899e-05
6.89275819827543e-05
5.62153893676041e-05
4.10217619224909e-05
2.36939152127052e-05
4.79063909583732e-06
1.64357133277223e-07
1.95464010811613e-07
5.73219743475861e-06
2.84361251235027e-05
4.92715169741414e-05
6.75443119053382e-05
8.28296813970652e-05
9.50300662257412e-05
0.000104324844513552
0.000111085981023587
0.000115783742220081
0.000118903179365789
0.000120884065284439
0.000122087958048549
0.000122788874248031
0.000123180205588581
0.000123389955889494
0.000123498006739663
0.000123551560977017
0.000123577124481896
0.000123588884720421
0.000123594099732296
0.000123596326541451
0.000123597237865895
0.00012359758773962
0.000123597696636543
0.000123597677414596
0.000123597522598673
0.000123597099887072
0.000123596055916049
0.000123593577912279
0.000123587891381927
0.000123575274230337
0.000123548223343448
0.000123492228561233
0.000123380431841388
0.000123165377572014
0.000122767269834749
0.000122058874436176
0.000120848630859002
0.000118865652288236
0.000115752647660711
0.000111074426880929
0.000104349231363911
9.51065621186791e-05
8.29683089878732e-05
6.77411660962681e-05
4.95002171739417e-05
2.86395002307982e-05
5.7991320828583e-06
1.98835927573255e-07
2.27596336710575e-07
6.67550670893584e-06
3.30508527231554e-05
5.71536630736109e-05
7.82292377549847e-05
9.58184505777836e-05
0.000109833561647448
0.000120497991479756
0.000128249433121543
0.00013363303855298
0.000137207439206935
0.000139477464513834
0.000140857474768171
0.000141661273987202
0.00014211029446622
0.000142351124477561
0.000142475279999469
0.000142536869285404
0.000142566296790734
0.000142579849641409
0.000142585867409141
0.000142588441137551
0.000142589496724845
0.000142589903374091
0.000142590030974808
0.000142590010549811
0.000142589834656794
0.000142589352460128
0.000142588160674258
0.000142585330704245
0.00014257883389457
0.000142564412802737
0.000142533481234901
0.000142469427949159
0.00014234149556181
0.000142095323315262
0.000141639481605921
0.000140828149990086
0.000139441716457941
0.000137169476492728
0.000133601276530688
0.000128236776403391
0.000120520526193167
0.000109907057395552
9.5952556783851e-05
7.84199444141943e-05
5.73752383390259e-05
3.32484913877449e-05
6.7421055138222e-06
2.31043353372738e-07
2.57301152196169e-07
7.54820326612266e-06
3.73063903443857e-05
6.43972494838417e-05
8.80231456244742e-05
0.000107700913281245
0.000123356873728766
0.000135257620108959
0.000143902111726939
0.000149903993145131
0.000153888593135743
0.000156419448218735
0.000157958467696275
0.000158855259650454
0.000159356493933002
0.000159625497805394
0.000159764278124483
0.000159833178658293
0.00015986613002796
0.000159881321954052
0.000159888076018454
0.000159890969213049
0.000159892158378655
0.000159892618063044
0.000159892763456598
0.00015989274241703
0.000159892547799194
0.000159892012304625
0.000159890687975139
0.000159887542374287
0.000159880318686791
0.00015986427839071
0.000159829861138483
0.000159758564492064
0.000159616119091363
0.000159341941980965
0.000158834116531758
0.000157930062669605
0.000156384865058583
0.000153851883569681
0.000149873209737143
0.000143889537128232
0.000135278474410145
0.000123425956623965
0.000107827118274856
8.8202457961108e-05
6.46054871527066e-05
3.7492989519662e-05
7.61292462208845e-06
2.60752155633328e-07
2.84409417615763e-07
8.34532528628354e-06
4.11829170582622e-05
7.09756385203907e-05
9.68975774648568e-05
0.000118449748528304
0.000135575145905484
0.000148581576113182
0.000158024214428873
0.000164578587761658
0.000168929845640965
0.000171693990942319
0.000173375360996209
0.000174355499755726
0.000174903596127788
0.000175197925985445
0.000175349876153773
0.000175425373717334
0.000175461511901109
0.000175478190010292
0.000175485613799326
0.000175488798751683
0.000175490110592016
0.000175490619403912
0.00017549078159653
0.000175490760460471
0.000175490549306953
0.000175489966402055
0.000175488524127703
0.000175485097723287
0.000175477227279841
0.000175459745632435
0.000175422223740739
0.000175344471540758
0.000175189083980448
0.000174889920197874
0.000174335693205227
0.000173348844309415
0.000171661838507087
0.000168895899972663
0.000164550385255541
0.000158013144612748
0.00014860162317902
0.000135639744291841
0.000118566751046026
9.70629771239213e-05
7.11672976339241e-05
4.13555509913875e-05
8.40721590948655e-06
2.8781507095751e-07
3.08832300785256e-07
9.06421684257702e-06
4.4671279334428e-05
7.68796386741998e-05
0.000104846745596325
0.000128064127077885
0.000146492697824041
0.000160478709900646
0.000170628158687187
0.00017767181414883
0.000182347913602012
0.000185318891263535
0.00018712659082103
0.000188180784677758
0.000188770577139932
0.000189087476953788
0.000189251184766369
0.000189332583750483
0.000189371579183304
0.000189389593285686
0.000189397621034435
0.000189401070169613
0.000189402493714532
0.000189403047635117
0.000189403225547963
0.000189403204735456
0.00018940297910917
0.000189402354360614
0.000189400807983322
0.000189397133850967
0.000189388692863872
0.000189369939315204
0.0001893296764102
0.000189246221588897
0.000189079395246727
0.000188758136843021
0.000188162862857155
0.000187102750153744
0.00018529022975007
0.000182318057312764
0.00017764771303085
0.000170620162033739
0.000160499349362659
0.000146553795346138
0.000128172290780847
0.000104997912276786
7.70538714800065e-05
4.48289394511149e-05
9.1228080810837e-06
3.12161803121362e-07
3.30555761161695e-07
9.70438262016257e-06
4.77722346022192e-05
8.2116015030797e-05
0.000111885367577801
0.000136567002832067
0.000156139916698813
0.000170985491098715
0.000181755013241871
0.000189227988537243
0.000194189268443269
0.000197341970538439
0.000199260778849091
0.000200380186065246
0.000201006748820028
0.00020134358435164
0.0002015176962218
0.000201604327741025
0.000201645862339047
0.000201665066840694
0.000201673634452462
0.00020167732070323
0.000201678845071157
0.000201679440038931
0.000201679632515976
0.000201679612365375
0.000201679374189016
0.000201678712820901
0.000201677075349954
0.000201673184598674
0.000201664244817946
0.000201644379086494
0.000201601718344876
0.000201513272368556
0.000201336429436669
0.00020099581501393
0.000200364568810761
0.000199240232110048
0.000197317660661569
0.000194164632532138
0.000189209385915348
0.000181751705963386
0.000171008466196843
0.000156199257405176
0.000136667935623076
0.000112023650998678
8.22738084437054e-05
4.79153997901732e-05
9.75959477822726e-06
3.33793785214317e-07
3.49632541643346e-07
1.02672635685668e-05
5.04953134062943e-05
8.67054538082734e-05
0.000118045867711222
0.000144001722333964
0.000164569436745468
0.000180161890321536
0.000191470181435893
0.000199316306807536
0.000204525610991849
0.000207836498979461
0.000209852129712748
0.000211028438039061
0.000211687131130836
0.000212041415244511
0.000212224649756132
0.000212315878650088
0.000212359649300063
0.000212379904879645
0.000212388950702209
0.000212392847855502
0.000212394462403
0.00021239509438016
0.000212395300215923
0.00021239528098488
0.000212395032032424
0.000212394338906928
0.00021239262245492
0.00021238854404922
0.000212379172308707
0.000212358343290176
0.000212313604948138
0.000212220832385941
0.000212035302547776
0.000211677894665496
0.000211015428074149
0.000209835336721978
0.000207817208905439
0.000204507123976242
0.000199304436862813
0.00019147313322142
0.000180189111221249
0.00016462924075472
0.000144097873146614
0.0001181737864615
8.68491057675457e-05
5.0625549385578e-05
1.03193144516366e-05
3.52776188877809e-07
3.66171885684106e-07
1.07559450816206e-05
5.28573983505274e-05
9.06801355097593e-05
0.000123375132832033
0.000150428158844184
0.000171851823599611
0.000188086750915352
0.000199858562563921
0.000208025868465496
0.00021344880843117
0.000216896079220609
0.000218995282915872
0.000220220771023184
0.000220907276030859
0.000221276688747752
0.000221467847540219
0.000221563078078674
0.000221608799525751
0.000221629974547404
0.000221639440041566
0.000221643523044873
0.000221645217504159
0.000221645882538475
0.000221646100504588
0.00022164608237687
0.000221645824270101
0.000221645103871281
0.000221643319606283
0.000221639080234396
0.000221629338116444
0.000221607683074614
0.000221561162566816
0.000221464677007457
0.000221271688874365
0.000220899856880759
0.0002202105658651
0.000218982558341562
0.00021688229376297
0.000213437192362101
0.000208021769824314
0.000199869213690036
0.000188120136132379
0.000171914529799154
0.000150522452094254
0.000123495920765443
9.08127817604366e-05
5.29769928764764e-05
1.08052637408735e-05
3.69227697102176e-07
3.80327728314829e-07
1.11748196922276e-05
5.48811285131218e-05
9.40810824277745e-05
0.000127931023741822
0.000155918594772655
0.000178071002042169
0.000194852898725987
0.000207019445871257
0.000215460428462451
0.00022106555526331
0.000224629251091099
0.000226799884054838
0.00022806746365559
0.000228777808687863
0.000229160211541818
0.000229358187277584
0.00022945686743184
0.000229504274491939
0.000229526246113498
0.0002295360763918
0.00022954032160814
0.000229542086205329
0.000229542780483989
0.000229543009353972
0.000229542992448757
0.000229542726656062
0.000229541983080419
0.000229540141196544
0.000229535765191934
0.000229525708824923
0.000229503352894793
0.000229455319689799
0.0002293556811378
0.000229156356704131
0.000228772265482607
0.000228060168363789
0.000226791412059265
0.000224621284217903
0.000221061327839922
0.000215464922215729
0.000207039041872725
0.000194894243800904
0.000178139050317263
0.000156014117720689
0.00012804823989471
9.42062873436925e-05
5.49927715818978e-05
1.12219680416941e-05
3.83308864282162e-07
3.92286205851448e-07
1.15292285873173e-05
5.65932358015815e-05
9.69554402608136e-05
0.000131778836496443
0.000160553569546399
0.000183319659904593
0.000200562233908592
0.000213061389062705
0.000221733134100846
0.000227492019083599
0.000231154080665835
0.000233385139791304
0.000234688378032556
0.000235418951729069
0.000235812396227475
0.000236016177519778
0.000236117801727284
0.000236166650783608
0.000236189305740389
0.000236199449965708
0.000236203835372213
0.000236205660925001
0.000236206380821834
0.000236206619394339
0.00023620660377719
0.000236206331616304
0.000236205568571478
0.000236203678282103
0.000236199187602417
0.000236188867600412
0.000236165923619805
0.00023611662078136
0.000236014334592355
0.000235809686821808
0.000235415291659502
0.000234684018841974
0.000233380990604645
0.000231152091911443
0.000227495503143558
0.000221746814850576
0.000213090936931285
0.000200613113321104
0.000183395321067688
0.000160653322528456
0.000131896049178267
9.70768616224198e-05
5.66997529510578e-05
1.15748336754994e-05
3.95209918884099e-07
4.02253278030786e-07
1.18251047631912e-05
5.80229094655427e-05
9.93538366834278e-05
0.000134987887082283
0.000164417887430689
0.000187694837589658
0.000205321024986371
0.000218097309214875
0.000226961480246595
0.000232848707941038
0.000236592972636432
0.00023887459701099
0.00024020771953837
0.000240955274239298
0.000241358004481748
0.000241566677790043
0.000241670788204133
0.000241720857974215
0.000241744093024763
0.00024175450465867
0.000241759009980934
0.00024176088796983
0.000241761630081949
0.000241761877200896
0.000241761862894032
0.000241761585537281
0.000241760806348279
0.000241758875901107
0.000241754290165754
0.000241743751709764
0.000241720320377971
0.000241669964846899
0.000241565482186249
0.000241356415692661
0.000240953463189597
0.000240206258216496
0.000238874745312702
0.000236596987437456
0.000232860048648173
0.000226984721024848
0.000218137556746073
0.000205382729900822
0.000187780094612109
0.000164524601354568
0.000135108436922954
9.94749692922038e-05
5.81270531447279e-05
1.18698037814418e-05
4.05138779803538e-07
4.10443118011454e-07
1.20686367539687e-05
5.92002668194132e-05
0.000101327931437884
0.000137628358220023
0.000167596940800237
0.000191293870815348
0.000209235581630356
0.000222239968961081
0.000231262670188706
0.00023725574962907
0.000241067898281295
0.000243391339638252
0.000244749215433402
0.000245510860080235
0.000245921309806501
0.000246134058420809
0.000246240244695096
0.000246291336288027
0.00024631505832821
0.000246325695230638
0.00024633030201321
0.000246332224626805
0.000246332985801611
0.000246333240372398
0.000246333227365019
0.000246332945847329
0.000246332153471287
0.00024633019018631
0.000246325526770635
0.000246314809825845
0.000246290980173075
0.000246239763731859
0.000246133483474141
0.000245920798125524
0.000245510832804338
0.000244750564091523
0.00024339568437385
0.000241077831762042
0.000237274938798887
0.000231295640633979
0.000222291406598405
0.000209309092775295
0.000191390350547945
0.000167712960896488
0.000137755199061537
0.000101451928935797
5.93045666315166e-05
1.21130357389299e-05
4.13309900414989e-07
4.17067752234904e-07
1.22659670071052e-05
6.01549875280688e-05
0.000102928240961914
0.000139768508202995
0.000170173460607782
0.00019421080702002
0.000212408433059961
0.000225597989574944
0.000234749517117133
0.000240828720149793
0.000244696177757285
0.00024705374275324
0.000248431852401249
0.000249205036050285
0.000249621820565101
0.000249837920896274
0.000249945818602842
0.000249997754907736
0.000250021880769296
0.000250032705153986
0.000250037396767165
0.000250039356919926
0.000250040134270732
0.000250040395271994
0.000250040383529525
0.000250040098758668
0.000250039295807329
0.000250037306135831
0.000250032580317797
0.000250021719974862
0.000249997570114441
0.000249945660970622
0.000249837932903736
0.000249622330071727
0.000249206706142935
0.00024843588836286
0.000247062127774092
0.000244711861048607
0.000240855626377217
0.000234792213006204
0.000225660872106035
0.000212494425152234
0.000194319757702721
0.000170300690635156
0.000139904119381421
0.000103057809953904
6.02616559681957e-05
1.23106130070859e-05
4.19934376412637e-07
4.22328240991407e-07
1.24229335832406e-05
6.091514593294e-05
0.000104202285980691
0.000141472299064523
0.000172224757564459
0.000196533363632116
0.000214935083879161
0.000228272465500448
0.000237526962760005
0.000243675099283898
0.000247586895573014
0.000249971863463559
0.000251366252870319
0.00025214873991475
0.000252570643459964
0.000252789458920064
0.000252898746737512
0.000252951371205373
0.000252975827165259
0.000252986805421723
0.000252991567008589
0.000252993558333038
0.000252994349244078
0.000252994615735765
0.000252994605208175
0.000252994317977559
0.000252993506747551
0.000252991496350311
0.000252986721503454
0.000252975748428391
0.000252951346554611
0.000252898891461486
0.000252790020622276
0.000252572111725843
0.000252152009323341
0.00025137283315239
0.000249984098242574
0.000247608103449314
0.000243709501967493
0.000237579244007412
0.000228346849390902
0.000215033955699916
0.000196655670375224
0.000172364654789491
0.000141618658239076
0.000104339642135165
6.10260325044229e-05
1.24682989469873e-05
4.25211563418975e-07
4.26407514838696e-07
1.25448588800389e-05
6.15062553555255e-05
0.000105193079622538
0.000142797463285701
0.000173820474346872
0.000198340449526635
0.000216901369640739
0.000230354203498996
0.000239689237078587
0.000245891377724827
0.000249837974108199
0.000252244493669445
0.000253651715425589
0.000254441553731359
0.000254867512939794
0.000255088485732794
0.00025519888155767
0.000255252056447414
0.000255276777478398
0.000255287879872698
0.000255292698240633
0.000255294715054383
0.00025529551717504
0.000255295788301524
0.000255295778930529
0.000255295489933433
0.000255294672442789
0.000255292646284434
0.000255287834109852
0.000255276775084398
0.000255252180674138
0.000255199307496768
0.000255089559445019
0.000254869876396854
0.000254446321522543
0.000253660690328572
0.000252260373224397
0.000249864452496498
0.000245933002661023
0.000239750870598903
0.000230439994514711
0.000217013292210949
0.000198476677697901
0.000173974082815194
0.000142956065763289
0.000105339952099576
6.16228391395664e-05
1.25913354640152e-05
4.29322283177434e-07
4.29464828291129e-07
1.26363846750442e-05
6.19505198751683e-05
0.000105937945944264
0.000143793994077486
0.000175020830285036
0.000199700228728234
0.000218381389722145
0.000231921563153282
0.000241317635318899
0.000247560791870398
0.000251533881195997
0.00025395685072421
0.00025537389532352
0.000256169378502868
0.000256598462586585
0.000256821103744064
0.000256932359891492
0.000256985964058367
0.000257010892857092
0.000257022093127217
0.00025702695659085
0.000257028993841652
0.000257029805071076
0.000257030080060287
0.000257030071785436
0.000257029781631224
0.000257028959661609
0.000257026922118503
0.000257022082908025
0.000257010961441534
0.000256986226617123
0.000256933047249133
0.000256822654081286
0.00025660166123717
0.000256175548639556
0.000255385120663499
0.00025397617389972
0.000251565373078945
0.000247609345966719
0.000241388338866709
0.000232018568416876
0.000218506364228554
0.00019985068405851
0.00017518883846627
0.000143965902901969
0.00010609561471459
6.20739289544151e-05
1.26842852011887e-05
4.32423553653076e-07
4.31631682238119e-07
1.27013496161342e-05
6.22662760580306e-05
0.000106467639276106
0.000144503020173183
0.000175875312525849
0.000200668675482825
0.000219435963357847
0.000233038842452486
0.000242478854824036
0.000248751627884225
0.00025274391293541
0.000255178846909179
0.000256603065902519
0.000257402690888031
0.000257834079184995
0.000258057957168406
0.000258169854821204
0.000258223781123677
0.000258248866950256
0.000258260141810237
0.000258265039991129
0.000258267093181797
0.000258267911643755
0.0002582681898021
0.000258268182565686
0.000258267891796994
0.00025826706693992
0.000258265021918073
0.000258260164840718
0.000258249001835236
0.000258224172845927
0.000258170786386398
0.000258059953299081
0.000257838060527678
0.000257410178773351
0.000256616413428648
0.000255201432183396
0.000252780181184641
0.000248806830549986
0.00024255833790353
0.000233146821010608
0.000219573880350354
0.000200833469504703
0.000176058121144918
0.00014468893090457
0.000106636989435556
6.23973216859617e-05
1.27509131742018e-05
4.346446809413e-07
4.33008996546719e-07
1.27427032292457e-05
6.24675984167338e-05
0.000106805721876874
0.000144956010143827
0.000176421749558479
0.000201288550080925
0.000220111533738718
0.000233755130397629
0.000243223811638042
0.000249516013875924
0.000253520969894519
0.000255963855480741
0.000257392878432189
0.000258195299404392
0.000258628256855685
0.000258852985024994
0.000258965328082108
0.000259019480480674
0.000259044677844613
0.00025905600641457
0.000259060930005064
0.000259062995101283
0.000259063819111578
0.000259064099815487
0.000259064093566483
0.000259063802677473
0.000259062976383782
0.000259060927444374
0.000259056060849156
0.000259044875300548
0.000259019994084749
0.00025896649019158
0.000258855402421602
0.000258632978947133
0.000258204037016946
0.000257408244066819
0.000255989553595787
0.000253561815750582
0.000249577622912687
0.000243311809936496
0.000233873836862901
0.000220262225763637
0.000201467660330754
0.000176619536407689
0.000145156315332116
0.000106987300051999
6.26068124108631e-05
1.27941019748091e-05
4.36084492112846e-07
4.33665291725384e-07
1.27624498592421e-05
6.25640397943529e-05
0.000106968153802511
0.000145174246135261
0.000176685694053703
0.000201588713965184
0.000220439433711081
0.000234103537302773
0.000243586846048888
0.000249889108614418
0.000253900734960242
0.000256347881623153
0.000257779528938097
0.000258583508902272
0.000259017360274312
0.000259242583748643
0.000259355192427381
0.000259409483024951
0.000259434750401359
0.000259446113700525
0.000259451054296169
0.000259453127693163
0.000259453955769204
0.000259454238479832
0.000259454233180194
0.000259453942616227
0.000259453116206201
0.000259451066630393
0.000259446198269563
0.000259435007875293
0.000259410113528785
0.000259356575707529
0.000259245405499525
0.000259022793987268
0.000258593448555851
0.000257796838805789
0.000256376584856201
0.000253946011667625
0.000249956939625478
0.000243683147470164
0.000234232755315295
0.000220602716324422
0.000201782031598604
0.00017689846564021
0.000145389086591692
0.000107162213713482
6.27117051298887e-05
1.2815794267698e-05
4.36809478305951e-07
4.33635590149793e-07
1.27616140313451e-05
6.25604723528247e-05
0.00010696304759586
0.000145168515709299
0.000176680068767872
0.000201583738504432
0.000220435464413189
0.000234100749873391
0.000243585259938999
0.000249888625859072
0.000253901186039115
0.000256349068710267
0.000257781260460174
0.000258585620217503
0.000259019722631961
0.000259245104040256
0.000259357807732739
0.000259412153297571
0.000259437451471431
0.000259448831638008
0.000259453781367599
0.000259455859711705
0.000259456690486169
0.000259456974712718
0.000259456970335189
0.000259456680525319
0.000259455855273067
0.000259453808244021
0.000259448945657869
0.000259437767634839
0.000259412898144195
0.000259359407373244
0.000259248321385064
0.000259025852628408
0.000258596736224911
0.000257800473581004
0.000256380714996533
0.000253950804436624
0.000249962557641332
0.000243689712407945
0.000234240302887049
0.000220611150329126
0.00020179108626924
0.000176907682851335
0.000145397807903093
0.000107169579468204
6.27166463129727e-05
1.28169568954135e-05
4.36852647120526e-07
4.32921045630549e-07
1.27402287758219e-05
6.24570305044384e-05
0.000106790569662909
0.00014493897570397
0.000176405000590302
0.000201273715932097
0.000220099689075223
0.00023374681252155
0.000243219089242112
0.000249514601072065
0.000253522362805599
0.00025596746322374
0.000257398126027581
0.000258201691900182
0.000258635406627402
0.00025886061144521
0.000258973241353854
0.000259027559730966
0.000259052850089356
0.000259064229578538
0.000259069180727778
0.000259071260737358
0.00025907209287355
0.000259072378137814
0.000259072374663764
0.000259072086052178
0.00025907126326698
0.000259069222046295
0.000259064372938632
0.000259053224826668
0.000259028418784029
0.00025897505711727
0.000258864223808598
0.000258642231426806
0.000258213980685142
0.000257419234478794
0.000256002036419344
0.000253576292462915
0.000249594578844901
0.000243331604405811
0.000233896567639402
0.000220287591840319
0.000201494851194816
0.000176647167701135
0.000145182410534649
0.000107009293830063
6.26215345425661e-05
1.27975599769901e-05
4.3621275925986e-07
4.31489170746136e-07
1.2697341528462e-05
6.22491273431482e-05
0.000106442954854402
0.000144475162488574
0.000175847826415776
0.000200644262474195
0.000219416434118787
0.000233025126746314
0.000242471101817459
0.00024874938804819
0.000252746363006049
0.000255185009207899
0.000256611982526842
0.000257413533747914
0.000257846197810914
0.000258070879608023
0.000258183261356556
0.000258237467891852
0.000258262710747212
0.000258274071566374
0.000258279016236537
0.000258281094553121
0.000258281926681786
0.000258282212496427
0.000258282209918082
0.000258281922989609
0.000258281104080736
0.000258279072155465
0.000258274244724553
0.000258263145124343
0.000258238443345065
0.000258185297370295
0.000258074894172588
0.000257853728976768
0.000257427012384501
0.000256635008956142
0.000255222535058805
0.00025280462576896
0.00024883541688956
0.000242591645439271
0.000233184981221118
0.00021961635026135
0.000200878854799952
0.00017610408270647
0.000144732173175932
0.000106673286922776
6.24215164400609e-05
1.27565779393702e-05
4.348545368165e-07
4.29274265756562e-07
1.26310277446061e-05
6.19275261252661e-05