/*--------------------------------*- C++ -*----------------------------------*\
  =========                 |
  \\      /  F ield         | OpenFOAM: The Open Source CFD Toolbox
   \\    /   O peration     | Website:  https://openfoam.org
    \\  /    A nd           | Version:  10
     \\/     M anipulation  |
\*---------------------------------------------------------------------------*/
FoamFile
{
    format      ascii;
    class       volScalarField;
    location    "9.2";
    object      nut;
}
// * * * * * * * * * * * * * * * * * * * * * * * * * * * * * * * * * * * * * //

dimensions      [0 2 -1 0 0 0 0];

internalField   nonuniform List<scalar> 
2500
(
4.42170363036285e-15
8.71808081421512e-14
3.74493037805305e-13
6.55744236300345e-13
9.0753193544935e-13
1.12114846233019e-12
1.2933039028236e-12
1.42519286329558e-12
1.52131740062014e-12
1.58802836282385e-12
1.63216032500374e-12
1.66002172632952e-12
1.67682832131388e-12
1.686527559128e-12
1.69188971151364e-12
1.69473315093672e-12
1.69618122822861e-12
1.69689029034403e-12
1.69722444320047e-12
1.69737609191955e-12
1.69744236060777e-12
1.69747019770887e-12
1.69748136959991e-12
1.69748554504992e-12
1.69748677023374e-12
1.69748642261997e-12
1.69748433264732e-12
1.6974787205305e-12
1.69746482829861e-12
1.69743169208587e-12
1.69735526503418e-12
1.69718483572305e-12
1.69681759165237e-12
1.69605348158273e-12
1.69451982644071e-12
1.69155380331064e-12
1.68603352991719e-12
1.67615891199793e-12
1.65920495853945e-12
1.63130379782928e-12
1.58735088743327e-12
1.5211604891654e-12
1.42599043460169e-12
1.29549254943019e-12
1.12501496153442e-12
9.13013452553603e-13
6.62201500116081e-13
3.80413853622153e-13
8.94880622607645e-14
4.60342788920495e-15
4.38578345872294e-13
2.26794037324147e-11
9.94355781100027e-11
1.74205271483518e-10
2.41194500326324e-10
2.98113660219479e-10
3.44074100586718e-10
3.79366676959124e-10
4.05158426008264e-10
4.2311246856626e-10
4.35029532200909e-10
4.42580241625611e-10
4.47152559283759e-10
4.49802004499845e-10
4.51272937434755e-10
4.5205636282037e-10
4.5245713698382e-10
4.52654285057912e-10
4.52747630477105e-10
4.52790197279725e-10
4.52808891554024e-10
4.52816786220264e-10
4.52819973541487e-10
4.52821173570686e-10
4.52821529876519e-10
4.5282143380362e-10
4.52820838331178e-10
4.52819240550255e-10
4.52815300998557e-10
4.52805945965349e-10
4.52784464777504e-10
4.52736772112966e-10
4.52634444989696e-10
4.52422442142342e-10
4.51998718760756e-10
4.51182644901455e-10
4.49669938260192e-10
4.46974667714067e-10
4.42364668431296e-10
4.34805522193476e-10
4.2293840815174e-10
4.05124448981028e-10
3.79586281252484e-10
3.44660368136232e-10
2.99139396507978e-10
2.42640397814014e-10
1.75901354282031e-10
1.00985040760211e-10
2.32688041509002e-11
4.55976845967904e-13
1.55721450989333e-12
4.07892401868786e-10
1.40721034321777e-07
2.46260988147509e-07
3.40327500324585e-07
4.20027732636385e-07
4.84269529731772e-07
5.33561066655472e-07
5.69586953360369e-07
5.94687408753396e-07
6.11373657847886e-07
6.21968072705357e-07
6.28399481817087e-07
6.32136676739551e-07
6.34217878221411e-07
6.35329957242084e-07
6.35900811040802e-07
6.36182626714464e-07
6.36316554653326e-07
6.36377863255709e-07
6.3640489785371e-07
6.364163650283e-07
6.36421018108364e-07
6.36422781302831e-07
6.36423311129381e-07
6.36423177450673e-07
6.36422315657028e-07
6.36420001797552e-07
6.36414310805127e-07
6.36400836374728e-07
6.36369986529828e-07
6.36301689424487e-07
6.36155566607719e-07
6.35853667683994e-07
6.35251922357646e-07
6.34096095993292e-07
6.31959199052288e-07
6.28161278209824e-07
6.21680446099653e-07
6.11075908772064e-07
5.94457251452343e-07
5.695437377144e-07
5.33854632515794e-07
4.85048968773164e-07
4.21388928435453e-07
3.42244200491153e-07
2.48505761748417e-07
1.42763241831454e-07
4.17610005566629e-10
1.61009777753785e-12
2.75862745897157e-12
7.27664779705214e-10
2.52158958880644e-07
4.4008936252198e-07
6.06777448799318e-07
7.47467588726435e-07
8.60531783491647e-07
9.47093685055937e-07
1.01026589113915e-06
1.05424186412336e-06
1.08346537569915e-06
1.10202042412202e-06
1.113288121401e-06
1.11983931367167e-06
1.12349032653244e-06
1.12544297092689e-06
1.12644632608225e-06
1.12694221677943e-06
1.12717817274437e-06
1.12728633428152e-06
1.12733410136307e-06
1.12735439783312e-06
1.12736265135471e-06
1.12736578903415e-06
1.12736674088014e-06
1.12736651989038e-06
1.12736502446981e-06
1.1273609938203e-06
1.12735106983675e-06
1.12732755752868e-06
1.12727369471118e-06
1.12715438701176e-06
1.12689900436721e-06
1.12637114743434e-06
1.12531864614244e-06
1.12329640082062e-06
1.11955669208935e-06
1.11290848253113e-06
1.10156094265089e-06
1.08298692355728e-06
1.05386523371957e-06
1.01017679797384e-06
9.47525388686533e-07
8.61716266774768e-07
7.49553019915057e-07
6.09718528978069e-07
4.43520872994262e-07
2.5524219647468e-07
7.41962509144573e-10
2.83489991424081e-12
3.9480879947629e-12
1.04197649642375e-09
3.60557636381729e-07
6.2766291036237e-07
8.6359255210316e-07
1.06206150168658e-06
1.22114829629577e-06
1.34271581671644e-06
1.43132217204689e-06
1.49295720880974e-06
1.53390226482879e-06
1.55989986469325e-06
1.57569130030557e-06
1.58487696155937e-06
1.58999940937856e-06
1.59274110945284e-06
1.59415116254199e-06
1.59484875041006e-06
1.59518104646832e-06
1.59533355845243e-06
1.59540100633413e-06
1.5954297125776e-06
1.59544141043228e-06
1.59544587182582e-06
1.5954472374015e-06
1.59544694706758e-06
1.59544487448147e-06
1.59543926411947e-06
1.59542543489058e-06
1.59539264611724e-06
1.59531748238675e-06
1.59515088742709e-06
1.59479407501184e-06
1.59405617659386e-06
1.59258417086336e-06
1.5897547164505e-06
1.58452030415123e-06
1.57521173153082e-06
1.55931792224814e-06
1.53329244100795e-06
1.49246790502377e-06
1.4311817402098e-06
1.34321095151271e-06
1.22256355645741e-06
1.06457688682897e-06
8.67147044705414e-07
6.31798536120532e-07
3.64244257800875e-07
1.05900714366744e-09
4.03959933532378e-12
5.09737378837385e-12
1.34542285424397e-09
4.64541636440731e-07
8.06743310531522e-07
1.10788077726913e-06
1.36045411870943e-06
1.56245196796493e-06
1.71655880681303e-06
1.8287602976178e-06
1.90675939657476e-06
1.95856212374076e-06
1.99145494970239e-06
2.0114400501965e-06
2.0230703497633e-06
2.02955994731665e-06
2.03303590214027e-06
2.03482507506751e-06
2.03571105804155e-06
2.03613354230021e-06
2.03632767821829e-06
2.03641365154361e-06
2.03645030234274e-06
2.03646526944883e-06
2.03647099641194e-06
2.03647276432035e-06
2.0364724212963e-06
2.03646982609802e-06
2.03646277019313e-06
2.03644535977202e-06
2.03640405428654e-06
2.03630931194365e-06
2.03609920282421e-06
2.03564894860503e-06
2.03471734642621e-06
2.03285809766539e-06
2.02928288072631e-06
2.02266651391239e-06
2.01089660475886e-06
1.99079394840909e-06
1.95786537357162e-06
1.90619040859577e-06
1.82857071516132e-06
1.71706418916865e-06
1.56396462067896e-06
1.36316964207855e-06
1.11172744369323e-06
8.11212938470985e-07
4.6851356976205e-07
1.36392651369607e-09
5.19855233110222e-12
6.18991945825543e-12
1.63392809201731e-09
5.62935787445713e-07
9.7546333192379e-07
1.3372742427688e-06
1.63993904538042e-06
1.88151909960539e-06
2.06556449426777e-06
2.19944053745808e-06
2.29245941215744e-06
2.35422598075996e-06
2.39344837107304e-06
2.41728583637442e-06
2.43116413944567e-06
2.43891256017924e-06
2.44306563446041e-06
2.44520504450763e-06
2.4462654172999e-06
2.44677157302878e-06
2.44700442450757e-06
2.44710768101293e-06
2.44715177149535e-06
2.4471698156223e-06
2.4471767431303e-06
2.44717889934171e-06
2.4471785188466e-06
2.44717545365429e-06
2.44716708424221e-06
2.44714641412632e-06
2.4470973504488e-06
2.44698475831418e-06
2.44673494036348e-06
2.44619933473831e-06
2.44509063939768e-06
2.44287706154019e-06
2.43861896907754e-06
2.43073637547936e-06
2.41670998251927e-06
2.39274676660752e-06
2.35348293337868e-06
2.29184371570503e-06
2.19921172416433e-06
2.06604729038633e-06
1.88303361185505e-06
1.64268364095765e-06
1.34117138665072e-06
9.7999036739044e-07
5.66960761637155e-07
1.65300008974443e-09
6.29665652494658e-12
7.21356924858948e-12
1.90436884685518e-09
6.54810504816519e-07
1.13238962266645e-06
1.55000266478923e-06
1.89853787492018e-06
2.17625153330843e-06
2.38756968670009e-06
2.541165556656e-06
2.64784190236019e-06
2.71866846274119e-06
2.76364871243739e-06
2.79099333674563e-06
2.80692040856883e-06
2.81581760986579e-06
2.82058957150372e-06
2.82304966474355e-06
2.82427003038945e-06
2.82485312306116e-06
2.82512166624536e-06
2.8252409052205e-06
2.82529190226079e-06
2.82531281815663e-06
2.82532087570614e-06
2.82532340406344e-06
2.82532299940053e-06
2.82531951426745e-06
2.82530995995314e-06
2.82528634559838e-06
2.82523027155452e-06
2.82510154088998e-06
2.82481579416613e-06
2.82420289931873e-06
2.82293371076446e-06
2.82039878098686e-06
2.81552096587856e-06
2.80648860538498e-06
2.79041228234437e-06
2.76294038224641e-06
2.71791624667433e-06
2.64721254430271e-06
2.54091475329795e-06
2.38801617401654e-06
2.17770776304329e-06
1.90119498008979e-06
1.55378100824025e-06
1.13677905269808e-06
6.5872507051474e-07
1.92336062337567e-09
7.3227724836455e-12
8.15960749453885e-12
2.15447593130146e-09
7.39500170842402e-07
1.2765411601543e-06
1.74490518262619e-06
2.13500360523948e-06
2.44537234885036e-06
2.68129586998152e-06
2.85266596184212e-06
2.97164804608039e-06
3.05063905019949e-06
3.10081078283597e-06
3.13132027779421e-06
3.14909823405378e-06
3.15903466110055e-06
3.16436736487653e-06
3.16711852789868e-06
3.16848440174553e-06
3.16913762411704e-06
3.16943878598131e-06
3.16957267711294e-06
3.16963003110713e-06
3.16965360482954e-06
3.16966271749444e-06
3.16966559972724e-06
3.16966518265718e-06
3.16966132465438e-06
3.16965070923769e-06
3.16962445619308e-06
3.16956209872701e-06
3.1694188980795e-06
3.16910091846027e-06
3.16841863678663e-06
3.16700526293518e-06
3.1641814443005e-06
3.15874618772415e-06
3.14867909926895e-06
3.13075718491259e-06
3.10012521604317e-06
3.04991132945632e-06
2.97103780292401e-06
2.85241668444474e-06
2.68170927727857e-06
2.44674181721232e-06
2.1375053901621e-06
1.7484595573786e-06
1.28066850987267e-06
7.43198084175258e-07
2.17294281793832e-09
8.26900088557772e-12
9.02242216628482e-12
2.38277762517456e-09
8.1659605929383e-07
1.40736652220401e-06
1.92138918901734e-06
2.34876251981805e-06
2.68835398610655e-06
2.9462670601798e-06
3.13351094915953e-06
3.26348139540681e-06
3.34976484802606e-06
3.40457650551239e-06
3.43791721619178e-06
3.45735284851269e-06
3.46822130011385e-06
3.47405769623512e-06
3.47707078102415e-06
3.4785678535859e-06
3.47928445223318e-06
3.47961516899015e-06
3.47976237808726e-06
3.47982553362669e-06
3.47985154654442e-06
3.47986163593675e-06
3.47986485209471e-06
3.47986443298107e-06
3.47986024597181e-06
3.4798486874036e-06
3.47982008812094e-06
3.47975214482516e-06
3.47959607896982e-06
3.47924942865708e-06
3.47850539197726e-06
3.47696361141294e-06
3.4738823654539e-06
3.46795011597001e-06
3.45696009853148e-06
3.43739140909683e-06
3.4039389458046e-06
3.34909173033573e-06
3.26292216170583e-06
3.13329144704058e-06
2.94666458799041e-06
2.68963493570488e-06
2.35108257688214e-06
1.92466879931486e-06
1.41116653064314e-06
8.20018440080304e-07
2.40044367545717e-09
9.13042254559952e-12
9.79922636153011e-12
2.58853125806223e-09
8.85924056717177e-07
1.52469850250183e-06
2.07936239452502e-06
2.53982710159954e-06
2.90531625031415e-06
3.18269690543745e-06
3.38398781364887e-06
3.52368231505894e-06
3.61642176877237e-06
3.67534408897411e-06
3.71119551423803e-06
3.7321029333354e-06
3.74380005401133e-06
3.75008500034931e-06
3.75333175035939e-06
3.75494610256734e-06
3.75571948251995e-06
3.75607674847237e-06
3.75623595927268e-06
3.75630436439311e-06
3.75633259689054e-06
3.75634358252509e-06
3.75634711097476e-06
3.75634669820729e-06
3.75634222347732e-06
3.75632983315763e-06
3.7562991646083e-06
3.75622629725338e-06
3.75605889093941e-06
3.75568695993998e-06
3.75488844278844e-06
3.75323331808719e-06
3.74992471976396e-06
3.74355333167672e-06
3.73174749876107e-06
3.71072269436639e-06
3.6747756601276e-06
3.61582964536872e-06
3.52320433262996e-06
3.38382922598133e-06
3.18310624868573e-06
2.90652798276257e-06
2.54197226162816e-06
2.08236033450486e-06
1.52815369785736e-06
8.8905030826758e-07
2.60525988384028e-09
9.90484213948304e-12
1.04897355385865e-11
2.77164119192572e-09
9.47515703189256e-07
1.6287005798822e-06
2.21915731801124e-06
2.70870269518359e-06
3.09691947062476e-06
3.39137212972464e-06
3.60497869044994e-06
3.75320026807748e-06
3.8516039609064e-06
3.91413568838718e-06
3.95219394936659e-06
3.97439662609441e-06
3.98682406717842e-06
3.99350496690557e-06
3.99695835480587e-06
3.99867663048033e-06
3.99950044007681e-06
3.99988134780263e-06
4.00005128027168e-06
4.00012439439322e-06
4.00015462911611e-06
4.00016642985635e-06
4.0001702474886e-06
4.0001698478124e-06
4.0001651237621e-06
4.00015200602178e-06
4.00011952799274e-06
4.00004235776404e-06
3.99986504361666e-06
3.99947102090218e-06
3.99862487505885e-06
3.99687061093067e-06
3.99336305442792e-06
3.98660720322821e-06
3.97408686952715e-06
3.95178642035534e-06
3.91365352072525e-06
3.85111532727167e-06
3.75283130147264e-06
3.6049130979961e-06
3.39182783307228e-06
3.09809646424834e-06
2.71070463370036e-06
2.22190003659341e-06
1.63183013951679e-06
9.50354945777504e-07
2.7874077390694e-09
1.05924695916727e-11
1.10958095523275e-11
2.93256834289849e-09
1.00157694576023e-06
1.71981211378006e-06
2.34145659671319e-06
2.8562972338e-06
3.26426268040158e-06
3.57354252390579e-06
3.79784494726987e-06
3.95347450740076e-06
4.05680213422525e-06
4.12247426975676e-06
4.16245470830892e-06
4.18578701614448e-06
4.19885232226001e-06
4.2058796162133e-06
4.20951410791229e-06
4.21132365038249e-06
4.21219184947484e-06
4.21259362266377e-06
4.21277304820269e-06
4.21285034893038e-06
4.2128823737569e-06
4.21289490912498e-06
4.2128989919065e-06
4.21289861045222e-06
4.21289367243851e-06
4.21287992418148e-06
4.2128458780644e-06
4.21276498216791e-06
4.21257909199864e-06
4.21216594455781e-06
4.21127855111958e-06
4.20943838971038e-06
4.20575836981741e-06
4.19866911541083e-06
4.18552896136456e-06
4.1621216167117e-06
4.12209164833167e-06
4.05643544201334e-06
3.9532390666902e-06
3.79790349971013e-06
3.57408246156482e-06
3.26544891431273e-06
2.85820441378244e-06
2.34399387842854e-06
1.72266139452005e-06
1.00416000788493e-06
2.94743377687952e-09
1.11955621582674e-11
1.1621073485443e-11
3.07223434189549e-09
1.04845609909357e-06
1.79869409329331e-06
2.44722075628423e-06
2.98383528278194e-06
3.40878765387171e-06
3.73081795650138e-06
3.96431942098298e-06
4.12632316730902e-06
4.2338906436365e-06
4.30226945415702e-06
4.34390849268e-06
4.36821682618579e-06
4.38183408756793e-06
4.38916162234246e-06
4.39295337769363e-06
4.39484233548163e-06
4.39574924917854e-06
4.39616926904088e-06
4.39635702304764e-06
4.39643801196665e-06
4.39647162261806e-06
4.3964848139819e-06
4.39648913747127e-06
4.39648877789451e-06
4.39648365818665e-06
4.39646936863178e-06
4.39643397662875e-06
4.39634988604302e-06
4.39615664503405e-06
4.39572710367581e-06
4.39480434010907e-06
4.39289048819376e-06
4.38906244673388e-06
4.38168692411587e-06
4.36801440056945e-06
4.34365609294444e-06
4.30199601125586e-06
4.23366023211193e-06
4.12624186906886e-06
3.96453069453627e-06
3.73148017702383e-06
3.41003147785688e-06
2.98570565792231e-06
2.44961666088911e-06
1.80132517633293e-06
1.05082822833638e-06
3.08632042579435e-09
1.17180468973789e-11
1.2070526785669e-11
3.19192210692294e-09
1.08861144286624e-06
1.8661755677312e-06
2.5376179895434e-06
3.09277531899783e-06
3.53218715547271e-06
3.86507030804004e-06
4.1064040647879e-06
4.27383808392101e-06
4.38502050202929e-06
4.45570941182597e-06
4.49876574440648e-06
4.52390925248312e-06
4.53799954367202e-06
4.54558482578306e-06
4.54951184088225e-06
4.5514692446386e-06
4.55240960348005e-06
4.55284542902732e-06
4.55304042083549e-06
4.55312462825441e-06
4.55315963051287e-06
4.5531734021072e-06
4.55317794193226e-06
4.5531776066019e-06
4.55317233438175e-06
4.55315758493929e-06
4.55312104963458e-06
4.55303424792153e-06
4.55283477145557e-06
4.55239132282688e-06
4.55143854387581e-06
4.54946212949481e-06
4.54550836184351e-06
4.53788958955371e-06
4.52376454427464e-06
4.49859769531723e-06
4.4555513823014e-06
4.38493664770156e-06
4.27392722163529e-06
4.10679276878127e-06
3.86589042440547e-06
3.53353695451342e-06
3.09467010340374e-06
2.53994307344506e-06
1.86865909585591e-06
1.09082592455342e-06
3.205388864597e-09
1.21651351680126e-11
1.24501503804048e-11
3.29317502929447e-09
1.12257891604109e-06
1.92320107724777e-06
2.61395592474105e-06
3.18472984623356e-06
3.63631665861573e-06
3.97833931001161e-06
4.22627178162708e-06
4.39828397614202e-06
4.51251685718155e-06
4.58515727953234e-06
4.62941242687639e-06
4.65526337771069e-06
4.6697549909426e-06
4.67755933085035e-06
4.68160152350213e-06
4.68361733475223e-06
4.68458630148498e-06
4.68503568374051e-06
4.68523690393259e-06
4.68532389256766e-06
4.68536010411084e-06
4.68537438393501e-06
4.6853791162422e-06
4.68537880646075e-06
4.68537340789546e-06
4.68535827218976e-06
4.68532077653561e-06
4.68523169970876e-06
4.6850269928221e-06
4.6845718775088e-06
4.68359390958246e-06
4.68156496730853e-06
4.67750558724945e-06
4.66968239003436e-06
4.65517690908462e-06
4.62933012387664e-06
4.58511783073111e-06
4.51258596678956e-06
4.39855534670845e-06
4.22685789161005e-06
3.97934855184349e-06
3.63781747106666e-06
3.18670854407622e-06
2.61628095110655e-06
1.92560957735582e-06
1.1246917583316e-06
3.30620129019011e-09
1.25429390924958e-11
1.27665242983894e-11
3.37769804075755e-09
1.15094074552839e-06
1.9707801362958e-06
2.67761646108318e-06
3.26138936973351e-06
3.72311048363678e-06
4.07274317207537e-06
4.32617327639902e-06
4.50200278329849e-06
4.61878170462697e-06
4.69305285764301e-06
4.73831110882399e-06
4.76475489799558e-06
4.77958337656958e-06
4.78757192475879e-06
4.79171116387796e-06
4.79377629573781e-06
4.79476947857985e-06
4.79523036852082e-06
4.79543689345522e-06
4.7955262609244e-06
4.7955635126682e-06
4.79557823318616e-06
4.79558313503126e-06
4.79558285124029e-06
4.79557734959819e-06
4.79556189362358e-06
4.79552360131843e-06
4.79543263877701e-06
4.79522359820266e-06
4.79475881483114e-06
4.79375996363981e-06
4.79168744790427e-06
4.78754040956895e-06
4.77954745262134e-06
4.76472591123786e-06
4.73831405051906e-06
4.6931324951254e-06
4.61900665861709e-06
4.50246378686232e-06
4.32697162566869e-06
4.07396714990835e-06
3.72480164136379e-06
3.26350614712299e-06
2.68000768733839e-06
1.9731829180969e-06
1.15300652587738e-06
3.39046565546831e-09
1.2858101773191e-11
1.30264697249295e-11
3.44726433316714e-09
1.17429604986395e-06
2.00994023297596e-06
2.72999537598173e-06
3.32445207743827e-06
3.79450429434454e-06
4.15039600008161e-06
4.40835097412821e-06
4.58732523774594e-06
4.7062039358067e-06
4.78182169987681e-06
4.82790947241264e-06
4.8548442906643e-06
4.86995227048002e-06
4.87809394940839e-06
4.88231402996189e-06
4.88442034041658e-06
4.88543379302006e-06
4.88590434329912e-06
4.88611533684549e-06
4.88620671696227e-06
4.8862448539158e-06
4.88625995257509e-06
4.88626500223967e-06
4.8862647442252e-06
4.8862591600417e-06
4.88624344247464e-06
4.88620449876365e-06
4.88611199527285e-06
4.88589941400656e-06
4.88542672912453e-06
4.88441080003059e-06
4.88230262532019e-06
4.87808379970348e-06
4.8699517294303e-06
4.8548710426325e-06
4.82799565455507e-06
4.78201874033532e-06
4.70658457206499e-06
4.5879792393296e-06
4.4093712909115e-06
4.15185416705819e-06
3.79641806654996e-06
3.32675345281314e-06
2.73251139176417e-06
2.01239984639581e-06
1.17636493557038e-06
3.45994632618708e-09
1.31174538576798e-11
1.32367282034252e-11
3.5036312157268e-09
1.19323440964365e-06
2.04168478106726e-06
2.77244843275904e-06
3.37556115908862e-06
3.8523660314073e-06
4.21333419184428e-06
4.47496227035066e-06
4.65649199482062e-06
4.77707908200122e-06
4.85379398107625e-06
4.90055864637357e-06
4.9278948328621e-06
4.94323170568557e-06
4.95149904437463e-06
4.95578561108775e-06
4.95792587026562e-06
4.95895607893883e-06
4.95943463958821e-06
4.95964935210923e-06
4.9597424149594e-06
4.95978129655403e-06
4.95979671608627e-06
4.95980189330779e-06
4.95980166038407e-06
4.9597960116687e-06
4.95978008432415e-06
4.95974061719572e-06
4.95964687585793e-06
4.95943145006904e-06
4.95895241337809e-06
4.95792274347178e-06
4.95578584926663e-06
4.95150915094744e-06
4.94326483364447e-06
4.92797489020159e-06
4.90072497165964e-06
4.85410507486861e-06
4.77761279397692e-06
4.65733891056562e-06
4.47620960840491e-06
4.21503993130694e-06
3.85452717774272e-06
3.37808489487478e-06
2.77513841723263e-06
2.04425491197915e-06
1.19535028308444e-06
3.51638380294573e-09
1.33277076896402e-11
1.34036869520033e-11
3.54846760346458e-09
1.20831311266589e-06
2.06695704580747e-06
2.8062452216328e-06
3.41625114988439e-06
3.89843678632594e-06
4.26345340411863e-06
4.5280137743856e-06
4.71158602931564e-06
4.83354049673553e-06
4.91113490782489e-06
4.95844314301758e-06
4.98610225836664e-06
5.00162367534791e-06
5.00999255620867e-06
5.0143329807832e-06
5.016500814483e-06
5.01754467369338e-06
5.018029782237e-06
5.01824754698743e-06
5.01834199784833e-06
5.01838149777e-06
5.01839718628527e-06
5.01840247241565e-06
5.0184022635903e-06
5.01839656608236e-06
5.01838047451993e-06
5.01834059627027e-06
5.0182458823841e-06
5.01802822041197e-06
5.01754418472057e-06
5.01650368522817e-06
5.01434412271059e-06
5.01002168073717e-06
5.0016885273517e-06
4.98623278487235e-06
4.95868583215136e-06
4.91155558735891e-06
4.83422290853051e-06
4.71262308039243e-06
4.52948925361342e-06
4.26541462609958e-06
3.90086286364831e-06
3.41902615225797e-06
2.80914840337376e-06
2.06968164331273e-06
1.21051265847753e-06
3.56142568534324e-09
1.3495196576643e-11
1.35331545751137e-11
3.58329439229084e-09
1.22003842451527e-06
2.08661052486615e-06
2.83253129960579e-06
3.44790392858044e-06
3.93428229927637e-06
4.30245681861287e-06
4.56930730910578e-06
4.75447708929644e-06
4.87750278707039e-06
4.95578749577087e-06
5.0035232317089e-06
5.03143689060158e-06
5.0471041278012e-06
5.05555345712176e-06
5.05993667472061e-06
5.06212648694059e-06
5.0631812643606e-06
5.06367163087383e-06
5.06389185803118e-06
5.06398743520527e-06
5.06402744073439e-06
5.06404335160434e-06
5.06404872967081e-06
5.06404854378769e-06
5.06404281123965e-06
5.06402659549056e-06
5.06398640460179e-06
5.06389095027909e-06
5.06367158338645e-06
5.06318372852261e-06
5.06213493587093e-06
5.05995797288237e-06
5.05560033866933e-06
5.04719870173401e-06
5.03161491682775e-06
5.00383821865043e-06
4.95631272123041e-06
4.87832845953978e-06
4.75569965215544e-06
4.57100906018789e-06
4.30467691538033e-06
3.9369845221339e-06
3.45095090718822e-06
2.8356773394694e-06
2.08952388826753e-06
1.22235098083982e-06
3.5965698885398e-09
1.36256622965241e-11
1.36301866961432e-11
3.60943772248991e-09
1.22885086491267e-06
2.10138570289508e-06
2.852298493267e-06
3.47171419730666e-06
3.96125488770347e-06
4.33181450520508e-06
4.60039746361952e-06
4.78677800535807e-06
4.91061729475494e-06
4.98942751754876e-06
5.03748955509271e-06
5.06559805994101e-06
5.08137726887609e-06
5.08988858323605e-06
5.09430489452007e-06
5.09651177210214e-06
5.09757506466537e-06
5.09806955246061e-06
5.09829172108335e-06
5.09838819277597e-06
5.09842860369461e-06
5.09844469524614e-06
5.0984501499337e-06
5.09844998579372e-06
5.0984442302931e-06
5.0984279256991e-06
5.09838750898235e-06
5.09829151837545e-06
5.09807091290206e-06
5.09758027278245e-06
5.09652540653232e-06
5.09433564701819e-06
5.08995203168746e-06
5.08149965974283e-06
5.06582072584914e-06
5.03787284971266e-06
4.99005219071896e-06
4.91158041408718e-06
4.78818048133739e-06
4.60232166058677e-06
4.33429350024243e-06
3.9642393205307e-06
3.47504680862189e-06
2.85570847779457e-06
2.10451322159064e-06
1.23129880801909e-06
3.62311995423136e-09
1.37240895416582e-11
1.36989573846796e-11
3.6279941739077e-09
1.23511419131083e-06
2.11189267460565e-06
2.86636269896997e-06
3.48866366232233e-06
3.98046494598542e-06
4.35273297120781e-06
4.62255975551302e-06
4.80981189266347e-06
4.93423865346703e-06
5.01342964162248e-06
5.06172900527027e-06
5.0899798210269e-06
5.10584118662127e-06
5.11439820724367e-06
5.11883905214928e-06
5.12105865460325e-06
5.12212833703454e-06
5.12262593962798e-06
5.12284958781231e-06
5.1229467481553e-06
5.12298747525664e-06
5.1230037102725e-06
5.12300922782298e-06
5.12300908428144e-06
5.12300331659207e-06
5.12298695472265e-06
5.12294638965812e-06
5.12285004464513e-06
5.12262861520726e-06
5.12213610723935e-06
5.12107713313567e-06
5.1188786474084e-06
5.11447718117904e-06
5.10598971635556e-06
5.09024458262826e-06
5.06217700689314e-06
5.0141490588124e-06
4.93533365384659e-06
4.81138851946269e-06
4.6247016187832e-06
4.35546869342992e-06
3.98373380111816e-06
3.49228985511891e-06
2.87005042529794e-06
2.11525190532646e-06
1.23771361307113e-06
3.64215143251192e-09
1.37945827491023e-11
1.37426698235007e-11
3.63980629148509e-09
1.23910759927198e-06
2.11859884185892e-06
2.87534815414161e-06
3.49950272133841e-06
3.99276070305038e-06
4.36613350265956e-06
4.63676795539671e-06
4.8245887646489e-06
4.94940092024638e-06
5.02884324820272e-06
5.07730033911658e-06
5.10564644564996e-06
5.12156327213585e-06
5.13015141834175e-06
5.1346091274511e-06
5.13683756490336e-06
5.1379117321567e-06
5.1384115471959e-06
5.13863626076718e-06
5.13873392513325e-06
5.13877488839235e-06
5.13879123346476e-06
5.13879680150892e-06
5.13879667755367e-06
5.1387909074778e-06
5.13877451711196e-06
5.13873387433946e-06
5.13863734053198e-06
5.13841546393294e-06
5.13792192000987e-06
5.13686061651288e-06
5.13465707894267e-06
5.13024508577188e-06
5.12173659146307e-06
5.10595123845674e-06
5.07781008705737e-06
5.02965346681124e-06
4.95062299741273e-06
4.82633429934429e-06
4.63912261744558e-06
4.36912263043366e-06
3.99631353488189e-06
3.50342602229662e-06
2.87932140889306e-06
2.12220062747859e-06
1.2418690487574e-06
3.65448775041905e-09
1.3840278692828e-11
1.37634987819377e-11
3.64544661195053e-09
1.24102058436168e-06
2.12182079657087e-06
2.87967702199552e-06
3.50473824963486e-06
3.99871466854599e-06
4.37263763318674e-06
4.64367885564261e-06
4.83178981207711e-06
4.95680152166448e-06
5.03637616053437e-06
5.08491777313119e-06
5.11331593593454e-06
5.12926368624629e-06
5.13786956408151e-06
5.14233709796665e-06
5.14457080424222e-06
5.1456477127883e-06
5.14614891658431e-06
5.14637431903944e-06
5.14647232071763e-06
5.14651344863006e-06
5.14652987435026e-06
5.14653548219959e-06
5.14653537707596e-06
5.14652961344778e-06
5.14651322077468e-06
5.14647256537943e-06
5.14637599655137e-06
5.14615402383859e-06
5.1456602194654e-06
5.14459824299383e-06
5.14239307023045e-06
5.13797734723717e-06
5.12946084926112e-06
5.11365929455083e-06
5.08548713059569e-06
5.0372742695129e-06
4.95814701791568e-06
4.83370004751786e-06
4.64624202474066e-06
4.37587650786574e-06
4.0025493180245e-06
3.50895878781991e-06
2.88393859829673e-06
2.12567016987468e-06
1.24394967464194e-06
3.66068382690594e-09
1.38632877399322e-11
1.37625558232315e-11
3.64520778652365e-09
1.24094979289912e-06
2.12171946237782e-06
2.87956328874958e-06
3.50462658790332e-06
3.9986158856542e-06
4.37255880015268e-06
4.64362346007566e-06
4.8317582416687e-06
4.95679183459739e-06
5.03638499522206e-06
5.08494120619278e-06
5.11335016777349e-06
5.12930545130621e-06
5.1379163086269e-06
5.14238697519064e-06
5.14462256610917e-06
5.14570056496193e-06
5.14620237964509e-06
5.14642811667722e-06
5.14652629953422e-06
5.14656752557664e-06
5.14658400482242e-06
5.14658964274144e-06
5.14658955590876e-06
5.14658380723898e-06
5.14656743753185e-06
5.14652683265509e-06
5.14643037837574e-06
5.14620865106389e-06
5.14571533974282e-06
5.14465429658511e-06
5.14245079445597e-06
5.13803790326242e-06
5.12952594847614e-06
5.11373127931937e-06
5.0855689420606e-06
5.03736922596415e-06
4.95825834574177e-06
4.83383016128267e-06
4.64639163424235e-06
4.37604370672131e-06
4.00272883679087e-06
3.50914154182313e-06
2.88411152967407e-06
2.12581622946995e-06
1.24404766022951e-06
3.66101583698706e-09
1.38646575116819e-11
1.37398775814118e-11
3.63909925292025e-09
1.23889789193907e-06
2.11829814141587e-06
2.87501006711741e-06
3.49917025510092e-06
3.99246618614622e-06
4.36589826021243e-06
4.63660265221622e-06
4.82449476886724e-06
4.94937256520124e-06
5.02887054201923e-06
5.07737156310844e-06
5.10575019586548e-06
5.12168973153618e-06
5.13029289849626e-06
5.13476006210912e-06
5.13699418940048e-06
5.1380716489331e-06
5.13857330857721e-06
5.13879903216739e-06
5.13889724318233e-06
5.13893850226018e-06
5.13895500851682e-06
5.13896066701984e-06
5.13896059810859e-06
5.13895487320808e-06
5.13893855243782e-06
5.13889806277667e-06
5.13880187585884e-06
5.13858074186804e-06
5.13808868911302e-06
5.13703020689058e-06
5.13483171696303e-06
5.13042827524307e-06
5.12193349192105e-06
5.10616890318333e-06
5.07805735714669e-06
5.02994029090478e-06
4.95095900460423e-06
4.82672662007775e-06
4.63957319529738e-06
4.36962550016785e-06
3.99685262604964e-06
3.50397388282299e-06
2.87983884133551e-06
2.12263675481927e-06
1.24216099465795e-06
3.65547524858445e-09
1.38443486915065e-11
1.36944329899231e-11
3.62684892352056e-09
1.23477389598945e-06
2.11140280476814e-06
2.86580980127299e-06
3.4881180667651e-06
3.97998025448657e-06
4.35234511335699e-06
4.62228718535565e-06
4.80965757812891e-06
4.93419368457998e-06
5.01347769307216e-06
5.06185068720276e-06
5.09015613467983e-06
5.10605570735368e-06
5.11463803313918e-06
5.11909482201015e-06
5.12132402674594e-06
5.12239926775942e-06
5.12289998512185e-06
5.12312533836834e-06
5.12322342086205e-06
5.12326464635669e-06
5.12328115246363e-06
5.12328682188381e-06
5.12328677073975e-06
5.12328107922564e-06
5.12326483534652e-06
5.12322453007015e-06
5.12312877313464e-06
5.12290860142817e-06
5.12241861685271e-06
5.12136441312134e-06
5.11917445492631e-06
5.11478742137015e-06
5.10632306963382e-06
5.09061288700784e-06
5.06259505010575e-06
5.01463339343033e-06
4.93590015296238e-06
4.8120486818104e-06
4.62545805924719e-06
4.3563106506228e-06
3.98463362863705e-06
3.49320116739588e-06
2.8709078661186e-06
2.11597167243923e-06
1.23819340668639e-06
3.64376911997313e-09
1.38012416498709e-11
1.36241368997204e-11
3.60790707514036e-09
1.22839458520691e-06
2.10072449960364e-06
2.851547435798e-06