/*--------------------------------*- C++ -*----------------------------------*\
  =========                 |
  \\      /  F ield         | OpenFOAM: The Open Source CFD Toolbox
   \\    /   O peration     | Website:  https://openfoam.org
    \\  /    A nd           | Version:  10
     \\/     M anipulation  |
\*---------------------------------------------------------------------------*/
FoamFile
{
    format      ascii;
    class       volScalarField;
    location    "9.2";
    object      omega;
}
// * * * * * * * * * * * * * * * * * * * * * * * * * * * * * * * * * * * * * //

dimensions      [0 0 -1 0 0 0 0];

internalField   nonuniform List<scalar> 
2500
(
127814.44601897
127822.797792415
127820.618212003
127818.747194555
127817.438483585
127816.588971205
127816.057001852
127815.73141936
127815.537056234
127815.424826189
127815.36145971
127815.32710081
127815.309117083
127815.299775165
127815.295030457
127815.29252732
127815.291366062
127815.290664234
127815.290161682
127815.289867882
127815.289652716
127815.289486027
127815.289357504
127815.289283033
127815.289207827
127815.289153417
127815.289141783
127815.289152779
127815.289194178
127815.289273259
127815.289405412
127815.289660352
127815.290030983
127815.290688841
127815.291934293
127815.294383727
127815.299249174
127815.308734807
127815.327390089
127815.362261103
127815.425900916
127815.538573987
127815.732203246
127816.055808703
127816.585633051
127817.432256192
127818.742728066
127820.624153374
127822.810406499
127814.42106611
31876.2830972836
14166.5525788718
14165.4760446505
14164.5881225234
14163.9632050228
14163.5518208067
14163.2896914635
14163.1264338734
14163.0271824287
14162.9685435552
14162.9349573124
14162.9163678479
14162.9064314558
14162.901290819
14162.8987160838
14162.8974614134
14162.8968722464
14162.8965948361
14162.8964604929
14162.896395604
14162.8963612356
14162.8963405766
14162.8963269911
14162.8963184535
14162.8963114945
14162.8963064774
14162.8963046259
14162.8963053196
14162.8963098989
14162.8963221397
14162.8963504518
14162.8964143869
14162.8965512715
14162.8968465108
14162.8974757573
14162.8987917174
14162.9014729479
14162.906773751
14162.916942189
14162.9357859415
14162.9695868057
14163.0283032768
14163.127279488
14163.2897615488
14163.5507347638
14163.961316184
14164.5878093518
14165.4814791536
14166.5628304134
31876.2410122272
31801.0017576912
3533.09766693362
50.870754945592
50.8661292629354
50.8629137141307
50.860809131999
50.8594726850483
50.8586419440712
50.8581371955961
50.8578387405674
50.8576675828226
50.8575726392221
50.8575217532294
50.8574953907497
50.8574821846393
50.8574757772573
50.8574727723372
50.857471390522
50.8574707581325
50.857470470261
50.8574703330479
50.8574702604934
50.8574702175717
50.857470191262
50.8574701718243
50.8574701579848
50.8574701518227
50.8574701531502
50.8574701689042
50.857470218157
50.8574703426006
50.8574706383315
50.8574713089141
50.8574727909658
50.8574759868335
50.8574827054393
50.8574964191204
50.8575235361201
50.8575754502565
50.8576715490293
50.8578437057585
50.8581424963985
50.8586460802604
50.8594735432293
50.8608053862268
50.8629086388808
50.8661373295582
50.8708017343763
3533.10395104804
31800.9858327658
31729.087489356
3524.98310638538
50.7530505464486
50.7479667357386
50.7445165463286
50.7423024408099
50.7409215345995
50.7400770299122
50.7395712147956
50.7392758069631
50.7391082292407
50.7390161503021
50.7389672147204
50.7389420654892
50.738929565487
50.7389235526764
50.7389207554694
50.7389194874759
50.7389189216771
50.7389186718923
50.7389185585072
50.7389185020931
50.7389184703568
50.7389184512333
50.7389184377445
50.7389184279628
50.7389184226387
50.7389184217299
50.7389184314019
50.7389184694386
50.7389185733219
50.7389188303047
50.738919432185
50.7389207852801
50.7389237378519
50.7389300089934
50.7389429310517
50.7389687183014
50.7390185336388
50.7391116495518
50.7392802077078
50.7395761165414
50.74008128552
50.7409235567921
50.7423017906009
50.7445184988517
50.7479901578139
50.7531297194299
3524.99387669549
31729.1469408985
31666.3270351404
3517.9647222391
50.6521164799715
50.6473255250356
50.6441571737531
50.6421677077601
50.6409511216214
50.6402200015104
50.639788600354
50.6395397872064
50.6394001138614
50.6393240371734
50.6392839040056
50.639263412205
50.6392532874636
50.639248446524
50.6392462081733
50.6392452033408
50.6392447625892
50.6392445727662
50.6392444900425
50.6392444510404
50.6392444300709
50.6392444177589
50.6392444093761
50.6392444030768
50.6392443989495
50.6392443970471
50.6392444011566
50.6392444258883
50.6392445012298
50.6392446951256
50.6392451617788
50.6392462249624
50.6392485656076
50.6392535769946
50.6392639821713
50.6392849055628
50.6393256467189
50.6394024715435
50.6395429082565
50.6397922254226
50.6402234411257
50.6409535018869
50.6421695592531
50.6441651102133
50.6473606694556
50.6522188783478
3517.97912712876
31666.4690755753
31615.7423831824
3512.37192304276
50.5724174230798
50.5683872812209
50.5657910215722
50.5641968596882
50.563241449179
50.5626773130018
50.5623493154838
50.5621623931818
50.5620584668483
50.5620022930202
50.5619728402917
50.5619578772609
50.5619505161411
50.5619470113854
50.5619453982319
50.5619446794074
50.5619443684031
50.5619442375035
50.5619441827667
50.5619441584721
50.561944146088
50.5619441390944
50.5619441345153
50.5619441308559
50.5619441279268
50.5619441259533
50.5619441265442
50.5619441402683
50.5619441891833
50.561944321312
50.5619446480127
50.5619454011803
50.5619470710534
50.5619506689534
50.5619581842481
50.5619733890398
50.5620031911008
50.5620598125162
50.5621642260465
50.5623515268052
50.5626795637905
50.5632434173986
50.5641996821864
50.5658016148749
50.5684265832973
50.5725271196285
3512.38798258661
31615.9428258319
31577.7954995722
3508.23115335598
50.5139764741728
50.5108858135847
50.5089455439514
50.5077805363498
50.5070962318011
50.5066991629011
50.506471592076
50.5063433647086
50.5062726932469
50.5062347470832
50.5062149504269
50.506204931119
50.5062000170798
50.5061976841841
50.5061966140884
50.506196140151
50.5061959375816
50.5061958542602
50.5061958209933
50.5061958073514
50.5061958009093
50.5061957974969
50.506195795408
50.5061957935334
50.5061957916049
50.5061957897924
50.5061957889328
50.5061957954439
50.5061958240684
50.5061959069335
50.5061961177685
50.5061966094042
50.5061977059128
50.5062000803693
50.5062050632859
50.5062151929944
50.5062351543132
50.506273320449
50.5063442448135
50.5064726876788
50.5067003303679
50.5070974410202
50.5077830686282
50.5089556566195
50.5109221693199
50.5140781667127
3508.24668361325
31578.0171247219
31551.1404780758
3505.36437306227
50.4739195233534
50.4717298088889
50.4703892013128
50.4696018149293
50.4691484262733
50.4688898301011
50.4687436777281
50.4686622089726
50.4686176660873
50.4685938868195
50.4685815310526
50.4685752950976
50.4685722428568
50.4685707965909
50.4685701349189
50.4685698434258
50.4685697202699
50.4685696708066
50.4685696521207
50.4685696452999
50.4685696424501
50.4685696411218
50.4685696404637
50.4685696396714
50.468569638491
50.4685696370439
50.4685696359243
50.4685696383221
50.4685696534837
50.4685697018417
50.4685698287769
50.4685701282648
50.4685707997664
50.4685722597423
50.4685753343693
50.4685816075067
50.4685940217674
50.4686178834869
50.4686625251239
50.4687440761039
50.4688902464411
50.4691489192103
50.4696034802906
50.4703970497166
50.4717589604145
50.4740033072735
3505.37773929739
31551.3494224686
31533.5207445184
3503.49853366104
50.4481159238788
50.4466690882553
50.4458044488091
50.4453074537853
50.4450268225039
50.4448694466126
50.4447817065879
50.4447332997104
50.4447070280831
50.444693073363
50.4446858459158
50.4446822054079
50.4446804257239
50.4446795834092
50.4446791988185
50.4446790302141
50.4446789597852
50.4446789321884
50.4446789224882
50.4446789195774
50.4446789185513
50.4446789182149
50.4446789182927
50.4446789181026
50.4446789174327
50.4446789163969
50.4446789154251
50.4446789158991
50.4446789232152
50.4446789496312
50.4446790215137
50.4446791932386
50.4446795802031
50.4446804242192
50.4446822061466
50.4446858512967
50.4446930882955
50.4447070587807
50.4447333486104
50.4447817574877
50.4448694555838
50.4450268335178
50.445308241622
50.4458096207536
50.4466898769377
50.4481783766554
3503.50895533991
31533.6954538384
31522.5127326174
3502.35170840677
50.4324219907161
50.4315239851228
50.4309996219003
50.4307044790037
50.4305409950244
50.4304508309285
50.4304012313276
50.4303741376601
50.4303595341959
50.4303518115476
50.4303478221208
50.4303458152187
50.4303448346987
50.4303443708806
50.4303441594378
50.4303440671701
50.4303440290685
50.4303440145132
50.4303440098075
50.4303440088813
50.4303440088651
50.4303440089712
50.4303440091628
50.4303440091585
50.4303440088137
50.4303440081448
50.4303440073723
50.4303440071892
50.4303440104443
50.4303440239866
50.4303440625185
50.430344155803
50.4303443670458
50.4303448289238
50.4303458056358
50.4303478069616
50.4303517895531
50.4303595039877
50.430374094341
50.430401155945
50.4304506813122
50.4305407738517
50.4307046514981
50.4310025488404
50.4315373760244
50.4324646496213
3502.35916611765
31522.6452576638
31515.9880373488
3501.68336362393
50.4233731951686
50.4228465811767
50.4225458113448
50.4223799317808
50.4222897621561
50.4222408443848
50.4222142878237
50.4221999212372
50.4221922278472
50.4221881753832
50.4221860861594
50.4221850359254
50.4221845228279
50.4221842801364
50.4221841696375
50.4221841216395
50.4221841020573
50.4221840948039
50.422184092798
50.4221840926922
50.4221840928883
50.4221840931274
50.4221840933154
50.4221840933502
50.4221840931831
50.4221840927637
50.4221840922174
50.4221840919055
50.4221840932066
50.4221840997712
50.4221841194303
50.4221841676886
50.4221842775095
50.4221845180652
50.4221850271554
50.42218607114
50.4221881516534
50.4221921921247
50.4221998666314
50.422214195593
50.4222406741616
50.4222894860428
50.4223797858248
50.4225472109523
50.4228544471965
50.4234001543393
3501.68831050982
31516.0805922399
31512.3064776749
3501.31274150245
50.4184093640052
50.4181161627242
50.4179521973098
50.4178635310919
50.4178162137726
50.4177909584339
50.4177774263586
50.4177701751503
50.4177663161324
50.4177642905768
50.4177632479362
50.4177627239376
50.4177624678297
50.4177623466571
50.4177622915433
50.417762267715
50.4177622581221
50.417762254743
50.4177622539792
50.4177622540716
50.4177622542858
50.4177622545005
50.4177622546427
50.4177622546876
50.417762254609
50.4177622543583
50.4177622540083
50.4177622537492
50.4177622541989
50.4177622572219
50.4177622668117
50.4177622906921
50.4177623453053
50.4177624650783
50.4177627185591
50.4177632383614
50.4177642749028
50.4177662915368
50.4177701356043
50.417777356247
50.4177908234054
50.4178159743237
50.4178632832128
50.4179527223155
50.4181203982834
50.4184252452885
3501.31580731192
31512.3666228629
31510.3228831108
3501.11655315043
50.4158104078229
50.4156547762066
50.4155694694185
50.4155242073266
50.4155004845449
50.4154880252057
50.4154814360007
50.4154779383106
50.4154760880169
50.4154751199269
50.4154746221862
50.4154743719948
50.4154742496152
50.415474191679
50.4154741653508
50.4154741540238
50.4154741495307
50.4154741480497
50.4154741477994
50.4154741479072
50.4154741480699
50.4154741482205
50.4154741483145
50.4154741483515
50.415474148315
50.415474148173
50.4154741479658
50.4154741477943
50.4154741479156
50.4154741492429
50.4154741537328
50.4154741650804
50.4154741911579
50.4154742483878
50.4154743694221
50.4154746174283
50.4154751119007
50.4154760749103
50.4154779158545
50.4154813928352
50.4154879354288
50.4155003108873
50.4155239743404
50.4155695750905
50.415656868971
50.415819180263
3501.11833981958
31510.3595416422
31509.2995619371
3501.01713757437
50.4145079571998
50.4144289169978
50.4143864076084
50.4143642620696
50.4143528578031
50.4143469631342
50.4143438861355
50.4143422680973
50.4143414171507
50.4143409732359
50.4143407451848
50.4143406304936
50.4143405743301
50.4143405477192
50.414340535636
50.4143405304648
50.4143405284469
50.414340527829
50.4143405277675
50.4143405278506
50.4143405279554
50.4143405280479
50.4143405281042
50.4143405281286
50.4143405281119
50.4143405280357
50.4143405279209
50.4143405278156
50.4143405278333
50.4143405283964
50.4143405304177
50.4143405356133
50.4143405476094
50.4143405739405
50.4143406295528
50.4143407433345
50.4143409699853
50.4143414115284
50.4143422574636
50.4143438630673
50.4143469100297
50.4143527458573
50.4143640867128
50.4143863557081
50.4144298617475
50.4145125225147
3501.01812195747
31509.3206517859
31508.7928694529
3500.96879494351
50.4138817139598
50.4138431852656
50.4138228326638
50.4138124146627
50.413807141071
50.4138044580091
50.4138030756478
50.413802355558
50.4138019790343
50.4138017831475
50.4138016825679
50.4138016319418
50.4138016071158
50.4138015953406
50.4138015899979
50.4138015877243
50.4138015868555
50.4138015866123
50.4138015866065
50.4138015866573
50.4138015867178
50.4138015867697
50.4138015868009
50.413801586815
50.4138015868074
50.4138015867685
50.4138015867085
50.4138015866491
50.4138015866414
50.4138015868722
50.4138015877514
50.4138015900506
50.4138015953826
50.4138016070829
50.4138016317462
50.4138016820978
50.4138017822343
50.4138019772292
50.4138023513859
50.4138030646638
50.4138044292544
50.4138070750114
50.4138122991184
50.4138227480159
50.413843569762
50.413883960827
3500.96931003876
31508.8043813971
31508.5516130684
3500.94619470843
50.4135923033049
50.4135742267591
50.4135648383197
50.4135601128864
50.4135577605002
50.4135565822329
50.413555983065
50.4135556738972
50.4135555131615
50.4135554297521
50.4135553869363
50.4135553653611
50.4135553547637
50.4135553497311
50.4135553474494
50.4135553464842
50.4135553461242
50.4135553460323
50.4135553460386
50.4135553460677
50.4135553461
50.4135553461271
50.4135553461432
50.4135553461507
50.4135553461471
50.4135553461282
50.4135553460984
50.4135553460674
50.4135553460579
50.4135553461495
50.4135553465202
50.4135553475062
50.4135553498021
50.4135553548364
50.4135553654225
50.4135553869746
50.4135554297379
50.4135555129175
50.4135556726631
50.4135559783669
50.4135565677369
50.4135577241905
50.4135600436679
50.4135647673779
50.4135743631492
50.4135933521624
3500.94645170071
31508.5576011881
31508.4410313255
3500.93602817708
50.4134636739311
50.4134554908644
50.4134513079876
50.4134492362447
50.4134482214763
50.413447720973
50.4134474697724
50.4134473413868
50.4134472750198
50.4134472406637
50.4134472230289
50.4134472141306
50.4134472097518
50.4134472076696
50.4134472067263
50.4134472063297
50.4134472061855
50.4134472061524
50.4134472061587
50.413447206174
50.4134472061902
50.4134472062035
50.4134472062113
50.413447206215
50.4134472062134
50.4134472062045
50.4134472061904
50.4134472061751
50.4134472061688
50.4134472062041
50.413447206356
50.4134472067667
50.4134472077264
50.4134472098288
50.4134472142368
50.4134472231815
50.4134472408782
50.4134472752394
50.4134473412455
50.4134474679764
50.4134477140894
50.4134482026689
50.4134491977619
50.413451260334
50.4134555290726
50.4134641393258
3500.93615084926
31508.4440106275
31508.3922719265
3500.93163377487
50.4134088045957
50.4134052224307
50.413403418506
50.413402538617
50.4134021143312
50.4134019082136
50.4134018061098
50.4134017544264
50.4134017278623
50.4134017141429
50.4134017071001
50.413401703541
50.4134017017861
50.4134017009505
50.4134017005724
50.4134017004144
50.4134017003586
50.4134017003472
50.4134017003512
50.4134017003587
50.4134017003663
50.4134017003725
50.4134017003761
50.4134017003778
50.413401700377
50.413401700373
50.4134017003666
50.4134017003594
50.4134017003558
50.4134017003691
50.4134017004297
50.413401700596
50.4134017009861
50.4134017018397
50.4134017036238
50.4134017072309
50.4134017143432
50.4134017281205
50.4134017545764
50.4134018055106
50.4134019051063
50.4134021050725
50.413402518503
50.413403390278
50.413405227344
50.4134090011464
3500.93168996604
31508.3936943304
31508.3716931637
3500.92982162243
50.4133865415709
50.4133850222021
50.4133842676751
50.4133839049527
50.4133837326649
50.4133836502025
50.4133836098837
50.4133835896728
50.4133835793451
50.4133835740237
50.4133835712916
50.4133835699088
50.4133835692257
50.4133835689002
50.413383568753
50.413383568692
50.413383568671
50.4133835686674
50.4133835686695
50.413383568673
50.4133835686764
50.4133835686791
50.4133835686807
50.4133835686813
50.413383568681
50.4133835686792
50.4133835686763
50.4133835686731
50.4133835686712
50.413383568676
50.4133835686995
50.4133835687649
50.4133835689192
50.4133835692563
50.4133835699591
50.4133835713747
50.4133835741556
50.4133835795276
50.413383589834
50.4133836097209
50.4133836488583
50.4133837283042
50.4133838949801
50.4133842523549
50.4133850186657
50.4133866206135
3500.92984638739
31508.3723466608
31508.3635199556
3500.92912532479
50.4133782000787
50.4133775745606
50.4133772679382
50.4133771225478
50.4133770544827
50.4133770223751
50.4133770068802
50.4133769991896
50.4133769952835
50.4133769932759
50.4133769922453
50.4133769917231
50.4133769914649
50.4133769913418
50.4133769912864
50.4133769912636
50.4133769912561
50.413376991255
50.4133769912561
50.4133769912576
50.413376991259
50.4133769912601
50.4133769912608
50.413376991261
50.4133769912608
50.41337699126
50.4133769912587
50.4133769912572
50.4133769912562
50.4133769912578
50.4133769912665
50.4133769912914
50.4133769913505
50.41337699148
50.4133769917493
50.4133769922902
50.413376993349
50.4133769953886
50.4133769992971
50.4133770068529
50.4133770218135
50.4133770525069
50.413377117826
50.4133772601667
50.4133775705517
50.4133782303243
3500.92913585128
31508.3638096029
31508.3606318088
3500.92889577482
50.4133756114791
50.4133753611185
50.4133752398693
50.4133751831177
50.4133751569162
50.4133751447315
50.4133751389281
50.4133751360774
50.413375134639
50.4133751339022
50.4133751335244
50.4133751333331
50.4133751332386
50.4133751331938
50.4133751331737
50.4133751331657
50.4133751331632
50.413375133163
50.4133751331635
50.4133751331642
50.4133751331647
50.4133751331651
50.4133751331654
50.4133751331654
50.4133751331652
50.4133751331648
50.4133751331642
50.4133751331635
50.4133751331629
50.4133751331632
50.4133751331662
50.4133751331752
50.4133751331969
50.4133751332449
50.4133751333449
50.4133751335457
50.413375133938
50.4133751346921
50.413375136136
50.4133751389324
50.4133751445027
50.4133751560507
50.4133751809715
50.4133752361395
50.4133753584008
50.4133756224651
3500.9289000991
31508.3607559358
31508.3599267682
3500.928855569
50.4133753281535
50.4133752305982
50.4133751838805
50.4133751622804
50.4133751524407
50.4133751479293
50.4133751458097
50.4133751447803
50.4133751442652
50.4133751440029
50.413375143869
50.4133751438016
50.4133751437685
50.4133751437531
50.4133751437464
50.4133751437439
50.4133751437432
50.4133751437433
50.4133751437436
50.4133751437439
50.4133751437441
50.4133751437442
50.4133751437443
50.4133751437443
50.4133751437441
50.4133751437439
50.4133751437435
50.4133751437431
50.4133751437427
50.4133751437426
50.4133751437433
50.4133751437461
50.4133751437534
50.4133751437702
50.4133751438058
50.4133751438776
50.4133751440183
50.413375144289
50.4133751448079
50.4133751458159
50.4133751478371
50.4133751520722
50.4133751613393
50.4133751821728
50.4133752290711
50.4133753319224
3500.92885728914
31508.3599783062
31508.3600975969
3500.92888998597
50.4133759421446
50.4133759050929
50.4133758875351
50.4133758795115
50.4133758759044
50.4133758742746
50.4133758735204
50.4133758731594
50.4133758729811
50.4133758728914
50.4133758728463
50.4133758728241
50.4133758728136
50.413375872809
50.4133758728072
50.4133758728067
50.4133758728068
50.4133758728069
50.4133758728071
50.4133758728073
50.4133758728073
50.4133758728074
50.4133758728073
50.4133758728073
50.4133758728072
50.4133758728069
50.4133758728067
50.4133758728064
50.413375872806
50.4133758728057
50.4133758728056
50.4133758728061
50.413375872808
50.4133758728131
50.4133758728246
50.4133758728487
50.4133758728967
50.4133758729901
50.4133758731704
50.4133758735231
50.4133758742368
50.4133758757507
50.4133758791116
50.4133758867843
50.413375904322
50.4133759433538
3500.92889064961
31508.360118365
31508.3606102689
3500.92895302034
50.4133768959499
50.4133768822225
50.4133768757825
50.4133768728732
50.413376871583
50.4133768710097
50.4133768707496
50.4133768706279
50.4133768705694
50.413376870541
50.4133768705274
50.4133768705212
50.4133768705188
50.413376870518
50.413376870518
50.4133768705183
50.4133768705185
50.4133768705188
50.4133768705189
50.413376870519
50.4133768705191
50.4133768705191
50.413376870519
50.4133768705189
50.4133768705188
50.4133768705186
50.4133768705184
50.4133768705181
50.4133768705178
50.4133768705173
50.4133768705169
50.4133768705165
50.4133768705165
50.4133768705173
50.4133768705202
50.413376870527
50.4133768705417
50.4133768705715
50.4133768706309
50.4133768707493
50.4133768709932
50.4133768715193
50.4133768727073
50.4133768754635
50.4133768818608
50.4133768963055
3500.92895326904
31508.3606184046
31508.3612529175
3500.92902674917
50.4133779751389
50.4133779701776
50.4133779678737
50.4133779668454
50.4133779663967
50.4133779662017
50.4133779661161
50.413377966078
50.413377966061
50.4133779660538
50.413377966051
50.4133779660504
50.4133779660506
50.4133779660512
50.4133779660518
50.4133779660523
50.4133779660527
50.413377966053
50.4133779660531
50.4133779660532
50.4133779660532
50.4133779660532
50.4133779660532
50.413377966053
50.4133779660529
50.4133779660527
50.4133779660525
50.4133779660523
50.4133779660519
50.4133779660515
50.4133779660509
50.4133779660502
50.4133779660495
50.4133779660488
50.4133779660486
50.4133779660494
50.4133779660525
50.4133779660603
50.4133779660775
50.4133779661142
50.4133779661934
50.4133779663696
50.4133779667773
50.4133779677417
50.4133779700167
50.4133779752301
3500.92902683979
31508.361256021
31508.3619437754
3500.92910437776
50.413379099464
50.4133790977184
50.4133790969174
50.4133790965653
50.413379096415
50.4133790963523
50.4133790963269
50.413379096317
50.4133790963139
50.4133790963136
50.4133790963144
50.4133790963155
50.4133790963167
50.4133790963176
50.4133790963184
50.413379096319
50.4133790963194
50.4133790963197
50.4133790963199
50.41337909632
50.41337909632
50.41337909632
50.4133790963199
50.4133790963198
50.4133790963197
50.4133790963195
50.4133790963193
50.413379096319
50.4133790963186
50.4133790963182
50.4133790963176
50.4133790963168
50.4133790963159
50.4133790963147
50.4133790963135
50.4133790963123
50.4133790963115
50.4133790963119
50.413379096315
50.4133790963242
50.4133790963471
50.4133790964026
50.4133790965368
50.4133790968634
50.4133790976495
50.4133790994812
3500.92910440988
31508.3619449271
31508.3626520977
3500.92918339566
50.4133802396607
50.4133802390677
50.4133802388005
50.4133802386857
50.4133802386388
50.4133802386211
50.4133802386155
50.4133802386149
50.4133802386161
50.4133802386178
50.4133802386196
50.4133802386212
50.4133802386226
50.4133802386236
50.4133802386244
50.413380238625
50.4133802386255
50.4133802386257
50.4133802386259
50.413380238626
50.413380238626
50.413380238626
50.413380238626
50.4133802386259
50.4133802386257
50.4133802386255
50.4133802386254
50.4133802386251
50.4133802386247
50.4133802386242
50.4133802386236
50.4133802386228
50.4133802386219
50.4133802386206
50.4133802386191
50.4133802386173
50.4133802386154
50.4133802386136
50.4133802386123
50.4133802386126
50.4133802386171
50.4133802386321
50.413380238673
50.413380238778
50.4133802390387
50.4133802396605
3500.92918340668
31508.3626525151
31508.3633666062
3500.92926289767
50.4133813853157
50.4133813851264
50.4133813850444
50.4133813850108
50.4133813849986
50.4133813849954
50.413381384996
50.4133813849979
50.4133813850002
50.4133813850025
50.4133813850044
50.413381385006
50.4133813850073
50.4133813850083
50.4133813850091
50.4133813850096
50.4133813850101
50.4133813850103
50.4133813850105
50.4133813850106
50.4133813850107
50.4133813850106
50.4133813850106
50.4133813850105
50.4133813850103
50.4133813850102
50.41338138501
50.4133813850097
50.4133813850093
50.4133813850089
50.4133813850083
50.4133813850075
50.4133813850066
50.4133813850054
50.4133813850039
50.4133813850021
50.413381385
50.4133813849976
50.4133813849952
50.413381384993
50.4133813849919
50.413381384994
50.4133813850041
50.4133813850342
50.4133813851139
50.4133813853128
3500.92926290134
31508.3633667531
31508.3640832596
3500.92934256483
50.4133825328081
50.413382532757
50.4133825327375
50.4133825327308
50.4133825327295
50.4133825327306
50.4133825327328
50.4133825327351
50.4133825327375
50.4133825327396
50.4133825327413
50.4133825327428
50.413382532744
50.413382532745
50.4133825327457
50.4133825327462
50.4133825327466
50.4133825327468
50.413382532747
50.4133825327471
50.4133825327471
50.4133825327471
50.4133825327471
50.413382532747
50.4133825327468
50.4133825327467
50.4133825327465
50.4133825327462
50.4133825327458
50.4133825327454
50.4133825327448
50.4133825327441
50.4133825327432
50.4133825327421
50.4133825327407
50.413382532739
50.4133825327371
50.4133825327348
50.4133825327323
50.4133825327297
50.4133825327273
50.4133825327258
50.4133825327263
50.4133825327321
50.4133825327511
50.4133825328056
3500.92934256598
31508.3640833105
31508.3648006416
3500.92942228721
50.4133836809067
50.4133836809015
50.4133836809023
50.4133836809038
50.4133836809056
50.4133836809076
50.4133836809098
50.4133836809119
50.4133836809139
50.4133836809157
50.4133836809172
50.4133836809185
50.4133836809196
50.4133836809204
50.4133836809211
50.4133836809215
50.4133836809219
50.4133836809221
50.4133836809223
50.4133836809224
50.4133836809224
50.4133836809224
50.4133836809223
50.4133836809222
50.4133836809221
50.413383680922
50.4133836809217
50.4133836809215
50.4133836809211
50.4133836809208
50.4133836809202
50.4133836809196
50.4133836809187
50.4133836809177
50.4133836809165
50.413383680915
50.4133836809133
50.4133836809113
50.4133836809091
50.4133836809068
50.4133836809045
50.4133836809023
50.4133836809003
50.4133836808988
50.4133836808982
50.4133836809048
3500.92942228756
31508.3648006584
31508.3655182663
3500.92950202771
50.4133848292014
50.4133848292108
50.4133848292176
50.4133848292213
50.4133848292235
50.4133848292252
50.4133848292269
50.4133848292286
50.4133848292302
50.4133848292316
50.4133848292329
50.413384829234
50.4133848292348
50.4133848292356
50.4133848292362
50.4133848292365
50.4133848292369
50.4133848292371
50.4133848292372
50.4133848292373
50.4133848292373
50.4133848292373
50.4133848292373
50.4133848292372
50.413384829237
50.4133848292369
50.4133848292367
50.4133848292364
50.4133848292361
50.4133848292358
50.4133848292353
50.4133848292347
50.4133848292339
50.4133848292331
50.413384829232
50.4133848292307
50.4133848292293
50.4133848292277
50.4133848292259
50.413384829224
50.4133848292221
50.4133848292203
50.4133848292181
50.4133848292148
50.4133848292085
50.4133848291999
3500.92950202775
31508.3655182714
31508.3662359703
3500.92958177403
50.4133859775583
50.4133859775718
50.41338597758
50.4133859775837
50.4133859775855
50.4133859775866
50.4133859775877
50.413385977589
50.4133859775901
50.4133859775912
50.4133859775922
50.413385977593
50.4133859775937
50.4133859775944
50.4133859775948
50.4133859775952
50.4133859775955
50.4133859775956
50.4133859775958
50.4133859775958
50.4133859775958
50.4133859775958
50.4133859775958
50.4133859775957
50.4133859775956
50.4133859775955
50.4133859775953
50.4133859775951
50.4133859775948
50.4133859775944
50.413385977594
50.4133859775935
50.4133859775928
50.413385977592
50.4133859775912
50.4133859775901
50.4133859775889
50.4133859775877
50.4133859775863
50.413385977585
50.4133859775837
50.4133859775824
50.4133859775807
50.4133859775775
50.41338597757
50.4133859775571
3500.92958177395
31508.3662359693
31508.3669536999
3500.9296615222
50.4133871259346
50.4133871259488
50.4133871259568
50.4133871259599
50.413387125961
50.4133871259615
50.413387125962
50.4133871259627
50.4133871259635
50.4133871259642
50.4133871259649
50.4133871259655
50.4133871259661
50.4133871259666
50.413387125967
50.4133871259672
50.4133871259675
50.4133871259676
50.4133871259677
50.4133871259678
50.4133871259678
50.4133871259677
50.4133871259677
50.4133871259677
50.4133871259675
50.4133871259674
50.4133871259672
50.413387125967
50.4133871259668
50.4133871259664
50.4133871259661
50.4133871259656
50.4133871259651
50.4133871259645
50.4133871259638
50.4133871259629
50.413387125962
50.4133871259611
50.4133871259602
50.4133871259593
50.4133871259587
50.4133871259581
50.4133871259571
50.4133871259544
50.4133871259472
50.4133871259336
3500.92966152213
31508.3669536987
31508.3676714375
3500.92974127095
50.4133882743168
50.4133882743306
50.4133882743378
50.4133882743401
50.4133882743405
50.4133882743403
50.4133882743403
50.4133882743405
50.4133882743408
50.4133882743412
50.4133882743417
50.4133882743421
50.4133882743425
50.4133882743428
50.4133882743431
50.4133882743434
50.4133882743435
50.4133882743436
50.4133882743437
50.4133882743438
50.4133882743438
50.4133882743438
50.4133882743437
50.4133882743436
50.4133882743436
50.4133882743434
50.4133882743433
50.4133882743431
50.4133882743428
50.4133882743426
50.4133882743423
50.4133882743419
50.4133882743414
50.413388274341
50.4133882743404
50.4133882743398
50.4133882743392
50.4133882743386
50.4133882743381
50.4133882743377
50.4133882743376
50.4133882743377
50.4133882743374
50.4133882743356
50.4133882743291
50.4133882743159
3500.92974127091
31508.367671437
31508.3683891778
3500.92982101987
50.4133894227008
50.4133894227136
50.41338942272
50.4133894227215
50.4133894227211
50.4133894227203
50.4133894227197
50.4133894227195
50.4133894227194
50.4133894227195
50.4133894227197
50.4133894227199
50.4133894227201
50.4133894227204
50.4133894227206
50.4133894227207
50.4133894227208
50.4133894227209
50.413389422721
50.413389422721
50.413389422721
50.413389422721
50.4133894227209
50.4133894227209
50.4133894227208
50.4133894227207
50.4133894227205
50.4133894227204
50.4133894227202
50.4133894227199
50.4133894227197
50.4133894227194
50.413389422719
50.4133894227187