/*--------------------------------*- C++ -*----------------------------------*\
  =========                 |
  \\      /  F ield         | OpenFOAM: The Open Source CFD Toolbox
   \\    /   O peration     | Website:  https://openfoam.org
    \\  /    A nd           | Version:  10
     \\/     M anipulation  |
\*---------------------------------------------------------------------------*/
FoamFile
{
    format      ascii;
    class       volScalarField;
    location    "9.2";
    object      p;
}
// * * * * * * * * * * * * * * * * * * * * * * * * * * * * * * * * * * * * * //

dimensions      [1 -1 -2 0 0 0 0];

internalField   nonuniform List<scalar> 
2500
(
100104.29604083
100104.296041437
100104.296042263
100104.296043063
100104.296043681
100104.296044133
100104.296044446
100104.296044662
100104.296044808
100104.296044907
100104.296044974
100104.296045019
100104.29604505
100104.296045071
100104.296045085
100104.296045096
100104.296045103
100104.296045109
100104.296045112
100104.296045115
100104.296045117
100104.296045119
100104.29604512
100104.29604512
100104.29604512
100104.29604512
100104.29604512
100104.296045119
100104.296045117
100104.296045116
100104.296045113
100104.29604511
100104.296045105
100104.296045099
100104.296045092
100104.296045081
100104.296045065
100104.296045043
100104.296045012
100104.296044966
100104.296044898
100104.296044798
100104.296044651
100104.296044435
100104.29604412
100104.296043666
100104.296043043
100104.296042235
100104.296041399
100104.296040795
100104.293789812
100104.293790274
100104.293790956
100104.29379165
100104.293792201
100104.293792615
100104.293792908
100104.293793112
100104.293793251
100104.293793346
100104.293793411
100104.293793455
100104.293793486
100104.293793506
100104.293793521
100104.293793532
100104.293793539
100104.293793545
100104.293793549
100104.293793551
100104.293793554
100104.293793555
100104.293793556
100104.293793556
100104.293793557
100104.293793556
100104.293793556
100104.293793555
100104.293793554
100104.293793552
100104.293793549
100104.293793546
100104.293793541
100104.293793535
100104.293793527
100104.293793516
100104.293793501
100104.29379348
100104.293793449
100104.293793404
100104.293793338
100104.293793242
100104.293793101
100104.293792896
100104.293792602
100104.293792185
100104.293791629
100104.293790928
100104.293790237
100104.293789778
100104.291533131
100104.291533484
100104.291533969
100104.291534497
100104.291534927
100104.291535262
100104.291535504
100104.291535677
100104.291535797
100104.291535881
100104.291535938
100104.291535978
100104.291536006
100104.291536026
100104.29153604
100104.29153605
100104.291536058
100104.291536063
100104.291536067
100104.29153607
100104.291536072
100104.291536073
100104.291536074
100104.291536075
100104.291536075
100104.291536075
100104.291536074
100104.291536073
100104.291536072
100104.29153607
100104.291536068
100104.291536064
100104.29153606
100104.291536054
100104.291536046
100104.291536036
100104.291536021
100104.291536001
100104.291535972
100104.291535931
100104.291535873
100104.291535788
100104.291535667
100104.291535493
100104.291535249
100104.291534911
100104.291534476
100104.291533942
100104.291533449
100104.291533095
100104.289271023
100104.289271252
100104.289271535
100104.289271877
100104.289272163
100104.289272396
100104.289272569
100104.289272698
100104.28927279
100104.289272856
100104.289272903
100104.289272937
100104.289272961
100104.289272979
100104.289272992
100104.289273001
100104.289273008
100104.289273013
100104.289273017
100104.28927302
100104.289273022
100104.289273024
100104.289273025
100104.289273025
100104.289273025
100104.289273025
100104.289273025
100104.289273024
100104.289273022
100104.28927302
100104.289273018
100104.289273015
100104.28927301
100104.289273005
100104.289272997
100104.289272987
100104.289272974
100104.289272956
100104.289272931
100104.289272896
100104.289272849
100104.289272782
100104.289272688
100104.289272559
100104.289272383
100104.289272147
100104.289271857
100104.28927151
100104.28927122
100104.289270987
100104.28700402
100104.287004125
100104.287004234
100104.287004402
100104.287004552
100104.287004686
100104.287004792
100104.287004876
100104.287004939
100104.287004987
100104.287005023
100104.287005049
100104.28700507
100104.287005085
100104.287005096
100104.287005104
100104.287005111
100104.287005116
100104.287005119
100104.287005122
100104.287005124
100104.287005126
100104.287005127
100104.287005127
100104.287005127
100104.287005127
100104.287005127
100104.287005126
100104.287005124
100104.287005123
100104.28700512
100104.287005117
100104.287005113
100104.287005108
100104.287005101
100104.287005092
100104.28700508
100104.287005064
100104.287005044
100104.287005016
100104.28700498
100104.287004931
100104.287004867
100104.287004782
100104.287004674
100104.287004538
100104.287004385
100104.287004212
100104.287004098
100104.287003987
100104.284732906
100104.284732904
100104.284732879
100104.284732907
100104.284732944
100104.284732994
100104.284733042
100104.284733086
100104.284733123
100104.284733154
100104.284733179
100104.284733199
100104.284733215
100104.284733227
100104.284733237
100104.284733245
100104.28473325
100104.284733255
100104.284733258
100104.284733261
100104.284733263
100104.284733264
100104.284733265
100104.284733266
100104.284733266
100104.284733266
100104.284733265
100104.284733264
100104.284733263
100104.284733261
100104.284733259
100104.284733256
100104.284733252
100104.284733247
100104.284733241
100104.284733233
100104.284733223
100104.28473321
100104.284733194
100104.284733173
100104.284733147
100104.284733116
100104.284733078
100104.284733032
100104.284732983
100104.284732932
100104.284732892
100104.284732862
100104.284732883
100104.284732879
100104.282458603
100104.282458523
100104.282458413
100104.28245834
100104.282458296
100104.282458282
100104.282458284
100104.282458297
100104.282458313
100104.282458329
100104.282458345
100104.282458359
100104.282458371
100104.282458381
100104.282458389
100104.282458395
100104.2824584
100104.282458404
100104.282458407
100104.28245841
100104.282458411
100104.282458413
100104.282458413
100104.282458414
100104.282458414
100104.282458414
100104.282458413
100104.282458413
100104.282458411
100104.28245841
100104.282458408
100104.282458405
100104.282458402
100104.282458397
100104.282458392
100104.282458385
100104.282458377
100104.282458366
100104.282458354
100104.282458339
100104.282458323
100104.282458306
100104.282458289
100104.282458276
100104.282458272
100104.282458285
100104.282458328
100104.2824584
100104.282458509
100104.282458584
100104.280181999
100104.280181874
100104.28018172
100104.280181587
100104.280181491
100104.280181435
100104.280181405
100104.280181394
100104.280181394
100104.280181399
100104.280181407
100104.280181416
100104.280181424
100104.280181431
100104.280181437
100104.280181443
100104.280181447
100104.28018145
100104.280181453
100104.280181455
100104.280181457
100104.280181458
100104.280181459
100104.280181459
100104.280181459
100104.280181459
100104.280181459
100104.280181458
100104.280181457
100104.280181455
100104.280181454
100104.280181451
100104.280181448
100104.280181444
100104.28018144
100104.280181434
100104.280181427
100104.280181419
100104.280181411
100104.280181402
100104.280181393
100104.280181388
100104.280181387
100104.280181398
100104.280181427
100104.280181482
100104.280181578
100104.280181711
100104.280181866
100104.280181988
100104.277903842
100104.277903701
100104.277903535
100104.277903374
100104.277903253
100104.277903171
100104.277903122
100104.277903095
100104.277903082
100104.277903079
100104.27790308
100104.277903084
100104.277903089
100104.277903094
100104.277903099
100104.277903103
100104.277903106
100104.277903109
100104.277903111
100104.277903113
100104.277903114
100104.277903115
100104.277903116
100104.277903117
100104.277903117
100104.277903116
100104.277903116
100104.277903115
100104.277903114
100104.277903113
100104.277903111
100104.277903109
100104.277903107
100104.277903103
100104.2779031
100104.277903095
100104.27790309
100104.277903085
100104.277903079
100104.277903075
100104.277903073
100104.277903076
100104.277903088
100104.277903115
100104.277903164
100104.277903245
100104.277903367
100104.27790353
100104.277903698
100104.277903837
100104.275624702
100104.275624567
100104.275624409
100104.275624243
100104.275624114
100104.275624021
100104.27562396
100104.275623923
100104.275623902
100104.275623892
100104.275623888
100104.275623888
100104.27562389
100104.275623893
100104.275623896
100104.275623899
100104.275623902
100104.275623904
100104.275623906
100104.275623908
100104.275623909
100104.27562391
100104.27562391
100104.27562391
100104.275623911
100104.27562391
100104.27562391
100104.275623909
100104.275623909
100104.275623907
100104.275623906
100104.275623904
100104.275623902
100104.275623899
100104.275623896
100104.275623893
100104.27562389
100104.275623886
100104.275623884
100104.275623884
100104.275623887
100104.275623897
100104.275623917
100104.275623954
100104.275624015
100104.275624108
100104.275624238
100104.275624406
100104.275624566
100104.275624701
100104.273344978
100104.273344861
100104.273344722
100104.273344566
100104.27334444
100104.273344344
100104.273344279
100104.273344236
100104.27334421
100104.273344194
100104.273344187
100104.273344184
100104.273344183
100104.273344184
100104.273344186
100104.273344187
100104.273344189
100104.273344191
100104.273344192
100104.273344194
100104.273344195
100104.273344195
100104.273344196
100104.273344196
100104.273344196
100104.273344196
100104.273344196
100104.273344195
100104.273344194
100104.273344193
100104.273344192
100104.273344191
100104.273344189
100104.273344187
100104.273344185
100104.273344183
100104.273344181
100104.273344179
100104.273344179
100104.273344182
100104.27334419
100104.273344205
100104.273344231
100104.273344273
100104.273344339
100104.273344435
100104.273344562
100104.27334472
100104.273344862
100104.27334498
100104.27106493
100104.271064834
100104.271064717
100104.271064579
100104.271064462
100104.27106437
100104.271064304
100104.271064259
100104.271064229
100104.27106421
100104.2710642
100104.271064194
100104.271064191
100104.27106419
100104.271064191
100104.271064191
100104.271064192
100104.271064194
100104.271064195
100104.271064195
100104.271064196
100104.271064197
100104.271064197
100104.271064197
100104.271064197
100104.271064197
100104.271064197
100104.271064196
100104.271064196
100104.271064195
100104.271064194
100104.271064193
100104.271064191
100104.27106419
100104.271064189
100104.271064188
100104.271064187
100104.271064188
100104.27106419
100104.271064195
100104.271064206
100104.271064224
100104.271064254
100104.271064299
100104.271064366
100104.271064458
100104.271064576
100104.271064717
100104.271064836
100104.271064933
100104.268784713
100104.268784639
100104.268784544
100104.268784424
100104.268784321
100104.268784235
100104.268784171
100104.268784125
100104.268784094
100104.268784073
100104.26878406
100104.268784052
100104.268784047
100104.268784045
100104.268784044
100104.268784044
100104.268784044
100104.268784044
100104.268784045
100104.268784046
100104.268784046
100104.268784046
100104.268784047
100104.268784047
100104.268784047
100104.268784047
100104.268784046
100104.268784046
100104.268784046
100104.268784045
100104.268784044
100104.268784043
100104.268784043
100104.268784042
100104.268784041
100104.268784041
100104.268784042
100104.268784044
100104.268784048
100104.268784056
100104.268784069
100104.268784089
100104.268784121
100104.268784167
100104.268784231
100104.268784317
100104.268784422
100104.268784543
100104.268784641
100104.268784716
100104.266504416
100104.266504361
100104.266504284
100104.266504184
100104.266504093
100104.266504016
100104.266503955
100104.26650391
100104.266503878
100104.266503856
100104.266503841
100104.266503831
100104.266503825
100104.266503822
100104.26650382
100104.266503819
100104.266503818
100104.266503818
100104.266503818
100104.266503819
100104.266503819
100104.266503819
100104.266503819
100104.266503819
100104.266503819
100104.266503819
100104.266503819
100104.266503819
100104.266503818
100104.266503818
100104.266503817
100104.266503817
100104.266503816
100104.266503816
100104.266503816
100104.266503817
100104.266503819
100104.266503822
100104.266503828
100104.266503837
100104.266503852
100104.266503874
100104.266503906
100104.266503952
100104.266504012
100104.26650409
100104.266504182
100104.266504284
100104.266504362
100104.266504419
100104.264224086
100104.264224045
100104.264223984
100104.264223901
100104.264223823
100104.264223753
100104.264223698
100104.264223654
100104.264223623
100104.2642236
100104.264223584
100104.264223573
100104.264223565
100104.264223561
100104.264223558
100104.264223556
100104.264223555
100104.264223554
100104.264223554
100104.264223554
100104.264223554
100104.264223554
100104.264223554
100104.264223554
100104.264223554
100104.264223554
100104.264223554
100104.264223554
100104.264223553
100104.264223553
100104.264223553
100104.264223553
100104.264223553
100104.264223553
100104.264223554
100104.264223555
100104.264223558
100104.264223562
100104.264223569
100104.26422358
100104.264223596
100104.264223619
100104.264223651
100104.264223694
100104.26422375
100104.26422382
100104.264223899
100104.264223984
100104.264224046
100104.264224087
100104.261943745
100104.261943715
100104.261943667
100104.261943598
100104.261943531
100104.26194347
100104.261943419
100104.261943378
100104.261943347
100104.261943324
100104.261943307
100104.261943295
100104.261943287
100104.261943282
100104.261943278
100104.261943275
100104.261943274
100104.261943273
100104.261943272
100104.261943272
100104.261943272
100104.261943272
100104.261943271
100104.261943271
100104.261943271
100104.261943271
100104.261943271
100104.261943271
100104.261943271
100104.261943271
100104.261943271
100104.261943271
100104.261943271
100104.261943272
100104.261943273
100104.261943275
100104.261943279
100104.261943284
100104.261943292
100104.261943304
100104.26194332
100104.261943344
100104.261943375
100104.261943416
100104.261943467
100104.261943529
100104.261943597
100104.261943666
100104.261943715
100104.261943745
100104.259663403
100104.259663381
100104.259663343
100104.259663286
100104.259663229
100104.259663175
100104.259663129
100104.259663091
100104.259663061
100104.259663039
100104.259663022
100104.259663009
100104.259663
100104.259662994
100104.25966299
100104.259662987
100104.259662985
100104.259662983
100104.259662982
100104.259662982
100104.259662981
100104.259662981
100104.259662981
100104.259662981
100104.259662981
100104.25966298
100104.25966298
100104.25966298
100104.25966298
100104.25966298
100104.259662981
100104.259662981
100104.259662982
100104.259662983
100104.259662985
100104.259662987
100104.259662992
100104.259662998
100104.259663006
100104.259663019
100104.259663035
100104.259663058
100104.259663088
100104.259663126
100104.259663173
100104.259663227
100104.259663285
100104.259663342
100104.259663381
100104.259663403
100104.257383064
100104.257383048
100104.257383017
100104.257382971
100104.257382923
100104.257382875
100104.257382834
100104.257382799
100104.25738277
100104.257382748
100104.257382731
100104.257382719
100104.257382709
100104.257382703
100104.257382698
100104.257382694
100104.257382692
100104.25738269
100104.257382689
100104.257382688
100104.257382687
100104.257382687
100104.257382687
100104.257382687
100104.257382686
100104.257382686
100104.257382686
100104.257382686
100104.257382686
100104.257382687
100104.257382687
100104.257382688
100104.257382689
100104.25738269
100104.257382692
100104.257382696
100104.2573827
100104.257382707
100104.257382716
100104.257382729
100104.257382745
100104.257382768
100104.257382796
100104.257382831
100104.257382873
100104.257382921
100104.25738297
100104.257383017
100104.257383047
100104.257383063
100104.255102729
100104.255102718
100104.255102693
100104.255102655
100104.255102614
100104.255102572
100104.255102535
100104.255102503
100104.255102477
100104.255102455
100104.255102439
100104.255102426
100104.255102416
100104.255102409
100104.255102404
100104.2551024
100104.255102397
100104.255102395
100104.255102394
100104.255102393
100104.255102392
100104.255102392
100104.255102391
100104.255102391
100104.255102391
100104.255102391
100104.255102391
100104.255102391
100104.255102391
100104.255102391
100104.255102392
100104.255102393
100104.255102394
100104.255102396
100104.255102398
100104.255102402
100104.255102407
100104.255102414
100104.255102423
100104.255102436
100104.255102453
100104.255102474
100104.2551025
100104.255102533
100104.25510257
100104.255102612
100104.255102653
100104.255102692
100104.255102717
100104.255102728
100104.252822399
100104.25282239
100104.25282237
100104.252822339
100104.252822304
100104.252822268
100104.252822235
100104.252822205
100104.252822181
100104.252822161
100104.252822145
100104.252822132
100104.252822122
100104.252822115
100104.252822109
100104.252822105
100104.252822102
100104.2528221
100104.252822098
100104.252822097
100104.252822096
100104.252822096
100104.252822095
100104.252822095
100104.252822095
100104.252822094
100104.252822094
100104.252822095
100104.252822095
100104.252822095
100104.252822096
100104.252822097
100104.252822098
100104.252822101
100104.252822103
100104.252822107
100104.252822113
100104.25282212
100104.252822129
100104.252822142
100104.252822158
100104.252822178
100104.252822203
100104.252822232
100104.252822266
100104.252822302
100104.252822337
100104.252822369
100104.252822389
100104.252822398
100104.250542072
100104.250542065
100104.250542049
100104.250542023
100104.250541994
100104.250541962
100104.250541933
100104.250541906
100104.250541884
100104.250541865
100104.250541849
100104.250541837
100104.250541827
100104.25054182
100104.250541814
100104.25054181
100104.250541807
100104.250541804
100104.250541802
100104.250541801
100104.2505418
100104.250541799
100104.250541799
100104.250541798
100104.250541798
100104.250541798
100104.250541798
100104.250541798
100104.250541798
100104.250541799
100104.2505418
100104.250541801
100104.250541803
100104.250541805
100104.250541808
100104.250541812
100104.250541818
100104.250541825
100104.250541835
100104.250541847
100104.250541862
100104.250541881
100104.250541904
100104.250541931
100104.25054196
100104.250541992
100104.250542022
100104.250542048
100104.250542064
100104.25054207
100104.248261748
100104.248261743
100104.24826173
100104.248261709
100104.248261683
100104.248261656
100104.24826163
100104.248261606
100104.248261585
100104.248261568
100104.248261553
100104.248261541
100104.248261532
100104.248261524
100104.248261519
100104.248261514
100104.248261511
100104.248261508
100104.248261506
100104.248261505
100104.248261504
100104.248261503
100104.248261502
100104.248261502
100104.248261501
100104.248261501
100104.248261501
100104.248261502
100104.248261502
100104.248261503
100104.248261504
100104.248261505
100104.248261507
100104.248261509
100104.248261512
100104.248261517
100104.248261522
100104.24826153
100104.248261539
100104.248261551
100104.248261565
100104.248261583
100104.248261604
100104.248261628
100104.248261654
100104.248261681
100104.248261707
100104.248261729
100104.248261742
100104.248261746
100104.245981426
100104.245981423
100104.245981412
100104.245981395
100104.245981373
100104.24598135
100104.245981327
100104.245981305
100104.245981286
100104.24598127
100104.245981256
100104.245981245
100104.245981236
100104.245981228
100104.245981223
100104.245981218
100104.245981215
100104.245981212
100104.24598121
100104.245981208
100104.245981207
100104.245981206
100104.245981206
100104.245981205
100104.245981205
100104.245981205
100104.245981205
100104.245981205
100104.245981206
100104.245981206
100104.245981207
100104.245981209
100104.245981211
100104.245981213
100104.245981216
100104.245981221
100104.245981226
100104.245981234
100104.245981243
100104.245981254
100104.245981268
100104.245981284
100104.245981303
100104.245981325
100104.245981348
100104.245981371
100104.245981393
100104.245981411
100104.245981421
100104.245981425
100104.243701107
100104.243701105
100104.243701096
100104.243701081
100104.243701063
100104.243701043
100104.243701023
100104.243701004
100104.243700987
100104.243700972
100104.243700959
100104.243700948
100104.243700939
100104.243700932
100104.243700926
100104.243700922
100104.243700918
100104.243700916
100104.243700914
100104.243700912
100104.243700911
100104.24370091
100104.243700909
100104.243700908
100104.243700908
100104.243700908
100104.243700908
100104.243700909
100104.243700909
100104.24370091
100104.243700911
100104.243700912
100104.243700914
100104.243700917
100104.24370092
100104.243700925
100104.24370093
100104.243700937
100104.243700946
100104.243700956
100104.243700969
100104.243700984
100104.243701002
100104.243701021
100104.243701041
100104.243701061
100104.24370108
100104.243701094
100104.243701103
100104.243701105
100104.241420789
100104.241420788
100104.241420781
100104.241420769
100104.241420754
100104.241420736
100104.241420719
100104.241420702
100104.241420686
100104.241420673
100104.241420661
100104.241420651
100104.241420642
100104.241420635
100104.24142063
100104.241420626
100104.241420622
100104.241420619
100104.241420617
100104.241420615
100104.241420614
100104.241420613
100104.241420612
100104.241420612
100104.241420612
100104.241420611
100104.241420612
100104.241420612
100104.241420612
100104.241420613
100104.241420614
100104.241420616
100104.241420618
100104.24142062
100104.241420624
100104.241420628
100104.241420634
100104.24142064
100104.241420648
100104.241420658
100104.24142067
100104.241420684
100104.2414207
100104.241420717
100104.241420734
100104.241420752
100104.241420767
100104.241420779
100104.241420786
100104.241420788
100104.239140473
100104.239140472
100104.239140467
100104.239140457
100104.239140444
100104.23914043
100104.239140415
100104.2391404
100104.239140386
100104.239140373
100104.239140362
100104.239140353
100104.239140345
100104.239140338
100104.239140333
100104.239140329
100104.239140325
100104.239140323
100104.23914032
100104.239140319
100104.239140317
100104.239140316
100104.239140316
100104.239140315
100104.239140315
100104.239140315
100104.239140315
100104.239140315
100104.239140316
100104.239140317
100104.239140318
100104.239140319
100104.239140321
100104.239140324
100104.239140327
100104.239140331
100104.239140337
100104.239140343
100104.239140351
100104.23914036
100104.239140371
100104.239140383
100104.239140397
100104.239140412
100104.239140428
100104.239140443
100104.239140455
100104.239140465
100104.239140471
100104.239140472
100104.236860158
100104.236860158
100104.236860154
100104.236860146
100104.236860136
100104.236860123
100104.23686011
100104.236860097
100104.236860085
100104.236860073
100104.236860063
100104.236860055
100104.236860047
100104.236860041
100104.236860036
100104.236860032
100104.236860029
100104.236860026
100104.236860024
100104.236860022
100104.236860021
100104.23686002
100104.236860019
100104.236860018
100104.236860018
100104.236860018
100104.236860018
100104.236860019
100104.236860019
100104.23686002
100104.236860021
100104.236860023
100104.236860025
100104.236860027
100104.23686003
100104.236860034
100104.236860039
100104.236860045
100104.236860053
100104.236860061
100104.236860071
100104.236860082
100104.236860095
100104.236860108
100104.236860121
100104.236860134
100104.236860144
100104.236860152
100104.236860156
100104.236860157
100104.234579844
100104.234579845
100104.234579842
100104.234579836
100104.234579827
100104.234579817
100104.234579806
100104.234579794
100104.234579783
100104.234579773
100104.234579764
100104.234579756
100104.23457975
100104.234579744
100104.234579739
100104.234579735
100104.234579732
100104.234579729
100104.234579727
100104.234579725
100104.234579724
100104.234579723
100104.234579722
100104.234579722
100104.234579721
100104.234579721
100104.234579721
100104.234579722
100104.234579722
100104.234579723
100104.234579724
100104.234579726
100104.234579728
100104.23457973
100104.234579733
100104.234579737
100104.234579742
100104.234579748
100104.234579754
100104.234579762
100104.234579771
100104.234579781
100104.234579792
100104.234579804
100104.234579815
100104.234579825
100104.234579834
100104.23457984
100104.234579843
100104.234579843
100104.232299531
100104.232299532
100104.23229953
100104.232299526
100104.232299519
100104.232299511
100104.232299501
100104.232299491
100104.232299482
100104.232299473
100104.232299465
100104.232299458
100104.232299451
100104.232299446
100104.232299442
100104.232299438
100104.232299435
100104.232299432
100104.23229943
100104.232299429
100104.232299427
100104.232299426
100104.232299426
100104.232299425
100104.232299425
100104.232299425
100104.232299425
100104.232299425
100104.232299426
100104.232299426
100104.232299428
100104.232299429
100104.232299431
100104.232299433
100104.232299436
100104.23229944
100104.232299444
100104.23229945
100104.232299456
100104.232299463
100104.232299471
100104.23229948
100104.232299489
100104.232299499
100104.232299509
100104.232299517
100104.232299524
100104.232299528
100104.23229953
100104.23229953
100104.230019219
100104.23001922
100104.230019219
100104.230019217
100104.230019211
100104.230019205
100104.230019197
100104.230019189
100104.23001918
100104.230019173
100104.230019165
100104.230019159
100104.230019153
100104.230019148
100104.230019144
100104.230019141
100104.230019138
100104.230019135
100104.230019133
100104.230019132
100104.23001913
100104.230019129
100104.230019129
100104.230019128
100104.230019128
100104.230019128
100104.230019128
100104.230019128
100104.230019129
100104.23001913
100104.230019131
100104.230019132
100104.230019134
100104.230019136
100104.230019139
100104.230019142
100104.230019146
100104.230019151
100104.230019157
100104.230019163
100104.23001917
100104.230019178
100104.230019186
100104.230019195
100104.230019203
100104.230019209
100104.230019215
100104.230019218
100104.230019219
100104.230019217
100104.227738907
100104.227738909
100104.227738909
100104.227738908
100104.227738904
100104.227738899
100104.227738892
100104.227738886
100104.227738879
100104.227738872
100104.227738866
100104.22773886
100104.227738855
100104.22773885
100104.227738847
100104.227738843
100104.227738841
100104.227738838
100104.227738836
100104.227738835
100104.227738834
100104.227738833
100104.227738832
100104.227738831
100104.227738831
100104.227738831
100104.227738831
100104.227738831
100104.227738832
100104.227738833
100104.227738834
100104.227738835
100104.227738837
100104.227738839
100104.227738842
100104.227738845
100104.227738848
100104.227738853
100104.227738858
100104.227738864
100104.22773887
100104.227738877
100104.227738884
100104.22773889
100104.227738897
100104.227738902
100104.227738906
100104.227738907
100104.227738908
100104.227738905
100104.225458596
100104.225458599
100104.2254586
100104.225458599
100104.225458597
100104.225458593
100104.225458588
100104.225458583
100104.225458577
100104.225458571
100104.225458566
100104.225458561
100104.225458556
100104.225458552
100104.225458549
100104.225458546
100104.225458543
100104.225458541
100104.225458539
100104.225458538
100104.225458537
100104.225458536
100104.225458535
100104.225458535
100104.225458534
100104.225458534
100104.225458534
100104.225458535
100104.225458535
100104.225458536
100104.225458537
100104.225458538
100104.22545854
100104.225458542
100104.225458544
100104.225458547
100104.22545855
100104.225458554
100104.225458559
100104.225458564
100104.225458569
100104.225458575
100104.225458581
100104.225458586
100104.225458591
100104.225458595
100104.225458598
100104.225458598
100104.225458597
100104.225458594
100104.223178285
100104.223178288
100104.22317829
100104.223178291
100104.22317829
100104.223178288
100104.223178284
100104.22317828
100104.223178275
100104.223178271
100104.223178266
100104.223178262
100104.223178258
100104.223178254
100104.223178251
100104.223178248
100104.223178246
100104.223178244
100104.223178242
100104.223178241
100104.22317824
100104.223178239
100104.223178238
100104.223178238
100104.223178238
100104.223178237
100104.223178238
100104.223178238
100104.223178238
100104.223178239
100104.22317824
100104.223178241
100104.223178243
100104.223178244
100104.223178247
100104.223178249
100104.223178252
100104.223178256
100104.22317826
100104.223178264
100104.223178268
100104.223178273
100104.223178278
100104.223178282
100104.223178286
100104.223178288
100104.22317829
100104.223178289
100104.223178287
100104.223178283
100104.220897974
100104.220897979
100104.220897982
100104.220897984
100104.220897984
100104.220897983
100104.220897981
100104.220897977
100104.220897974
100104.22089797
100104.220897966
100104.220897962
100104.220897959
100104.220897956
100104.220897953
100104.220897951
100104.220897948
100104.220897947
100104.220897945
100104.220897944
100104.220897943
100104.220897942
100104.220897941
100104.220897941
100104.220897941
100104.220897941
100104.220897941
100104.220897941
100104.220897941
100104.220897942
100104.220897943
100104.220897944
100104.220897945
100104.220897947
100104.220897949
100104.220897951
100104.220897954
100104.220897957
100104.22089796
100104.220897964
100104.220897968
100104.220897972
100104.220897975
100104.220897978
100104.220897981
100104.220897982
100104.220897982
100104.22089798
100104.220897977
100104.220897973
100104.218617664
100104.21861767
100104.218617673
100104.218617677
100104.218617678
100104.218617679
100104.218617677
100104.218617675
100104.218617672
100104.218617669
100104.218617666
100104.218617663
100104.21861766
100104.218617657
100104.218617655
100104.218617653
100104.218617651
100104.218617649
100104.218617648
100104.218617647
100104.218617646
100104.218617645
100104.218617645
100104.218617644
100104.218617644
100104.218617644
100104.218617644
100104.218617644
100104.218617644
100104.218617645
100104.218617646
100104.218617647
100104.218617648
100104.218617649
100104.218617651