/*--------------------------------*- C++ -*----------------------------------*\
  =========                 |
  \\      /  F ield         | OpenFOAM: The Open Source CFD Toolbox
   \\    /   O peration     | Website:  https://openfoam.org
    \\  /    A nd           | Version:  10
     \\/     M anipulation  |
\*---------------------------------------------------------------------------*/
FoamFile
{
    format      ascii;
    class       volScalarField;
    location    "9.2";
    object      p_rgh;
}
// * * * * * * * * * * * * * * * * * * * * * * * * * * * * * * * * * * * * * //

dimensions      [1 -1 -2 0 0 0 0];

internalField   nonuniform List<scalar> 
2500
(
104.409614497548
104.409615592871
104.409619324288
104.409622617983
104.409624980079
104.409626564113
104.409627585919
104.409628235007
104.409628639536
104.40962888785
104.409629038579
104.409629129252
104.409629183778
104.409629217116
104.40962923794
104.409629251415
104.409629260277
104.409629266447
104.409629270842
104.40962927397
104.409629276211
104.409629277769
104.409629278816
104.409629279398
104.409629279588
104.409629279427
104.409629278904
104.409629277987
104.409629276604
104.409629274713
104.409629272108
104.409629268557
104.40962926377
104.409629257105
104.409629247617
104.409629233516
104.409629211848
104.409629177506
104.409629121437
104.409629029193
104.409628877038
104.409628627298
104.409628222566
104.409627574816
104.409626554741
104.40962497174
104.409622602063
104.409619286496
104.409615536366
104.409614491116
104.409869677518
104.409875747064
104.409885251793
104.40989322291
104.409898896221
104.409902682935
104.409905124121
104.409906666639
104.409907619862
104.409908195899
104.409908535948
104.409908732472
104.409908844173
104.409908907284
104.409908943067
104.409908963804
104.409908976144
104.409908983856
104.40990898895
104.409908992398
104.409908994756
104.4099089964
104.409908997448
104.409908998059
104.409908998277
104.409908998117
104.409908997593
104.409908996648
104.409908995251
104.409908993272
104.409908990521
104.409908986665
104.409908981092
104.409908972724
104.40990895954
104.409908937756
104.409908900459
104.409908835369
104.409908721034
104.4099085216
104.409908178917
104.409907601308
104.409906649322
104.409905112014
104.409902678672
104.409898895872
104.409893204691
104.409885179077
104.409875626137
104.409869796815
104.41014710188
104.410159104023
104.410173233482
104.410184550317
104.410192481766
104.410197726887
104.410201086896
104.41020319784
104.410204495711
104.410205275635
104.410205732711
104.410205994325
104.410206141038
104.410206222266
104.41020626713
104.410206292188
104.410206306566
104.41020631518
104.410206320637
104.410206324232
104.410206326662
104.410206328321
104.410206329398
104.410206329994
104.410206330213
104.410206330052
104.410206329529
104.410206328597
104.410206327186
104.410206325192
104.410206322398
104.410206318353
104.410206312372
104.410206303044
104.410206287721
104.410206261397
104.410206214772
104.410206131171
104.410205981389
104.410205716311
104.410205256077
104.410204474465
104.410203178268
104.410201073653
104.41019772258
104.410192477706
104.410184510853
104.410173097102
104.410158857732
104.410147125556
104.410418267886
104.410434686361
104.410450979325
104.410463460372
104.410471986412
104.410477508092
104.410480980325
104.410483126019
104.410484426437
104.410485198256
104.410485645712
104.410485899469
104.410486040681
104.410486118373
104.410486161083
104.41048618489
104.410486198569
104.410486206791
104.410486212
104.410486215464
104.410486217821
104.410486219422
104.410486220469
104.410486221066
104.410486221284
104.410486221124
104.4104862206
104.410486219684
104.410486218316
104.410486216366
104.410486213645
104.410486209759
104.410486204026
104.410486195164
104.410486180655
104.410486155728
104.410486111476
104.410486031687
104.410485887754
104.410485630855
104.410485180255
104.41048440637
104.410483106476
104.410480964754
104.410477497004
104.410471966359
104.410463384833
104.410450764975
104.410434283942
104.410418004845
104.410660292851
104.410678537315
104.410694701131
104.410706570139
104.410714458951
104.410719452921
104.410722531087
104.410724400834
104.410725518028
104.410726173766
104.410726550792
104.410726763483
104.41072688163
104.410726946764
104.410726982838
104.410727003196
104.410727015129
104.410727022463
104.410727027207
104.410727030408
104.41072703262
104.410727034134
104.410727035152
104.41072703572
104.410727035895
104.410727035749
104.41072703524
104.410727034352
104.410727033042
104.410727031165
104.410727028604
104.410727024995
104.410727019786
104.410727011898
104.410726999267
104.410726978022
104.410726940783
104.410726874063
104.410726753878
104.410726538728
104.410726159142
104.410725501351
104.410724383619
104.410722515197
104.410719436593
104.410714425379
104.410706466791
104.410694429171
104.410678003711
104.410659705172
104.41085957938
104.4108771131
104.410891402062
104.410901483905
104.410907999394
104.410912027204
104.410914459018
104.410915910863
104.41091676669
104.41091726422
104.410917548681
104.410917708941
104.41091779829
104.410917848058
104.410917876114
104.410917892368
104.410917902205
104.410917908448
104.410917912624
104.41091791552
104.410917917558
104.410917918969
104.4109179199
104.410917920439
104.410917920613
104.410917920468
104.410917919973
104.410917919129
104.410917917878
104.410917916117
104.410917913745
104.410917910471
104.410917905872
104.410917899135
104.410917888759
104.410917871835
104.410917842935
104.410917792076
104.410917701331
104.410917539397
104.410917253088
104.41091675387
104.410915897068
104.41091444483
104.410912009451
104.410907960439
104.410901371128
104.410891110849
104.410876515511
104.410858752919
104.411012126337
104.411027171969
104.411038647944
104.411046442503
104.411051338087
104.411054290496
104.411056035067
104.411057058445
104.411057653808
104.411057997102
104.411058192767
104.411058303333
104.411058365571
104.411058400918
104.411058421407
104.411058433747
104.411058441532
104.411058446713
104.411058450292
104.411058452868
104.411058454702
104.411058455997
104.411058456855
104.411058457365
104.41105845751
104.41105845735
104.411058456884
104.411058456084
104.411058454905
104.41105845329
104.411058451122
104.411058448211
104.411058444239
104.411058438636
104.411058430371
104.411058417521
104.411058396407
104.411058360361
104.411058297206
104.411058185578
104.411057988706
104.411057644218
104.411057047924
104.411056023528
104.411054274547
104.411051301679
104.411046338195
104.411038376114
104.411026588685
104.411011205157
104.411121332625
104.411133082336
104.41114156117
104.41114710932
104.41115049283
104.411152479719
104.411153626701
104.411154286849
104.411154665606
104.411154882386
104.411155005844
104.41115507613
104.411155116381
104.411155139911
104.411155154128
104.411155163121
104.411155169117
104.411155173308
104.41115517632
104.411155178546
104.411155180176
104.41115518134
104.411155182112
104.411155182548
104.411155182708
104.411155182548
104.411155182112
104.411155181355
104.411155180278
104.411155178808
104.411155176858
104.411155174312
104.411155170921
104.411155166352
104.411155159949
104.411155150519
104.411155135851
104.411155111811
104.411155070949
104.411155000009
104.411154875794
104.411154658257
104.411154278831
104.411153617824
104.411152467103
104.411150463609
104.411147024701
104.411141334989
104.411132574809
104.411120454359
104.411194817294
104.411203274765
104.411209088168
104.411212750114
104.41121491362
104.411216145745
104.411216837601
104.41121722656
104.41121744593
104.411217570349
104.411217641216
104.411217682064
104.411217706089
104.411217720728
104.411217730099
104.411217736415
104.411217740882
104.4112177442
104.411217746674
104.411217748566
104.411217749977
104.411217750981
104.411217751665
104.411217752044
104.41121775216
104.411217752015
104.411217751607
104.411217750938
104.411217749948
104.411217748639
104.411217746907
104.411217744724
104.411217741901
104.411217738234
104.411217733403
104.411217726723
104.411217716974
104.411217701927
104.411217677465
104.411217636181
104.411217564804
104.411217439934
104.411217220186
104.411216830762
104.41121613649
104.411214892723
104.411212688545
104.411208917678
104.411202874617
104.411194074084
104.411241497626
104.411247159805
104.411250881414
104.411253130689
104.411254411403
104.411255112369
104.411255491126
104.411255696526
104.411255809071
104.411255871746
104.411255907326
104.411255928164
104.411255940911
104.411255949206
104.411255954954
104.411255959145
104.411255962361
104.411255964864
104.411255966828
104.411255968371
104.41125596955
104.411255970408
104.41125597099
104.41125597131
104.411255971398
104.411255971267
104.411255970888
104.411255970277
104.411255969404
104.411255968269
104.411255966785
104.411255964937
104.411255962652
104.411255959814
104.411255956278
104.411255951738
104.411255945655
104.411255937026
104.4112559239
104.411255902713
104.411255866798
104.411255803818
104.411255691128
104.41125548564
104.411255105719
104.411254397637
104.411253089842
104.411250763675
104.411246870412
104.411240927162
104.411269596167
104.411273145495
104.411275378574
104.411276663246
104.411277359919
104.411277718522
104.411277899504
104.411277990468
104.411278036743
104.411278060958
104.411278074258
104.41127808216
104.411278087369
104.411278091211
104.411278094238
104.41127809677
104.411278098894
104.411278100684
104.411278102169
104.411278103362
104.411278104308
104.411278105006
104.411278105472
104.411278105734
104.411278105792
104.411278105661
104.411278105326
104.411278104788
104.411278104046
104.411278103071
104.411278101848
104.411278100364
104.411278098574
104.411278096479
104.41127809402
104.411278091182
104.41127808782
104.411278083688
104.411278078158
104.411278069951
104.411278056388
104.41127803197
104.411277985651
104.411277894847
104.411277713589
104.411277351261
104.411276638144
104.411275303326
104.411272951664
104.411269193268
104.411285673559
104.411287766809
104.411289024021
104.411289700714
104.411290040429
104.411290195174
104.411290260643
104.411290285367
104.411290293239
104.411290294855
104.411290294709
104.411290294505
104.411290294724
104.411290295408
104.411290296397
104.411290297561
104.411290298769
104.411290299904
104.411290300923
104.411290301781
104.41129030248
104.411290303004
104.411290303367
104.411290303557
104.411290303586
104.411290303455
104.411290303164
104.411290302698
104.411290302087
104.411290301286
104.411290300312
104.411290299162
104.411290297867
104.411290296441
104.411290294942
104.411290293487
104.411290292177
104.411290291217
104.411290290707
104.411290290649
104.411290290547
104.411290288786
104.411290280928
104.411290256452
104.41129019123
104.411290034986
104.411289686221
104.411288979187
104.411287645678
104.41128540902
104.411294439531
104.411295604485
104.411296266495
104.411296587146
104.411296724575
104.411296767037
104.411296770122
104.411296759339
104.411296746403
104.41129673543
104.411296727427
104.411296722174
104.411296719059
104.411296717473
104.411296716891
104.411296716935
104.411296717313
104.411296717837
104.411296718419
104.411296718943
104.411296719394
104.411296719758
104.411296719991
104.411296720107
104.411296720107
104.411296719991
104.411296719743
104.411296719365
104.41129671887
104.411296718259
104.411296717532
104.411296716731
104.411296715887
104.411296715072
104.411296714417
104.411296714112
104.411296714403
104.411296715727
104.411296718565
104.4112967236
104.411296731385
104.411296742255
104.411296755221
104.411296766295
104.411296763647
104.411296720893
104.41129657907
104.411296241407
104.411295533399
104.411294276724
104.411299000742
104.411299613115
104.411299935338
104.411300062071
104.41130009359
104.411300079548
104.41130005203
104.411300023887
104.411300000545
104.411299982909
104.411299970452
104.411299962041
104.411299956657
104.411299953397
104.411299951549
104.411299950632
104.411299950269
104.411299950269
104.411299950414
104.411299950632
104.411299950865
104.41129995104
104.411299951171
104.411299951214
104.411299951171
104.411299951054
104.411299950851
104.41129995056
104.411299950196
104.411299949759
104.411299949279
104.411299948799
104.411299948406
104.411299948159
104.411299948231
104.411299948886
104.411299950472
104.411299953499
104.411299958636
104.411299966829
104.41129997911
104.41129999666
104.411300020045
104.411300048465
104.411300076477
104.411300090826
104.411300057531
104.411299921994
104.41129957365
104.411298906198
104.411301265194
104.411301568456
104.41130170878
104.411301737986
104.411301719272
104.411301680215
104.411301639804
104.411301604428
104.411301576518
104.411301555636
104.411301540706
104.411301530345
104.411301523389
104.411301518834
104.411301515982
104.41130151425
104.411301513261
104.411301512737
104.411301512489
104.411301512402
104.411301512402
104.411301512417
104.411301512431
104.411301512402
104.411301512344
104.411301512228
104.411301512053
104.411301511849
104.411301511602
104.41130151134
104.411301511107
104.411301510947
104.411301510932
104.411301511223
104.411301511966
104.411301513435
104.411301516055
104.411301520377
104.411301527114
104.411301537286
104.411301552071
104.41130157288
104.411301600863
104.411301636486
104.411301677363
104.411301716929
104.411301735221
104.411301701897
104.411301547574
104.411301212996
104.411302333945
104.411302474182
104.411302523455
104.411302508437
104.411302469438
104.411302421955
104.411302377921
104.411302340653
104.411302311331
104.41130228914
104.411302272914
104.411302261346
104.411302253284
104.411302247783
104.411302244087
104.411302241657
104.411302240114
104.411302239125
104.411302238528
104.411302238164
104.411302237946
104.411302237815
104.411302237713
104.411302237611
104.411302237524
104.411302237408
104.411302237277
104.411302237146
104.411302237015
104.411302236927
104.411302236913
104.411302237044
104.411302237408
104.41130223815
104.411302239459
104.411302241657
104.41130224512
104.411302250432
104.41130225829
104.411302269698
104.411302285793
104.411302307941
104.411302337321
104.411302374807
104.411302419263
104.411302467313
104.411302506487
104.411302519817
104.411302463457
104.411302306326
104.411302808003
104.411302867098
104.411302874301
104.411302842564
104.411302798195
104.411302750363
104.411302707216
104.411302670691
104.411302641631
104.411302619235
104.411302602472
104.41130259019
104.411302581386
104.411302575143
104.411302570792
104.411302567794
104.411302565743
104.41130256436
104.411302563443
104.411302562818
104.411302562396
104.411302562119
104.411302561901
104.411302561755
104.411302561624
104.411302561508
104.411302561421
104.411302561362
104.411302561348
104.411302561406
104.41130256161
104.411302562003
104.411302562701
104.411302563865
104.411302565684
104.411302568478
104.411302572626
104.411302578665
104.411302587308
104.411302599445
104.411302616092
104.411302638458
104.411302667591
104.411302704291
104.411302747816
104.411302796158
104.411302840919
104.411302872162
104.411302861568
104.411302793727
104.4113029992
104.411303020359
104.411303010289
104.411302974913
104.411302931971
104.41130288734
104.41130284706
104.411302812572
104.411302784632
104.411302762644
104.411302745837
104.411302733221
104.411302723922
104.411302717141
104.411302712266
104.411302708817
104.411302706343
104.411302704611
104.411302703404
104.41130270256
104.411302701963
104.411302701541
104.411302701235
104.411302701017
104.411302700842
104.411302700741
104.411302700682
104.411302700697
104.411302700784
104.411302701003
104.411302701381
104.411302702021
104.411302703011
104.411302704539
104.41130270678
104.411302710039
104.411302714725
104.411302721317
104.41130273047
104.41130274297
104.41130275969
104.411302781678
104.411302809676
104.411302844339
104.411302884924
104.411302929992
104.411302973371
104.411303008761
104.411303017288
104.411302991764
104.411303061948
104.411303066663
104.411303051049
104.411303017623
104.41130297877
104.411302938621
104.41130290195
104.411302870023
104.41130284364
104.411302822453
104.411302805907
104.411302793204
104.411302783657
104.411302776512
104.411302771245
104.411302767403
104.411302764609
104.411302762572
104.411302761117
104.411302760054
104.411302759298
104.411302758745
104.411302758366
104.41130275809
104.411302757901
104.411302757799
104.41130275777
104.411302757842
104.411302758032
104.411302758366
104.411302758919
104.411302759763
104.411302761029
104.411302762848
104.411302765453
104.411302769106
104.411302774199
104.411302781169
104.411302790599
104.411302803186
104.411302819659
104.411302840846
104.411302867287
104.411302899374
104.411302936322
104.411302976849
104.411303016081
104.411303049681
104.41130306464
104.411303057801
104.411303069355
104.411303067725
104.411303051675
104.411303022207
104.411302988141
104.411302952692
104.411302919747
104.411302890541
104.411302865934
104.41130284578
104.411302829729
104.411302817156
104.411302807508
104.411302800159
104.411302794644
104.411302790511
104.411302787441
104.411302785171
104.411302783497
104.41130278226
104.411302781358
104.411302780703
104.411302780238
104.411302779903
104.411302779699
104.411302779597
104.411302779612
104.411302779728
104.411302780005
104.411302780456
104.411302781155
104.411302782188
104.411302783672
104.411302785738
104.411302788634
104.411302792578
104.411302797933
104.411302805122
104.411302814668
104.411302827124
104.411302843117
104.411302863271
104.411302887951
104.411302917302
104.411302950481
104.411302986235
104.411303020606
104.411303050321
104.411303066081
104.411303066692
104.411303054556
104.411303051034
104.411303036512
104.411303011308
104.411302981927
104.411302950932
104.41130292158
104.411302895096
104.411302872337
104.411302853361
104.411302837965
104.411302825698
104.411302816108
104.411302808687
104.411302802997
104.41130279866
104.411302795386
104.411302792927
104.411302791079
104.411302789696
104.411302788678
104.411302787921
104.411302787383
104.411302787019
104.411302786786
104.411302786684
104.411302786713
104.411302786903
104.411302787237
104.41130278779
104.41130278862
104.411302789813
104.411302791472
104.411302793742
104.411302796841
104.411302801003
104.411302806533
104.411302813824
104.411302823297
104.411302835477
104.411302850829
104.411302869805
104.411302892622
104.411302919267
104.411302948793
104.411302980036
104.411303009678
104.411303035071
104.411303049477
104.411303052504
104.411303031899
104.411303028275
104.411303015833
104.411302994646
104.4113029695
104.411302942579
104.411302916589
104.411302892695
104.411302871813
104.411302854089
104.411302839479
104.411302827633
104.411302818218
104.411302810826
104.411302805063
104.41130280061
104.411302797191
104.411302794586
104.411302792607
104.411302791108
104.411302789988
104.411302789158
104.411302788561
104.411302788139
104.411302787907
104.411302787805
104.411302787863
104.411302788067
104.411302788489
104.411302789129
104.41130279006
104.41130279137
104.411302793174
104.41130279559
104.411302798835
104.411302803128
104.411302808745
104.411302816021
104.41130282532
104.411302837078
104.411302851659
104.411302869383
104.411302890323
104.411302914334
104.411302940483
104.411302967623
104.411302992972
104.41130301432
104.411303026718
104.411303030065
104.411303007233
104.411303004177
104.411302993816
104.41130297615
104.411302954759
104.411302931461
104.411302908527
104.411302887122
104.411302868073
104.411302851659
104.411302837892
104.411302826586
104.411302817462
104.411302810186
104.411302804438
104.411302799926
104.411302796434
104.411302793727
104.411302791646
104.41130279006
104.411302788852
104.411302787965
104.41130278731
104.411302786859
104.411302786597
104.41130278651
104.411302786582
104.41130278683
104.411302787295
104.411302788008
104.411302789027
104.411302790424
104.41130279233
104.411302794862
104.411302798209
104.411302802546
104.411302808163
104.411302815322
104.411302824359
104.411302835593
104.411302849316
104.411302865745
104.411302884837
104.411302906345
104.411302929409
104.411302952882
104.411302974433
104.41130299223
104.411303002576
104.411303005487
104.41130298283
104.411302980487
104.411302972017
104.411302957378
104.411302939247
104.411302919194
104.411302899069
104.411302879977
104.411302862718
104.411302847613
104.411302834778
104.411302824068
104.411302815308
104.411302808221
104.41130280256
104.411302798078
104.411302794542
104.411302791777
104.411302789638
104.411302787979
104.411302786713
104.411302785767
104.411302785084
104.411302784603
104.411302784341
104.41130278424
104.411302784327
104.411302784618
104.411302785113
104.411302785884
104.411302786961
104.411302788445
104.41130279041
104.411302793
104.411302796376
104.411302800727
104.411302806257
104.411302813227
104.4113028219
104.411302832537
104.411302845328
104.411302860448
104.41130287775
104.411302896944
104.411302917171
104.411302937384
104.411302955647
104.411302970373
104.411302978842
104.411302981083
104.411302959357
104.411302957757
104.411302950917
104.411302938912
104.411302923647
104.411302906432
104.411302888882
104.411302871944
104.411302856402
104.411302842593
104.411302830704
104.411302820648
104.411302812325
104.4113028055
104.411302799985
104.411302795561
104.411302792039
104.41130278926
104.411302787077
104.411302785389
104.411302784079
104.411302783104
104.411302782377
104.411302781897
104.411302781606
104.411302781518
104.41130278162
104.411302781926
104.41130278245
104.411302783265
104.411302784385
104.411302785913
104.411302787921
104.411302790541
104.411302793902
104.41130279818
104.411302803564
104.411302810273
104.411302818524
104.411302828506
104.411302840381
104.411302854191
104.411302869761
104.411302886787
104.411302904438
104.41130292177
104.411302937151
104.411302949244
104.411302956054
104.411302957626
104.411302936976
104.41130293606
104.411302930675
104.411302920926
104.411302908149
104.41130289351
104.411302878289
104.411302863358
104.411302849447
104.411302836917
104.411302825989
104.411302816632
104.411302808774
104.411302802269
104.411302796958
104.411302792651
104.411302789187
104.411302786422
104.41130278424
104.411302782522
104.411302781198
104.411302780194
104.411302779452
104.411302778957
104.411302778666
104.411302778564
104.411302778681
104.411302779001
104.411302779554
104.411302780383
104.411302781533
104.411302783075
104.411302785098
104.411302787703
104.411302791006
104.411302795183
104.411302800378
104.411302806766
104.411302814537
104.411302823835
104.411302834749
104.411302847264
104.411302861205
104.411302876208
104.411302891531
104.411302906272
104.41130291915
104.411302928958
104.411302934328
104.411302935245
104.4113029156
104.411302915323
104.41130291122
104.411302903463
104.411302892884
104.41130288053
104.411302867404
104.411302854336
104.411302841982
104.411302830704
104.411302820736
104.411302812092
104.411302804758
104.411302798617
104.411302793538
104.411302789391
104.411302786015
104.411302783308
104.41130278114
104.411302779423
104.411302778099
104.41130277708
104.411302776338
104.411302775829
104.411302775523
104.411302775436
104.411302775552
104.411302775872
104.41130277644
104.411302777284
104.411302778433
104.411302779976
104.411302781984
104.411302784545
104.411302787761
104.411302791792
104.41130279674
104.411302802779
104.41130281004
104.411302818626
104.411302828565
104.411302839842
104.411302852226
104.411302865337
104.41130287855
104.411302891007
104.411302901659
104.411302909488
104.411302913606
104.411302913883
104.411302895111
104.411302895445
104.411302892491
104.41130288651
104.411302877896
104.411302867578
104.411302856388
104.411302845067
104.411302834167
104.411302824112
104.411302815075
104.411302807173
104.411302800378
104.41130279463
104.411302789842
104.411302785869
104.411302782624
104.411302779976
104.411302777866
104.411302776178
104.411302774854
104.411302773835
104.411302773093
104.411302772569
104.411302772278
104.411302772191
104.411302772307
104.411302772627
104.411302773195
104.411302774039
104.411302775188
104.411302776702
104.411302778666
104.411302781155
104.411302784254
104.411302788096
104.411302792781
104.411302798428
104.411302805136
104.411302812994
104.411302821987
104.411302832043
104.411302842957
104.411302854336
104.411302865614
104.411302876004
104.411302884691
104.411302890745
104.411302893714
104.411302893408
104.411302875349
104.41130287628
104.411302874389
104.411302869994
104.411302863155
104.411302854714
104.41130284527
104.411302835564
104.411302826062
104.411302817156
104.411302809051
104.411302801876
104.411302795648
104.411302790322
104.411302785826
104.411302782071
104.411302778972
104.41130277644
104.411302774388
104.411302772744
104.411302771434
104.41130277043
104.411302769688
104.411302769178
104.411302768887
104.411302768785
104.411302768902
104.411302769222
104.411302769789
104.411302770619
104.411302771754
104.411302773224
104.41130277513
104.411302777517
104.411302780471
104.411302784094
104.411302788474
104.411302793713
104.411302799868
104.411302806984
104.411302815046
104.411302823937
104.411302833469
104.411302843218
104.411302852735
104.411302861248
104.411302868175
104.411302872628
104.411302874563
104.41130287369
104.411302856199
104.411302857756
104.411302856839
104.411302853929
104.41130284869
104.411302841967
104.411302834138
104.411302825916
104.411302817723
104.411302809924
104.41130280275
104.411302796303
104.411302790642
104.411302785738
104.411302781577
104.411302778055
104.41130277513
104.411302772714
104.411302770735
104.411302769149
104.411302767883
104.411302766894
104.411302766166
104.411302765671
104.41130276538
104.411302765278
104.411302765395
104.411302765715
104.411302766253
104.411302767068
104.41130276816
104.411302769586
104.411302771405
104.41130277366
104.411302776454
104.411302779845
104.411302783905
104.411302788692
104.41130279428
104.411302800669
104.411302807828
104.411302815613
104.411302823821
104.411302832086
104.411302839959
104.411302846784
104.411302852095
104.411302855093
104.411302856053
104.411302854583
104.411302837529
104.411302839741
104.411302839784
104.411302838256
104.411302834502
104.411302829336
104.411302823006
104.411302816181
104.411302809211
104.411302802473
104.411302796172
104.411302790453
104.41130278536
104.411302780907
104.41130277708
104.41130277382
104.411302771085
104.4113027688
104.411302766923
104.411302765395
104.411302764172
104.411302763227
104.411302762514
104.411302762033
104.411302761742
104.41130276164
104.411302761742
104.411302762048
104.411302762586
104.411302763358
104.411302764405
104.411302765759
104.411302767476
104.4113027696
104.411302772205
104.411302775334
104.411302779059
104.41130278341
104.41130278843
104.411302794091
104.411302800363
104.411302807101
104.411302814071
104.411302820939
104.411302827328
104.411302832581
104.411302836423
104.411302838038
104.411302838067
104.411302835972
104.411302819237
104.411302822176
104.411302823151
104.411302822933
104.411302820576
104.411302816865
104.411302811917
104.411302806373
104.411302800567
104.411302794833
104.411302789376
104.411302784356
104.41130277983
104.411302775829
104.411302772351
104.411302769367
104.411302766821
104.411302764696
104.411302762936
104.41130276148
104.411302760316
104.411302759414
104.411302758715
104.41130275825
104.411302757959
104.411302757871
104.411302757959
104.41130275825
104.411302758759
104.411302759487
104.411302760476
104.411302761757
104.411302763358
104.411302765337
104.411302767738
104.411302770604
104.41130277398
104.41130277788
104.411302782319
104.411302787295
104.411302792709
104.411302798428
104.411302804248
104.411302809836
104.411302814828
104.41130281864
104.4113028211
104.411302821405
104.411302820517
104.411302817723
104.41130280128
104.411302805005
104.411302806941
104.411302808017
104.411302806955
104.411302804583
104.411302800916
104.41130279658
104.41130279185
104.411302787063
104.411302782421
104.411302778084
104.411302774126
104.411302770575
104.411302767447
104.41130276474
104.411302762426
104.411302760447
104.411302758803
104.411302757449
104.411302756344
104.41130275547
104.411302754816
104.411302754364
104.411302754073
104.411302753986
104.411302754073
104.41130275435
104.411302754816
104.411302755499
104.411302756431
104.411302757624
104.411302759108
104.411302760927
104.41130276311
104.4113027657
104.411302768713
104.411302772161
104.411302776047
104.411302780325
104.411302784923
104.411302789696
104.41130279444
104.411302798806
104.411302802531
104.411302804991
104.411302806155
104.411302805194
104.41130280339
104.411302799825
104.411302783526
104.411302788169
104.411302791079
104.411302793422
104.411302793611
104.411302792505
104.411302790017
104.411302786786
104.411302783075
104.41130277919
104.411302775334
104.411302771652
104.411302768232
104.411302765133
104.411302762368
104.411302759938
104.411302757842
104.411302756038
104.411302754525
104.411302753258
104.411302752225
104.41130275141
104.411302750785
104.411302750334
104.411302750072
104.411302749984
104.411302750057
104.411302750304
104.411302750741
104.411302751367
104.411302752225
104.411302753317
104.411302754685
104.411302756329
104.411302758293
104.411302760593
104.411302763241
104.411302766253
104.4113027696
104.411302773209
104.411302777036
104.411302780893
104.411302784618
104.411302787863
104.41130279041
104.411302791617
104.411302791545
104.411302789333
104.411302786568
104.411302782115
104.411302765948
104.411302771652
104.411302775567
104.41130277919
104.411302780558
104.411302780631
104.411302779234
104.411302777051
104.411302774286
104.411302771245
104.411302768131
104.411302765089
104.411302762208
104.411302759545
104.411302757129
104.41130275499
104.411302753113
104.411302751483
104.411302750101
104.411302748937
104.411302747976
104.411302747219
104.411302746623
104.411302746201
104.411302745953
104.411302745852
104.41130274591
104.411302746128
104.411302746536
104.411302747118
104.411302747889
104.411302748878
104.411302750101
104.41130275157
104.411302753317
104.411302755325
104.411302757624