/*--------------------------------*- C++ -*----------------------------------*\
  =========                 |
  \\      /  F ield         | OpenFOAM: The Open Source CFD Toolbox
   \\    /   O peration     | Website:  https://openfoam.org
    \\  /    A nd           | Version:  10
     \\/     M anipulation  |
\*---------------------------------------------------------------------------*/
FoamFile
{
    format      ascii;
    class       surfaceScalarField;
    location    "9.2";
    object      phi;
}
// * * * * * * * * * * * * * * * * * * * * * * * * * * * * * * * * * * * * * //

dimensions      [1 0 -1 0 0 0 0];

internalField   nonuniform List<scalar> 
4900
(
-4.90442751384043e-12
4.92001060899215e-12
-7.75833536259468e-12
2.87821286440671e-12
-7.89129899732036e-12
1.58892471491743e-13
-6.51376260219292e-12
-1.35227811066243e-12
-4.84436992919877e-12
-1.64461131105591e-12
-3.42304912588374e-12
-1.39667914559988e-12
-2.36668423269554e-12
-1.03176717215256e-12
-1.62508199865861e-12
-7.17093153187097e-13
-1.11721370952081e-12
-4.83531195419698e-13
-7.72186293065129e-13
-3.20943044978709e-13
-5.37682990370637e-13
-2.10729980610563e-13
-3.77127095646433e-13
-1.37130943891864e-13
-2.65762094597094e-13
-8.83035318190818e-14
-1.8709585580935e-13
-5.59695543512083e-14
-1.3029115670082e-13
-3.44611355056345e-14
-8.82807374213445e-14
-2.00030232931981e-14
-5.64605892685855e-14
-1.01263558630937e-14
-3.17930338534418e-14
-3.26413019246119e-15
-1.22419653365349e-14
1.58735731846783e-15
3.57944435667397e-15
5.07585315177244e-15
1.66639178854536e-14
7.59679591480442e-15
2.77413038082757e-14
9.41058185863427e-15
3.73832534573404e-14
1.06751866556741e-14
4.60437207926464e-14
1.15068949029349e-14
5.41399104638133e-14
1.19418043152573e-14
6.20386415913705e-14
1.20287267289779e-14
7.01226206508272e-14
1.17506978066929e-14
7.87936225961709e-14
1.10876635172891e-14
8.85122546710772e-14
9.97970491096458e-15
9.98452764784343e-14
8.32027953684238e-15
1.13522458127194e-13
5.94574935750923e-15
1.30520533798736e-13
2.60968288195358e-15
1.52235952322232e-13
-2.10782252199088e-15
1.80698649120438e-13
-8.83924275511494e-15
2.18952777223352e-13
-1.85986553262361e-14
2.7162471427926e-13
-3.29685683536854e-14
3.45795681145534e-13
-5.44048226635328e-14
4.52286965075167e-13
-8.6650957076831e-14
6.0755342696624e-13
-1.3534629798432e-13
8.3633614581286e-13
-2.08784280186198e-13
1.17522486053101e-12
-3.18823255026818e-13
1.67676401785617e-12
-4.81425644280662e-13
2.4128271065624e-12
-7.15921722979368e-13
3.46709227287976e-12
-1.03409464775805e-12
4.89491089987658e-12
-1.40755141905703e-12
6.58462009543403e-12
-1.66914414443e-12
7.98958078027489e-12
-1.38373228340573e-12
7.85571115352232e-12
1.56228859874096e-13
4.94384257983469e-12
2.93478367860671e-12
4.96006716313493e-12
-8.25514502027589e-12
1.31972541685153e-11
-1.4187091514059e-11
8.84242241909029e-12
-1.49009821035561e-11
9.06739369320593e-13
-1.26266087677874e-11
-3.59349523207456e-12
-9.59510716741265e-12
-4.64357058598248e-12
-6.91644816350177e-12
-4.04304901884991e-12
-4.87353367110202e-12
-3.04254097688145e-12
-3.41330413818888e-12
-2.14537424586544e-12
-2.39673333688015e-12
-1.46843213224438e-12
-1.69471633129411e-12
-9.91649989818154e-13
-1.20848493827813e-12
-6.66068687353525e-13
-8.68263319113982e-13
-4.46911170710604e-13
-6.26383856260884e-13
-3.00203448879262e-13
-4.50936348723674e-13
-2.0189538511226e-13
-3.20770625760595e-13
-1.35545810682566e-13
-2.21935091619159e-13
-9.01752393926874e-14
-1.45185521989747e-13
-5.86012715344546e-14
-8.43166356476064e-14
-3.62176070318832e-14
-3.50806839964329e-14
-2.006074827712e-14
5.5112491154508e-15
-8.22557022143831e-15
3.96401707257846e-14
4.91348046639744e-16
6.89542292893684e-14
6.88152661004621e-15
9.47715929922335e-14
1.1432953903165e-14
1.1818309356863e-13
1.44860845519724e-14
1.40164106740258e-13
1.61934259899342e-14
1.61620026447417e-13
1.66696789433069e-14
1.83460253099277e-13
1.58945484162339e-14
2.06647612121359e-13
1.37922904046049e-14
2.32276831693812e-13
1.01696619406053e-14
2.61645341414846e-13
4.7174888692244e-15
2.96401863512952e-13
-3.08021136560473e-15
3.38704747551168e-13
-1.39788054064699e-14
3.91530977380384e-13
-2.92167358093231e-14
4.59120636059555e-13
-5.06878666879525e-14
5.47693679240307e-13
-8.13870791636862e-14
6.6652323985016e-13
-1.25949565316412e-13
8.29580125258838e-13
-1.91530954937384e-13
1.05801153561933e-12
-2.89055333518638e-13
1.38370849742074e-12
-4.34912172480816e-13
1.85436021664877e-12
-6.53202744214054e-13
2.5398765025814e-12
-9.78016618581816e-13
3.53966712443193e-12
-1.45482488206133e-12
4.98492890884059e-12
-2.13474180298851e-12
7.01999721480684e-12
-3.0426549033741e-12
9.70797823707112e-12
-4.06884288076957e-12
1.27757857372013e-11
-4.70977892107434e-12
1.5101720621246e-11
-3.68151220766692e-12
1.43899054099462e-11
8.97551490705724e-13
8.35435376841253e-12
8.99945775268401e-12
1.33337630034845e-11
-7.59875741969566e-12
2.08204513927687e-11
-1.41567631356498e-11
1.54350073576776e-11
-1.53821237574014e-11
2.16806797958477e-12
-1.34180480893559e-11
-5.52250595400383e-12
-1.04753984739506e-11
-7.55191278246711e-12
-7.75819730998967e-12
-6.72636453085198e-12
-5.61921082257976e-12
-5.14794148474479e-12
-4.04960691193862e-12
-3.68170273729642e-12
-2.92871650034838e-12
-2.55640953311711e-12
-2.13413373621587e-12
-1.75373324789344e-12
-1.56813414031419e-12
-1.20001617375949e-12
-1.16015762654614e-12
-8.23300432941598e-13
-8.61111002629834e-13
-5.68128321586092e-13
-6.37570281713779e-13
-3.94769579612943e-13
-4.66950357592926e-13
-2.75934291492208e-13
-3.34000652361013e-13
-1.93303973465257e-13
-2.28351653242883e-13
-1.34810813651455e-13
-1.42838529763916e-13
-9.2643621115605e-14
-7.2416730299883e-14
-6.17166432728551e-14
-1.34143019944386e-14
-3.87536923979211e-14
3.6913842449375e-14
-2.16239439121114e-14
8.07107184073195e-14
-8.93615029927455e-15
1.19715441596572e-13
2.01626200545291e-16
1.55411500199704e-13
6.38371293923567e-15
1.89116798819194e-13
9.92661187480918e-15
2.22087745838761e-13
1.10053386838418e-14
2.55570290282705e-13
9.60844565504674e-15
2.90883069969383e-13
5.58598556146536e-15
3.29497594950319e-13
-1.40861742082971e-15
3.73134902554373e-13
-1.19353599399089e-14
4.23919484143235e-13
-2.69136931508517e-14
4.84580096755599e-13
-4.77025972343226e-14
5.58755231660986e-13
-7.64503438967924e-14
6.51483367606941e-13
-1.16450050286896e-13
7.69933438286623e-13
-1.72826283064541e-13
9.24493826381817e-13
-2.5343328193033e-13
1.13042537566106e-12
-3.70301255999482e-13
1.41033679020097e-12
-5.41705020444313e-13
1.79767844007506e-12
-7.94881386587329e-13
2.34163318423566e-12
-1.16967164633497e-12
3.11303459100929e-12
-1.72182466949961e-12
4.21046224010702e-12
-2.52456478778917e-12
5.75870037382091e-12
-3.65520637795366e-12
7.88418168779781e-12
-5.14024826883373e-12
1.06066488968876e-11
-6.76317516059904e-12
1.35848908250614e-11
-7.65930414636538e-12
1.56059645660024e-11
-5.67275046894967e-12
1.43948353108715e-11
2.13982620481638e-12
7.73449878334735e-12
1.56900476214293e-11
2.10879644323296e-11
-5.15339215714249e-12
2.60001419008498e-11
-1.05835185673369e-11
2.09017091582438e-11
-1.21195510241349e-11
3.74188008317728e-12
-1.1069998724616e-11
-6.53531437626754e-12
-9.02897335990355e-12
-9.55712653585481e-12
-6.98258284413758e-12
-8.73754824115589e-12
-5.2779201667126e-12
-6.81785322905929e-12
-3.96615390609066e-12
-4.95914419441063e-12
-2.98685434532182e-12
-3.50182305830828e-12
-2.26208378779244e-12
-2.44507518135502e-12
-1.7235599291795e-12
-1.70557873601337e-12
-1.31926246864762e-12
-1.19510502948544e-12
-1.0113981316515e-12
-8.43958117382245e-13
-7.73178407248567e-13
-6.01398489168063e-13
-5.85759161689845e-13
-4.32182954414482e-13
-4.3586529343558e-13
-3.12422989673302e-13
-3.14082473226269e-13
-2.26186269170689e-13
-2.13622267185251e-13
-1.63035574872434e-13
-1.2950962705334e-13
-1.16070687736846e-13
-5.79874436487754e-14
-8.07983520094205e-14
3.8406751063543e-15
-5.42265162089493e-14
5.83126297012734e-14
-3.44078640261483e-14
1.07352565499005e-13
-2.0036315093321e-14
1.52642463694735e-13
-1.02772709118419e-14
1.95690679523804e-13
-4.64213794051396e-15
2.37943829885508e-13
-2.89546160666485e-15
2.80837848142001e-13
-5.03882684046058e-15
3.2587905095853e-13
-1.12944774643845e-14
3.74727310978279e-13
-2.21635469397876e-14
4.29298452068698e-13
-3.84624766621928e-14
4.91896135044607e-13
-6.14987490997999e-14
5.65404924960963e-13
-9.32122963218052e-14
6.53538149166742e-13
-1.36579598060147e-13
7.61257751689904e-13
-1.9614077722369e-13
8.95335236832031e-13
-2.78830384286484e-13
1.06518981724658e-12
-3.95149413448113e-13
1.28409593549169e-12
-5.60984282485535e-13
1.57092417639572e-12
-8.00207556828323e-13
1.95251663781209e-12
-1.14803258937978e-12
2.46680614194587e-12
-1.6553958163603e-12
3.16613133362277e-12
-2.3924591994811e-12
4.11959355578692e-12
-3.4492165775378e-12
5.40717626423842e-12
-4.91385940932518e-12
7.09411919460103e-12
-6.79811106734369e-12
9.13869747979548e-12
-8.7783868387956e-12
1.12053756369387e-11
-9.69598468812259e-12
1.23054592315955e-11
-6.74165083500908e-12
1.07972838918698e-11
3.68046369588135e-12
5.29294677383874e-12
2.1225617488438e-11
2.64010738166397e-11
-2.32250062383206e-12
2.83502793273492e-11
-5.86659644328533e-12
2.448367994056e-11
-7.507982254365e-12
5.42196607537464e-12
-7.49783852532312e-12
-6.50792493533099e-12
-6.61420483286331e-12
-1.04043184218878e-11
-5.4905175278279e-12
-9.82556700183617e-12
-4.4239841935655e-12
-7.84931313252797e-12
-3.52020733776909e-12
-5.82837221562741e-12
-2.78916425938197e-12
-4.19881507056785e-12
-2.20918986372006e-12
-2.9914847209102e-12
-1.75122538875262e-12
-2.13045297699264e-12
-1.38876921678754e-12
-1.52493278404784e-12
-1.10005011458931e-12
-1.10049285929686e-12
-8.68062244074518e-13
-8.01626706096552e-13
-6.7978537837315e-13
-5.89101229157735e-13
-5.25332351460806e-13
-4.35894264824066e-13
-3.97188336209438e-13
-3.23698302842927e-13
-2.89618013213031e-13
-2.40297005191852e-13
-1.98181275378743e-13
-1.77493929038095e-13
-1.19386405946707e-13
-1.29847705433895e-13
-5.04326666060792e-14
-9.36752360639875e-14
1.09974717825502e-14
-6.65481066507006e-14
6.68649446469011e-14
-4.68031410957759e-14
1.18906819528785e-13
-3.33840493096717e-14
1.68704062682527e-13
-2.56463257484097e-14
2.17773331276896e-13
-2.32925739719715e-14
2.67623378942904e-13
-2.63178239810381e-14
3.19827811334254e-13
-3.5009464946734e-14
3.76105223041875e-13
-5.00157208519002e-14
4.38401892755876e-13
-7.23807770338576e-14
5.08999477106601e-13
-1.03747654653022e-13
5.90678164417948e-13
-1.46555460165023e-13
6.86892771577917e-13
-2.04453760720853e-13
8.02051728522903e-13
-2.82935960740573e-13
9.41867070564846e-13
-3.90239178389073e-13
1.11382768968409e-12
-5.3864068010668e-13
1.32780675428973e-12
-7.46410985968639e-13
1.59683030029926e-12
-1.04057700264273e-12
1.93794902058917e-12
-1.46037890184655e-12
2.37304539337667e-12
-2.06158890648475e-12
2.92888788639084e-12
-2.91926077596949e-12
3.63509607462307e-12
-4.12624422051233e-12
4.5146730539052e-12
-5.76411543017633e-12
5.5608584716144e-12
-7.81480661561939e-12
6.6749721253312e-12
-9.8627160941819e-12
7.5702202310527e-12
-1.05608197889727e-11
7.61710333643396e-12
-6.75693787805436e-12
6.0122199942142e-12
5.31812653422457e-12
2.43387814681686e-12
2.48352750422801e-11
2.88548046449643e-11
5.02362748334724e-14
2.83286553463028e-11
-1.59353601730835e-12
2.61660441337529e-11
-3.16506788537076e-12
7.03263528096604e-12
-4.00336453105107e-12
-5.63179767034276e-12
-4.15119904304325e-12
-1.02198967362763e-11
-3.88732679140696e-12
-1.00537784335362e-11
-3.43910701713833e-12
-8.26258868476079e-12
-2.94639172684024e-12
-6.28675006171717e-12
-2.47705263922173e-12
-4.63436191291555e-12
-2.05885605504751e-12
-3.37639533923702e-12
-1.69863161119069e-12
-2.45786741689748e-12
-1.39387519127615e-12
-1.79733049620531e-12
-1.13826104289277e-12
-1.32417538450781e-12
-9.24476977137836e-13
-9.83884525121885e-13
-7.45460567747381e-13
-7.36971777597576e-13
-5.94947029879075e-13
-5.55619690363421e-13
-4.6758299676302e-13
-4.20606113116882e-13
-3.58919446955559e-13
-3.18811409301656e-13
-2.65265307757201e-13
-2.41279752355055e-13
-1.83575946056842e-13
-1.81923970845857e-13
-1.11293948297148e-13
-1.36573855263722e-13
-4.62502231289526e-14
-1.02412835214606e-13
1.34461278688326e-14
-7.75009598298733e-14
6.94889884996256e-14
-6.05857120818612e-14
1.23443767805099e-13
-5.08957703760217e-14
1.76814733803053e-13
-4.80732587003568e-14
2.31101792698127e-13
-5.21101914238681e-14
2.87862165371583e-13
-6.33534078002111e-14
3.48767653429489e-13
-8.25653876513848e-14
4.15690960272646e-13
-1.1099266140314e-13
4.90772182977561e-13
-1.50545968598297e-13
5.76534340269598e-13
-2.04046876898749e-13
6.75989830226089e-13
-2.75634257661977e-13
7.92788225493447e-13
-3.71437372167418e-13
9.31340192993043e-13
-5.00453809287166e-13
1.09694633720491e-12
-6.75849193819603e-13
1.29584326968263e-12
-9.16830531762544e-13
1.53505830755022e-12
-1.25121410018766e-12
1.82191630547555e-12
-1.71853987606692e-12
2.16277104696086e-12
-2.3736107041068e-12
2.56024334266527e-12
-3.28775222138609e-12
3.00769202638671e-12
-4.5445588878106e-12
3.47786039475195e-12
-6.20499388420248e-12
3.90440948529443e-12
-8.21188712615479e-12
4.15174730507347e-12
-1.00802975018597e-11
4.00116760107065e-12
-1.03798783004197e-11
3.18277237164309e-12
-5.90703470404642e-12
1.64932848904938e-12
6.88418600612512e-12
1.18920412747376e-14
2.65036383855721e-11
2.88861276150971e-11
1.6238604189825e-12
2.67334422949588e-11
1.47667850041834e-12
2.63511188432976e-11
1.0010306439971e-13
8.44713515184571e-12
-1.2585793733688e-12
-4.23659089702608e-12
-2.12653869753607e-12
-9.31674809004082e-12
-2.50091437594309e-12
-9.6452435734262e-12
-2.53556289214927e-12
-8.19458051054847e-12
-2.37937361097206e-12
-6.41023729375808e-12
-2.13493098190828e-12
-4.84667073501066e-12
-1.86333126632317e-12
-3.61637018493638e-12
-1.59732973595474e-12
-2.69270929832139e-12
-1.35258389351385e-12
-2.01134935866019e-12
-1.13495424429043e-12
-1.51148252827858e-12
-9.45072031330402e-13
-1.14382611442057e-12
-7.8097730944232e-13
-8.71484255176608e-13
-6.39639534627916e-13
-6.6771150832703e-13
-5.17751524320959e-13
-5.13561286717978e-13
-4.12146207359061e-13
-3.95773869522672e-13
-3.19947131241099e-13
-3.05101601745571e-13
-2.38616400623337e-13
-2.35119521496971e-13
-1.65927861949595e-13
-1.8134431152681e-13
-9.99273881852763e-14
-1.40689639946203e-13
-3.88631015913293e-14
-1.11012623520218e-13
1.88549832755214e-14
-9.09007400890656e-14
7.47198618841737e-14
-7.94857424214262e-14
1.30169459724738e-13
-7.63570783648667e-14
1.86637970495797e-13
-8.15031318877025e-14
2.45607119537054e-13
-9.53204667676456e-14
3.08648623945215e-13
-1.18662230593151e-13
3.77490030876615e-13
-1.52931283833288e-13
4.54053803777485e-13
-2.00233797517175e-13
5.40532902619289e-13
-2.63661738957116e-13
6.39426902530577e-13
-3.47660254674975e-13
7.53567491134956e-13
-4.5869036941387e-13
8.86065536379105e-13
-6.06026737678512e-13
1.04016447464628e-12
-8.02967081862446e-13
1.21883824319768e-12
-1.06844739175084e-12
1.42398111587312e-12
-1.42920359103818e-12
1.65491764115693e-12
-1.92220713766035e-12
1.9057102148534e-12
-2.59699840754088e-12
2.16063412977096e-12
-3.51512112741376e-12
2.38675052543523e-12
-4.7429619747875e-12
2.52272116144735e-12
-6.31309299269641e-12
2.46609245215122e-12
-8.12721527076729e-12
2.07002241458252e-12
-9.655920360918e-12
1.18742051331722e-12
-9.46841011417276e-12
-1.67095284457187e-13
-4.52257145342693e-12
-1.50929064404937e-12
8.25729844932834e-12
-1.6163331983536e-12
2.66398106966059e-11
2.72876824598473e-11
2.4161003293754e-12
2.43452852047257e-11
3.22559012065712e-12
2.55778163111592e-11
2.11187454705171e-12
9.59673633312577e-12
5.57285834306176e-13
-2.64758740775715e-12
-6.92055947397938e-13
-8.03438426986899e-12
-1.44907910299984e-12
-8.85629341823597e-12
-1.80029897101864e-12
-7.81228337828665e-12
-1.88182058763144e-12
-6.29832304685292e-12
-1.80740269327419e-12
-4.89127123527662e-12
-1.65405858078336e-12
-3.74039854535223e-12
-1.46914698227562e-12
-2.84875323172125e-12
-1.27960240121047e-12
-2.17243766474135e-12
-1.09947704812823e-12
-1.66353339251722e-12
-9.3510299834458e-13
-1.28048458376195e-12
-7.88411608278453e-13
-9.90796681270536e-13
-6.58983649807511e-13
-7.70077818043007e-13
-5.45265410836897e-13
-6.00512719337058e-13
-4.45250357967772e-13
-4.69296069912743e-13
-3.56843046195781e-13
-3.67267756504001e-13
-2.7802937028613e-13
-2.87921308724886e-13
-2.06938122506705e-13
-2.26629830547284e-13
-1.41860177200381e-13
-1.80145941549053e-13
-8.12290103551031e-14
-1.46184539997167e-13
-2.35823803046316e-14
-1.23229387976676e-13
3.24617375934521e-14
-1.10333545700529e-13
8.82423260304015e-14
-1.07044411566544e-13
1.45096076026838e-13
-1.13349124782523e-13
2.04395991715037e-13
-1.29681535834257e-13
2.67576935460943e-13
-1.56958092141087e-13
3.36184979251054e-13
-1.96693864375287e-13
4.11899309680275e-13
-2.51128157663524e-13
4.96550992695696e-13
-3.23505371816399e-13
5.92112698347061e-13
-4.18410593072405e-13
7.00631305458039e-13
-5.42379485009432e-13
8.2404938493872e-13
-7.04580898870743e-13
9.63843263010114e-13
-9.17844972807418e-13
1.1203552938108e-12
-1.19997319605004e-12
1.29155577760177e-12
-1.57532690695015e-12
1.47101751689031e-12
-2.07648021897559e-12
1.64452482248851e-12
-2.74518538222591e-12
1.78489904033041e-12
-3.63002714739398e-12
1.84430603090578e-12
-4.77674510024833e-12
1.74496032675884e-12
-6.18796882075908e-12
1.37229406084428e-12
-7.72860968209401e-12
5.90753037840551e-13
-8.84820468147311e-12
-6.81014070435989e-13
-8.16995898931977e-12
-2.2430236974635e-12
-2.93287056202644e-12
-3.32807608307611e-12
9.370936352292e-12
-2.45499044639941e-12
2.5793445773809e-11
2.48489245998162e-11
2.61888610032928e-12
2.17523306265186e-11
3.89816146397908e-12
2.4331278663401e-11
3.06391418648934e-12
1.046294241836e-11
1.55696159205201e-12
-1.1101199465898e-12
2.00626460627987e-13
-6.64889011854423e-12
-7.22715590107035e-13
-7.90488149377015e-12
-1.24360694171198e-12
-7.26416837956122e-12
-1.47150718801672e-12
-6.04387213312309e-12
-1.51351097458467e-12
-4.82327103864078e-12
-1.4485075526418e-12
-3.7798808233954e-12
-1.32889994484589e-12
-2.94325961643822e-12
-1.18689988882182e-12
-2.28971898117337e-12
-1.04113614034196e-12
-1.78493272368225e-12
-9.01530815199362e-13
-1.3960588345662e-12
-7.72721248832121e-13
-1.09588889572931e-12
-6.56256120580244e-13
-8.63121272361905e-13
-5.51991134708319e-13
-6.81632840761551e-13
-4.5891861467101e-13
-5.39481510998975e-13
-3.75642078083471e-13
-4.27893439208074e-13
-3.00643923997873e-13
-3.40484421142689e-13
-2.3240930381941e-13
-2.72624483855944e-13
-1.69485215152043e-13
-2.2100357538941e-13
-1.10496947279278e-13
-1.8325931942941e-13
-5.4132776807109e-14
-1.57813323681616e-13
8.59144798624954e-16
-1.43659472389159e-13
5.57068337760914e-14
-1.40322638877189e-13
1.11628638838534e-13
-1.47781742491353e-13
1.69870041524358e-13
-1.664985863304e-13
2.3172049482381e-13
-1.97434792736129e-13
2.98527274494889e-13
-2.42163490159655e-13
3.71712457317541e-13
-3.03000159258907e-13
4.52750249812037e-13
-3.83240409359367e-13
5.43117938992651e-13
-4.87473346467338e-13
6.4415087239057e-13
-6.22091747470353e-13
7.56793747603342e-13
-7.95872609222329e-13
8.8110460416684e-13
-1.02075788087358e-12
1.01544254306527e-12
-1.31284962584573e-12
1.15505599051755e-12
-1.69339588486147e-12
1.28987534610657e-12
-2.18965287952132e-12
1.4010532617449e-12
-2.83459467746442e-12
1.45601043950078e-12
-3.6630790545105e-12
1.40170311390541e-12
-4.70038946733244e-12
1.1581862925613e-12
-5.92226652848142e-12
6.17110607307718e-13
-7.16521428724077e-12
-3.31204843830654e-13
-7.87737480874141e-12
-1.71325108614149e-12
-6.76495239446819e-12
-3.23375964827934e-12
-1.3884801252266e-12
-4.04424569574111e-12
1.02060617488616e-11
-2.68860651568478e-12
2.44606867280893e-11
2.21737926390764e-11
2.45908874199565e-12
1.93164186215872e-11
3.85919524682377e-12
2.2959642828584e-11
3.28384561794152e-12
1.10657729439955e-11
1.96696509667967e-12
2.3286037251397e-13
6.82900230457368e-13
-5.34000620242962e-12
-2.56542411337466e-13
-6.94166125454732e-12
-8.39375638507941e-13
-6.6583699146427e-12
-1.14311701427325e-12
-5.71780575506389e-12
-1.25783376450177e-12
-4.68675003053965e-12
-1.2552347365433e-12
-3.761117295392e-12
-1.18612621584185e-12
-2.99139416616472e-12
-1.08359536718406e-12
-2.37162889078593e-12
-9.68068959484881e-13
-1.88016594494316e-12
-8.51374764054071e-13
-1.49276907518201e-12
-7.39851488476004e-13
-1.18772009751946e-12
-6.36436816908684e-13
-9.47120978703517e-13
-5.42066039842968e-13
-7.56847858031349e-13
-4.56552710048831e-13
-6.06081627175092e-13
-3.7910933518589e-13
-4.86646465362874e-13
-3.08670498489522e-13
-3.92436809745709e-13
-2.44053710100076e-13
-3.18938492781838e-13
-1.84059846562352e-13
-2.62858661568717e-13
-1.27506265166089e-13
-2.2181794300395e-13
-7.32407543370311e-14
-1.94209518170384e-13
-2.01432242274547e-14
-1.78995103710562e-13
3.28889603981512e-14
-1.75683665381696e-13
8.69553270931924e-14
-1.84251835165023e-13
1.43165415450676e-13
-2.05172963213356e-13
2.02652410039657e-13
-2.39432935639306e-13
2.66567606543391e-13
-2.88624065420332e-13
3.36082659234805e-13
-3.55082634961704e-13
4.12333724066911e-13
-4.4206935042514e-13
4.96345101889968e-13
-5.54060631369169e-13
5.88845159006346e-13
-6.97153813560799e-13
6.89950089809237e-13
-8.79512570294921e-13
7.98637901022005e-13
-1.11193948202661e-12
9.11863135120954e-13
-1.40851181544976e-12
1.02317206683319e-12
-1.78706810527448e-12
1.12055407753104e-12
-2.26930678955175e-12
1.18334073888543e-12
-2.87954410901894e-12
1.17801129770416e-12
-3.63979025986087e-12
1.05307224058386e-12
-4.55736609385509e-12
7.35706629098737e-13
-5.58670087168859e-12
1.34537027907545e-13
-6.54573803887052e-12
-8.28363265375242e-13
-6.89601149412849e-12
-2.13757940598221e-12
-5.43688704476996e-12
-3.46911203496368e-12
-3.72701878577269e-14
-4.02347205188385e-12
1.07808047799991e-11
-2.54321169382421e-12
2.29991642883517e-11
1.9641430411467e-11
2.12432781582065e-12
1.7211402920562e-11
3.44137203966685e-12
2.16654753114484e-11
3.08316424951629e-12
1.14456044087721e-11
2.01295079298412e-12
1.32348989520294e-12
8.93600308171035e-13
-4.20135332862952e-12
2.50937492971387e-14
-6.05478184920812e-12
-5.51373992501751e-13
-6.06426016801729e-12
-8.82719292329231e-13
-5.36939317273617e-12
-1.03811658262998e-12
-4.51475113929338e-12
-1.07760103955307e-12
-3.70542599023915e-12
-1.04654067602223e-12
-3.00659582148496e-12
-9.7611600650245e-13
-2.42651352466179e-12
-8.86645145161173e-13
-1.95439484833267e-12
-7.90623319284592e-13
-1.5738325833991e-12
-6.95305893888711e-13
-1.26834913496386e-12
-6.04544711485353e-13
-1.02345042948197e-12
-5.20067216599423e-13
-8.27135505253995e-13
-4.4233700234775e-13
-6.69848337948438e-13
-3.71079116989381e-13
-5.4414993671975e-13
-3.05624277137649e-13
-4.4432823139507e-13
-2.45096687476924e-13
-3.66074265360926e-13
-1.88537724166027e-13
-3.06179664201289e-13
-1.34949506815076e-13
-2.62303111057462e-13
-8.33395642726404e-14
-2.32833631925181e-13
-3.27216889217023e-14
-2.16727317088099e-13
1.78842825854784e-14
-2.13488408494863e-13
6.94485021418806e-14
-2.23084397898377e-13
1.22948193972113e-13
-2.45996701413346e-13
1.79358134894864e-13
-2.83210061807959e-13
2.39645912200497e-13
-3.36310257824001e-13
3.04740476133267e-13
-4.07596079828186e-13
3.75472860143866e-13
-5.00229642703614e-13
4.52468637854534e-13
-6.18483616716697e-13
5.35942100305101e-13
-7.68042359164686e-13
6.2535937255772e-13
-9.56321412183212e-13
7.18905374138706e-13
-1.19284158425103e-12
8.12621372400348e-13
-1.48953511376644e-12
8.9912951889894e-13
-1.86082049042683e-12
9.65744150006574e-13
-2.32308844025939e-12
9.91894670194173e-13
-2.89277025928538e-12
9.45973888015161e-13
-3.58084535820934e-12
7.81956717657115e-13
-4.3802265479029e-12
4.38817735318551e-13
-5.23035569467318e-12
-1.53732980047857e-13
-5.93991186625461e-12
-1.0428406272459e-12
-5.99352217359965e-12
-2.18414729609747e-12
-4.28188495337924e-12
-3.26650913901711e-12
1.0595096418981e-12
-3.60438560158217e-12
1.11336716347645e-11
-2.20973360660468e-12
2.16181455879603e-11
1.74391402372661e-11
1.74044188503121e-12
1.54861310341224e-11
2.88291273426098e-12
2.05401807468369e-11
2.69269903609649e-12
1.16517546890931e-11
1.86850185289234e-12
2.16260701029853e-12
9.44091989939431e-13
-3.2629581843336e-12
1.86218113309547e-13
-5.28372026173687e-12
-3.46503920898006e-13
-5.51898539231156e-12
-6.75549729332657e-13
-5.02829551704715e-12
-8.49747793233845e-13
-4.32890826442679e-12
-9.16257433503824e-13
-3.6276179625239e-12
-9.13321134515764e-13
-2.99854275743252e-12
-8.68702612428368e-13
-2.46042933149895e-12
-8.01427237003165e-13
-2.01123841908857e-12
-7.23817605721065e-13
-1.64127079291768e-12
-6.43468240603496e-13
-1.33877681775855e-12
-5.64756648607938e-13
-1.09247884943548e-12
-4.89961891547142e-13
-8.92473145937804e-13
-4.2004080431181e-13
-7.30524243225996e-13
-3.55139340634041e-13
-6.00001718310064e-13
-2.94928025522844e-13
-4.95669411108731e-13
-2.38804681699401e-13
-4.1348904526108e-13
-1.86029200683128e-13
-3.50390238612768e-13
-1.35785031209788e-13
-3.04108929222777e-13
-8.7230475974778e-14
-2.73059462917268e-13
-3.95130179837779e-14
-2.56209161513344e-13
8.22286219943306e-15
-2.53067010692846e-13
5.68232093602088e-14
-2.63591623338759e-13
1.07134064555785e-13
-2.88265651357066e-13
1.59975729065778e-13
-3.28049722774766e-13
2.16139426396603e-13
-3.84500312081218e-13
2.76331624095565e-13
-4.59832837351507e-13
3.41111145120197e-13
-5.57062643654056e-13
4.10765823315427e-13
-6.80190344168383e-13
4.85086137050475e-13
-8.34404159041701e-13
5.63049838025288e-13
-1.02630668964153e-12
6.4228673393087e-13
-1.26406967470205e-12
7.18319256224331e-13
-1.55751768864134e-12
7.83425076574136e-13
-1.91782413208378e-12
8.25105901773197e-13
-2.35660343412539e-12
8.24085930659554e-13
-2.88351165523644e-12
7.52226426588539e-13
-3.50067069921189e-12
5.70709197066361e-13
-4.19032312598359e-12
2.31593582209195e-13
-4.88280148473149e-12
-3.14749287160553e-13
-5.38509652931665e-12
-1.08968223298e-12
-5.21005369772196e-12
-2.03150023828171e-12
-3.33128689969847e-12
-2.8634688225034e-12
1.90086214782175e-12
-3.03268315942673e-12
1.13127916784649e-11
-1.81889610712379e-12
2.04131486837298e-11
1.56247579014556e-11
1.37787065467653e-12
1.41187738884535e-11
2.32478771021028e-12
1.96042350638992e-11
2.25546206038005e-12
1.17308000012437e-11
1.64657806594762e-12
2.7804673667423e-12
9.1063430386312e-13
-2.51873397346736e-12
2.73176725784803e-13
-4.63860853483581e-12
-1.99228261559059e-13
-5.03943782724419e-12
-5.09124137011455e-13
-4.71166699782724e-12
-6.87894037342148e-13
-4.14374279053858e-12
-7.70588715921675e-13
-3.53882011037429e-12
-7.88044121195479e-13
-2.97525043704536e-12
-7.6398159480619e-13
-2.47890748753632e-12
-7.15481729056105e-13
-2.05439648890625e-12
-6.54152831670019e-13
-1.69749463698263e-12
-5.87509508470011e-13
-1.4005436227511e-12
-5.20166069988312e-13
-1.1551665031239e-12
-4.5474382920164e-13
-9.53448909316998e-13
-3.92558749817934e-13
-7.88459831750379e-13
-3.34087313736234e-13
-6.54405845479915e-13
-2.79283541076092e-13
-5.4657252183055e-13
-2.27788046794391e-13
-4.6123412330718e-13
-1.79057565935316e-13
-3.9550407207265e-13
-1.3244297820163e-13
-3.47224082403397e-13
-8.7248751994354e-14
-3.148552909153e-13
-4.27491553795147e-14
-2.97396700643066e-13
1.78574367652077e-15
-2.9436167737928e-13
4.70836873785975e-14
-3.05708040225545e-13
9.38555505809983e-14
-3.31902818224227e-13
1.42783418041467e-13
-3.73878132373927e-13
1.94489326149271e-13
-4.33132475714531e-13
2.49481044296767e-13
-5.11766184635442e-13
3.08078090844054e-13
-6.12608542680851e-13
3.702845489188e-13
-7.39344965039679e-13
4.35562773821571e-13
-8.96620946673248e-13
5.02530354810538e-13
-1.09019573886872e-12
5.68479452636457e-13
-1.32691514288068e-12
6.28700452410038e-13
-1.61460177503842e-12
6.7555962604704e-13
-1.96150537365934e-12
6.97285890234441e-13
-2.37510382132122e-12
6.76572543843257e-13
-2.85951998816632e-12
5.89384773403766e-13
-3.41015375915391e-12
4.04430369706794e-13
-4.00200082872363e-12
8.61054589878711e-14
-4.56109257265875e-12
-3.97430796102438e-13
-4.8981832765624e-12
-1.04825456129554e-12
-4.55584176381122e-12
-1.79673291610699e-12
-2.5792583387277e-12
-2.40855274479372e-12
2.51670097973495e-12
-2.45578458252715e-12
1.13644128463467e-11
-1.44548779503906e-12
1.94064863615407e-11
1.41804877337118e-11
1.06774257081104e-12
1.3057222065036e-11
1.83411307738422e-12
1.8843298287542e-11
1.84586927128205e-12
1.17234292675586e-11
1.41111315106269e-12
3.21911446542972e-12
8.3991014266005e-13
-1.94411943777671e-12
3.16539551738603e-13
-4.11228958525308e-12
-9.1405349195076e-14
-4.62894022045108e-12
-3.7378423950515e-13
-4.42705985177517e-12
-5.48241809941676e-13
-3.96733027829284e-12
-6.39440905484471e-13
-3.44590995404367e-12
-6.71308771152361e-13
-2.9419001469474e-12
-6.63462640256303e-13
-2.48549385941535e-12
-6.30749730049284e-13
-2.08606788566849e-12
-5.83739274332159e-13
-1.74367927694586e-12
-5.29582101716416e-13
-1.4540857862589e-12
-4.72897937026878e-13
-1.21144029175079e-12
-4.16483535540921e-13
-1.00964742438047e-12
-3.61898192499718e-13
-8.43013016958921e-13
-3.09866774894591e-13
-7.06574405645606e-13
-2.6057644581922e-13
-5.96155781831295e-13
-2.13869942034617e-13
-5.08373072712856e-13
-1.69383387758581e-13
-4.40547448613599e-13
-1.26621143572599e-13
-3.90651682957568e-13
-8.50260554447973e-14
-3.57209297944486e-13
-4.39926289269012e-14
-3.3926806604916e-13
-2.91552309837803e-15
-3.3634234570742e-13
3.88210148896943e-14
-3.48401578354639e-13
8.18000751395414e-14
-3.75880680507548e-13
1.26569662919742e-13
-4.19678403750722e-13
1.73596071474163e-13
-4.8121172821495e-13
2.23213578421671e-13
-5.62450216831932e-13
2.7553613735926e-13
-6.66003536899225e-13
3.30333864272242e-13
-7.95213791964744e-13
3.86828929930547e-13
-9.54178545576391e-13
4.43391551696435e-13
-1.14780602176338e-12
4.97149030910072e-13
-1.38169912377548e-12
5.43390102622922e-13
-1.66184310990603e-12
5.74853850093419e-13