/*--------------------------------*- C++ -*----------------------------------*\
  =========                 |
  \\      /  F ield         | OpenFOAM: The Open Source CFD Toolbox
   \\    /   O peration     | Website:  https://openfoam.org
    \\  /    A nd           | Version:  10
     \\/     M anipulation  |
\*---------------------------------------------------------------------------*/
FoamFile
{
    format      ascii;
    class       volScalarField;
    location    "9.2";
    object      rho;
}
// * * * * * * * * * * * * * * * * * * * * * * * * * * * * * * * * * * * * * //

dimensions      [1 -3 0 0 0 0 0];

internalField   nonuniform List<scalar> 
2500
(
1.14627090328373
1.14627583196439
1.14630515397132
1.14633032303367
1.14634792561941
1.14635934961545
1.14636650359518
1.14637087864557
1.14637348762404
1.14637499515952
1.14637584301178
1.14637630227184
1.14637654242942
1.14637666565916
1.14637672734002
1.14637675854089
1.14637677307739
1.14637678105769
1.14637678616087
1.14637678907104
1.14637679108394
1.14637679259728
1.14637679374389
1.14637679443692
1.14637679510186
1.14637679558648
1.14637679571108
1.14637679563021
1.14637679528009
1.14637679456589
1.14637679328517
1.1463767907589
1.14637678664247
1.146376778839
1.14637676332195
1.1463767318199
1.1463766680545
1.14637654169749
1.14637629365819
1.14637582706881
1.1463749737336
1.14637346115626
1.14637086000355
1.14636650861266
1.14635938630934
1.1463479971504
1.14633036859109
1.14630506088351
1.14627564757606
1.14627119280674
1.14881650060137
1.14887199725846
1.14895930812729
1.14903133185184
1.1490820273936
1.14911540279368
1.14913667023032
1.14914991626637
1.14915796926152
1.14916272711498
1.14916545226046
1.1491669605918
1.14916776682276
1.14916818393035
1.14916839284269
1.14916849464582
1.14916854245046
1.14916856495937
1.14916857585988
1.14916858112494
1.14916858391357
1.14916858558983
1.14916858669212
1.14916858738488
1.14916858794953
1.14916858835659
1.14916858850685
1.14916858845057
1.14916858807897
1.1491685870858
1.14916858478856
1.14916857960091
1.14916856849417
1.14916854453865
1.14916849348199
1.14916838670581
1.14916816915257
1.14916773904919
1.14916691399028
1.14916538502642
1.14916264246718
1.1491578783183
1.14914984765598
1.14913666454397
1.14911549090638
1.14908218062972
1.14903135725633
1.14895886733587
1.1488711658847
1.14881801734256
1.1515360515693
1.15164913978171
1.15178160934836
1.15188635048538
1.15195917263627
1.15200683984276
1.15203711141159
1.15205592914638
1.15206736288158
1.1520741236938
1.15207800091465
1.15208015167466
1.15208130439977
1.15208190159237
1.1520822007523
1.15208234589971
1.15208241397063
1.15208244527311
1.15208245959873
1.15208246611993
1.15208246922824
1.15208247087183
1.15208247184415
1.15208247244014
1.15208247288047
1.15208247319398
1.15208247333357
1.1520824733035
1.15208247294662
1.15208247183089
1.15208246901185
1.1520824623126
1.15208244712179
1.15208241354864
1.15208234115214
1.15208218895454
1.15208187829654
1.15208126401174
1.1520800879961
1.15207791106823
1.15207401121817
1.15206724280481
1.15205583545294
1.15203709197261
1.15200692468521
1.15195928758213
1.1518861678131
1.15178054998897
1.15164709141431
1.15153662822205
1.15414601861099
1.15430025225319
1.15445277415152
1.15456842448699
1.15464692518071
1.15469730740631
1.15472873231218
1.15474795131783
1.15475946282563
1.15476618592099
1.15476999980527
1.15477209543116
1.15477320915987
1.15477378153401
1.15477406602316
1.15477420286953
1.15477426653156
1.15477429539
1.1547743082671
1.15477431395199
1.15477431653253
1.15477431781647
1.15477431853876
1.154774318974
1.15477431928099
1.15477431950361
1.15477431962478
1.15477431964547
1.15477431942534
1.15477431855966
1.15477431619536
1.15477431034665
1.15477429664837
1.15477426585309
1.1547741986551
1.15477405592934
1.15477376183457
1.15477317493972
1.15477204118867
1.15476992196251
1.15476608576523
1.15475935126897
1.15474785446827
1.15472868629245
1.15469732220254
1.15464688075276
1.15456789161094
1.15445097324844
1.15429672538985
1.15414385606429
1.15643345561872
1.15660309586594
1.15675324294036
1.1568626653551
1.15693503988977
1.1569804898186
1.1570082848421
1.15702498919342
1.15703484590752
1.15704053090156
1.15704372224508
1.1570454605
1.15704637749361
1.15704684570665
1.15704707704498
1.15704718765474
1.15704723879842
1.15704726175766
1.15704727182831
1.15704727616554
1.15704727805569
1.15704727894684
1.15704727942596
1.15704727970728
1.15704727989882
1.15704728004275
1.15704728013705
1.15704728018052
1.15704728008662
1.15704727952153
1.15704727780007
1.15704727336978
1.1570472627073
1.1570472384148
1.15704718493381
1.15704707042954
1.1570468326836
1.15704635460924
1.15704542372389
1.15704366837514
1.15704045959007
1.15703476308075
1.15702491060528
1.1570082304595
1.15698044751904
1.15693485858618
1.15686186260315
1.15675090445142
1.15659835998224
1.15642826841866
1.15828372954733
1.1584447712371
1.15857621576263
1.15866855065316
1.15872804155291
1.15876457333216
1.1587864686027
1.15879939737553
1.15880691449709
1.15881119846846
1.15881358031372
1.15881486774285
1.15881554276121
1.15881588569477
1.15881605440232
1.1588161347269
1.15881617169835
1.1588161881729
1.15881619530073
1.15881619830078
1.15881619955528
1.15881620011208
1.15881620039591
1.1588162005562
1.15881620066114
1.15881620074501
1.15881620081214
1.15881620085737
1.15881620084383
1.15881620052929
1.15881619940822
1.15881619638
1.15881618889243
1.15881617163078
1.15881613335938
1.15881605090006
1.15881587865902
1.1588155301846
1.15881484716002
1.15881354947284
1.15881115646187
1.1588068638172
1.15879934579178
1.1587864234959
1.15876450864982
1.15872779880472
1.1586676501292
1.15857370270229
1.1584394745288
1.15827638611741
1.15967563348417
1.15981208507215
1.15991660308029
1.15998757606904
1.16003213626812
1.16005889345765
1.16007461072586
1.16008373089323
1.16008895797014
1.16009190324678
1.16009352651823
1.16009439811555
1.16009485283167
1.16009508296869
1.16009519584102
1.16009524942615
1.16009527400557
1.16009528489161
1.1600952895445
1.16009529145834
1.16009529222246
1.16009529253581
1.16009529268378
1.16009529276216
1.16009529281014
1.1600952928532
1.16009529289749
1.16009529293912
1.16009529295887
1.16009529280931
1.16009529215183
1.16009529024847
1.16009528540572
1.16009527411316
1.16009524892706
1.1600951943873
1.1600950799329
1.16009484726005
1.16009438876175
1.16009351211184
1.16009188303144
1.16008893280511
1.16008370407779
1.16007458295185
1.16005883529648
1.16003190401188
1.15998674115652
1.15991426799134
1.15980695083227
1.15966749449034
1.16065535017495
1.16076061026841
1.16083713239053
1.16088749527426
1.16091833106918
1.16093644278897
1.16094687203991
1.16095282058402
1.16095618258587
1.16095805665289
1.16095908129799
1.16095962830663
1.16095991253388
1.16096005598342
1.16096012619602
1.16096015946538
1.16096017468624
1.16096018139163
1.16096018422467
1.1609601853625
1.16096018579235
1.16096018594925
1.16096018601481
1.16096018604536
1.1609601860605
1.16096018607873
1.16096018610588
1.16096018613917
1.16096018616492
1.16096018610976
1.16096018576099
1.16096018464858
1.16096018172861
1.16096017483931
1.16096015939233
1.16096012580759
1.16096005508003
1.16095991077516
1.16095962520234
1.16095907629702
1.16095804938029
1.16095617342185
1.16095281100681
1.16094686070083
1.16093640448119
1.16091815054047
1.16088682476777
1.16083520546817
1.16075618421211
1.16064766389745
1.16130388029588
1.16137879031365
1.16143088650544
1.16146419692239
1.16148410438092
1.16149554750317
1.16150200903177
1.16150563263941
1.16150765287875
1.16150876746406
1.16150937237838
1.16150969369143
1.16150986010638
1.16150994393059
1.16150998490857
1.16151000430322
1.16151001315858
1.16151001704077
1.16151001866242
1.16151001929785
1.1615100195212
1.16151001958822
1.16151001961185
1.1615100196196
1.16151001961781
1.16151001962218
1.16151001963761
1.16151001966146
1.16151001968383
1.16151001967292
1.16151001950446
1.16151001889622
1.1615100172411
1.16151001328706
1.16151000437704
1.16150998494321
1.16150994391359
1.16150985998248
1.1615096933476
1.16150937167155
1.16150876633812
1.16150765170677
1.16150563243284
1.16150200877818
1.16149552936335
1.16148398530004
1.16146371829217
1.16142944870162
1.1613753356295
1.1612974462066
1.1617094205218
1.16175907722867
1.16179230913768
1.16181299651552
1.16182507662521
1.16183187614193
1.16183564252822
1.16183771976248
1.16183886245986
1.16183948665661
1.16183982309842
1.16184000101668
1.16184009292712
1.16184013916316
1.16184016175288
1.16184017243856
1.16184017730989
1.1618401794356
1.1618401803134
1.16184018064874
1.16184018075715
1.16184018077849
1.16184018077886
1.16184018077642
1.161840180772
1.1618401807721
1.16184018078004
1.16184018079546
1.16184018081325
1.16184018081747
1.16184018074248
1.16184018043049
1.16184017954277
1.16184017739363
1.16184017252691
1.16184016188593
1.16184013938394
1.16184009327637
1.1618400015234
1.16183982379437
1.16183948765462
1.16183886419656
1.16183772320941
1.16183564762367
1.16183187216797
1.16182500919461
1.16181268802357
1.16179132642172
1.16175660344945
1.16170453655364
1.16194992702125
1.16198081504375
1.16200080016888
1.16201293605413
1.16201986744622
1.16202369025961
1.16202576829376
1.16202689564768
1.16202750766836
1.16202783876
1.16202801606156
1.16202810945451
1.16202815760269
1.16202818180636
1.16202819363118
1.16202819922425
1.1620282017708
1.16202820287696
1.16202820332825
1.16202820349541
1.16202820354164
1.16202820354408
1.16202820353956
1.16202820353405
1.16202820352972
1.16202820352892
1.16202820353277
1.16202820354243
1.16202820355502
1.16202820356221
1.16202820353223
1.16202820338094
1.16202820292788
1.16202820181571
1.16202819928478
1.16202819374095
1.16202818200847
1.16202815794883
1.16202811000138
1.16202801688482
1.16202784001845
1.16202750979391
1.16202689957063
1.16202577465703
1.16202369362328
1.16201983519137
1.16201275477886
1.16200017889824
1.1619791734966
1.16194651466325
1.16208567677976
1.16210381342367
1.16211520234571
1.16212196050512
1.16212573986943
1.16212778361517
1.16212887427668
1.16212945641163
1.16212976832588
1.16212993546626
1.16213002441665
1.16213007110573
1.16213009513861
1.16213010721679
1.16213011312007
1.1621301159131
1.16213011718348
1.16213011773272
1.16213011795384
1.16213011803173
1.16213011804933
1.1621301180472
1.16213011804227
1.16213011803732
1.16213011803404
1.162130118033
1.16213011803482
1.16213011804059
1.16213011804866
1.16213011805463
1.16213011804427
1.16213011797459
1.16213011775354
1.1621301172031
1.16213011594426
1.1621301131835
1.16213010734076
1.16213009535931
1.16213007146702
1.16213002498358
1.16212993637779
1.16212976994196
1.16212945952404
1.16212887979597
1.16212778932876
1.16212572776813
1.1621218628768
1.16211483629143
1.16210279586654
1.16208345879775
1.16215883080106
1.16216893300155
1.16217510987205
1.16217869747181
1.16218066396218
1.16218170734572
1.16218225420497
1.16218254141875
1.16218269331374
1.16218277394284
1.162182816596
1.16218283891252
1.16218285038649
1.16218285615393
1.16218285897504
1.16218286031058
1.16218286091751
1.16218286117862
1.16218286128219
1.16218286131633
1.1621828613221
1.16218286131962
1.16218286131587
1.1621828613124
1.16218286131023
1.16218286130938
1.16218286131022
1.16218286131349
1.16218286131827
1.16218286132222
1.16218286131942
1.16218286128883
1.16218286118533
1.16218286092374
1.1621828603226
1.16218285900333
1.16218285621323
1.16218285049617
1.16218283909754
1.16218281689814
1.1621827744605
1.16218269430879
1.16218254348829
1.16218225820814
1.16218171271653
1.16218066152622
1.16217864922953
1.16217490765156
1.16216833993065
1.16215747876835
1.16219657399927
1.16220193418075
1.16220513447721
1.16220695659304
1.16220793656545
1.16220844708902
1.16220870999301
1.16220884588361
1.16220891681809
1.16220895411895
1.16220897373594
1.16220898396957
1.16220898922686
1.16220899187086
1.1622089931656
1.16220899377907
1.16220899405762
1.16220899417683
1.16220899422336
1.1622089942376
1.16220899423902
1.1622089942371
1.16220899423469
1.16220899423255
1.16220899423125
1.16220899423069
1.16220899423108
1.16220899423283
1.16220899423548
1.16220899423791
1.1622089942375
1.16220899422452
1.16220899417792
1.16220899405815
1.1622089937816
1.16220899317458
1.16220899189255
1.16220898926952
1.16220898404451
1.16220897386555
1.16220895436409
1.16220891734988
1.16220884710783
1.16220871257372
1.16220845113154
1.16220793776192
1.16220693481366
1.16220502923307
1.16220160740382
1.16219579611671
1.16221526326711
1.16221798228126
1.16221957143553
1.16222045965987
1.16222092886075
1.1622211690334
1.16222129060883
1.16222135246315
1.1622213843316
1.16222140093229
1.16222140961253
1.16222141412843
1.16222141644715
1.16222141761427
1.1622214181866
1.16222141845806
1.16222141858123
1.16222141863365
1.16222141865367
1.16222141865928
1.16222141865941
1.16222141865824
1.16222141865685
1.16222141865565
1.16222141865493
1.16222141865461
1.16222141865478
1.16222141865568
1.16222141865706
1.16222141865843
1.16222141865861
1.16222141865329
1.16222141863302
1.16222141858001
1.16222141845709
1.16222141818736
1.16222141761878
1.16222141645799
1.16222141414948
1.16222140965414
1.16222140102847
1.16222138458482
1.16222135312605
1.16222129213174
1.16222117169712
1.16222093081219
1.16222045079585
1.16221951963724
1.16221781128491
1.16221483864427
1.16222416217988
1.16222548493858
1.16222624342045
1.16222666015416
1.16222687659381
1.16222698553327
1.16222703976484
1.16222706692845
1.16222708074158
1.16222708786909
1.16222709157467
1.16222709349758
1.16222709448465
1.16222709498204
1.16222709522635
1.16222709534237
1.16222709539498
1.16222709541723
1.16222709542553
1.16222709542764
1.1622270954275
1.16222709542683
1.16222709542609
1.16222709542546
1.16222709542509
1.16222709542492
1.162227095425
1.16222709542543
1.16222709542612
1.16222709542684
1.16222709542706
1.16222709542494
1.1622270954164
1.16222709539367
1.16222709534074
1.16222709522468
1.16222709498063
1.16222709448377
1.16222709349791
1.1622270915803
1.16222708789754
1.16222708084989
1.16222706726264
1.16222704060192
1.16222698712902
1.1622268782293
1.16222665700984
1.16222621924027
1.16222539962365
1.16222394130213
1.16222824111141
1.16222885997935
1.16222920882736
1.16222939747936
1.16222949391121
1.16222954167308
1.16222956506751
1.1622295766061
1.16222958239726
1.16222958535706
1.16222958688708
1.16222958767913
1.16222958808568
1.16222958829082
1.16222958839177
1.16222958843977
1.16222958846152
1.16222958847066
1.16222958847398
1.16222958847475
1.1622295884746
1.16222958847425
1.16222958847388
1.16222958847357
1.16222958847339
1.16222958847331
1.16222958847334
1.16222958847355
1.16222958847387
1.16222958847423
1.16222958847437
1.16222958847356
1.16222958847006
1.16222958846059
1.16222958843846
1.16222958839
1.16222958828837
1.16222958808216
1.16222958767418
1.16222958688202
1.16222958536032
1.16222958243867
1.16222957676479
1.1622295655011
1.16222954256027
1.16222949500982
1.16222939659851
1.16222919809818
1.16222881925506
1.16222813121607
1.16223003966559
1.16223031881991
1.16223047378337
1.16223055636659
1.16223059795427
1.16223061823923
1.16223062802072
1.16223063277255
1.16223063512645
1.16223063631796
1.16223063693037
1.16223063724666
1.16223063740902
1.16223063749107
1.16223063753153
1.16223063755079
1.16223063755951
1.16223063756315
1.16223063756444
1.1622306375647
1.16223063756461
1.16223063756444
1.16223063756426
1.16223063756412
1.16223063756404
1.162230637564
1.16223063756402
1.16223063756411
1.16223063756426
1.16223063756442
1.1622306375645
1.1622306375642
1.1622306375628
1.16223063755897
1.16223063754997
1.1622306375303
1.16223063748917
1.16223063740601
1.16223063724204
1.16223063692442
1.1622306363145
1.16223063514027
1.16223063284419
1.16223062823417
1.16223061870294
1.16223059860504
1.16223055625332
1.16223046925209
1.16223030016571
1.16222998719829
1.16223079874183
1.16223092041395
1.16223098703526
1.16223102206281
1.16223103945769
1.1622310478199
1.16223105179182
1.16223105369292
1.16223105462243
1.16223105508837
1.16223105532646
1.16223105544914
1.16223105551213
1.16223105554401
1.16223105555975
1.16223105556726
1.16223105557065
1.16223105557206
1.16223105557254
1.16223105557263
1.16223105557258
1.1622310555725
1.16223105557242
1.16223105557236
1.16223105557232
1.1622310555723
1.16223105557231
1.16223105557235
1.16223105557242
1.1622310555725
1.16223105557254
1.16223105557243
1.16223105557189
1.16223105557038
1.16223105556682
1.16223105555905
1.16223105554285
1.16223105551021
1.1622310554461
1.16223105532226
1.16223105508465
1.16223105462618
1.1622310537239
1.16223105189236
1.16223104804981
1.16223103981088
1.16223102214434
1.16223098521301
1.16223091219252
1.1622307746366
1.16223110022223
1.16223115156935
1.16223117934018
1.16223119376089
1.16223120082977
1.1622312041816
1.16223120575078
1.16223120649099
1.16223120684821
1.1622312070255
1.16223120711556
1.16223120716184
1.1622312071856
1.16223120719764
1.16223120720359
1.16223120720643
1.16223120720771
1.16223120720823
1.16223120720841
1.16223120720843
1.16223120720841
1.16223120720837
1.16223120720834
1.16223120720831
1.1622312072083
1.16223120720829
1.1622312072083
1.16223120720832
1.16223120720835
1.16223120720838
1.1622312072084
1.16223120720837
1.16223120720817
1.16223120720759
1.16223120720623
1.16223120720324
1.16223120719703
1.16223120718457
1.16223120716015
1.16223120711313
1.16223120702303
1.16223120684884
1.16223120650393
1.16223120579633
1.16223120429046
1.16223120100893
1.16223119385331
1.1622311786429
1.1622311480748
1.16223108953815
1.16223120675567
1.16223122777487
1.16223123901782
1.16223124478964
1.16223124758492
1.16223124889327
1.16223124949732
1.16223124977823
1.16223124991202
1.16223124997774
1.1622312500109
1.16223125002789
1.1622312500366
1.16223125004101
1.16223125004319
1.16223125004422
1.16223125004468
1.16223125004487
1.16223125004493
1.16223125004493
1.16223125004492
1.1622312500449
1.16223125004489
1.16223125004488
1.16223125004488
1.16223125004487
1.16223125004488
1.16223125004489
1.1622312500449
1.16223125004492
1.16223125004493
1.16223125004492
1.16223125004486
1.16223125004465
1.16223125004415
1.16223125004304
1.16223125004074
1.16223125003611
1.16223125002706
1.16223125000968
1.16223124997639
1.16223124991192
1.1622312497835
1.16223124951728
1.16223124894275
1.16223124767091
1.16223124485229
1.16223123876455
1.1622312263393
1.162231202177
1.16223123276211
1.16223124112232
1.16223124554961
1.16223124779866
1.16223124887569
1.16223124937366
1.1622312496005
1.16223124970451
1.16223124975337
1.1622312497771
1.16223124978898
1.16223124979503
1.16223124979811
1.16223124979967
1.16223124980043
1.16223124980079
1.16223124980094
1.162231249801
1.16223124980101
1.16223124980101
1.162231249801
1.162231249801
1.16223124980099
1.16223124980099
1.16223124980099
1.16223124980099
1.16223124980099
1.162231249801
1.16223124980101
1.16223124980102
1.16223124980103
1.16223124980103
1.16223124980101
1.16223124980095
1.16223124980078
1.16223124980039
1.16223124979957
1.16223124979792
1.16223124979467
1.16223124978843
1.16223124977647
1.16223124975323
1.16223124970663
1.162231249609
1.16223124939535
1.16223124891506
1.16223124783386
1.16223124546273
1.16223124055128
1.16223123086107
1.16223122646085
1.16223122969664
1.16223123139465
1.16223123224884
1.16223123265362
1.16223123283859
1.16223123292175
1.16223123295932
1.16223123297671
1.16223123298503
1.16223123298914
1.16223123299121
1.16223123299225
1.16223123299276
1.16223123299301
1.16223123299311
1.16223123299315
1.16223123299316
1.16223123299316
1.16223123299316
1.16223123299315
1.16223123299315
1.16223123299315
1.16223123299315
1.16223123299315
1.16223123299315
1.16223123299315
1.16223123299316
1.16223123299316
1.16223123299317
1.16223123299318
1.16223123299319
1.16223123299319
1.16223123299318
1.16223123299313
1.16223123299302
1.16223123299275
1.1622312329922
1.16223123299109
1.16223123298894
1.16223123298478
1.16223123297665
1.16223123296019
1.16223123292529
1.16223123284781
1.16223123267093
1.16223123226661
1.16223123136677
1.16223122947633
1.16223122569476
1.1622312075502
1.16223120877062
1.1622312094056
1.16223120972207
1.16223120987054
1.16223120993761
1.16223120996735
1.16223120998057
1.16223120998657
1.16223120998937
1.16223120999072
1.16223120999137
1.16223120999169
1.16223120999183
1.16223120999189
1.1622312099919
1.1622312099919
1.1622312099919
1.16223120999189
1.16223120999189
1.16223120999188
1.16223120999188
1.16223120999188
1.16223120999188
1.16223120999188
1.16223120999188
1.16223120999189
1.16223120999189
1.16223120999189
1.1622312099919
1.16223120999191
1.16223120999192
1.16223120999193
1.16223120999194
1.16223120999194
1.16223120999192
1.16223120999185
1.1622312099917
1.16223120999136
1.16223120999067
1.1622312099893
1.16223120998657
1.16223120998095
1.16223120996882
1.16223120994143
1.16223120987789
1.16223120973041
1.1622312093974
1.16223120868806
1.16223120725008
1.16223118384518
1.16223118429427
1.16223118452595
1.16223118464033
1.16223118469344
1.16223118471715
1.16223118472749
1.16223118473199
1.16223118473396
1.16223118473484
1.16223118473523
1.1622311847354
1.16223118473546
1.16223118473547
1.16223118473547
1.16223118473546
1.16223118473544
1.16223118473543
1.16223118473542
1.16223118473541
1.16223118473541
1.16223118473541
1.16223118473541
1.16223118473541
1.16223118473541
1.16223118473541
1.16223118473542
1.16223118473542
1.16223118473542
1.16223118473543
1.16223118473544
1.16223118473545
1.16223118473546
1.16223118473548
1.1622311847355
1.16223118473551
1.16223118473552
1.1622311847355
1.16223118473543
1.16223118473525
1.16223118473485
1.162231184734
1.16223118473218
1.16223118472812
1.16223118471872
1.16223118469648
1.16223118464403
1.16223118452384
1.16223118426419
1.16223118373072
1.1622311583619
1.1622311585233
1.16223115860573
1.16223115864598
1.16223115866444
1.16223115867256
1.16223115867602
1.16223115867747
1.16223115867806
1.16223115867828
1.16223115867835
1.16223115867836
1.16223115867834
1.16223115867832
1.16223115867829
1.16223115867827
1.16223115867825
1.16223115867824
1.16223115867823
1.16223115867822
1.16223115867822
1.16223115867821
1.16223115867821
1.16223115867821
1.16223115867822
1.16223115867822
1.16223115867822
1.16223115867822
1.16223115867823
1.16223115867824
1.16223115867824
1.16223115867825
1.16223115867827
1.16223115867829
1.16223115867831
1.16223115867833
1.16223115867836
1.16223115867839
1.16223115867841
1.1622311586784
1.16223115867833
1.16223115867812
1.16223115867759
1.16223115867631
1.16223115867321
1.16223115866568
1.16223115864756
1.16223115860534
1.16223115851263
1.16223115831935
1.16223113223441
1.1622311322911
1.16223113231961
1.16223113233328
1.16223113233944
1.16223113234209
1.16223113234317
1.16223113234358
1.16223113234371
1.16223113234372
1.16223113234369
1.16223113234365
1.16223113234361
1.16223113234358
1.16223113234355
1.16223113234352
1.1622311323435
1.16223113234349
1.16223113234348
1.16223113234347
1.16223113234347
1.16223113234347
1.16223113234347
1.16223113234347
1.16223113234347
1.16223113234347
1.16223113234347
1.16223113234348
1.16223113234348
1.16223113234349
1.1622311323435
1.16223113234351
1.16223113234352
1.16223113234354
1.16223113234356
1.16223113234359
1.16223113234362
1.16223113234367
1.16223113234371
1.16223113234375
1.16223113234378
1.16223113234378
1.16223113234367
1.16223113234333
1.16223113234238
1.16223113233996
1.16223113233395
1.16223113231962
1.16223113228743
1.16223113221899
1.16223110587874
1.16223110589819
1.16223110590766
1.16223110591202
1.16223110591391
1.16223110591469
1.16223110591497
1.16223110591504
1.16223110591503
1.16223110591498
1.16223110591493
1.16223110591488
1.16223110591484
1.1622311059148
1.16223110591477
1.16223110591474
1.16223110591473
1.16223110591471
1.1622311059147
1.1622311059147
1.16223110591469
1.16223110591469
1.16223110591469
1.16223110591469
1.16223110591469
1.16223110591469
1.1622311059147
1.1622311059147
1.16223110591471
1.16223110591471
1.16223110591472
1.16223110591473
1.16223110591475
1.16223110591476
1.16223110591478
1.16223110591481
1.16223110591485
1.16223110591489
1.16223110591494
1.16223110591499
1.16223110591505
1.1622311059151
1.16223110591512
1.16223110591507
1.16223110591484
1.16223110591415
1.16223110591231
1.16223110590773
1.16223110589697
1.1622311058733
1.16223107944396
1.16223107945045
1.16223107945335
1.16223107945452
1.16223107945497
1.16223107945513
1.16223107945516
1.16223107945513
1.16223107945508
1.16223107945503
1.16223107945497
1.16223107945493
1.16223107945489
1.16223107945485
1.16223107945482
1.1622310794548
1.16223107945479
1.16223107945477
1.16223107945476
1.16223107945476
1.16223107945475
1.16223107945475
1.16223107945475
1.16223107945475
1.16223107945475
1.16223107945476
1.16223107945476
1.16223107945476
1.16223107945477
1.16223107945477
1.16223107945478
1.16223107945479
1.1622310794548
1.16223107945482
1.16223107945484
1.16223107945487
1.1622310794549
1.16223107945494
1.16223107945498
1.16223107945504
1.16223107945509
1.16223107945515
1.16223107945521
1.16223107945524
1.16223107945523
1.1622310794551
1.16223107945466
1.1622310794534
1.16223107945007
1.16223107944209
1.1622310529823
1.16223105298439
1.16223105298506
1.16223105298518
1.16223105298516
1.16223105298513
1.16223105298508
1.16223105298504
1.16223105298499
1.16223105298494
1.16223105298489
1.16223105298485
1.16223105298482
1.16223105298479
1.16223105298476
1.16223105298474
1.16223105298473
1.16223105298472
1.16223105298471
1.1622310529847
1.1622310529847
1.1622310529847
1.1622310529847
1.1622310529847
1.1622310529847
1.1622310529847
1.1622310529847
1.16223105298471
1.16223105298471
1.16223105298472
1.16223105298473
1.16223105298474
1.16223105298475
1.16223105298476
1.16223105298478
1.16223105298481
1.16223105298483
1.16223105298487
1.16223105298491
1.16223105298495
1.162231052985
1.16223105298506
1.16223105298511
1.16223105298516
1.16223105298521
1.16223105298524
1.16223105298526
1.1622310529851
1.16223105298428
1.16223105298169
1.16223102651168
1.16223102651231
1.16223102651225
1.16223102651204
1.16223102651188
1.1622310265118
1.16223102651175
1.16223102651171
1.16223102651167
1.16223102651163
1.16223102651159
1.16223102651156
1.16223102651153
1.1622310265115
1.16223102651148
1.16223102651147
1.16223102651145
1.16223102651144
1.16223102651144
1.16223102651143
1.16223102651143
1.16223102651143
1.16223102651143
1.16223102651143
1.16223102651143
1.16223102651143
1.16223102651143
1.16223102651144
1.16223102651144
1.16223102651145
1.16223102651145
1.16223102651146
1.16223102651147
1.16223102651149
1.1622310265115
1.16223102651152
1.16223102651155
1.16223102651158
1.16223102651161
1.16223102651165
1.16223102651169
1.16223102651173
1.16223102651178
1.16223102651182
1.16223102651187
1.16223102651194
1.16223102651209
1.16223102651229
1.1622310265123
1.16223102651151
1.16223100003815
1.1622310000383
1.16223100003801
1.1622310000377
1.16223100003751
1.16223100003743
1.16223100003739
1.16223100003736
1.16223100003734
1.16223100003731
1.16223100003728
1.16223100003726
1.16223100003723
1.16223100003721
1.1622310000372
1.16223100003718
1.16223100003717
1.16223100003716
1.16223100003716
1.16223100003715
1.16223100003715
1.16223100003715
1.16223100003715
1.16223100003715
1.16223100003715
1.16223100003715
1.16223100003715
1.16223100003716
1.16223100003716
1.16223100003717
1.16223100003717
1.16223100003718
1.16223100003719
1.1622310000372
1.16223100003722
1.16223100003724
1.16223100003726
1.16223100003728
1.16223100003731
1.16223100003734
1.16223100003737
1.1622310000374
1.16223100003743
1.16223100003746
1.1622310000375
1.16223100003757
1.16223100003775
1.16223100003804
1.16223100003831
1.16223100003812
1.16223097356367
1.16223097356367
1.16223097356333
1.162230973563
1.16223097356282
1.16223097356275
1.16223097356272
1.16223097356271
1.1622309735627
1.16223097356268
1.16223097356267
1.16223097356265
1.16223097356263
1.16223097356262
1.1622309735626
1.16223097356259
1.16223097356258
1.16223097356258
1.16223097356257
1.16223097356257
1.16223097356257
1.16223097356257
1.16223097356256
1.16223097356257
1.16223097356257
1.16223097356257
1.16223097356257
1.16223097356257
1.16223097356258
1.16223097356258
1.16223097356259
1.1622309735626
1.1622309735626
1.16223097356261
1.16223097356263
1.16223097356264
1.16223097356266
1.16223097356268
1.1622309735627
1.16223097356272
1.16223097356274
1.16223097356276
1.16223097356278
1.16223097356279
1.16223097356281
1.16223097356287
1.16223097356304
1.16223097356335
1.1622309735637
1.16223097356369
1.1622309470889
1.16223094708886
1.16223094708851
1.16223094708819
1.16223094708803
1.16223094708797
1.16223094708796
1.16223094708797
1.16223094708797
1.16223094708796
1.16223094708796
1.16223094708795
1.16223094708794
1.16223094708793
1.16223094708792
1.16223094708791
1.1622309470879
1.1622309470879
1.16223094708789
1.16223094708789
1.16223094708789
1.16223094708789
1.16223094708789
1.16223094708789
1.16223094708789
1.16223094708789
1.16223094708789
1.1622309470879
1.1622309470879
1.1622309470879
1.16223094708791
1.16223094708792
1.16223094708792
1.16223094708793
1.16223094708794
1.16223094708795
1.16223094708797
1.16223094708798
1.16223094708799
1.16223094708801
1.16223094708802
1.16223094708803
1.16223094708803
1.16223094708803
1.16223094708803
1.16223094708808
1.16223094708823
1.16223094708853
1.16223094708889
1.16223094708893
1.16223092061403
1.16223092061399
1.16223092061365
1.16223092061335
1.16223092061321
1.16223092061317
1.16223092061318
1.1622309206132
1.16223092061321
1.16223092061322
1.16223092061322
1.16223092061322
1.16223092061321
1.16223092061321
1.1622309206132
1.1622309206132
1.16223092061319
1.16223092061319
1.16223092061319
1.16223092061319
1.16223092061319
1.16223092061318
1.16223092061318
1.16223092061319
1.16223092061319
1.16223092061319
1.16223092061319
1.16223092061319
1.1622309206132
1.1622309206132
1.1622309206132
1.16223092061321
1.16223092061321
1.16223092061322
1.16223092061323
1.16223092061324
1.16223092061325
1.16223092061326