/*--------------------------------*- C++ -*----------------------------------*\
  =========                 |
  \\      /  F ield         | OpenFOAM: The Open Source CFD Toolbox
   \\    /   O peration     | Website:  https://openfoam.org
    \\  /    A nd           | Version:  10
     \\/     M anipulation  |
\*---------------------------------------------------------------------------*/
FoamFile
{
    format      ascii;
    class       volScalarField;
    location    "9.2";
    object      T;
}
// * * * * * * * * * * * * * * * * * * * * * * * * * * * * * * * * * * * * * //

dimensions      [0 0 0 1 0 0 0];

internalField   nonuniform List<scalar> 
2500
(
304.177262860158
304.175954980877
304.168174289572
304.161495913551
304.156825405981
304.153794345251
304.151896253326
304.150735477909
304.150043275732
304.149643304827
304.149418357887
304.149296510001
304.149232793017
304.149200098562
304.149183733843
304.14917545586
304.149171599154
304.149169481889
304.149168127959
304.14916735586
304.149166821817
304.149166420312
304.149166116105
304.149165932236
304.14916575582
304.149165627244
304.149165594186
304.149165615639
304.149165708527
304.149165898009
304.149166237794
304.14916690804
304.149168000172
304.14917007052
304.149174187379
304.149182545267
304.149199463042
304.149232987204
304.149298795313
304.149422587771
304.149648989418
304.150050298018
304.150740423924
304.15189492208
304.153784609552
304.156806426866
304.161483825532
304.168198990041
304.176003910107
304.177186031551
303.503246893303
303.48858606599
303.465523587155
303.446501725656
303.433114184539
303.424301144415
303.41868557556
303.415188125755
303.41306187277
303.411805658546
303.411086144143
303.410687904099
303.410475037888
303.41036491063
303.410309752377
303.410282873737
303.410270252096
303.410264309176
303.410261431171
303.41026004107
303.410259304804
303.410258862233
303.410258571203
303.410258388299
303.410258239218
303.410258131744
303.41025809207
303.410258106927
303.410258205036
303.410258467254
303.410259073778
303.410260443444
303.410263375896
303.410269700758
303.410283181017
303.410311372669
303.410368812345
303.410482370835
303.410700208137
303.411103895761
303.411828007976
303.413085884568
303.415206241249
303.41868707697
303.424277878206
303.433073720116
303.446495016566
303.465640009881
303.488805683599
303.502846189305
302.786464810931
302.756732162678
302.72191128076
302.694384749749
302.675249649134
302.662725693571
302.654772759923
302.649829183389
302.646825524308
302.645049477061
302.644030950973
302.643465960296
302.643163147789
302.643006269887
302.642927682949
302.642889553901
302.642871672231
302.642863449335
302.64285968612
302.642857973062
302.642857156541
302.642856724787
302.642856469372
302.642856312811
302.642856197142
302.642856114786
302.642856078115
302.642856086013
302.642856179759
302.642856472847
302.64285721338
302.642858973209
302.642862963702
302.642871783085
302.642890801047
302.642930782126
302.643012389518
302.64317375742
302.643482688207
302.644054553087
302.645079023934
302.646857068336
302.64985379703
302.654777866775
302.662703403192
302.675219447286
302.694432752601
302.722189711599
302.757270658302
302.786313185053
302.10174159531
302.061375797052
302.021468600755
301.991215839426
301.970684438489
301.957508730661
301.949291228634
301.944265746934
301.941255740461
301.939497826471
301.938500604386
301.937952660746
301.937661454749
301.937511796648
301.937437411619
301.937401630588
301.937384984977
301.937377439411
301.937374072465
301.937372586053
301.937371911327
301.937371575622
301.937371386769
301.937371272971
301.937371192703
301.937371134494
301.937371102811
301.937371097401
301.937371154954
301.937371381298
301.937371999481
301.937373528726
301.937377110386
301.937385162375
301.937402732531
301.937440050839
301.93751694744
301.937670402263
301.937966843513
301.938520957983
301.939524014435
301.941284909782
301.944291071212
301.949303262292
301.957504861375
301.970696057545
301.991355219571
302.021939743611
302.062298721876
302.102307650413
301.504174483215
301.459952534892
301.420822902146
301.392312868316
301.373458630918
301.361619708902
301.354380043416
301.350029291097
301.347462107506
301.345981469344
301.345150300733
301.344697583343
301.344458758781
301.344336816134
301.344276565814
301.344247758356
301.344234438388
301.344228458841
301.344225836026
301.344224706434
301.344224214168
301.344223982079
301.344223857297
301.344223784032
301.344223734149
301.344223696663
301.344223672101
301.344223660779
301.344223685231
301.3442238324
301.344224280736
301.344225434564
301.344228211514
301.344234538297
301.344248466999
301.344278288756
301.344340207891
301.344464718851
301.34470716143
301.345164330833
301.346000042097
301.347483679573
301.350049759566
301.354394207898
301.361630726757
301.373505859215
301.392522005841
301.421432254778
301.461186912573
301.505526890817
301.022536685707
300.980689910445
300.94654259795
300.922560013822
300.907110181682
300.897623636946
300.891938176424
300.888581112745
300.886629263918
300.885516926029
300.884898480864
300.884564201482
300.884388934114
300.884299892087
300.884256087534
300.884235231442
300.884225631899
300.884221354328
300.884219503613
300.884218724662
300.88421839894
300.884218254372
300.88421818068
300.884218139065
300.884218111816
300.88421809004
300.884218072609
300.884218060863
300.884218064376
300.884218146042
300.884218437119
300.884219223384
300.884221167505
300.884225649445
300.884235586515
300.88425699689
300.884301718907
300.884392199606
300.884569545782
300.884906488667
300.885527833044
300.886642423053
300.88859450674
300.891949888903
300.897640433065
300.907173220332
300.922793892749
300.947195380575
300.982066078045
301.024445157518
300.661226709145
300.625853994322
300.598765136575
300.580373221445
300.568827057318
300.561894325559
300.557822163424
300.555459284322
300.554105055027
300.553341999165
300.552921447204
300.552695637068
300.552577831084
300.552518208176
300.552488965717
300.55247508313
300.552468715215
300.552465894919
300.552464689477
300.552464193655
300.552463995695
300.552463914519
300.552463876186
300.552463855882
300.552463843453
300.552463832297
300.55246382082
300.552463810033
300.552463804915
300.552463843657
300.552464013991
300.552464507098
300.552465761726
300.552468687342
300.552475212435
300.55248934234
300.552518994676
300.552579274556
300.552698060413
300.552925179559
300.553347236494
300.554111574741
300.555466231683
300.557829359243
300.561909394641
300.568887235809
300.580589567278
300.599370288912
300.62718480651
300.663336865581
300.407429789991
300.380188243101
300.360387248318
300.347356686959
300.339378994135
300.334693412153
300.331995385167
300.330456530073
300.329586805986
300.329102001429
300.328836935484
300.328695429754
300.328621903035
300.328584794112
300.328566630844
300.328558024415
300.328554086947
300.328552352339
300.328551619471
300.328551325131
300.328551213939
300.328551173354
300.328551156398
300.328551148496
300.32855114458
300.328551139865
300.328551132841
300.328551124228
300.328551117563
300.328551131828
300.328551222047
300.32855150981
300.328552265168
300.328554047351
300.328558043314
300.328566731328
300.328585027811
300.328622357999
300.328696232803
300.328838229186
300.329103882782
300.329589176641
300.330459007627
300.331998318534
300.334703322385
300.339425698438
300.347530161958
300.360885829973
300.381333616813
300.409419209281
300.23966043575
300.220294696519
300.206828260569
300.198218425487
300.193073125616
300.190115605609
300.188445623827
300.18750911073
300.186986987039
300.186698927209
300.186542589919
300.186459548132
300.186416539028
300.186394875095
300.186384284559
300.186379272121
300.186376983508
300.186375980184
300.186375561083
300.186375396866
300.186375339146
300.186375321827
300.186375315724
300.186375313723
300.186375314187
300.186375313056
300.186375309069
300.186375302904
300.186375297119
300.186375299937
300.186375343469
300.18637550066
300.186375928412
300.186376950305
300.186379253044
300.186384275606
300.186394879492
300.186416571049
300.186459636993
300.186542772595
300.186699218203
300.186987289933
300.187509164114
300.188445689366
300.190120293867
300.193103902839
300.198342134851
300.207199904778
300.22118774657
300.241323893114
300.134843175776
300.122014605119
300.11342991407
300.108086058803
300.104965675949
300.103209338308
300.1022364771
300.101699928178
300.10140477064
300.10124354152
300.101156639163
300.101110683201
300.101086942912
300.10107500024
300.101069165368
300.101066405287
300.10106514704
300.101064597979
300.10106437125
300.101064284639
300.10106425664
300.101064251131
300.101064251037
300.10106425167
300.101064252811
300.101064252786
300.101064250733
300.101064246752
300.101064242153
300.101064241061
300.101064260427
300.10106434101
300.101064570301
300.101065125412
300.101066382468
300.101069131005
300.101074943217
300.101086852705
300.101110552318
300.101156459402
300.101243283737
300.101404322053
300.10169903784
300.102235160945
300.103210364788
300.104983093595
300.108165745431
300.11368376884
300.122653668087
300.136104984604
300.072712855537
300.06473625816
300.059575477045
300.056441700298
300.054651877813
300.053664760873
300.053128178977
300.052837078815
300.052679045865
300.05259355309
300.052547771216
300.05252365579
300.052511223229
300.052504973495
300.052501920158
300.052500475954
300.052499818402
300.052499532781
300.052499416255
300.052499373095
300.052499361162
300.052499360535
300.052499361703
300.052499363127
300.052499364247
300.052499364454
300.052499363459
300.052499360962
300.05249935771
300.052499355853
300.052499363592
300.052499402653
300.052499519636
300.052499806807
300.052500460325
300.052501891819
300.05250492131
300.052511133853
300.052523514581
300.052547558641
300.052593228143
300.05267849702
300.052836065851
300.053126535882
300.053663892319
300.054660206606
300.056488509442
300.059735905781
300.065160164588
300.073594097092
300.037652841666
300.032970233847
300.030029860545
300.02828507702
300.027309350767
300.026781715285
300.026500139035
300.02634984935
300.026269322545
300.026226171977
300.026203207689
300.026191153989
300.026184949432
300.026181831217
300.02618030717
300.026179586098
300.02617925813
300.026179116336
300.026179059254
300.026179039148
300.026179034605
300.026179035157
300.026179036433
300.026179037712
300.026179038559
300.026179038826
300.026179038358
300.026179036866
300.026179034782
300.026179033238
300.026179035912
300.026179053899
300.026179110963
300.026179253068
300.026179578057
300.0261802908
300.026181799213
300.026184892457
300.026191060719
300.026203061328
300.026225936649
300.026268905327
300.026349045825
300.026498714125
300.026780240209
300.02731247498
300.02831028201
300.030124366952
300.033232947883
300.038225501181
300.018759638385
300.016151712953
300.014557150109
300.013631016661
300.01312337246
300.012854026413
300.012712856622
300.012638713413
300.012599502258
300.012578688131
300.012567677359
300.012561916423
300.012558954452
300.012557465606
300.012556737346
300.012556392579
300.012556235906
300.012556168503
300.012556141767
300.012556132956
300.012556131468
300.012556132111
300.01255613308
300.012556133977
300.012556134538
300.012556134757
300.012556134541
300.012556133695
300.012556132461
300.01255613144
300.01255613216
300.012556140057
300.012556166774
300.0125562343
300.012556389481
300.012556730045
300.0125574503
300.012558926142
300.012561868664
300.012567599368
300.012578554503
300.012599245392
300.012638179172
300.012711823225
300.012852639964
300.013124001302
300.013643470302
300.01460935319
300.016304815449
300.019108674739
300.009009472013
300.007625802892
300.006799689171
300.006329336211
300.006076370945
300.005944586979
300.005876722258
300.005841644111
300.005823333403
300.005813704711
300.005808640852
300.005805999173
300.005804642069
300.005803959553
300.00580362533
300.005803466971
300.005803395065
300.005803364293
300.005803352285
300.005803348609
300.005803348244
300.00580334874
300.005803349363
300.005803349915
300.005803350251
300.005803350396
300.005803350296
300.005803349843
300.005803349159
300.005803348532
300.005803348636
300.005803351987
300.005803364015
300.005803394933
300.00580346632
300.005803623015
300.005803953958
300.005804631062
300.005805979834
300.005808607399
300.005813641436
300.005823196134
300.005841328102
300.005876056096
300.005943543471
300.006076062106
300.006334958243
300.006826856478
300.007710156239
300.009210274499
300.004178274684
300.00347641345
300.003066205234
300.002836928327
300.002715813777
300.002653818102
300.002622435832
300.002606469332
300.002598243079
300.002593957898
300.002591717232
300.002590551517
300.002589952966
300.002589651686
300.002589503943
300.002589433866
300.00258940207
300.002589388539
300.002589383369
300.002589381921
300.002589381887
300.00258938219
300.002589382551
300.00258938286
300.002589383046
300.00258938313
300.002589383085
300.002589382854
300.002589382496
300.002589382143
300.002589382097
300.002589383471
300.002589388703
300.002589402387
300.00258943412
300.002589503751
300.002589650527
300.002589950173
300.002590546087
300.002591706495
300.002593933076
300.00259817772
300.002606298224
300.002622042732
300.002653130528
300.002715310064
300.002839216403
300.003079575915
300.003520552785
300.004287883208
300.001874370087
300.001532930153
300.00133714565
300.00122957549
300.001173706542
300.001145586239
300.001131587503
300.001124575746
300.001121010124
300.001119170259
300.001118213704
300.001117717316
300.001117462503
300.001117334097
300.001117271023
300.001117241069
300.001117227486
300.001117221739
300.001117219596
300.001117219049
300.001117219085
300.001117219259
300.001117219451
300.001117219612
300.001117219709
300.001117219753
300.001117219733
300.00111721962
300.001117219443
300.001117219259
300.001117219203
300.001117219749
300.001117221957
300.001117227828
300.001117241495
300.00111727146
300.001117334467
300.001117462736
300.001117717236
300.001118212257
300.001119162921
300.001120982172
300.001124489489
300.001131371438
300.001145174342
300.001173284392
300.001230387134
300.001343387209
300.001554952244
300.001931384713
300.000814655967
300.000654910353
300.000564863774
300.000516167794
300.000491276151
300.000478947458
300.000472908635
300.000469930127
300.000468435193
300.000467671129
300.000467276142
300.000467071659
300.000466966692
300.000466913721
300.000466887651
300.000466875252
300.000466869633
300.000466867269
300.000466866409
300.00046686621
300.000466866246
300.000466866337
300.000466866433
300.000466866512
300.000466866559
300.000466866581
300.000466866572
300.00046686652
300.000466866436
300.000466866346
300.00046686631
300.000466866522
300.000466867429
300.000466869877
300.000466875594
300.000466888113
300.000466914357
300.000466967605
300.000467072941
300.000467277454
300.000467670293
300.000468424512
300.00046988917
300.000472796724
300.000478718464
300.000490992585
300.000516395176
300.000567633261
300.00066542234
300.000843022782
300.000343569984
300.000271513311
300.000231513341
300.000210196448
300.000199461505
300.000194225319
300.000191700355
300.000190473686
300.000189866004
300.00018955838
300.000189400253
300.000189318574
300.000189276637
300.000189255437
300.00018924498
300.000189239998
300.00018923774
300.000189236796
300.00018923646
300.00018923639
300.000189236413
300.000189236457
300.000189236502
300.000189236538
300.00018923656
300.00018923657
300.000189236566
300.000189236542
300.000189236505
300.000189236464
300.000189236444
300.000189236526
300.00018923689
300.000189237885
300.000189240214
300.000189245303
300.000189255934
300.00018927742
300.000189319772
300.000189401795
300.000189559279
300.000189862444
300.000190455203
300.000191645267
300.000194105634
300.000199293537
300.000210225698
300.00023268299
300.000276328436
300.000357113108
300.000140799863
300.000109393285
300.000092196631
300.000083155055
300.000078664892
300.00007650628
300.00007548092
300.000074990107
300.0000747501
300.000074629766
300.000074568259
300.000074536555
300.000074520269
300.000074512019
300.000074507939
300.000074505991
300.000074505107
300.000074504738
300.00007450461
300.000074504585
300.000074504596
300.000074504616
300.000074504635
300.000074504651
300.00007450466
300.000074504665
300.000074504663
300.000074504653
300.000074504637
300.00007450462
300.000074504611
300.000074504642
300.000074504786
300.000074505182
300.000074506108
300.000074508126
300.000074512324
300.000074520769
300.000074537346
300.000074569351
300.000074630732
300.000074749138
300.000074982116
300.000075454979
300.000076446945
300.000078573735
300.000083134023
300.000092667012
300.000111515451
300.000147022025
300.000056146564
300.000042892602
300.000035724217
300.00003200179
300.000030177036
300.00002931174
300.000028906601
300.000028715448
300.000028623168
300.000028577344
300.000028554052
300.000028542068
300.000028535907
300.000028532778
300.000028531226
300.000028530481
300.000028530143
300.000028530001
300.000028529952
300.000028529942
300.000028529946
300.000028529954
300.000028529961
300.000028529968
300.000028529971
300.000028529973
300.000028529972
300.000028529968
300.000028529962
300.000028529955
300.000028529952
300.000028529965
300.000028530022
300.000028530177
300.000028530538
300.00002853132
300.000028532939
300.00002853618
300.00002854251
300.000028554684
300.00002857799
300.000028623013
300.000028712114
300.000028894852
300.000029283652
300.000030130801
300.000031977946
300.000035904216
300.000043794643
300.000058904399
300.000021813844
300.00001638826
300.000013486135
300.000011996212
300.000011274594
300.000010936784
300.000010780777
300.00001070819
300.000010673588
300.000010656568
300.000010647964
300.000010643543
300.000010641267
300.000010640107
300.000010639528
300.000010639249
300.00001063912
300.000010639065
300.000010639045
300.000010639041
300.000010639041
300.000010639043
300.000010639046
300.000010639048
300.000010639049
300.000010639049
300.000010639049
300.000010639047
300.000010639045
300.000010639043
300.000010639043
300.000010639049
300.000010639072
300.000010639133
300.000010639272
300.00001063957
300.000010640182
300.000010641399
300.000010643762
300.000010648286
300.000010656924
300.000010673621
300.000010706837
300.000010775636
300.000010924022
300.00001125241
300.000011980052
300.000013551524
300.000016758828
300.000022995723
300.000008267107
300.000006109119
300.000004966288
300.000004385692
300.000004107609
300.000003978992
300.000003920361
300.000003893444
300.000003880769
300.000003874591
300.000003871483
300.000003869888
300.000003869063
300.00000386864
300.000003868427
300.000003868323
300.000003868273
300.000003868251
300.000003868242
300.000003868238
300.000003868237
300.000003868237
300.000003868237
300.000003868237
300.000003868237
300.000003868237
300.000003868237
300.000003868237
300.000003868236
300.000003868236
300.000003868237
300.000003868241
300.000003868251
300.000003868275
300.000003868329
300.000003868442
300.000003868671
300.00000386912
300.000003869985
300.000003871631
300.000003874763
300.000003880814
300.000003892904
300.000003918177
300.000003973402
300.000004097458
300.000004376616
300.000004988729
300.00000625653
300.000008757823
300.000003059776
300.000002224528
300.000001786199
300.000001565659
300.000001461113
300.000001413298
300.000001391765
300.000001382003
300.000001377459
300.000001375262
300.000001374161
300.000001373594
300.000001373299
300.000001373146
300.000001373067
300.000001373026
300.000001373006
300.000001372995
300.00000137299
300.000001372987
300.000001372985
300.000001372984
300.000001372983
300.000001372982
300.000001372982
300.000001372982
300.000001372982
300.000001372982
300.000001372982
300.000001372983
300.000001372984
300.000001372987
300.000001372992
300.000001373003
300.000001373025
300.000001373069
300.000001373154
300.000001373319
300.000001373632
300.000001374221
300.000001375335
300.000001377483
300.000001381787
300.000001390859
300.000001410927
300.000001456656
300.000001561084
300.000001793407
300.000002281408
300.000003257533
300.000001107237
300.00000079221
300.000000628282
300.000000546549
300.000000508173
300.000000490801
300.000000483064
300.000000479596
300.000000477997
300.000000477229
300.000000476843
300.000000476643
300.000000476537
300.000000476479
300.000000476448
300.000000476431
300.000000476421
300.000000476415
300.000000476411
300.000000476408
300.000000476405
300.000000476404
300.000000476402
300.000000476401
300.000000476401
300.000000476401
300.000000476401
300.000000476401
300.000000476402
300.000000476403
300.000000476404
300.000000476407
300.00000047641
300.000000476416
300.000000476426
300.000000476445
300.000000476478
300.00000047654
300.000000476653
300.000000476863
300.000000477254
300.000000478003
300.000000479506
300.000000482694
300.000000489823
300.000000506285
300.000000544408
300.000000630409
300.000000813533
300.000001184718
300.000000392248
300.000000276322
300.000000216501
300.000000186941
300.000000173186
300.000000167017
300.000000164294
300.000000163084
300.00000016253
300.000000162263
300.000000162127
300.000000162054
300.000000162014
300.00000016199
300.000000161976
300.000000161967
300.00000016196
300.000000161956
300.000000161952
300.000000161949
300.000000161947
300.000000161945
300.000000161943
300.000000161942
300.000000161942
300.000000161941
300.000000161941
300.000000161942
300.000000161943
300.000000161944
300.000000161946
300.000000161948
300.000000161951
300.000000161955
300.000000161961
300.00000016197
300.000000161985
300.00000016201
300.000000162053
300.000000162129
300.000000162266
300.000000162526
300.000000163043
300.000000164143
300.000000166621
300.000000172411
300.000000185995
300.000000217055
300.000000284099
300.000000421806
300.000000136277
300.000000094613
300.000000073318
300.000000062902
300.000000058098
300.000000055959
300.000000055021
300.000000054604
300.000000054411
300.000000054317
300.000000054266
300.000000054237
300.000000054219
300.000000054207
300.000000054199
300.000000054192
300.000000054187
300.000000054183
300.00000005418
300.000000054177
300.000000054174
300.000000054172
300.000000054171
300.00000005417
300.000000054169
300.000000054169
300.000000054169
300.000000054169
300.00000005417
300.000000054171
300.000000054173
300.000000054175
300.000000054178
300.000000054182
300.000000054186
300.000000054192
300.0000000542
300.000000054212
300.000000054231
300.000000054261
300.000000054312
300.000000054403
300.000000054581
300.000000054955
300.0000000558
300.000000057787
300.000000062502
300.000000073432
300.000000097377
300.000000147271
300.000000046592
300.00000003196
300.000000024588
300.000000021036
300.000000019415
300.000000018696
300.000000018378
300.000000018235
300.000000018165
300.000000018129
300.000000018107
300.000000018092
300.000000018082
300.000000018074
300.000000018067
300.000000018062
300.000000018057
300.000000018053
300.00000001805
300.000000018047
300.000000018045
300.000000018043
300.000000018041
300.00000001804
300.00000001804
300.000000018039
300.000000018039
300.00000001804
300.000000018041
300.000000018042
300.000000018044
300.000000018046
300.000000018048
300.000000018052
300.000000018056
300.00000001806
300.000000018066
300.000000018074
300.000000018084
300.000000018099
300.00000001812
300.000000018155
300.000000018219
300.000000018347
300.000000018629
300.000000019291
300.000000020874
300.000000024597
300.000000032918
300.000000050584
300.000000015812
300.000000010793
300.00000000834
300.000000007196
300.000000006683
300.000000006453
300.000000006348
300.000000006296
300.000000006268
300.00000000625
300.000000006238
300.000000006228
300.00000000622
300.000000006213
300.000000006207
300.000000006202
300.000000006198
300.000000006194
300.000000006191
300.000000006188
300.000000006186
300.000000006184
300.000000006182
300.000000006181
300.000000006181
300.00000000618
300.00000000618
300.000000006181
300.000000006182
300.000000006183
300.000000006185
300.000000006187
300.000000006189
300.000000006192
300.000000006196
300.000000006201
300.000000006206
300.000000006212
300.000000006219
300.000000006229
300.00000000624
300.000000006257
300.000000006283
300.000000006329
300.000000006422
300.000000006633
300.000000007132
300.000000008333
300.000000011118
300.000000017228
300.000000005455
300.000000003781
300.000000003029
300.000000002712
300.000000002576
300.000000002511
300.000000002476
300.000000002455
300.00000000244
300.000000002429
300.000000002419
300.000000002411
300.000000002404
300.000000002397
300.000000002392
300.000000002387
300.000000002383
300.000000002379
300.000000002376
300.000000002373
300.000000002371
300.000000002369
300.000000002367
300.000000002366
300.000000002366
300.000000002365
300.000000002365
300.000000002366
300.000000002367
300.000000002368
300.00000000237
300.000000002372
300.000000002374
300.000000002377
300.000000002381
300.000000002385
300.00000000239
300.000000002396
300.000000002402
300.00000000241
300.000000002419
300.00000000243
300.000000002443
300.000000002463
300.000000002494
300.000000002553
300.000000002687
300.000000003024
300.00000000389
300.000000005946
300.000000002037
300.000000001502
300.000000001326
300.000000001287
300.000000001277
300.000000001267
300.000000001255
300.000000001243
300.000000001232
300.000000001222
300.000000001214
300.000000001206
300.000000001199
300.000000001193
300.000000001187
300.000000001183
300.000000001178
300.000000001175
300.000000001172
300.000000001169
300.000000001167
300.000000001165
300.000000001164
300.000000001162
300.000000001162
300.000000001161
300.000000001162
300.000000001162
300.000000001163
300.000000001164
300.000000001166
300.000000001168
300.00000000117
300.000000001173
300.000000001177
300.000000001181
300.000000001186
300.000000001191
300.000000001197
300.000000001204
300.000000001212
300.000000001221
300.000000001232
300.000000001243
300.000000001254
300.000000001265
300.000000001277
300.000000001325
300.000000001539
300.000000002204
300.000000000932
300.000000000777
300.000000000792
300.000000000844
300.000000000874
300.000000000881
300.000000000876
300.000000000867
300.000000000857
300.000000000848
300.000000000839
300.000000000832
300.000000000825
300.000000000819
300.000000000814
300.000000000809
300.000000000805
300.000000000801
300.000000000798
300.000000000795
300.000000000793
300.000000000791
300.00000000079
300.000000000789
300.000000000788
300.000000000788
300.000000000788
300.000000000789
300.000000000789
300.000000000791
300.000000000792
300.000000000794
300.000000000797
300.0000000008
300.000000000803
300.000000000807
300.000000000812
300.000000000817
300.000000000823
300.00000000083
300.000000000838
300.000000000847
300.000000000856
300.000000000865
300.000000000871
300.000000000866
300.00000000084
300.000000000793
300.000000000791
300.000000000987
300.000000000583
300.000000000553
300.000000000629
300.00000000071
300.000000000752
300.000000000764
300.00000000076
300.000000000752
300.000000000742
300.000000000733
300.000000000724
300.000000000717
300.00000000071
300.000000000704
300.000000000699
300.000000000694
300.00000000069
300.000000000687
300.000000000684
300.000000000681
300.000000000679
300.000000000677
300.000000000676
300.000000000675
300.000000000674
300.000000000674
300.000000000674
300.000000000675
300.000000000675
300.000000000676
300.000000000678
300.00000000068
300.000000000682
300.000000000685
300.000000000689
300.000000000693
300.000000000697
300.000000000703
300.000000000709
300.000000000716
300.000000000723
300.000000000732
300.000000000741
300.00000000075
300.000000000754
300.000000000746
300.000000000708
300.000000000632
300.000000000559
300.000000000601
300.000000000477
300.000000000488
300.000000000583
300.000000000671
300.000000000716
300.000000000729
300.000000000725
300.000000000716
300.000000000706
300.000000000697
300.000000000688
300.000000000681
300.000000000674
300.000000000668
300.000000000663
300.000000000659
300.000000000655
300.000000000651
300.000000000648
300.000000000646
300.000000000644
300.000000000642
300.000000000641
300.00000000064
300.000000000639
300.000000000639
300.000000000639
300.00000000064
300.00000000064
300.000000000642
300.000000000643
300.000000000645
300.000000000647
300.00000000065
300.000000000653
300.000000000657
300.000000000662
300.000000000667
300.000000000673
300.00000000068
300.000000000688
300.000000000697
300.000000000706
300.000000000715
300.00000000072
300.000000000711
300.000000000671
300.000000000586
300.000000000492
300.000000000483
300.00000000045
300.000000000473
300.000000000573
300.000000000663
300.000000000707
300.000000000718
300.000000000714
300.000000000705
300.000000000694
300.000000000685
300.000000000676
300.000000000669
300.000000000662
300.000000000656
300.000000000651
300.000000000647
300.000000000643
300.00000000064
300.000000000637
300.000000000635
300.000000000633
300.000000000631
300.00000000063
300.000000000629
300.000000000628
300.000000000628
300.000000000628
300.000000000629
300.000000000629
300.00000000063
300.000000000632
300.000000000634
300.000000000636
300.000000000639
300.000000000642
300.000000000646
300.00000000065
300.000000000655
300.000000000661
300.000000000668
300.000000000676
300.000000000685
300.000000000695
300.000000000705
300.00000000071
300.000000000702
300.000000000662
300.000000000577
300.000000000477
300.000000000452
300.000000000448
300.000000000475
300.000000000575
300.000000000663
300.000000000706
300.000000000715
300.00000000071
300.0000000007
300.000000000689
300.00000000068
300.000000000671
300.000000000663
300.000000000657
300.000000000651
300.000000000646
300.000000000642
300.000000000638
300.000000000635
300.000000000633
300.00000000063
300.000000000628
300.000000000627
300.000000000626
300.000000000625
300.000000000624
300.000000000624
300.000000000624
300.000000000625
300.000000000625
300.000000000626
300.000000000628
300.000000000629
300.000000000632
300.000000000634
300.000000000637
300.000000000641