/*--------------------------------*- C++ -*----------------------------------*\
  =========                 |
  \\      /  F ield         | OpenFOAM: The Open Source CFD Toolbox
   \\    /   O peration     | Website:  https://openfoam.org
    \\  /    A nd           | Version:  10
     \\/     M anipulation  |
\*---------------------------------------------------------------------------*/
FoamFile
{
    format      ascii;
    class       volVectorField;
    location    "9.2";
    object      U;
}
// * * * * * * * * * * * * * * * * * * * * * * * * * * * * * * * * * * * * * //

dimensions      [0 1 -1 0 0 0 0];

internalField   nonuniform List<vector> 
2500
(
(-1.12410477808569e-06 -1.15378853484865e-06 1.36341734475289e-25)
(-3.1121011627043e-06 -1.62598568140703e-06 2.01493731797547e-24)
(-3.64214489309279e-06 -1.82524947103259e-06 1.58851752000746e-25)
(-3.22943885651213e-06 -1.9315865205906e-06 -1.36348743929763e-25)
(-2.46524998106956e-06 -1.95524717108091e-06 -7.10773683412919e-25)
(-1.76801623975559e-06 -1.94654367167631e-06 -7.3672449126171e-25)
(-1.22555643106501e-06 -1.92857039982224e-06 -3.14823268643757e-25)
(-8.422495110474e-07 -1.91210095738564e-06 -2.98485553874397e-25)
(-5.77408183258731e-07 -1.89889508696592e-06 -4.42754768471382e-25)
(-3.97933998859984e-07 -1.88917896547317e-06 1.73387107024468e-24)
(-2.76080889895573e-07 -1.88226868807022e-06 1.28407898318132e-24)
(-1.931269725114e-07 -1.8775505098362e-06 3.28530973921268e-24)
(-1.35966253265035e-07 -1.87442056881122e-06 2.83676442171832e-24)
(-9.59465990917914e-08 -1.87240511677523e-06 1.03577815244694e-24)
(-6.73324728857405e-08 -1.87113057030798e-06 2.58601212854117e-24)
(-4.63863387740743e-08 -1.87033841994447e-06 6.50957947567398e-25)
(-3.06808147493384e-08 -1.86984389529801e-06 2.29515948737162e-24)
(-1.86249996313382e-08 -1.86953539865016e-06 1.95480128745599e-24)
(-9.16221508093091e-09 -1.86934342664179e-06 4.27506940999206e-25)
(-1.57321907138265e-09 -1.86921620556607e-06 1.90924794333201e-24)
(4.64010143440707e-09 -1.86913712049802e-06 -4.66197489650981e-26)
(9.83641407533076e-09 -1.8690901888368e-06 -2.14049788115053e-25)
(1.42946052973218e-08 -1.86905546877448e-06 2.43709995901699e-24)
(1.82393271968404e-08 -1.86903919435033e-06 2.19823426572822e-25)
(2.18496733743039e-08 -1.86904065097263e-06 -1.4467411002559e-25)
(2.52925529098193e-08 -1.86904749865788e-06 2.68651354788601e-24)
(2.87352407141882e-08 -1.86906287375436e-06 1.14893387522608e-25)
(3.23408341997627e-08 -1.86909603385969e-06 8.05365060468014e-25)
(3.62939970714177e-08 -1.86914079690249e-06 2.22988126284534e-24)
(4.08162973621516e-08 -1.86921068975367e-06 -9.5594641711447e-26)
(4.61798889412383e-08 -1.86930885156934e-06 1.56559615690549e-25)
(5.27469320758499e-08 -1.86945556409815e-06 -1.57743338931163e-25)
(6.10123597460187e-08 -1.86967097026973e-06 6.49137660398196e-25)
(7.16926817534212e-08 -1.87000303431945e-06 6.55008464500296e-25)
(8.58489523601517e-08 -1.87052213473002e-06 -3.54773813481893e-26)
(1.05077265746537e-07 -1.87134326753004e-06 1.83114947566998e-24)
(1.3181069663551e-07 -1.87264427115825e-06 -2.27316641726498e-24)
(1.69794688007727e-07 -1.87467759406791e-06 -2.17084423280129e-25)
(2.24751718602153e-07 -1.87781095975543e-06 2.37964459080452e-26)
(3.05316512720376e-07 -1.88252089808771e-06 -1.24081049214313e-24)
(4.24586577055889e-07 -1.8893990037687e-06 -3.31162859890006e-24)
(6.0131276631706e-07 -1.8990666663175e-06 -3.09338870621075e-24)
(8.63405733682755e-07 -1.91226714174369e-06 -1.95927769416642e-24)
(1.24467556482625e-06 -1.9288796997566e-06 -3.72868818771668e-24)
(1.78737048745451e-06 -1.94731856312185e-06 -3.94373821145959e-24)
(2.49016520903397e-06 -1.95685591025902e-06 -2.08375352605765e-24)
(3.26628246003059e-06 -1.93364088582262e-06 -4.06827724945919e-24)
(3.69082446081199e-06 -1.82551797588563e-06 -3.54223559970755e-24)
(3.14567329824876e-06 -1.62179087317788e-06 -1.58891210741593e-24)
(1.12781690135299e-06 -1.15274128715379e-06 -1.91090113535472e-24)
(-1.66617369144223e-06 -1.08505804135172e-06 -1.08131308719366e-25)
(-5.62905415705354e-06 -2.2385865756269e-06 -2.12435068688498e-25)
(-6.81235663883733e-06 -3.43605952809682e-06 -1.15347095566129e-25)
(-6.19615441195975e-06 -4.09824366781178e-06 -4.85166260707819e-25)
(-4.83254181967891e-06 -4.24293490797782e-06 -2.27856684769746e-24)
(-3.53282709814102e-06 -4.14900510363258e-06 -2.17772234956082e-24)
(-2.49479951586457e-06 -3.99876236392799e-06 -8.86717086166169e-25)
(-1.74663563748289e-06 -3.86484625768927e-06 -8.8791067599508e-25)
(-1.2218290742921e-06 -3.76338911844593e-06 -1.91511395955027e-24)
(-8.60627691569697e-07 -3.69153452470792e-06 5.06837720089059e-26)
(-6.11280412222144e-07 -3.64228001891664e-06 2.44870793503997e-24)
(-4.38085089520287e-07 -3.60916273933395e-06 2.43937765429615e-24)
(-3.15945092725683e-07 -3.58716925009424e-06 1.23600454126839e-24)
(-2.28177440322755e-07 -3.57264814730911e-06 1.74012832277781e-24)
(-1.63687106565942e-07 -3.563053328268e-06 5.62959216542877e-25)
(-1.15175917922827e-07 -3.55665812178792e-06 6.67426980101442e-25)
(-7.78388011998681e-08 -3.55232788220326e-06 1.44893593651736e-24)
(-4.8478479208206e-08 -3.54934361376773e-06 4.77669646585695e-25)
(-2.4921590076263e-08 -3.54724775927851e-06 4.25586758310733e-26)
(-5.65911558738642e-09 -3.54574023514665e-06 -4.39565488999178e-25)
(1.03859487842749e-08 -3.54465265232083e-06 -7.35414193819602e-25)
(2.40268860621993e-08 -3.54387159949495e-06 -1.31834311284984e-24)
(3.58872370507787e-08 -3.54331704308092e-06 8.34801654960121e-25)
(4.6480250469393e-08 -3.54294861088501e-06 -7.54222554867971e-26)
(5.62518641876526e-08 -3.54275755384502e-06 -1.18644054319766e-24)
(6.56019884429972e-08 -3.54271021260597e-06 5.59086288045123e-25)
(7.49171585445339e-08 -3.54281749405229e-06 -3.88380816142423e-25)
(8.45998695726178e-08 -3.54308980254965e-06 1.78997655949075e-24)
(9.50884633231736e-08 -3.54354998689982e-06 1.23975638184843e-24)
(1.06893684524408e-07 -3.54424665009226e-06 -9.05182564802764e-25)
(1.20637192409052e-07 -3.54524997168505e-06 4.64365477164635e-25)
(1.37125010016586e-07 -3.54666841688738e-06 -5.01532324144902e-25)
(1.57428971672922e-07 -3.54868818432091e-06 1.84969347622424e-24)
(1.83047466517793e-07 -3.55158966510541e-06 1.82669905412476e-24)
(2.16161241128287e-07 -3.55585103324325e-06 -7.03987932759185e-25)
(2.59977899454744e-07 -3.56218897378087e-06 4.22545894387767e-25)
(3.19311105541169e-07 -3.57172943996231e-06 -1.00089160832876e-24)
(4.01473279552875e-07 -3.58618296153074e-06 -3.27119879356693e-26)
(5.17547531819353e-07 -3.60808394687227e-06 4.45085167692056e-25)
(6.84215343914187e-07 -3.64108019132665e-06 -2.51817579637098e-24)
(9.26584611536376e-07 -3.69019443039508e-06 -3.83427851847051e-24)
(1.2804673574576e-06 -3.76196769701817e-06 -3.85011171282887e-24)
(1.79801348493729e-06 -3.86373215371951e-06 -4.15206292138616e-24)
(2.54040210588856e-06 -3.99906010048862e-06 -4.01026139722125e-24)
(3.57724265772895e-06 -4.15289397875639e-06 -4.29686401208534e-24)
(4.88618905776062e-06 -4.25257145211645e-06 -4.26389449784154e-24)
(6.27191776429886e-06 -4.11077383277742e-06 -4.04252156199534e-24)
(6.91176843100062e-06 -3.43629168915168e-06 -3.87721438181448e-24)
(5.7045884622384e-06 -2.2135657840208e-06 -3.21284627352836e-24)
(1.67857395614089e-06 -1.06607991097012e-06 -1.69245809358252e-24)
(-1.25287764387873e-06 1.29195699655077e-06 -4.49252386729757e-25)
(-5.55015156391569e-06 -1.51637824944892e-07 -2.39375817822786e-24)
(-6.92614529921485e-06 -2.48654098616247e-06 -4.75946578119254e-25)
(-6.49217262854829e-06 -3.79868560908555e-06 -6.38819532293983e-25)
(-5.19836856600885e-06 -4.09830586022706e-06 -3.01769525619191e-24)
(-3.90299211768622e-06 -3.90708682308549e-06 -3.37644443001349e-24)
(-2.83172865850524e-06 -3.59741036003223e-06 -1.16034044023191e-24)
(-2.03885011289984e-06 -3.31936071193132e-06 -1.21916886898327e-24)
(-1.46856580821294e-06 -3.1091352774156e-06 -3.57866208661559e-24)
(-1.06600573343512e-06 -2.96079728579201e-06 -2.50474921629971e-24)
(-7.80487326070602e-07 -2.85949071567723e-06 3.11643506679614e-24)
(-5.76299502555639e-07 -2.7913599468846e-06 1.15175139289052e-24)
(-4.27840736898955e-07 -2.74582592005803e-06 -1.20610534879479e-24)
(-3.17826046052068e-07 -2.71536528095766e-06 2.12396907990093e-24)
(-2.34565697290757e-07 -2.69483480748267e-06 -1.7530718875454e-24)
(-1.70204809099129e-07 -2.68080408598541e-06 1.23655099319497e-25)
(-1.19447619101066e-07 -2.67103657551788e-06 5.56049312144871e-26)
(-7.86627882623668e-08 -2.66409919140776e-06 -2.23832235659732e-24)
(-4.53126571394551e-08 -2.65907643748731e-06 -7.10007821034956e-25)
(-1.75789575211403e-08 -2.65539167098043e-06 -2.8894336087317e-24)
(5.8765872973247e-09 -2.65266942043279e-06 -1.37960275662666e-24)
(2.60888196113313e-08 -2.65065972321902e-06 -2.87956748428795e-24)
(4.38816501933695e-08 -2.64923017872289e-06 -6.62394603852889e-25)
(5.99353561492113e-08 -2.6482608788124e-06 -5.07117157213531e-25)
(7.48525859268795e-08 -2.64770938957982e-06 -2.75144901426159e-24)
(8.91847501707045e-08 -2.64754912727082e-06 -1.00908791522849e-24)
(1.03464548250582e-07 -2.64778452644012e-06 -1.35882603400822e-24)
(1.18242638440431e-07 -2.64842457097042e-06 2.52165906734637e-24)
(1.34109477473439e-07 -2.6495422263052e-06 8.75137485598025e-26)
(1.51748243938711e-07 -2.65122694728815e-06 -2.23997895345161e-24)
(1.7197401697763e-07 -2.65363966848541e-06 1.25590444989966e-24)
(1.95808981206251e-07 -2.65700208984383e-06 -1.16883066623036e-24)
(2.24586516477656e-07 -2.66170643179992e-06 3.18687192922843e-24)
(2.60109979367928e-07 -2.66832633538609e-06 2.86792153529577e-24)
(3.04917700258673e-07 -2.67779763662036e-06 -1.7819440559673e-24)
(3.62650585592732e-07 -2.69154975723498e-06 -6.9749986786337e-25)
(4.38610353974205e-07 -2.71181747608989e-06 1.52849426300032e-25)
(5.40665013090446e-07 -2.74201384841096e-06 3.24768889007017e-25)
(6.80508775958355e-07 -2.78727741313502e-06 1.32480431291567e-24)
(8.75452996819924e-07 -2.85514020751635e-06 -3.94820688837667e-24)
(1.15114166060555e-06 -2.95620172213956e-06 -2.89246491408453e-24)
(1.54348554133312e-06 -3.1045281334126e-06 -3.0080944806918e-24)
(2.1036470625914e-06 -3.31561070934551e-06 -5.32360807195475e-24)
(2.88806103753942e-06 -3.59678729393948e-06 -3.12753142395735e-24)
(3.95584110256827e-06 -3.91400996856829e-06 -3.48131577289934e-24)
(5.25907386376032e-06 -4.11718570830564e-06 -5.68618637843667e-24)
(6.5758285724448e-06 -3.82414797795277e-06 -3.26190436971306e-24)
(7.03815497982372e-06 -2.48881257405658e-06 -2.9455872672858e-24)
(5.64669494985923e-06 -1.03184125931207e-07 -4.72263840587623e-24)
(1.27593622617164e-06 1.34170972260477e-06 -1.19882447428493e-24)
(-6.51264511084686e-07 3.63330197682956e-06 -4.98772083008036e-25)
(-4.0484331130878e-06 2.31081880060905e-06 -2.80298257462266e-24)
(-5.31072340083825e-06 -9.99803755797298e-07 -4.46603735103032e-25)
(-5.23016586739543e-06 -2.92140676516717e-06 -3.39324516287098e-25)
(-4.37431363585702e-06 -3.41976286798471e-06 -1.52601974319084e-24)
(-3.43185948889332e-06 -3.19167849063669e-06 -2.21363350953183e-24)
(-2.59985244407992e-06 -2.77331463709657e-06 -8.79507379315277e-25)
(-1.95362577942675e-06 -2.38574859089466e-06 -9.6194631383598e-25)
(-1.46704018828656e-06 -2.08839788545094e-06 -2.60028495462231e-24)
(-1.10829449001837e-06 -1.87625686910212e-06 -2.69580433735807e-24)
(-8.42637033839445e-07 -1.72991725831558e-06 1.8032689426358e-24)
(-6.44483753522778e-07 -1.63030587114518e-06 -8.05513958395667e-25)
(-4.94532483988371e-07 -1.56274838157107e-06 -1.91641006260161e-24)
(-3.79260155441254e-07 -1.51673627506396e-06 9.01867014227879e-25)
(-2.89143132760004e-07 -1.48507685163395e-06 -1.99107332718996e-24)
(-2.17508873994235e-07 -1.46296354990488e-06 -1.73231608347696e-25)
(-1.59654741997573e-07 -1.44722758914333e-06 -1.6088977912837e-24)
(-1.12217471310278e-07 -1.43582052458108e-06 -2.62735158846707e-24)
(-7.27522732424971e-08 -1.42740572049804e-06 -7.85936535306097e-25)
(-3.94298681757004e-08 -1.42113162668809e-06 -2.99801776940364e-24)
(-1.08451212742157e-08 -1.41643590939892e-06 -1.21792622335715e-24)
(1.41005172965797e-08 -1.41293980136018e-06 -1.90843242189818e-24)
(3.631100788155e-08 -1.41041667418013e-06 -1.67162743982705e-24)
(5.65599202532525e-08 -1.40870683490621e-06 -5.03316216435088e-25)
(7.55220199314931e-08 -1.40771589160706e-06 -1.70514387585917e-24)
(9.38298778003641e-08 -1.40741045902229e-06 -1.90696476518982e-24)
(1.12104804705107e-07 -1.40778356983881e-06 -8.9899854140933e-25)
(1.30971985949218e-07 -1.40888332494056e-06 1.44585886408548e-24)
(1.51101447553648e-07 -1.41079511916204e-06 -1.23574668577233e-24)
(1.7326024069081e-07 -1.41367174029585e-06 -1.54315714907902e-24)
(1.98344944799497e-07 -1.41775496002696e-06 3.61613494651204e-25)
(2.27449369476734e-07 -1.4234108805936e-06 -6.73185095215244e-25)
(2.61956414878516e-07 -1.43119793333106e-06 2.00073241746716e-24)
(3.03679262219176e-07 -1.44198398857287e-06 1.94571228366185e-24)
(3.55066612195832e-07 -1.45710691687714e-06 -1.21254122200916e-24)
(4.19480701030685e-07 -1.47864079056333e-06 -1.55009971022237e-24)
(5.01618927345436e-07 -1.5097364278591e-06 1.40467303824369e-24)
(6.08164930295457e-07 -1.55519622575507e-06 4.15590417709292e-25)
(7.48648393222562e-07 -1.62221027134122e-06 4.81570640616071e-25)
(9.36651011569468e-07 -1.72131594337738e-06 -3.15094040742752e-24)
(1.1915352825613e-06 -1.86726780110472e-06 -9.01810952719355e-25)
(1.5390930323293e-06 -2.07945533276386e-06 -7.31351271474183e-25)
(2.01452732099628e-06 -2.37820785091412e-06 -4.08194255993402e-24)
(2.65094086616369e-06 -2.77060961352677e-06 -1.0773193359724e-24)
(3.47720218707607e-06 -3.20042015173233e-06 -1.66717197528936e-24)
(4.42359347664106e-06 -3.44685020447882e-06 -4.56456401600616e-24)
(5.2977890010854e-06 -2.96021915817143e-06 -1.47286019756642e-24)
(5.40589626583534e-06 -1.00843546573975e-06 -1.0622954138375e-24)
(4.14326840499646e-06 2.37664901520068e-06 -3.88117691088828e-24)
(6.81505646555477e-07 3.71260944902124e-06 -3.5140498117005e-26)
(-1.05169415440193e-07 5.3949958752886e-06 -2.3308927141775e-25)
(-2.10400419395763e-06 4.42482208096763e-06 -1.53310944008629e-24)
(-3.10565001470763e-06 5.0451194314794e-07 -3.69827485437188e-26)
(-3.38657177166277e-06 -1.88014220806573e-06 1.07647264788904e-25)
(-3.07722304224007e-06 -2.59519688416846e-06 6.77086193462122e-26)
(-2.60465373835921e-06 -2.40918540877508e-06 -1.1771618117302e-24)
(-2.11196378307105e-06 -1.96067884164465e-06 -4.09617826628017e-25)
(-1.68707513068142e-06 -1.52274067654314e-06 -4.70608455768043e-25)
(-1.33762606308564e-06 -1.17760390195456e-06 -1.53214689042408e-24)
(-1.06011162127607e-06 -9.26192872435648e-07 -1.35558294316369e-24)
(-8.40648441262675e-07 -7.49454603422538e-07 1.46405177025999e-24)
(-6.67321563179544e-07 -6.26797103012605e-07 2.65152966080825e-25)
(-5.29565429723606e-07 -5.41885422697256e-07 -7.359529964066e-25)
(-4.19205457817857e-07 -4.82796957646411e-07 7.28179525964451e-25)
(-3.29950596037668e-07 -4.41236845905239e-07 -9.48398380463786e-25)
(-2.57009641379692e-07 -4.11577763933915e-07 1.465389155114e-25)
(-1.96757037563636e-07 -3.90051291325113e-07 -2.64407030156932e-25)
(-1.46420233207197e-07 -3.74172576246261e-07 -9.55363900691515e-25)
(-1.03870385503456e-07 -3.62294716224521e-07 -1.74530648775952e-25)
(-6.74415479337819e-08 -3.53319314409044e-07 -1.35995138967194e-24)
(-3.57977036872258e-08 -3.46534482647985e-07 -5.41276785980336e-25)
(-7.85887949870978e-09 -3.41464287522635e-07 -1.0218336083683e-24)
(1.72817716228706e-08 -3.37775086467799e-07 -6.84828461290967e-25)
(4.04169210419232e-08 -3.35266615593764e-07 -9.13210830522756e-26)
(6.22517052330252e-08 -3.3382060825937e-07 -8.46799795284667e-25)
(8.34486724197859e-08 -3.33366462515664e-07 -8.44441461232739e-25)
(1.04653178764584e-07 -3.33916223650744e-07 -4.54210491790162e-25)
(1.26525598301416e-07 -3.3552396709346e-07 9.71462123809981e-25)
(1.49766539150356e-07 -3.38308293792662e-07 -5.52123167487148e-25)
(1.75155820461243e-07 -3.42473838615157e-07 -9.71517616762183e-25)
(2.03592333722496e-07 -3.48345107636442e-07 1.85465786436577e-25)
(2.36149813072742e-07 -3.56394676890426e-07 -5.80709951219397e-25)
(2.74144642721649e-07 -3.67343360045689e-07 1.24414299882432e-24)
(3.19227663493797e-07 -3.822902616676e-07 1.22469249374812e-24)
(3.73515291477225e-07 -4.02888838213309e-07 -7.87951143565032e-25)
(4.39771723872861e-07 -4.31647056750214e-07 -8.17028216786446e-25)
(5.21617343251607e-07 -4.72320818879397e-07 5.9981501995886e-25)
(6.23836722082924e-07 -5.30541692744462e-07 2.15296634571462e-25)
(7.52727279910077e-07 -6.14604475109294e-07 7.34397048918949e-26)
(9.16507453142092e-07 -7.36479344444436e-07 -3.09354936023051e-24)
(1.12579456279292e-06 -9.12632713346421e-07 -1.08244976395931e-24)
(1.39268870873268e-06 -1.16407905653606e-06 -1.08723454897525e-24)
(1.73133925219166e-06 -1.51100961913137e-06 -3.60628154865884e-24)
(2.14610115644253e-06 -1.95508845771112e-06 -1.18262876862148e-24)
(2.63114673198315e-06 -2.41814510557841e-06 -1.4914475579597e-24)
(3.10280849708393e-06 -2.62798836408982e-06 -4.47903941155691e-24)
(3.42319400953423e-06 -1.93043821874799e-06 -1.352217640402e-24)
(3.16492444440632e-06 4.86138818031659e-07 -1.10673483281651e-24)
(2.17698710170162e-06 4.49871721386857e-06 -3.80698666158553e-24)
(1.35142129225715e-07 5.49687661074584e-06 -4.00162780399751e-25)
(2.77109865476084e-07 6.41246300900753e-06 4.53146895903173e-26)
(-3.62653721269626e-07 5.88511149874802e-06 -8.37505726391921e-25)
(-1.07268257540976e-06 1.75416383795545e-06 3.57100255755006e-25)
(-1.62086550609505e-06 -9.05319950875931e-07 3.28640766184216e-25)
(-1.78898484908483e-06 -1.81644022501592e-06 -4.62428754369678e-25)
(-1.74466237689992e-06 -1.72689119584541e-06 -8.26509984074086e-25)
(-1.57395304384634e-06 -1.31264517251112e-06 -1.91636882994153e-26)
(-1.36663457499174e-06 -8.76459686894399e-07 -2.51459456561742e-26)
(-1.15759460963809e-06 -5.19802104600986e-07 -9.94164110910423e-25)
(-9.67466626161871e-07 -2.52706378070081e-07 -6.20574043524463e-25)
(-8.01240252799626e-07 -6.03166574657313e-08 1.62942636192247e-24)
(-6.59605113731817e-07 7.6386058458072e-08 7.53110443879849e-25)
(-5.4028177300671e-07 1.73264346357262e-07 -2.53923503940592e-25)
(-4.40294765072205e-07 2.42256066898361e-07 1.06623363943087e-24)
(-3.56566775941045e-07 2.91869989525478e-07 -4.48902455304228e-25)
(-2.862638623632e-07 3.28023100622388e-07 5.42303261514652e-25)
(-2.26929463525648e-07 3.54745240124625e-07 4.84539351326246e-25)
(-1.76491801614541e-07 3.74774462097285e-07 -1.37595184029342e-25)
(-1.33227711677764e-07 3.89954611503342e-07 4.53713981682924e-25)
(-9.57128397213171e-08 4.01526602170515e-07 -5.05480196519964e-25)
(-6.27580499101179e-08 4.10347509074254e-07 1.15834438297815e-25)
(-3.33539905291411e-08 4.16978085182835e-07 -4.53701220970466e-25)
(-6.63726103021338e-09 4.21806229102354e-07 7.86172052078944e-26)
(1.81528888177858e-08 4.25092315107026e-07 3.24940312507339e-25)
(4.17168926433805e-08 4.26985011388956e-07 -4.09053865132628e-25)
(6.47067110565059e-08 4.27553841833254e-07 -7.25120877036924e-26)
(8.77647615818579e-08 4.26797487996789e-07 -2.78331387597298e-25)
(1.11548433536804e-07 4.2465499832401e-07 9.75357780416085e-25)
(1.36740552106157e-07 4.20963752267299e-07 -8.18620208889206e-26)
(1.64097492311576e-07 4.15484505649238e-07 -7.51142722753803e-25)
(1.94477723940875e-07 4.07826963518163e-07 4.21591441833471e-25)
(2.28873830978963e-07 3.97429026913681e-07 -8.23285696541995e-25)
(2.68453422617114e-07 3.834366813703e-07 1.00642375658958e-24)
(3.14630681153133e-07 3.64607282654016e-07 1.02425357406309e-24)
(3.69111299833887e-07 3.39074718834522e-07 -7.57820324146932e-25)
(4.3394911963439e-07 3.04109930412475e-07 -3.81261790469941e-25)
(5.11579048567505e-07 2.5566970818231e-07 1.95383671085595e-25)
(6.04823247492469e-07 1.87835539905738e-07 4.27785420246869e-26)
(7.16748175632123e-07 9.20964321737568e-08 3.18843564122037e-25)
(8.50356713169258e-07 -4.35575376182459e-08 -2.03195118475279e-24)
(1.00792964879268e-06 -2.35137042701233e-07 -8.5589530415798e-25)
(1.18886040600727e-06 -5.02139376446699e-07 -8.47072778704992e-25)
(1.38823315394783e-06 -8.60694399987542e-07 -2.22142088123688e-24)
(1.58575119294366e-06 -1.30365693786076e-06 -8.93790984830426e-25)
(1.74739015917061e-06 -1.73430745306957e-06 -1.01009936357563e-24)
(1.78619273213144e-06 -1.85159482501061e-06 -2.55251067922505e-24)
(1.62121207704165e-06 -9.63378982037371e-07 -9.51271476689578e-25)
(1.08842201241647e-06 1.72529162984595e-06 -8.23449088571303e-25)
(4.01181805093877e-07 5.95822377792127e-06 -2.61471847817023e-24)
(-2.54495083288355e-07 6.52702839462083e-06 -2.69099086848085e-25)
(4.80812705316443e-07 6.69992230926488e-06 2.99800990730996e-25)
(8.67970881355184e-07 6.59744612355702e-06 3.33182237538072e-26)
(4.16137616016174e-07 2.58255046323609e-06 6.72332152410641e-25)
(-2.66894428769063e-07 -1.77792433979988e-07 4.70360124451646e-25)
(-7.58418223260507e-07 -1.242063287332e-06 1.57215928251531e-25)
(-1.02251867732168e-06 -1.27392319696209e-06 5.26025770020081e-26)
(-1.09699610209422e-06 -9.34291972752742e-07 2.80670073412969e-25)
(-1.06307503537986e-06 -5.35889965279722e-07 3.15258115760006e-25)
(-9.71417423032944e-07 -1.94212781631639e-07 1.36298720947801e-25)
(-8.58091128457491e-07 7.05336893402989e-08 1.78207252838233e-25)
(-7.41423932436807e-07 2.66810626674253e-07 1.0697017021835e-24)
(-6.31402964111273e-07 4.10053367340548e-07 7.96549660971555e-25)
(-5.32150020917834e-07 5.14145183477039e-07 4.79674456309724e-25)
(-4.44843453045932e-07 5.90059495359031e-07 8.60640569515283e-25)
(-3.69087457879206e-07 6.45868502299921e-07 3.15720876927671e-25)
(-3.03750112663123e-07 6.87339571638667e-07 8.16801635713096e-25)
(-2.47452050435838e-07 7.18525761035965e-07 7.81856171925176e-25)
(-1.98789693896175e-07 7.42232193317442e-07 6.61388524643335e-25)
(-1.56477022443628e-07 7.60406027854078e-07 9.11449087912929e-25)
(-1.19350810047123e-07 7.74382838236275e-07 4.1850544853697e-25)
(-8.63888929200517e-08 7.85096232719878e-07 6.23811504293073e-25)
(-5.67076175377341e-08 7.93186862271679e-07 4.07148990412761e-25)
(-2.95091314144891e-08 7.99093129331142e-07 4.59300379940551e-25)
(-4.07741160834168e-09 8.03099893261763e-07 6.18206070795364e-25)
(2.02398571148501e-08 8.05387996510325e-07 4.06808524592883e-25)
(4.4069221275531e-08 8.0603255846087e-07 3.95210593529852e-25)
(6.80292353637343e-08 8.05050975372112e-07 2.72555236392519e-25)
(9.27395278149772e-08 8.02350807616892e-07 5.16609092756077e-25)
(1.18852061012466e-07 7.97762334961127e-07 4.79096856767578e-26)
(1.47074150335397e-07 7.90995555934681e-07 -1.34061347787834e-25)
(1.78183369119623e-07 7.8162601791301e-07 4.71807077238215e-26)
(2.1305661016948e-07 7.69001518880904e-07 -3.79312554242269e-25)
(2.52699238379047e-07 7.52204243462913e-07 1.25287108185454e-25)
(2.98252045586481e-07 7.29894378265341e-07 1.99410401231666e-25)
(3.50984708031357e-07 7.00111018116638e-07 -1.65768145107219e-25)
(4.12274589367399e-07 6.60039352287037e-07 -1.91106161148494e-25)
(4.83468115212903e-07 6.05633257215153e-07 1.37130524402442e-25)
(5.65679690793762e-07 5.31119390355905e-07 -1.03605896847781e-25)
(6.59273598356158e-07 4.28417311635648e-07 -3.66630312014097e-26)
(7.63060587016643e-07 2.86484051041128e-07 -7.20695440305289e-25)
(8.72872447212854e-07 9.12520328866893e-08 -3.978455976398e-25)
(9.78702980089833e-07 -1.73160336451689e-07 -4.16500912153342e-25)
(1.06207256069129e-06 -5.16519956794884e-07 -7.98381438255538e-25)
(1.08682660612351e-06 -9.21676894798501e-07 -4.40000793249164e-25)
(1.00240198029191e-06 -1.27832679234084e-06 -3.88884289644376e-25)
(7.29181909495341e-07 -1.2764480463074e-06 -9.12912211238514e-25)
(2.33972065275569e-07 -2.39580616538222e-07 -3.54999487030006e-25)
(-4.41159003168567e-07 2.54425270394498e-06 -2.2374658122212e-25)
(-8.66566194610944e-07 6.66271256001248e-06 -7.17576199863496e-25)
(-4.69310726118626e-07 6.81677364166943e-06 2.06804738081032e-25)
(5.46666591568372e-07 6.43338651157642e-06 4.41612051842569e-25)
(1.5432680853152e-06 6.68719201096918e-06 9.16861574118519e-25)
(1.29244617595899e-06 3.00222048947933e-06 8.15077662486911e-25)
(5.95704713324559e-07 2.74505322512567e-07 5.15578299644775e-25)
(-5.5175059240724e-08 -8.91218189033958e-07 4.38785611582016e-25)
(-4.93877237988079e-07 -1.04378308860598e-06 5.26678418219714e-25)
(-7.22699756180729e-07 -7.95303395197294e-07 4.3059310193261e-25)
(-8.06708165067481e-07 -4.53763004533213e-07 4.77488757060376e-25)
(-8.00847226054949e-07 -1.42912632785355e-07 6.85886253339465e-25)
(-7.47470243218357e-07 1.07696866463632e-07 7.17501561018719e-25)
(-6.72113069131801e-07 2.99597445967206e-07 6.67267194212313e-25)
(-5.90248989641198e-07 4.43704237150132e-07 8.05744341239916e-25)
(-5.10155318525295e-07 5.51192170043755e-07 8.63634348090967e-25)
(-4.35883862617926e-07 6.31465767916688e-07 6.68813613434445e-25)
(-3.69031091111276e-07 6.91750255753736e-07 7.9335406054723e-25)
(-3.0979787010743e-07 7.37390876370056e-07 8.81032476545941e-25)
(-2.57696607759696e-07 7.72262895674519e-07 9.974727703234e-25)
(-2.11928128669549e-07 7.99115098696543e-07 1.1437736050079e-24)
(-1.71594746953881e-07 8.19914922592558e-07 1.08350115473703e-24)
(-1.35807899039399e-07 8.36036446346724e-07 1.01009159716102e-24)
(-1.03727916719053e-07 8.48462930112761e-07 8.51338698970307e-25)
(-7.45847293024131e-08 8.57875604682117e-07 8.12068675904963e-25)
(-4.7680291097387e-08 8.64755094507248e-07 7.24250354740815e-25)
(-2.23677651033431e-08 8.69412355861185e-07 7.11414351957479e-25)
(1.96346148347745e-09 8.72037153221131e-07 7.89935171409826e-25)
(2.58971542978247e-08 8.72736088921156e-07 6.76766052894311e-25)
(5.00050398421185e-08 8.71505704089704e-07 5.14988025961587e-25)
(7.48649328505508e-08 8.68256107137096e-07 2.20569040074377e-25)
(1.01075200742279e-07 8.62798832356025e-07 2.34803292054577e-25)
(1.29278393255877e-07 8.54813313772807e-07 2.01428632803604e-25)
(1.60162758607921e-07 8.43836207605361e-07 -1.17203294731832e-25)
(1.94479869789693e-07 8.29183228374152e-07 -1.4265125990961e-25)
(2.33054328361022e-07 8.09888767926555e-07 -3.02900934201003e-25)
(2.7675418913903e-07 7.84556343428026e-07 -2.138101765496e-25)
(3.26449665629266e-07 7.51232744872829e-07 1.46927410145821e-25)
(3.82915111267907e-07 7.07144925310993e-07 9.41156030803666e-26)
(4.46600897506084e-07 6.4843481708345e-07 -3.75494810503812e-26)
(5.17273930766848e-07 5.69758184925916e-07 -1.82868967615354e-25)
(5.93292064715021e-07 4.63865191130785e-07 -1.78487664500168e-25)
(6.70555831828574e-07 3.21295697033206e-07 2.36307363784282e-26)
(7.4069740255716e-07 1.30713682703136e-07 -1.83592800910654e-25)
(7.88131926179973e-07 -1.19219614189577e-07 -1.65842790654378e-25)
(7.87007192289873e-07 -4.31299770583874e-07 4.81345598612098e-26)
(6.94598271541354e-07 -7.79047525640684e-07 -1.42488222649533e-25)
(4.55550970815089e-07 -1.04424794421385e-06 -1.42569401054898e-25)
(5.57410247710898e-09 -9.22570791496761e-07 5.47755363039591e-26)
(-6.53689548575588e-07 2.12239820073884e-07 -1.14961002748335e-25)
(-1.34846088345677e-06 2.95619992163531e-06 7.58633241491724e-27)
(-1.57318130506614e-06 6.7395100829198e-06 2.80633974919973e-25)
(-5.46158560818505e-07 6.54341775431678e-06 2.15345815039401e-25)
(5.27546641790216e-07 5.84348274141494e-06 4.65729440928331e-25)
(1.76940654983345e-06 6.37765896454324e-06 1.28257925397744e-24)
(1.66249079894323e-06 3.12367564516142e-06 7.97489630918562e-25)
(1.03612779633875e-06 5.13201553736991e-07 5.15836286475968e-25)
(3.56411557583399e-07 -7.05624344367405e-07 7.92134109197303e-25)
(-1.46383451989407e-07 -9.62253789690666e-07 8.4732644976335e-25)
(-4.51209996863661e-07 -8.04187408431043e-07 4.70544913502661e-25)
(-6.03377768812531e-07 -5.25429150012932e-07 5.07026724969567e-25)
(-6.535633520076e-07 -2.52657096135926e-07 9.93627502517922e-25)
(-6.43253671803874e-07 -2.27615241299066e-08 9.34051467584902e-25)
(-6.00087842397577e-07 1.59484994406679e-07 2.73258498650021e-25)
(-5.41780175676181e-07 3.00459531827193e-07 6.2799450972161e-25)
(-4.78776218379792e-07 4.08408676034898e-07 9.81104280279317e-25)
(-4.16850641083789e-07 4.90930106711452e-07 3.53264488877766e-25)
(-3.58917574535539e-07 5.54180538187031e-07 9.25749156384626e-25)
(-3.06147741857154e-07 6.02927360357512e-07 7.73471410599146e-25)
(-2.58760484700309e-07 6.40726418637373e-07 8.99986556030175e-25)
(-2.16445887659285e-07 6.70192684870112e-07 1.27279657877652e-24)
(-1.78666985697945e-07 6.93234331533662e-07 1.01920726702735e-24)
(-1.44778257420715e-07 7.11225885268355e-07 1.19709944898598e-24)
(-1.14113016201659e-07 7.25168433199604e-07 8.5339211739742e-25)
(-8.60406177246763e-08 7.35757554943646e-07 1.01385716726368e-24)
(-5.99481087377317e-08 7.43493428977025e-07 6.99274513362899e-25)
(-3.52629306008552e-08 7.48719457792894e-07 6.56198406637361e-25)
(-1.14322682171866e-08 7.51641521258948e-07 9.67263384952495e-25)
(1.20754068340964e-08 7.52360762171153e-07 7.11577500512376e-25)
(3.57817568982923e-08 7.50879307207915e-07 6.39285062062925e-25)
(6.02161457071689e-08 7.47100865401582e-07 -1.10947128625489e-25)
(8.59173711388302e-08 7.40823442551773e-07 2.23130614409561e-25)
(1.13456495299434e-07 7.31711608710145e-07 4.30668654037592e-25)
(1.43428331588295e-07 7.19281662017267e-07 -2.62575024548709e-25)
(1.76454376322388e-07 7.02819336424969e-07 7.49858063967387e-26)
(2.13177212576986e-07 6.81350007817088e-07 -6.01258746247264e-25)
(2.54222017574627e-07 6.53483125184527e-07 -5.18592514183471e-25)
(3.00103093596607e-07 6.17317894282512e-07 3.59760322215416e-25)
(3.51093558301595e-07 5.70240625301259e-07 1.8713535620651e-25)
(4.06941119233166e-07 5.08686697471584e-07 -6.31709717972215e-26)
(4.66428407071847e-07 4.27909107369168e-07 -2.03416758222952e-25)
(5.26582191880234e-07 3.21724849576854e-07 -3.15156255481001e-25)
(5.815648351e-07 1.82503726152996e-07 4.13386672045526e-25)
(6.20801696509125e-07 1.86647638622574e-09 3.28414236473347e-27)
(6.26405613171456e-07 -2.26943770003275e-07 2.43919380405497e-26)