/*--------------------------------*- C++ -*----------------------------------*\
  =========                 |
  \\      /  F ield         | OpenFOAM: The Open Source CFD Toolbox
   \\    /   O peration     | Website:  https://openfoam.org
    \\  /    A nd           | Version:  10
     \\/     M anipulation  |
\*---------------------------------------------------------------------------*/
FoamFile
{
    format      ascii;
    class       volScalarField;
    location    "9.2";
    object      wallHeatFlux;
}
// * * * * * * * * * * * * * * * * * * * * * * * * * * * * * * * * * * * * * //

dimensions      [1 0 -3 0 0 0 0];

internalField   uniform 0;

boundaryField
{
    back
    {
        type            calculated;
        value           uniform 0;
    }
    bottom
    {
        type            calculated;
        value           nonuniform List<scalar> 
50
(
64.9619477961398
65.3027649477215
67.3316674848289
69.0727098129774
70.2898960334892
71.0794766856712
71.5739360253717
71.875842523848
72.0554876703351
72.1594354890188
72.2174358422001
72.2487880501843
72.2651517365397
72.2733357445955
72.2773040454422
72.2791194381744
72.2799744430715
72.2803240225238
72.2804474478084
72.2805043879886
72.2805215070432
72.2805252203259
72.2805238872866
72.2805290395728
72.28052702245
72.2805262897863
72.2805304791509
72.2805341736223
72.2805385958324
72.2805376175794
72.2805178777672
72.2804682595942
72.2803039696948
72.2799091990399
72.2790074309403
72.2770294918807
72.2728532688402
72.2642876753472
72.247538469869
72.2156184313187
72.1569888451829
72.0528194365292
71.8734320777436
71.5727552258281
71.0808773477448
70.2931483289856
69.0738494594957
67.3234049249352
65.2879712981557
64.9801376743129
)
;
    }
    left
    {
        type            calculated;
        value           uniform 0;
    }
    front
    {
        type            calculated;
        value           uniform 0;
    }
    right
    {
        type            calculated;
        value           uniform 0;
    }
    top
    {
        type            calculated;
        value           uniform 0;
    }
}


// ************************************************************************* //
