/*--------------------------------*- C++ -*----------------------------------*\
  =========                 |
  \\      /  F ield         | OpenFOAM: The Open Source CFD Toolbox
   \\    /   O peration     | Website:  https://openfoam.org
    \\  /    A nd           | Version:  10
     \\/     M anipulation  |
\*---------------------------------------------------------------------------*/
FoamFile
{
    format      ascii;
    class       volScalarField;
    location    "7.4";
    object      alphat;
}
// * * * * * * * * * * * * * * * * * * * * * * * * * * * * * * * * * * * * * //

dimensions      [1 -1 -1 0 0 0 0];

internalField   nonuniform List<scalar> 
2500
(
7.04630756330903e-15
1.38515212394497e-13
5.92461261617228e-13
1.02897950812659e-12
1.40733036823231e-12
1.71378271280309e-12
1.94644268919768e-12
2.11225796431397e-12
2.22337650539341e-12
2.29352374597559e-12
2.33532284598587e-12
2.35888236991778e-12
2.37146984853379e-12
2.37785849670481e-12
2.38094504607043e-12
2.38236728431844e-12
2.38299335811321e-12
2.38325694689335e-12
2.38336308672904e-12
2.38340385208902e-12
2.3834186502607e-12
2.38342359362979e-12
2.38342499249804e-12
2.38342521019291e-12
2.38342508102615e-12
2.38342485842939e-12
2.38342450648364e-12
2.38342364080594e-12
2.38342114666773e-12
2.38341404643895e-12
2.38339470785911e-12
2.38334430797262e-12
2.38321827199692e-12
2.38291543391631e-12
2.38221638177396e-12
2.38066773238621e-12
2.37738003919074e-12
2.37070359595428e-12
2.35776015578473e-12
2.33385518273785e-12
2.29188778690262e-12
2.22200735473935e-12
2.11188924079422e-12
1.94802198637115e-12
1.71820087310736e-12
1.41495947549641e-12
1.03907989938962e-12
6.02460321390013e-13
1.42610408837369e-13
7.37874028752205e-15
6.99453779443551e-13
3.60684490440817e-11
1.57492214781933e-10
2.73734996705563e-10
3.74639204461375e-10
4.56569843249855e-10
5.18965536646532e-10
5.63598828966951e-10
5.93635120708368e-10
6.12684886136069e-10
6.24093382444861e-10
6.30558025990467e-10
6.3403131034385e-10
6.35804342023453e-10
6.36666028234063e-10
6.37065475685713e-10
6.37242388960409e-10
6.37317336612017e-10
6.37347709986096e-10
6.37359457230395e-10
6.37363757550303e-10
6.37365212323658e-10
6.37365635288315e-10
6.37365710788965e-10
6.37365681402542e-10
6.37365620126008e-10
6.37365518277176e-10
6.37365263988569e-10
6.37364535262144e-10
6.37362476155289e-10
6.37356905038248e-10
6.3734247301858e-10
6.37306586900439e-10
6.37220838576555e-10
6.37023990450239e-10
6.36590281865404e-10
6.35674538656067e-10
6.33824903497078e-10
6.30258020770583e-10
6.23704347799104e-10
6.12255895778522e-10
5.93282947880188e-10
5.63517204463418e-10
5.19401511614991e-10
4.57752154751017e-10
3.76658142273843e-10
2.76389809143335e-10
1.60106982475953e-10
3.71129023528079e-11
7.31196470932031e-13
2.48638575971003e-12
6.49481934982388e-10
2.22916371255049e-07
3.86735970920807e-07
5.28062145889874e-07
6.4244705060397e-07
7.29421877873148e-07
7.91629836932695e-07
8.33540836601687e-07
8.60179464519412e-07
8.76180098821851e-07
8.852792157339e-07
8.90187515571776e-07
8.92703930003648e-07
8.93932480147631e-07
8.94504699046139e-07
8.9475937881072e-07
8.94867821510377e-07
8.94912005425912e-07
8.94929196069521e-07
8.94935535465076e-07
8.94937704056057e-07
8.94938349360345e-07
8.94938476616804e-07
8.94938443927782e-07
8.94938358751598e-07
8.94938210117808e-07
8.94937835097026e-07
8.94936765449873e-07
8.94933760329855e-07
8.94925668509401e-07
8.94904792867215e-07
8.94853080477603e-07
8.94729966974132e-07
8.94448358579514e-07
8.93830119921425e-07
8.92529389985964e-07
8.899113364011e-07
8.8487974805242e-07
8.7566456436701e-07
8.59613739271172e-07
8.33079134742398e-07
7.9152603707053e-07
7.29998412147757e-07
6.4400201266888e-07
5.30712867079842e-07
3.90217412391663e-07
2.2633594378897e-07
6.66601293679574e-10
2.58207202949272e-12
4.40873550513029e-12
1.15974698959203e-09
3.99372940423874e-07
6.90357607945207e-07
9.39831878812655e-07
1.14080063314017e-06
1.29309260429753e-06
1.40177508364759e-06
1.4749060817883e-06
1.5213672501472e-06
1.54927887502206e-06
1.5651612283004e-06
1.57373677308639e-06
1.57813866842954e-06
1.58029078816971e-06
1.58129477440269e-06
1.58174240920236e-06
1.5819333810934e-06
1.58201135894644e-06
1.58204177490564e-06
1.58205302847353e-06
1.58205689793505e-06
1.58205806132239e-06
1.58205830005568e-06
1.582058250738e-06
1.58205810710245e-06
1.58205785042702e-06
1.58205720081769e-06
1.5820553478543e-06
1.58205014051139e-06
1.58203610951804e-06
1.5819998823328e-06
1.58191006706454e-06
1.58169607357173e-06
1.58120624317724e-06
1.58013022051358e-06
1.5778651775738e-06
1.57330422489013e-06
1.56453532118083e-06
1.54846943917308e-06
1.52047379904767e-06
1.47416308936572e-06
1.40156921829465e-06
1.29391533152245e-06
1.14310618605481e-06
9.43795949190569e-07
6.95562999655784e-07
4.04438455352254e-07
1.18456426999474e-09
4.54496833349979e-12
6.30455400597142e-12
1.65935756134904e-09
5.70053678837006e-07
9.82063595116968e-07
1.33343822380633e-06
1.61536200535588e-06
1.82838932735934e-06
1.98013143252756e-06
2.08213065503855e-06
2.14690774731157e-06
2.18582782329288e-06
2.20798571504727e-06
2.21995941285061e-06
2.22611202983394e-06
2.22912381274496e-06
2.23053082063462e-06
2.23115913559181e-06
2.23142766333337e-06
2.23153753002762e-06
2.23158048902229e-06
2.23159643568863e-06
2.23160194801525e-06
2.23160362347908e-06
2.23160398045925e-06
2.23160392352503e-06
2.23160373189135e-06
2.23160337795208e-06
2.23160247869348e-06
2.23159991454474e-06
2.23159270841577e-06
2.2315732813416e-06
2.23152308078138e-06
2.23139850961559e-06
2.23110144269916e-06
2.23042089245702e-06
2.22892479151411e-06
2.22577340498869e-06
2.21942405376495e-06
2.2072105948259e-06
2.1848231187819e-06
2.14579180351735e-06
2.08118436713267e-06
1.97981861156477e-06
1.82929921101456e-06
1.61803782812992e-06
1.33808570604481e-06
9.88172336055438e-07
5.75970826759047e-07
1.68838223805076e-09
6.46555157989301e-12
8.11887910662099e-12
2.13711892522018e-09
7.3198037466424e-07
1.25711276453512e-06
1.70289236750319e-06
2.05932381236001e-06
2.32799572434345e-06
2.51907676990738e-06
2.64741194818848e-06
2.72889271706372e-06
2.77785742161304e-06
2.80574814913737e-06
2.82083139977388e-06
2.82858945488189e-06
2.83239152871162e-06
2.83417008910091e-06
2.83496551019956e-06
2.83530602851121e-06
2.83544562229503e-06
2.83550033701483e-06
2.83552071600712e-06
2.83552780025925e-06
2.83552997930204e-06
2.83553046137124e-06
2.83553040673564e-06
2.83553017731611e-06
2.83552973629704e-06
2.83552861039003e-06
2.83552540328144e-06
2.83551639550384e-06
2.83549210696349e-06
2.83542930750239e-06
2.83527335521408e-06
2.83490115994333e-06
2.83404785438494e-06
2.83217068040531e-06
2.82821418928694e-06
2.82023849435792e-06
2.80488948789369e-06
2.77674235540521e-06
2.72764734712437e-06
2.64633737153685e-06
2.51867023254942e-06
2.32888785261797e-06
2.06209380142103e-06
1.70775554955329e-06
1.26351969162883e-06
7.38187463565219e-07
2.16800102708555e-09
8.29390720662756e-12
9.81830132776514e-12
2.58476526665747e-09
8.82791682853345e-07
1.51188195300704e-06
2.04374802520715e-06
2.46774467232708e-06
2.78668921008018e-06
3.01323336277219e-06
3.16528637984214e-06
3.26180975921709e-06
3.31982661651054e-06
3.35289039096651e-06
3.37078448151907e-06
3.37999686546926e-06
3.38451663133506e-06
3.38663356782813e-06
3.3875816605135e-06
3.38798819138564e-06
3.38815516238917e-06
3.38822076428942e-06
3.38824528191112e-06
3.38825385497699e-06
3.38825652612717e-06
3.38825714053668e-06
3.38825709745692e-06
3.38825683906864e-06
3.3882563204875e-06
3.38825498948666e-06
3.3882512046025e-06
3.38824058649374e-06
3.38821196108298e-06
3.38813792235516e-06
3.38795394986619e-06
3.38751458569332e-06
3.3865066166507e-06
3.38428783753861e-06
3.37960879509754e-06
3.37017206731997e-06
3.35200385024612e-06
3.31867432746421e-06
3.26051788928637e-06
3.16415687023748e-06
3.01276393908367e-06
2.7875089091741e-06
2.47042798638436e-06
2.04850443818504e-06
1.51816497961191e-06
8.88900512811022e-07
2.61588194762272e-09
9.9996574873865e-12
1.13802016723978e-11
2.99651359568466e-09
1.02084498114539e-06
1.74398417555029e-06
2.35321417772222e-06
2.83764930275953e-06
3.20142985364246e-06
3.45954975015942e-06
3.6327079594172e-06
3.74261986146393e-06
3.80870047647703e-06
3.84637882401011e-06
3.86678482162773e-06
3.87729967979362e-06
3.88246380299395e-06
3.88488539743708e-06
3.8859713866974e-06
3.88643776017443e-06
3.88662965888191e-06
3.88670523094777e-06
3.88673357121719e-06
3.88674354010217e-06
3.8867466877098e-06
3.88674744074474e-06
3.88674741885069e-06
3.88674713831449e-06
3.88674655089882e-06
3.88674503493193e-06
3.88674073400108e-06
3.88672868848095e-06
3.88669623151138e-06
3.88661226992422e-06
3.88640354671757e-06
3.88590479024776e-06
3.88475990248464e-06
3.882238363787e-06
3.87691827341705e-06
3.86618417060371e-06
3.84551069448575e-06
3.80757305201666e-06
3.74135475949613e-06
3.6315948459647e-06
3.45906365722043e-06
3.20216742172876e-06
2.84015063722e-06
2.35767063433826e-06
1.74987954652176e-06
1.02660821698938e-06
3.02678638464481e-09
1.15624081267777e-11
1.27907835019412e-11
3.36880127774155e-09
1.14519000595221e-06
1.95218026382018e-06
2.62999890640208e-06
3.16781414446584e-06
3.57110210845346e-06
3.85701223249443e-06
4.04874032909599e-06
4.17043763939287e-06
4.24362364234591e-06
4.28537409774549e-06
4.30800082113289e-06
4.31966968942021e-06
4.32540614997568e-06
4.32809911357663e-06
4.32930832294091e-06
4.32982836611071e-06
4.33004272039328e-06
4.33012732653459e-06
4.33015916092178e-06
4.3301704250483e-06
4.33017402859265e-06
4.33017492446936e-06
4.33017493212994e-06
4.33017463614601e-06
4.33017398790725e-06
4.33017230575533e-06
4.33016754672382e-06
4.33015424615705e-06
4.33011843548062e-06
4.33002580056106e-06
4.32979544040568e-06
4.32924472200107e-06
4.32797992251582e-06
4.32519295817019e-06
4.31931034516698e-06
4.30743688691542e-06
4.28456186731652e-06
4.24257263499048e-06
4.16926294531528e-06
4.04771163941395e-06
3.85656724388322e-06
3.5717848633768e-06
3.17011010380277e-06
2.6340711941279e-06
1.95755626213978e-06
1.15047521835491e-06
3.39758665577969e-09
1.29701786349376e-11
1.40437529293886e-11
3.69997635007775e-09
1.25547426825563e-06
2.13619187330181e-06
2.8740378134068e-06
3.45842841364789e-06
3.89612670735639e-06
4.2062231584231e-06
4.41411328219596e-06
4.54607443686322e-06
4.62545554932901e-06
4.67076194560299e-06
4.69533159403012e-06
4.70801234961542e-06
4.71425192247599e-06
4.71718410588258e-06
4.71850228292695e-06
4.71906996223253e-06
4.71930433655689e-06
4.71939704455939e-06
4.7194320401333e-06
4.71944449374867e-06
4.71944852810824e-06
4.71944956815329e-06
4.71944961250681e-06
4.71944930715904e-06
4.71944860547787e-06
4.7194467747564e-06
4.71944161175083e-06
4.71942721676927e-06
4.71938849788373e-06
4.71928835674732e-06
4.71903927478247e-06
4.71844356847534e-06
4.71707485953879e-06
4.71405767844788e-06
4.70768674980738e-06
4.69482353097171e-06
4.67003493174938e-06
4.62452249777676e-06
4.54504403747998e-06
4.41323199012784e-06
4.20588374909313e-06
3.89680922126173e-06
3.46055120040777e-06
2.87772735483777e-06
2.14102086726476e-06
1.26023966113305e-06
3.72697940919422e-09
1.42181824684482e-11
1.51390309944243e-11
3.98997190625275e-09
1.35183346072639e-06
2.29650435986192e-06
3.08622308875052e-06
3.710766887675e-06
4.17809340275241e-06
4.50900665577528e-06
4.73081110518295e-06
4.87161596193644e-06
4.95634176455572e-06
5.00472098752651e-06
5.03097287947208e-06
5.04453172899273e-06
5.05120899768212e-06
5.05434988584429e-06
5.05576343332473e-06
5.0563729577747e-06
5.05662499689297e-06
5.05672489592769e-06
5.05676272202679e-06
5.0567762564641e-06
5.05678069283129e-06
5.05678187549807e-06
5.05678196197616e-06
5.05678165241293e-06
5.05678090413618e-06
5.0567789414685e-06
5.05677342490644e-06
5.05675808392225e-06
5.05671686737956e-06
5.05661029585817e-06
5.05634518313669e-06
5.05571093930387e-06
5.05425315161265e-06
5.05103844761394e-06
5.04424822800085e-06
5.03053460214384e-06
5.00410100762052e-06
4.95555872729678e-06
4.87077381266615e-06
4.73013320166336e-06
4.50883877935024e-06
4.1788471329635e-06
3.71278721081648e-06
3.08959296805329e-06
2.30083502256262e-06
1.35610477643654e-06
4.01516724739042e-09
1.53075587073041e-11
1.60815322333721e-11
4.24000194793017e-09
1.43479042344021e-06
2.43419442679512e-06
3.26817462991264e-06
3.92691957427303e-06
4.41946192258937e-06
4.76809057472975e-06
5.00174242691732e-06
5.15008474347897e-06
5.23937210983857e-06
5.29037842238457e-06
5.31807143312575e-06
5.33238423685697e-06
5.33943828426706e-06
5.34275934185181e-06
5.34425548310142e-06
5.34490138003936e-06
5.34516884224671e-06
5.3452750568441e-06
5.34531539062631e-06
5.34532989646432e-06
5.34533470313868e-06
5.34533602426817e-06
5.3453361565685e-06
5.34533584673942e-06
5.34533505825771e-06
5.34533297942546e-06
5.34532715614541e-06
5.34531100521156e-06
5.34526766540753e-06
5.34515564345484e-06
5.34487695290696e-06
5.34421005951835e-06
5.34267675297317e-06
5.33929446682829e-06
5.33214826059902e-06
5.3177121912608e-06
5.28988048461621e-06
5.23876222935927e-06
5.14946474448451e-06
5.00131510068885e-06
4.76815666612787e-06
4.4203652813535e-06
3.92893035120344e-06
3.27132692873931e-06
2.43812579072691e-06
1.43863952487335e-06
4.26355876117343e-09
1.62441537308007e-11
1.68800385284025e-11
4.45228294668473e-09
1.50516549551746e-06
2.55078299628978e-06
3.42204966639314e-06
4.10957075592614e-06
4.62332038777441e-06
4.98685151123506e-06
5.2304768391149e-06
5.38517166107448e-06
5.47830922224028e-06
5.53153692649687e-06
5.5604510355596e-06
5.5754041763133e-06
5.58277905339762e-06
5.58625396699314e-06
5.58782086573135e-06
5.58849803758282e-06
5.58877882054323e-06
5.58889052193129e-06
5.58893305317111e-06
5.58894842218779e-06
5.58895356515012e-06
5.58895501871694e-06
5.58895519952606e-06
5.58895489157926e-06
5.58895406884906e-06
5.58895188885119e-06
5.58894580217354e-06
5.58892896497386e-06
5.5888838397314e-06
5.58876724951549e-06
5.58847718935108e-06
5.58778295219682e-06
5.58618636221996e-06
5.58266354701916e-06
5.57521862393384e-06
5.56017599740343e-06
5.53116994777082e-06
5.47788736267632e-06
5.38479770848825e-06
5.2303370297786e-06
4.98720620293375e-06
4.62445005012272e-06
4.11167275206036e-06
3.42510548067199e-06
2.55444158521515e-06
1.50869132026053e-06
4.47449581971281e-09
1.70374048248391e-11
1.75461495283564e-11
4.62977208999839e-09
1.56399445301105e-06
2.64810415511424e-06
3.55037619061268e-06
4.26180793598643e-06
4.79317802327477e-06
5.16909709513736e-06
5.42102069165953e-06
5.58100782163081e-06
5.67735814715645e-06
5.73244296692035e-06
5.76238011791237e-06
5.77787101656149e-06
5.78551603757904e-06
5.78912087668848e-06
5.79074772064315e-06
5.79145148641774e-06
5.79174364693889e-06
5.79186006214836e-06
5.79190449736657e-06
5.79192062443746e-06
5.79192606876277e-06
5.79192764583125e-06
5.79192787418052e-06
5.79192757229143e-06
5.79192672095423e-06
5.79192445399423e-06
5.79191814371425e-06
5.79190073161376e-06
5.79185412234377e-06
5.79173374832047e-06
5.79143428108391e-06
5.79071741862518e-06
5.78906843776392e-06
5.78542920504427e-06
5.77773666158466e-06
5.76219096370984e-06
5.73221053276759e-06
5.67713165099521e-06
5.58089413884539e-06
5.42119422107118e-06
5.16978400465961e-06
4.79460202693891e-06
4.26409810040565e-06
3.55345921883619e-06
2.65162504462058e-06
1.56730697318446e-06
4.65100033183794e-09
1.7699314121028e-11
1.809329709365e-11
4.77591771602391e-09
1.61245159867319e-06
2.72818443276753e-06
3.65590110931745e-06
4.38694874939767e-06
4.93277803105324e-06
5.31886984146687e-06
5.57761530490245e-06
5.74195935262951e-06
5.84095912861777e-06
5.89757846258167e-06
5.92836281232157e-06
5.94430012711546e-06
5.95217000833668e-06
5.95588331235807e-06
5.95756036350904e-06
5.95828648599123e-06
5.95858825403052e-06
5.95870867289208e-06
5.95875473881475e-06
5.95877152370428e-06
5.95877723496487e-06
5.95877892483577e-06
5.95877919946128e-06
5.95877890588056e-06
5.95877803118758e-06
5.95877569061129e-06
5.95876919295923e-06
5.95875130516783e-06
5.95870347757048e-06
5.95858000841044e-06
5.95827285519439e-06
5.95753750661294e-06
5.95584569805477e-06
5.95211123692615e-06
5.94421601654805e-06
5.9282583390275e-06
5.89747963834725e-06
5.84092872037819e-06
5.74211116521529e-06
5.57811670945583e-06
5.31991963738488e-06
4.93455097921402e-06
4.38951165746971e-06
3.65912528532053e-06
2.73169671463325e-06
1.61565922485291e-06
4.79653570538967e-09
1.82435000783307e-11
1.85358373126175e-11
4.8944260349626e-09
1.65177857277238e-06
2.79313225740862e-06
3.7414519861982e-06
4.48838380330908e-06
5.04592787484387e-06
5.44026930085974e-06
5.70455398950436e-06
5.87244128315572e-06
5.97359963571236e-06
6.03147175636153e-06
6.06294934896985e-06
6.0792528744687e-06
6.08730772273137e-06
6.09111051613904e-06
6.09282912813051e-06
6.0935738267346e-06
6.09388361343917e-06
6.09400739322752e-06
6.09405483940141e-06
6.09407218821673e-06
6.09407813316508e-06
6.09407992480678e-06
6.09408024288155e-06
6.09407995893887e-06
6.09407906576323e-06
6.09407666396611e-06
6.09407001156973e-06
6.09405173544563e-06
6.09400292081222e-06
6.09387695313286e-06
6.09356360277514e-06
6.09281334873187e-06
6.09108699027165e-06
6.08727565605145e-06
6.0792167204632e-06
6.06292607964578e-06
6.03150194351442e-06
5.9737604704055e-06
5.87285584519731e-06
5.70538707859442e-06
5.4416990964449e-06
5.04808831514629e-06
4.49128629512355e-06
3.74491324834813e-06
2.79674901213605e-06
1.654979168777e-06
4.91478608672422e-09
1.86843359361784e-11
1.88882505797347e-11
4.98905313135841e-09
1.6832212228585e-06
2.84504065799004e-06
3.80981578833343e-06
4.56943904132314e-06
5.13635068533177e-06
5.53729629886407e-06
5.80602172110077e-06
5.97675439875582e-06
6.07964953576984e-06
6.1385318236592e-06
6.17056973381341e-06
6.18717001997264e-06
6.19537517996936e-06
6.19925091920421e-06
6.20100352314665e-06
6.20176347274035e-06
6.20207987252331e-06
6.20220644017922e-06
6.20225504064202e-06
6.20227286694443e-06
6.20227901378942e-06
6.20228089562048e-06
6.20228125369305e-06
6.2022809804967e-06
6.20228007331149e-06
6.20227762165228e-06
6.20227084353796e-06
6.20225225506529e-06
6.20220265217686e-06
6.20207469603068e-06
6.20175641900076e-06
6.20099431416445e-06
6.199240470325e-06
6.19536793728728e-06
6.18717857683025e-06
6.17062251976896e-06
6.13868364241109e-06
6.079992363549e-06
5.97742232805442e-06
5.80718079887744e-06
5.53911028017343e-06
5.1389205278944e-06
4.57272786176103e-06
3.81358773841808e-06
2.84885318940758e-06
1.68649660764471e-06
5.00946111545032e-09
1.90362000406176e-11
1.91644794627534e-11
5.06343091029286e-09
1.70797691844025e-06
2.88590657847124e-06
3.86363865187823e-06
4.63326211530217e-06
5.20756261873213e-06
5.61372435239755e-06
5.8859627362277e-06
6.05895045411822e-06
6.1632248715984e-06
6.22291121797397e-06
6.25539623181561e-06
6.27223395675444e-06
6.28055973261214e-06
6.2844941915053e-06
6.28627425294551e-06
6.28704656969954e-06
6.2873683567074e-06
6.2874972087307e-06
6.28754676275103e-06
6.28756498835534e-06
6.28757130727403e-06
6.28757326785575e-06
6.28757366240062e-06
6.28757340059242e-06
6.28757248340572e-06
6.28756999212634e-06
6.28756311378936e-06
6.28754427826632e-06
6.28749405587337e-06
6.28736454180313e-06
6.28704240815871e-06
6.28627102388396e-06
6.28449564224799e-06
6.28057511145797e-06
6.27228337494133e-06
6.25551883197226e-06
6.22317538833075e-06
6.16373727023488e-06
6.05985729505405e-06
5.88743435495085e-06
5.61591543574669e-06
5.21054828988023e-06
4.63696413805961e-06
3.86777158700435e-06
2.88998237643618e-06
1.71139047418296e-06
5.08413367229243e-09
1.9312862243822e-11
1.9377421483607e-11
5.12093214269726e-09
1.72715373773515e-06
2.91756879715769e-06
3.90534905891937e-06
4.68273547121602e-06
5.2627791270768e-06
5.67300141496861e-06
5.94797934065413e-06
6.122729129221e-06
6.2280836886299e-06
6.28840123557714e-06
6.3212381584422e-06
6.33826329969274e-06
6.3466845722657e-06
6.35066567570575e-06
6.35246762693426e-06
6.35324984285392e-06
6.35357596241238e-06
6.35370666258359e-06
6.35375699448863e-06
6.35377554987913e-06
6.35378201362678e-06
6.35378404220911e-06
6.35378446955401e-06
6.35378421932969e-06
6.35378329565432e-06
6.35378077384144e-06
6.35377381738902e-06
6.35375479030599e-06
6.35370409008885e-06
6.35357337743032e-06
6.35324827798183e-06
6.35246975295711e-06
6.35067777944099e-06
6.34672022974048e-06
6.33834944792919e-06
6.32142377858029e-06
6.28876742404853e-06
6.22875130392339e-06
6.12385703818265e-06
5.94974440960065e-06
5.67555365447408e-06
5.26617404337872e-06
4.68685993634451e-06
3.90987167215843e-06
2.92195248807879e-06
1.73075055372142e-06
5.14211486716647e-09
1.95270191176654e-11
1.95385767840927e-11
5.16457513198458e-09
1.74174162261184e-06
2.94166445841119e-06
3.93710437592062e-06
4.72041609269356e-06
5.30485011043668e-06
5.71818196032294e-06
5.99526197834175e-06
6.1713668084082e-06
6.27755401402846e-06
6.33835941639113e-06
6.37146910594854e-06
6.38863996053269e-06
6.39713572494465e-06
6.40115334220453e-06
6.40297249496061e-06
6.40376252324987e-06
6.4040920791612e-06
6.40422425443282e-06
6.40427521261901e-06
6.40429403697347e-06
6.40430062120447e-06
6.40430270789287e-06
6.40430316437662e-06
6.40430292566884e-06
6.40430199854672e-06
6.4042994541359e-06
6.40429243852268e-06
6.40427326660344e-06
6.40422220650539e-06
6.40409059259693e-06
6.40376326231528e-06
6.40297935870586e-06
6.40117486596269e-06
6.39718933493141e-06
6.3887587093141e-06
6.37171088319145e-06
6.33881701797371e-06
6.2783617486335e-06
6.17269625199333e-06
5.9972980379878e-06
5.72107339728593e-06
5.3086380094882e-06
4.72495821798606e-06
3.94202733326212e-06
2.94638090213094e-06
1.74555050146123e-06
5.18636624945952e-09
1.96899751239638e-11
1.96578354866201e-11
5.19696448285882e-09
1.75259443102567e-06
2.95960246775312e-06
3.96075852153895e-06
4.74849935282957e-06
5.33622120535416e-06
5.75188654346223e-06
6.03054763552803e-06
6.2076742229144e-06
6.31449101159588e-06
6.37566639738517e-06
6.40898361774129e-06
6.42626572048246e-06
6.43481856830351e-06
6.43886427751592e-06
6.44069672127e-06
6.44149281473399e-06
6.44182505330629e-06
6.44195838817853e-06
6.44200984342387e-06
6.44202888428381e-06
6.44203556759642e-06
6.44203770343184e-06
6.44203818561419e-06
6.44203795823872e-06
6.44203703025721e-06
6.44203447007338e-06
6.44202741139259e-06
6.44200813375953e-06
6.44195681156707e-06
6.44182454149634e-06
6.44149558419883e-06
6.44070774693288e-06
6.43889407026697e-06
6.43488795249614e-06
6.42641318200524e-06
6.40927503855783e-06
6.37620522691882e-06
6.31542410889736e-06
6.20918558652358e-06
6.03283111445536e-06
5.75509219612941e-06
5.3403798746131e-06
4.75344468175668e-06
3.96607912147446e-06
2.96466115069643e-06
1.75663106442969e-06
5.21944554609678e-09
1.9811453356176e-11
1.9743378764313e-11
5.22026156005052e-09
1.76042096294207e-06
2.97255071200712e-06
3.97784692131347e-06
4.76880257574659e-06
5.35891644062243e-06
5.77628383245615e-06
6.05610142688362e-06
6.23397771740663e-06
6.34125802460276e-06
6.40270680473694e-06
6.43617798413421e-06
6.45354296745116e-06
6.46213853520847e-06
6.46620536942555e-06
6.46804786003897e-06
6.46884856466072e-06
6.46918285638635e-06
6.46931708616328e-06
6.46936892939762e-06
6.46938814209062e-06
6.46939490597893e-06
6.46939708306624e-06
6.4693975878515e-06
6.46939737153688e-06
6.46939644484359e-06
6.46939387466979e-06
6.46938678651785e-06
6.46936743594661e-06
6.46931593299675e-06
6.46918320956577e-06
6.4688531230871e-06
6.46806254025335e-06
6.46624241626548e-06
6.4622217681231e-06
6.45371569050117e-06
6.43651322975251e-06
6.40331768052275e-06
6.34230300748468e-06
6.2356527412956e-06
6.0586097263948e-06
5.77977856254093e-06
5.36342143565364e-06
4.7741314876329e-06
3.98355411632794e-06
2.97795065893434e-06
1.76469163317115e-06
5.24347963554462e-09
1.98995099712123e-11
1.98016623880518e-11
5.23617677936687e-09
1.76578260290721e-06
2.98143340754666e-06
3.9895840746714e-06
4.78276294325228e-06
5.37453642415441e-06
5.7930889641262e-06
6.07371502015093e-06
6.25211767777379e-06
6.35972497507301e-06
6.42136761538512e-06
6.45494857020054e-06
6.47237299881933e-06
6.48099939985831e-06
6.48508158299313e-06
6.48693142562504e-06
6.48773553104178e-06
6.48807135067628e-06
6.48820625389009e-06
6.48825839353702e-06
6.48827774036576e-06
6.48828456907936e-06
6.48828678063123e-06
6.48828730528336e-06
6.48828709966385e-06
6.48828617598102e-06
6.48828360065967e-06
6.48827649452915e-06
6.48825709874856e-06
6.48820548366694e-06
6.48807247734914e-06
6.4877416785454e-06
6.48694934139681e-06
6.48512504577632e-06
6.48109488856736e-06
6.47256811885745e-06
6.45532278709417e-06
6.42204282510518e-06
6.36087041218631e-06
6.25394065918521e-06
6.07642830573725e-06
5.79685000781991e-06
5.37936444050057e-06
4.78845484751846e-06
3.99566324910416e-06
2.98716795311724e-06
1.770287859815e-06
5.26015721603487e-09
1.99605220997929e-11
1.98374507947104e-11
5.24597559700979e-09
1.7690951226311e-06
2.98693472741537e-06
3.9968688618925e-06
4.79144414311907e-06
5.38426595098377e-06
5.80357177552105e-06
6.08471523446408e-06
6.2634573222889e-06
6.37127724414484e-06
6.43304706900904e-06
6.4667007338387e-06
6.48416493622436e-06
6.49281218740239e-06
6.49690486584196e-06
6.49875979494244e-06
6.49956628316447e-06
6.49990318879817e-06
6.50003857910394e-06
6.50009093812604e-06
6.50011038739489e-06
6.50011726769042e-06
6.50011950798183e-06
6.50012005012185e-06
6.50011985476847e-06
6.50011893543616e-06
6.50011635899272e-06
6.50010924470243e-06
6.50008982771822e-06
6.50003816013671e-06
6.4999050188469e-06
6.49957386808041e-06
6.49878062968887e-06
6.49695411192383e-06
6.49291872836802e-06
6.48438028358186e-06
6.46711023147276e-06
6.43378071594764e-06
6.37251432981656e-06
6.26541604558022e-06
6.08761785079239e-06
5.80758078454354e-06
5.38939759748431e-06
4.79748099143944e-06
4.0033058968992e-06
2.99299563230911e-06
1.77383299966925e-06
5.27073343756982e-09
1.99992187254738e-11
1.98538727861653e-11
5.25049080569967e-09
1.77063239536267e-06
2.98950517795068e-06
4.00029304490161e-06
4.79554646027467e-06
5.38888523901848e-06
5.80856880605824e-06
6.08997651743444e-06
6.26889545071926e-06
6.37682857007697e-06
6.43866763930464e-06
6.47236183191647e-06
6.48984874783565e-06
6.49850820422622e-06
6.50260718335071e-06
6.50446524646627e-06
6.50527324396128e-06
6.50561085914227e-06
6.50574657986999e-06
6.50579909507981e-06
6.50581862194338e-06
6.50582554419121e-06
6.50582780944141e-06
6.50582836756102e-06
6.50582818209101e-06
6.50582726773927e-06
6.50582469269595e-06
6.50581757755357e-06
6.50579815919892e-06
6.50574649112286e-06
6.50561334693345e-06
6.50528216846861e-06
6.50448879665193e-06
6.50266180607853e-06
6.49862502263386e-06
6.49008292183159e-06
6.47280421845895e-06
6.43945588201547e-06
6.37815153029767e-06
6.27098185081159e-06
6.0930580099794e-06
5.81281334301628e-06
5.39430709645992e-06
4.80191537465452e-06
4.00707736016445e-06
2.99588570942991e-06
1.77560084128292e-06
5.27603951073609e-09
2.00187272750231e-11
1.98524714278622e-11
5.25013388789865e-09
1.77052996179872e-06
2.98936774409792e-06
4.00014954623567e-06
4.7954166171838e-06
5.38878078288179e-06
5.8084947565911e-06
6.08993273837847e-06
6.26887840017907e-06
6.37683300605617e-06
6.43868800552155e-06
6.47239319247963e-06
6.48988721221362e-06
6.49855099106597e-06
6.50265246149643e-06
6.50451189415359e-06
6.50532061648226e-06
6.50565860619248e-06
6.50579451990974e-06
6.5058471372536e-06
6.50586672141255e-06
6.50587367836221e-06
6.50587596602928e-06
6.50587653915535e-06
6.50587636317486e-06
6.50587545394018e-06
6.5058728818769e-06
6.50586577179105e-06
6.50584636995481e-06
6.50579475051034e-06
6.50566173036898e-06
6.50533083718444e-06
6.50453807170983e-06
6.50271228651052e-06
6.49867775485735e-06
6.49013960981957e-06
6.47286742993157e-06
6.43952915815616e-06
6.37823926183532e-06
6.27108877286501e-06
6.09318822349842e-06
5.81296889603449e-06
5.39448630633706e-06
4.80211115298023e-06
4.00727573716669e-06
2.99606455183395e-06
1.7757284746883e-06
5.27649161820345e-09
2.00206142921759e-11
1.98332433100567e-11
5.24490467130342e-09
1.768787824559e-06
2.98652205066284e-06
3.99643755504303e-06
4.7910535459003e-06
5.38395156317828e-06
5.80334897294036e-06
6.08458383289315e-06
6.26340678658683e-06
6.37129181380433e-06
6.43310998343039e-06
6.46679704189539e-06
6.48428283783596e-06
6.49294323561731e-06
6.49704349393368e-06
6.49890259028584e-06
6.49971128347626e-06
6.50004932758105e-06
6.50018530366567e-06
6.50023797196242e-06
6.50025759418053e-06
6.50026457885792e-06
6.50026688638728e-06
6.50026747344916e-06
6.50026730646821e-06
6.50026640246527e-06
6.50026383511091e-06
6.5002567365218e-06
6.50023737045877e-06
6.5001858519685e-06
6.50005308992338e-06
6.49972281004053e-06
6.4989314210012e-06
6.49710857726605e-06
6.49308005325412e-06
6.48455365114625e-06
6.46730344377785e-06
6.43400451665016e-06
6.37278201038822e-06
6.26574188889074e-06
6.08801414023691e-06
5.80805349481328e-06
5.38994133653291e-06
4.79807400417059e-06
4.00390573103242e-06
2.99353542029696e-06
1.77421750095669e-06
5.27209385372445e-09
2.00048942226301e-11
1.97946555064686e-11
5.23439518356172e-09
1.76527119992762e-06
2.98074507633583e-06
3.98886306110362e-06
4.78210873565164e-06
5.37400925104825e-06
5.79271553907021e-06
6.07349581129619e-06
6.25203545349613e-06
6.35975339145289e-06
6.42147840156793e-06
6.4551163682375e-06
6.47257772212698e-06
6.48122663131172e-06
6.48532180267591e-06
6.48717878902395e-06
6.4879866740927e-06
6.48832444382172e-06
6.48846034874194e-06
6.48851301571822e-06
6.48853265619599e-06
6.48853966123593e-06
6.48854198578141e-06
6.48854258552656e-06
6.48854242701061e-06
6.48854152851198e-06
6.48853896813012e-06
6.48853188877865e-06
6.48851258078705e-06
6.48846122268889e-06
6.48832886933005e-06
6.48799956855337e-06
6.48721041001195e-06
6.48539242430035e-06
6.48137403748114e-06
6.47286790933726e-06
6.45565654450123e-06
6.42242884390163e-06
6.36133122517341e-06
6.25450030690714e-06
6.07710716980737e-06
5.79765745787959e-06
5.38029033206604e-06
4.78946130756328e-06
3.99667778365524e-06
2.98807773044582e-06
1.7709336823304e-06
5.26243805916445e-09
1.99700389251799e-11
1.97336136954494e-11
5.21778228504136e-09
1.7597087027817e-06