/*--------------------------------*- C++ -*----------------------------------*\
  =========                 |
  \\      /  F ield         | OpenFOAM: The Open Source CFD Toolbox
   \\    /   O peration     | Website:  https://openfoam.org
    \\  /    A nd           | Version:  10
     \\/     M anipulation  |
\*---------------------------------------------------------------------------*/
FoamFile
{
    format      ascii;
    class       volScalarField;
    location    "7.4";
    object      h;
}
// * * * * * * * * * * * * * * * * * * * * * * * * * * * * * * * * * * * * * //

dimensions      [0 2 -2 0 0 0 0];

internalField   nonuniform List<scalar> 
2500
(
6282.3862593697
6278.44717922951
6267.79345050345
6259.61467322541
6254.39060709604
6251.267505468
6249.46305078891
6248.44953514124
6247.89884920576
6247.61174313067
6247.46677982637
6247.39684166872
6247.36443095779
6247.34941659387
6247.34247451165
6247.33893855023
6247.33737612426
6247.33628877972
6247.3353531631
6247.33474031666
6247.33424658501
6247.33383494359
6247.33350351807
6247.33329804816
6247.33309206865
6247.3329284692
6247.33287338076
6247.33286826674
6247.3329251411
6247.33305440561
6247.33327795519
6247.33369872826
6247.33425668098
6247.33516038245
6247.3367995562
6247.34013395698
6247.3473260686
6247.36292001308
6247.39742856586
6247.46983120341
6247.61764913499
6247.90867436087
6248.46060527224
6249.47054066365
6251.26575287313
6254.3718541234
6259.59215428117
6267.81518476948
6278.53558534321
6282.2859462177
5447.70011488498
5423.57027681004
5392.54075846795
5369.36905796005
5354.33151463489
5345.12265246215
5339.6552332904
5336.49815347376
5334.73402648943
5333.78531215415
5333.29502162487
5333.05219053085
5332.93687172018
5332.88403325699
5332.8605956751
5332.85036274943
5332.84606900141
5332.84409544449
5332.84302042544
5332.8424148233
5332.84199563027
5332.84166275851
5332.84139749877
5332.84121662379
5332.84105622774
5332.84092723882
5332.84086461387
5332.84083879918
5332.84085266626
5332.84093156763
5332.84112602378
5332.84157686922
5332.84252293582
5332.84460410283
5332.84933160476
5332.8603051862
5332.88544955283
5332.94143345188
5333.06226689993
5333.31266928087
5333.81204603798
5334.76951267004
5336.53598514314
5339.68154963686
5345.1184498959
5354.28714180851
5369.33234330887
5392.65830501065
5423.9351175668
5447.29085407409
4586.36498434368
4542.78141206276
4497.86833936199
4465.53057693747
4444.76946462571
4432.11755397041
4424.62426540516
4420.30036384328
4417.88211834449
4416.57849145044
4415.90308434009
4415.56744968078
4415.40751203878
4415.33425437606
4415.30192930997
4415.28810838497
4415.2824099521
4415.28002455043
4415.27894160328
4415.27841107997
4415.27808982255
4415.27784745144
4415.2776547481
4415.27751875643
4415.27740657928
4415.27731497411
4415.27726069595
4415.27722688034
4415.27721163834
4415.27724842004
4415.27740161752
4415.27783503996
4415.27894367413
4415.28159920469
4415.28789726448
4415.30283888115
4415.3374069789
4415.41467047168
4415.58116589199
4415.92594498614
4416.61235810586
4417.92616918275
4420.3472041063
4424.65766913568
4432.1163913125
4444.73233226421
4465.54326111561
4498.1706778676
4543.59455473571
4586.50485322496
3801.49689186054
3747.36012275001
3699.19681063064
3665.89026940856
3645.08403946363
3632.70618416426
3625.53351181376
3621.47249513493
3619.23731380845
3618.04827640025
3617.43917943549
3617.13939223613
3616.99773151796
3616.93339041922
3616.90526337147
3616.89339949691
3616.88858290781
3616.88664633342
3616.88583584524
3616.8854721191
3616.88526880749
3616.88511638546
3616.88499125841
3616.88490119678
3616.88483083962
3616.8847721671
3616.88473177785
3616.8846989103
3616.88467239827
3616.88466915918
3616.88474208567
3616.88503723934
3616.88591263623
3616.88809487674
3616.89336149697
3616.90606384108
3616.93584225312
3617.00316042172
3617.14972153924
3617.45656394896
3618.07453729176
3619.27242967594
3621.51175619276
3625.56563032269
3632.71793445906
3645.08789207593
3665.99879376123
3699.70829272148
3748.62947936192
3802.69730590171
3157.49780530465
3103.23125889992
3059.68487273645
3030.73283318031
3013.16802849032
3002.98658279344
2997.22225474352
2994.02223358602
2992.28876609063
2991.37814284782
2990.91628311062
2990.69073779915
2990.5848277543
2990.53699457266
2990.51620764747
2990.50751481012
2990.50402886224
2990.50266864785
2990.50213512525
2990.50191757927
2990.50180787788
2990.50172543626
2990.50165322283
2990.50160047339
2990.50156170187
2990.50152836305
2990.50150181178
2990.50147500174
2990.50144694346
2990.50143082903
2990.5014442155
2990.50160016456
2990.50219977156
2990.50374185835
2990.50749904073
2990.51667590771
2990.53840561179
2990.58795364719
2990.69672296319
2990.92649982328
2991.39390934632
2992.31047033987
2994.04761505411
2997.2453580475
3003.0025753892
3013.1994498284
3030.90125521845
3060.30751201725
3104.77016176895
3159.63157351941
2675.45051846747
2628.72086215047
2594.08335973337
2571.89313183432
2558.81800566882
2551.43408699378
2547.34937114774
2545.1250746541
2543.93821263792
2543.32176930419
2543.01172017546
2542.86122329412
2542.7908625503
2542.75919589873
2542.74548461219
2542.7397844595
2542.73752283851
2542.73666368689
2542.73634698751
2542.73623226856
2542.73618415001
2542.73614836054
2542.73611226826
2542.73608534155
2542.73606739305
2542.7360509925
2542.73603530953
2542.73601597127
2542.73599196113
2542.73597157668
2542.73596019539
2542.7360242713
2542.73638553143
2542.73736426781
2542.73976433054
2542.74569049787
2542.75983151969
2542.7922825671
2542.86397073809
2543.01648196184
2543.32927867879
2543.94883181581
2545.13789726907
2547.36184479658
2551.4463687551
2558.85515334591
2572.06738665103
2594.69148313299
2630.26479523425
2678.03123095813
2343.09199380488
2307.37802253699
2282.5633710644
2267.20688736246
2258.41148597466
2253.56948073855
2250.95089762126
2249.55131784624
2248.81506367969
2248.43654750627
2248.24749456047
2248.15614515924
2248.11355769873
2248.09442716973
2248.0861609823
2248.08273899551
2248.0813942238
2248.08089687902
2248.08072512822
2248.0806717131
2248.08065723903
2248.08064794435
2248.08063360962
2248.08062224291
2248.08061633426
2248.08060979881
2248.08060142306
2248.08058878799
2248.08057092608
2248.08055229254
2248.08053684724
2248.08055200528
2248.08074589281
2248.08131469953
2248.08272017742
2248.08622557472
2248.0946397345
2248.11403661724
2248.15708297636
2248.24914721942
2248.43921572648
2248.81891560161
2249.5559473971
2250.95525926618
2253.57530138635
2258.44023293951
2267.34924076703
2283.06705469594
2308.71172814124
2345.60159160797
2130.37112139513
2105.65256338537
2089.39071371321
2079.64597456173
2074.21447928762
2071.29710354866
2069.75365427138
2068.94344963385
2068.52294339625
2068.30875091399
2068.20239688769
2068.1511778355
2068.12733724207
2068.11663534648
2068.1120154763
2068.11010892859
2068.10936636384
2068.10909896671
2068.10901393572
2068.10899491874
2068.10899348913
2068.10899389417
2068.1089912434
2068.1089878407
2068.10898810731
2068.10898663987
2068.10898268228
2068.10897510621
2068.10896313786
2068.10894884366
2068.10893425805
2068.10893145206
2068.10902702838
2068.10933124552
2068.1100969757
2068.11202456043
2068.11667169073
2068.12741631571
2068.15133386488
2068.20267921059
2068.30922504976
2068.52361068934
2068.94401189994
2069.75350815144
2071.2976647732
2074.23100452125
2079.74368855144
2089.75618047728
2106.6711870479
2132.46395680724
2003.15560028966
1987.44492187755
1977.5853648205
1971.85144597648
1968.7372413692
1967.10364384302
1966.25756910272
1965.82113339045
1965.59751685849
1965.4845795183
1965.42877984601
1965.40197006479
1965.38949862183
1965.38389897774
1965.38148200208
1965.38048695643
1965.38010287812
1965.37996843841
1965.37993185343
1965.3799284793
1965.37993070457
1965.37993375723
1965.37993459464
1965.37993484599
1965.37993626759
1965.37993625327
1965.37993452352
1965.37993039544
1965.37992302323
1965.37991335756
1965.37990235079
1965.37989573515
1965.37993849146
1965.38008992666
1965.38048211639
1965.38147758957
1965.38388484724
1965.38945946171
1965.40188927608
1965.42863612829
1965.48434673076
1965.59711594442
1965.82028201405
1966.2557395312
1967.10144582575
1968.74396966888
1971.90944045655
1977.82264339381
1988.14583398514
2004.70384457705
1931.66427267542
1922.39899208821
1916.81935172581
1913.66364359484
1911.99135277953
1911.13378583671
1910.69868169785
1910.47802659794
1910.36636658559
1910.31041870116
1910.28289321585
1910.26968856352
1910.26354483525
1910.26078371724
1910.25959140097
1910.25910152829
1910.25891423483
1910.258851482
1910.25883740868
1910.25883828889
1910.25884117268
1910.25884409528
1910.25884577862
1910.25884703492
1910.25884837973
1910.25884878068
1910.25884812056
1910.25884585802
1910.25884161842
1910.25883569692
1910.25882856629
1910.2588231245
1910.2588404036
1910.25891107411
1910.25910127789
1910.25958776071
1910.26076649927
1910.26349720647
1910.26958847407
1910.28270996593
1910.31010904706
1910.36583879006
1910.47703191797
1910.69673552083
1911.13088536133
1911.99241662686
1913.69374649306
1916.95924800743
1922.83965723905
1932.70191035782
1893.72340105744
1888.61189948553
1885.64350135395
1884.00764122876
1883.1607150872
1882.73571459537
1882.52433548907
1882.41890698386
1882.3661985081
1882.33998628343
1882.32713762267
1882.32097933939
1882.3181117126
1882.31682101917
1882.31626318984
1882.31603442922
1882.31594781245
1882.31592041175
1882.31591572152
1882.31591720334
1882.31591949219
1882.31592159717
1882.31592302986
1882.31592417091
1882.31592511708
1882.31592553728
1882.31592529809
1882.31592408763
1882.31592179532
1882.31591844913
1882.31591430231
1882.31591086454
1882.31591713332
1882.31594829634
1882.31603612507
1882.31626243861
1882.31681142638
1882.31808240843
1882.32091550238
1882.3270177479
1882.33977695229
1882.36582703216
1882.4181829473
1882.52286344727
1882.73321415978
1883.15943957942
1884.02125650597
1885.71920963829
1888.86780447768
1894.36261347938
1874.62423473343
1871.96877607811
1870.47534648468
1869.67195858005
1869.26508528249
1869.06509406599
1868.96752613869
1868.91964998688
1868.89599760725
1868.88431964667
1868.87861388276
1868.87588018445
1868.87460552546
1868.87403071366
1868.87378200007
1868.87368019462
1868.87364203572
1868.87363069647
1868.87362946187
1868.87363066666
1868.87363215565
1868.87363346142
1868.87363441111
1868.87363517833
1868.87363575241
1868.87363604823
1868.87363595969
1868.87363533791
1868.87363416518
1868.87363239923
1868.87363017739
1868.87362828912
1868.87363029967
1868.87364337135
1868.87368216439
1868.87378288145
1868.87402732705
1868.87459239426
1868.87584976193
1868.87855476476
1868.88421202842
1868.89579409305
1868.91922237239
1868.96659154881
1869.06333163112
1869.26336232429
1869.67717614715
1870.5132500402
1872.10724455374
1874.99007339908
1865.46876866629
1864.16250525005
1863.4483812541
1863.07274184387
1862.88641539761
1862.79662177208
1862.75362487712
1862.73286176599
1862.72272395002
1862.71775351102
1862.71533203479
1862.71417183316
1862.71362991094
1862.713384981
1862.71327886098
1862.71323550659
1862.71321947398
1862.71321505885
1862.7132148625
1862.71321558269
1862.71321643615
1862.71321716632
1862.71321771477
1862.71321815813
1862.71321847209
1862.71321864319
1862.71321860815
1862.71321830381
1862.71321773264
1862.71321685461
1862.71321573997
1862.71321476537
1862.71321531491
1862.71322059244
1862.71323704616
1862.71328010698
1862.71338461851
1862.71362566829
1862.71416061043
1862.71530889618
1862.7177085273
1862.72263000594
1862.73264130527
1862.75309734339
1862.79553220813
1862.88501527127
1863.07427696082
1863.46603553625
1864.23281429051
1865.6649199283
1861.27471856169
1860.66340783829
1860.33745627738
1860.16953174531
1860.08785296655
1860.04922469174
1860.03105837324
1860.02242281603
1860.01825523703
1860.01622591168
1860.01523988794
1860.01476727687
1860.01454606259
1860.01444583147
1860.01440234037
1860.01438460806
1860.01437815631
1860.01437650552
1860.01437654747
1860.01437694931
1860.01437739558
1860.01437777182
1860.01437805949
1860.01437829091
1860.01437844906
1860.01437853647
1860.01437852178
1860.01437837968
1860.01437811365
1860.01437769992
1860.01437717254
1860.01437671381
1860.01437683479
1860.01437887857
1860.01438559834
1860.01440335033
1860.01444641673
1860.01454546416
1860.01476450551
1860.01523321921
1860.01621098859
1860.01821800461
1860.02232035167
1860.030785911
1860.04861376364
1860.08692927033
1860.16972230062
1860.34513380714
1860.69710753536
1861.37390570799
1859.43289588181
1859.15962562134
1859.01708706683
1858.94505339601
1858.91065523547
1858.89467584183
1858.88729041221
1858.88383339692
1858.88218418588
1858.88138655497
1858.88099994397
1858.88081451657
1858.88072751862
1858.8806879934
1858.88067081563
1858.88066382602
1858.88066132616
1858.8806607327
1858.88066079726
1858.88066100148
1858.88066121781
1858.88066139864
1858.88066153836
1858.88066164994
1858.88066172419
1858.88066176502
1858.88066175877
1858.8806616953
1858.8806615765
1858.88066139102
1858.88066115422
1858.88066094506
1858.88066095866
1858.88066173106
1858.8806643852
1858.8806714645
1858.88068862485
1858.88072795944
1858.88081458272
1858.88099921105
1858.88138333354
1858.8821717443
1858.88378969649
1858.88715935813
1858.8943589671
1858.91011921689
1858.94488584278
1859.02020933038
1859.17494919362
1859.4804602471
1858.65528532132
1858.53818569393
1858.4782740841
1858.44852936147
1858.43456824679
1858.42819178997
1858.42529346591
1858.42395709479
1858.42332681991
1858.42302402699
1858.42287759898
1858.42280730663
1858.42277424125
1858.42275917511
1858.42275261568
1858.42274995141
1858.42274901523
1858.42274880931
1858.42274885058
1858.42274894594
1858.42274904391
1858.42274912542
1858.4227491888
1858.42274923901
1858.42274927169
1858.42274928943
1858.42274928681
1858.42274925965
1858.42274920879
1858.42274912956
1858.4227490285
1858.42274893767
1858.4227489323
1858.4227492179
1858.42275023654
1858.42275297562
1858.42275960675
1858.42277474876
1858.42280793518
1858.42287833882
1858.42302430443
1858.42332361469
1858.42393979433
1858.42523403157
1858.4280377432
1858.43428479148
1858.44834311062
1858.47946034422
1858.54482403799
1858.67701688017
1858.33884103079
1858.29059068573
1858.26631821576
1858.25446222157
1858.24898627949
1858.24652499972
1858.24542397693
1858.24492370135
1858.24469040723
1858.24457906915
1858.2445253423
1858.24449952244
1858.24448734215
1858.24448177454
1858.24447934524
1858.2444783594
1858.24447801795
1858.24447794776
1858.24447796834
1858.24447800937
1858.24447805076
1858.24447808512
1858.24447811195
1858.24447813302
1858.24447814646
1858.24447815365
1858.24447815258
1858.24447814147
1858.2444781207
1858.24447808855
1858.24447804768
1858.24447801056
1858.24447800583
1858.24447811016
1858.24447849192
1858.24447952336
1858.24448201515
1858.24448768044
1858.24450003075
1858.24452609291
1858.24457989813
1858.24469003172
1858.24491728745
1858.24539832247
1858.24645413841
1858.24884696533
1858.25433607512
1858.26673734347
1858.29334057335
1858.34833858319
1858.21442698214
1858.19525697613
1858.18575487135
1858.18118217243
1858.17910152525
1858.17818032091
1858.17777444443
1858.17759262125
1858.17750876676
1858.17746900731
1858.17744985896
1858.17744064412
1858.17743628305
1858.17743428209
1858.17743340615
1858.17743305011
1858.1774329273
1858.17743290263
1858.17743291092
1858.17743292682
1858.17743294278
1858.17743295602
1858.17743296639
1858.17743297447
1858.17743297953
1858.17743298218
1858.17743298175
1858.17743297746
1858.17743296949
1858.17743295729
1858.17743294189
1858.17743292796
1858.1774329262
1858.17743296469
1858.17743310553
1858.17743348515
1858.1774343985
1858.17743646404
1858.17744093989
1858.17745032925
1858.17746961789
1858.1775089973
1858.1775903748
1858.17776382312
1858.17814925327
1858.17903708309
1858.18111161078
1858.18589107003
1858.19634968524
1858.21841118633
1858.16706797167
1858.15970613448
1858.15610381192
1858.1543936422
1858.15362617996
1858.15329114763
1858.15314564117
1858.15308133878
1858.15305200144
1858.15303817847
1858.1530315324
1858.1530283281
1858.15302680543
1858.15302610304
1858.15302579357
1858.1530256667
1858.15302562192
1858.15302561189
1858.15302561398
1858.15302561896
1858.15302562407
1858.15302562833
1858.15302563168
1858.15302563427
1858.15302563585
1858.15302563665
1858.15302563645
1858.15302563497
1858.15302563226
1858.15302562817
1858.15302562308
1858.15302561872
1858.15302561903
1858.15302563409
1858.1530256861
1858.15302582382
1858.153026152
1858.15302688836
1858.15302847232
1858.15303177254
1858.15303851339
1858.1530522281
1858.153080586
1858.15314139474
1858.15327808972
1858.15359787756
1858.15435839828
1858.15614352277
1858.16012380316
1858.16867710039
1858.14958001502
1858.14684130427
1858.14551620789
1858.14489483994
1858.14461952075
1858.14450089987
1858.14445007276
1858.14442789943
1858.14441788663
1858.14441319623
1858.14441094322
1858.14440985354
1858.14440933237
1858.14440908956
1858.14440898084
1858.14440893492
1858.14440891743
1858.14440891205
1858.14440891116
1858.14440891165
1858.14440891236
1858.14440891296
1858.14440891344
1858.14440891381
1858.14440891401
1858.1444089141
1858.14440891398
1858.1444089136
1858.14440891297
1858.14440891206
1858.144408911
1858.14440891041
1858.14440891183
1858.14440891871
1858.14440893871
1858.14440898899
1858.14440910587
1858.14440936422
1858.14440991388
1858.1444110491
1858.14441335151
1858.14441801459
1858.14442765188
1858.14444842218
1858.14449561217
1858.14460764077
1858.14487859162
1858.14552596449
1858.14699524423
1858.15020737273
1858.14330451529
1858.14231560189
1858.14184184522
1858.14162216184
1858.14152595138
1858.14148499888
1858.14146766945
1858.14146019947
1858.14145685763
1858.14145529931
1858.14145454991
1858.14145418495
1858.14145400803
1858.14145392366
1858.14145388424
1858.14145386615
1858.14145385791
1858.14145385401
1858.14145385193
1858.14145385059
1858.14145384958
1858.14145384876
1858.14145384811
1858.14145384762
1858.14145384728
1858.14145384708
1858.14145384701
1858.14145384707
1858.14145384724
1858.14145384752
1858.141453848
1858.14145384889
1858.14145385075
1858.14145385476
1858.14145386355
1858.14145388302
1858.14145392547
1858.1414540161
1858.14145420489
1858.14145458926
1858.14145536087
1858.1414569132
1858.14146011468
1858.1414670402
1858.14148292577
1858.14152115989
1858.14161512342
1858.14184344406
1858.14237042809
1858.14354118422
1858.1411125425
1858.14076533602
1858.1406004736
1858.14052480324
1858.14049201273
1858.14047820792
1858.14047243138
1858.14046996703
1858.14046887237
1858.1404683624
1858.14046811532
1858.14046799278
1858.14046793136
1858.1404679003
1858.14046788424
1858.1404678755
1858.14046787031
1858.14046786687
1858.14046786431
1858.14046786229
1858.14046786063
1858.14046785927
1858.14046785819
1858.14046785738
1858.14046785684
1858.14046785654
1858.1404678565
1858.14046785671
1858.14046785717
1858.14046785791
1858.14046785894
1858.14046786037
1858.14046786241
1858.14046786545
1858.14046787041
1858.14046787926
1858.14046789611
1858.14046792926
1858.14046799503
1858.140468125
1858.14046838094
1858.14046888963
1858.14046993281
1858.14047219232
1858.14047741589
1858.14049014649
1858.14052190627
1858.14060032195
1858.14078423988
1858.14119911558
1858.14036618566
1858.14024747174
1858.140191581
1858.14016617309
1858.14015526738
1858.14015071934
1858.14014883319
1858.14014803395
1858.14014767924
1858.14014751234
1858.14014742933
1858.14014738609
1858.14014736257
1858.14014734905
1858.14014734069
1858.14014733502
1858.14014733083
1858.14014732751
1858.14014732478
1858.14014732251
1858.14014732061
1858.14014731905
1858.14014731782
1858.1401473169
1858.14014731628
1858.14014731595
1858.14014731592
1858.14014731619
1858.14014731676
1858.14014731766
1858.1401473189
1858.14014732052
1858.14014732262
1858.14014732535
1858.14014732902
1858.1401473343
1858.14014734253
1858.1401473564
1858.14014738115
1858.1401474268
1858.14014751282
1858.14014767918
1858.14014801517
1858.14014873948
1858.1401504209
1858.14015456105
1858.14016503082
1858.14019127312
1858.14025379191
1858.14039695021
1858.14011811397
1858.14007853917
1858.14006008706
1858.14005178219
1858.14004824711
1858.14004678258
1858.14004617742
1858.14004592015
1858.14004580396
1858.14004574698
1858.14004571646
1858.14004569863
1858.14004568728
1858.14004567943
1858.14004567355
1858.14004566888
1858.14004566501
1858.14004566174
1858.14004565895
1858.14004565659
1858.14004565461
1858.14004565299
1858.1400456517
1858.14004565074
1858.1400456501
1858.14004564976
1858.14004564974
1858.14004565003
1858.14004565064
1858.14004565159
1858.1400456529
1858.14004565459
1858.14004565672
1858.14004565934
1858.14004566259
1858.14004566668
1858.14004567207
1858.14004567961
1858.14004569096
1858.14004570923
1858.14004574043
1858.14004579686
1858.14004590615
1858.14004613666
1858.14004666859
1858.14004798446
1858.14005134744
1858.14005989503
1858.14008059064
1858.14012875153
1858.14003752526
1858.14002465674
1858.14001874945
1858.14001612633
1858.14001501713
1858.14001455726
1858.14001436498
1858.14001428051
1858.14001423967
1858.14001421722
1858.14001420316
1858.14001419331
1858.14001418582
1858.14001417976
1858.14001417469
1858.14001417034
1858.14001416659
1858.14001416334
1858.14001416054
1858.14001415815
1858.14001415615
1858.14001415451
1858.14001415321
1858.14001415224
1858.14001415159
1858.14001415125
1858.14001415123
1858.14001415153
1858.14001415216
1858.14001415313
1858.14001415446
1858.14001415618
1858.14001415831
1858.14001416089
1858.14001416399
1858.14001416769
1858.14001417216
1858.14001417766
1858.14001418471
1858.14001419427
1858.14001420813
1858.14001422997
1858.14001426809
1858.14001434317
1858.14001451031
1858.14001491875
1858.14001596495
1858.1400186565
1858.14002530366
1858.14004110858
1858.14001190776
1858.14000783333
1858.14000603109
1858.14000525289
1858.14000492476
1858.14000478534
1858.14000472342
1858.14000469293
1858.14000467541
1858.14000466359
1858.14000465459
1858.14000464721
1858.14000464092
1858.14000463544
1858.14000463063
1858.1400046264
1858.1400046227
1858.14000461947
1858.14000461668
1858.1400046143
1858.1400046123
1858.14000461066
1858.14000460936
1858.14000460839
1858.14000460775
1858.14000460742
1858.1400046074
1858.1400046077
1858.14000460834
1858.14000460931
1858.14000461065
1858.14000461236
1858.14000461449
1858.14000461705
1858.14000462009
1858.14000462366
1858.14000462782
1858.14000463267
1858.14000463837
1858.1400046452
1858.14000465369
1858.14000466488
1858.14000468113
1858.14000470833
1858.14000476219
1858.14000488546
1858.14000519331
1858.1400059914
1858.1400080314
1858.14001308413
1858.14000393146
1858.1400026866
1858.1400021977
1858.14000200555
1858.14000192354
1858.14000188416
1858.1400018625
1858.14000184849
1858.14000183801
1858.14000182937
1858.14000182189
1858.14000181526
1858.14000180935
1858.14000180406
1858.14000179935
1858.14000179518
1858.14000179151
1858.14000178831
1858.14000178554
1858.14000178318
1858.14000178119
1858.14000177957
1858.14000177828
1858.14000177733
1858.14000177669
1858.14000177636
1858.14000177635
1858.14000177665
1858.14000177729
1858.14000177826
1858.14000177959
1858.1400017813
1858.14000178341
1858.14000178595
1858.14000178896
1858.14000179247
1858.14000179652
1858.14000180116
1858.14000180643
1858.14000181243
1858.1400018193
1858.1400018273
1858.14000183701
1858.14000184983
1858.14000186933
1858.14000190497
1858.14000198268
1858.1400021821
1858.14000274525
1858.1400043071
1858.14000149718
1858.14000114309
1858.14000106531
1858.14000105524
1858.14000104901
1858.14000104008
1858.14000103047
1858.1400010213
1858.14000101284
1858.1400010051
1858.14000099804
1858.14000099163
1858.14000098584
1858.14000098063
1858.14000097598
1858.14000097186
1858.14000096823
1858.14000096506
1858.14000096232
1858.14000095998
1858.14000095802
1858.14000095642
1858.14000095515
1858.14000095421
1858.14000095358
1858.14000095326
1858.14000095325
1858.14000095356
1858.14000095419
1858.14000095515
1858.14000095647
1858.14000095816
1858.14000096026
1858.14000096278
1858.14000096576
1858.14000096923
1858.14000097323
1858.14000097779
1858.14000098293
1858.14000098869
1858.1400009951
1858.14000100221
1858.14000101007
1858.14000101875
1858.14000102819
1858.14000103764
1858.14000104532
1858.14000105966
1858.14000115967
1858.14000161281
1858.14000076926
1858.14000068988
1858.14000073796
1858.140000783
1858.14000079934
1858.14000079924
1858.14000079299
1858.14000078507
1858.14000077709
1858.14000076954
1858.14000076258
1858.14000075623
1858.14000075049
1858.14000074533
1858.14000074072
1858.14000073665
1858.14000073306
1858.14000072994
1858.14000072724
1858.14000072493
1858.14000072301
1858.14000072143
1858.14000072018
1858.14000071926
1858.14000071864
1858.14000071833
1858.14000071832
1858.14000071863
1858.14000071925
1858.14000072021
1858.14000072151
1858.14000072318
1858.14000072525
1858.14000072775
1858.1400007307
1858.14000073414
1858.1400007381
1858.14000074261
1858.14000074771
1858.1400007534
1858.14000075972
1858.14000076664
1858.14000077409
1858.14000078175
1858.14000078849
1858.14000079052
1858.14000077762
1858.14000073624
1858.14000069421
1858.14000080242
1858.14000055696
1858.14000056071
1858.14000064625
1858.14000070721
1858.14000072973
1858.14000073183
1858.14000072626
1858.14000071849
1858.1400007105
1858.14000070292
1858.14000069595
1858.14000068961
1858.1400006839
1858.14000067878
1858.14000067423
1858.14000067021
1858.14000066667
1858.1400006636
1858.14000066095
1858.14000065869
1858.1400006568
1858.14000065525
1858.14000065403
1858.14000065312
1858.14000065252
1858.14000065222
1858.14000065222
1858.14000065252
1858.14000065314
1858.14000065408
1858.14000065537
1858.14000065702
1858.14000065905
1858.14000066151
1858.14000066443
1858.14000066783
1858.14000067175
1858.14000067623
1858.14000068131
1858.140000687
1858.14000069333
1858.14000070029
1858.14000070777
1858.14000071535
1858.14000072163
1858.14000072193
1858.14000070351
1858.14000064612
1858.14000056167
1858.14000056463
1858.14000049796
1858.14000052644
1858.14000062251
1858.14000068742
1858.1400007111
1858.14000071332
1858.14000070757
1858.14000069959
1858.14000069143
1858.14000068375
1858.14000067673
1858.14000067039
1858.1400006647
1858.14000065963
1858.14000065514
1858.14000065118
1858.14000064771
1858.14000064469
1858.1400006421
1858.14000063989
1858.14000063804
1858.14000063653
1858.14000063534
1858.14000063446
1858.14000063388
1858.14000063359
1858.14000063359
1858.14000063389
1858.1400006345
1858.14000063542
1858.14000063668
1858.1400006383
1858.1400006403
1858.14000064272
1858.14000064559
1858.14000064895
1858.14000065283
1858.14000065728
1858.14000066234
1858.14000066805
1858.14000067443
1858.1400006815
1858.14000068915
1858.14000069698
1858.14000070351
1858.14000070382
1858.14000068447
1858.14000062311
1858.14000052663
1858.14000049801
1858.14000048411
1858.14000051986
1858.14000061831
1858.14000068346
1858.14000070666
1858.14000070832
1858.14000070208
1858.14000069373
1858.14000068534
1858.14000067752
1858.14000067045
1858.1400006641
1858.14000065845
1858.14000065343
1858.14000064901
1858.14000064512
1858.14000064172
1858.14000063878
1858.14000063625
1858.1400006341
1858.1400006323
1858.14000063084
1858.14000062968
1858.14000062883
1858.14000062827
1858.14000062799
1858.14000062799
1858.14000062829
1858.14000062888
1858.14000062979
1858.14000063102
1858.1400006326
1858.14000063456
1858.14000063693
1858.14000063975
1858.14000064305
1858.14000064688
1858.1400006513
1858.14000065634
1858.14000066206
1858.14000066851
1858.14000067572
1858.14000068362
1858.14000069182
1858.14000069885
1858.14000069978
1858.14000068096
1858.14000061935
1858.14000052002
1858.14000048204
1858.14000048379
1858.14000052167
1858.14000061994
1858.14000068403
1858.14000070614
1858.14000070691
1858.14000070004
1858.14000069126
1858.14000068259
1858.14000067463
1858.14000066749
1858.14000066115
1858.14000065554
1858.14000065059
1858.14000064625
1858.14000064245
1858.14000063913
1858.14000063627
1858.14000063381
1858.14000063173
1858.14000062999
1858.14000062857
1858.14000062746
1858.14000062663
1858.14000062609
1858.14000062583
1858.14000062584
1858.14000062613
1858.14000062671
1858.14000062759
1858.14000062879
1858.14000063033
1858.14000063224
1858.14000063456
1858.14000063731
1858.14000064055
1858.14000064432
1858.14000064869
1858.1400006537
1858.14000065943
1858.14000066596
1858.14000067332
1858.14000068149
1858.14000069013
1858.1400006978
1858.14000069963
1858.14000068191
1858.14000062133
1858.14000052201
1858.14000048127
1858.14000048801
1858.14000052648
1858.1400006236
1858.14000068603
1858.14000070669
1858.14000070637
1858.14000069875
1858.14000068949
1858.14000068053
1858.14000067242
1858.14000066524
1858.14000065891
1858.14000065336
1858.14000064849
1858.14000064424
1858.14000064053
1858.14000063732
1858.14000063454
1858.14000063217
1858.14000063016
1858.14000062848
1858.14000062712
1858.14000062605
1858.14000062526
1858.14000062474
1858.14000062449
1858.14000062451
1858.14000062479
1858.14000062535
1858.14000062621
1858.14000062737
1858.14000062887
1858.14000063072
1858.14000063297
1858.14000063566
1858.14000063882
1858.14000064252
1858.14000064683
1858.1400006518
1858.14000065754
1858.14000066412
1858.14000067164
1858.1400006801
1858.14000068923
1858.14000069765
1858.14000070055
1858.14000068429
1858.14000062533
1858.14000052706
1858.14000048553
1858.14000049437
1858.14000053293
1858.14000062833
1858.14000068862
1858.14000070751
1858.14000070594
1858.14000069748
1858.1400006877
1858.14000067844
1858.14000067019
1858.14000066297
1858.14000065668
1858.1400006512
1858.14000064644
1858.14000064229
1858.1400006387
1858.14000063559
1858.14000063292
1858.14000063064
1858.14000062871
1858.1400006271
1858.1400006258
1858.14000062478
1858.14000062402
1858.14000062353
1858.1400006233
1858.14000062331
1858.14000062359
1858.14000062414
1858.14000062496
1858.14000062608
1858.14000062753
1858.14000062932
1858.1400006315
1858.1400006341
1858.14000063718