/*--------------------------------*- C++ -*----------------------------------*\
  =========                 |
  \\      /  F ield         | OpenFOAM: The Open Source CFD Toolbox
   \\    /   O peration     | Website:  https://openfoam.org
    \\  /    A nd           | Version:  10
     \\/     M anipulation  |
\*---------------------------------------------------------------------------*/
FoamFile
{
    format      ascii;
    class       volScalarField;
    location    "7.4";
    object      k;
}
// * * * * * * * * * * * * * * * * * * * * * * * * * * * * * * * * * * * * * //

dimensions      [0 2 -2 0 0 0 0];

internalField   nonuniform List<scalar> 
2500
(
7.87010309401238e-10
1.54719110162642e-08
6.61730610677331e-08
1.14923442977144e-07
1.57175768509063e-07
1.91398220391003e-07
2.17379950522356e-07
2.3589700111219e-07
2.48305975051734e-07
2.56139595074528e-07
2.60807490966199e-07
2.63438503894879e-07
2.64844218519517e-07
2.65557676470899e-07
2.65902369856496e-07
2.66061198941503e-07
2.66131115998348e-07
2.6616055159428e-07
2.66172403582127e-07
2.66176955163332e-07
2.66178606945369e-07
2.66179158293755e-07
2.66179313935126e-07
2.66179337893761e-07
2.66179323105885e-07
2.66179297959331e-07
2.66179258564494e-07
2.66179161882838e-07
2.66178883448581e-07
2.66178090737543e-07
2.66175931416422e-07
2.6617030353919e-07
2.66156228869496e-07
2.66122409588507e-07
2.66044342481774e-07
2.65871395407894e-07
2.65504238685025e-07
2.64758640603325e-07
2.63313175593717e-07
2.60643586475463e-07
2.55956898879811e-07
2.48153080857028e-07
2.35855834840855e-07
2.17556334549077e-07
1.91891645114268e-07
1.580277973248e-07
1.16051507994506e-07
6.72898812873162e-08
1.59293449139306e-08
8.24139628638427e-10
1.94192474202524e-08
4.44989314952868e-07
1.94264212006459e-06
3.37596559663938e-06
4.61995835303232e-06
5.62996661018187e-06
6.39913886179722e-06
6.9493486612595e-06
7.31962073969538e-06
7.55446051835963e-06
7.69510356165217e-06
7.77480056122991e-06
7.81762035244537e-06
7.8394791549642e-06
7.85010255439726e-06
7.85502722057969e-06
7.85720834263182e-06
7.85813234655111e-06
7.85850679527503e-06
7.85865160774316e-06
7.85870460913431e-06
7.85872252934535e-06
7.85872773082619e-06
7.85872865242256e-06
7.85872828181562e-06
7.85872751962259e-06
7.85872626059512e-06
7.8587231238811e-06
7.85871413938773e-06
7.85868875463823e-06
7.8586200727096e-06
7.85844214894114e-06
7.85799972135331e-06
7.85694255053677e-06
7.85451565382447e-06
7.84916858545646e-06
7.83787874989942e-06
7.81507558528536e-06
7.77110200110706e-06
7.69030763494721e-06
7.5491723524019e-06
7.31528009293328e-06
6.94834393061604e-06
6.4045157858777e-06
5.64454554766824e-06
4.64485404430365e-06
3.40870649858964e-06
1.97489639827684e-06
4.57876203621342e-07
2.03004794334398e-08
6.86411838557346e-08
1.99166506509238e-06
9.84068552548073e-06
1.70689004079108e-05
2.33032598226265e-05
2.83486785842563e-05
3.21849506746295e-05
3.49288155178377e-05
3.67774550341647e-05
3.7952477866183e-05
3.86582793014986e-05
3.90596586568111e-05
3.92761778203771e-05
3.93871861570621e-05
3.94413828965888e-05
3.94666262968676e-05
3.94778615946652e-05
3.94826455973271e-05
3.94845947634402e-05
3.94853530974512e-05
3.94856327157199e-05
3.94857283335724e-05
3.94857567550906e-05
3.94857623344536e-05
3.94857608630186e-05
3.94857570811331e-05
3.94857505091225e-05
3.94857339539633e-05
3.948568675588e-05
3.94855541759255e-05
3.94851971948819e-05
3.94842762490643e-05
3.94819949242946e-05
3.94765636983035e-05
3.94641404326241e-05
3.94368668755484e-05
3.93794860556293e-05
3.92639943024628e-05
3.90420371528768e-05
3.86355390204336e-05
3.79275256276625e-05
3.67570945000603e-05
3.49242463579595e-05
3.22103967064934e-05
2.84172927681125e-05
2.34202298097544e-05
1.72225580403587e-05
9.9916630808196e-06
2.04417327066883e-06
7.12828422854481e-08
1.2108357946384e-07
3.53782935777185e-06
1.75378670490494e-05
3.03093638204553e-05
4.12565831385753e-05
5.00745860111177e-05
5.67566412104071e-05
6.1525302369561e-05
6.47341397863032e-05
6.67728126648437e-05
6.79975806458923e-05
6.86945184748781e-05
6.90708323327893e-05
6.92640007834307e-05
6.93584437560896e-05
6.94025029486973e-05
6.94221472849699e-05
6.94305280903478e-05
6.94339501409246e-05
6.94352849205483e-05
6.94357787427178e-05
6.94359485022437e-05
6.94359995055852e-05
6.94360099422364e-05
6.94360077454559e-05
6.94360014144496e-05
6.94359901305382e-05
6.94359616043365e-05
6.94358802662398e-05
6.94356517162115e-05
6.94350359340153e-05
6.94334460701985e-05
6.94295045091646e-05
6.94201134059177e-05
6.9398617325079e-05
6.93513968606047e-05
6.92519984776914e-05
6.90518503965617e-05
6.86670522548655e-05
6.79620624435231e-05
6.67336106580525e-05
6.47015445838924e-05
6.15162826718447e-05
5.6792764530775e-05
5.01757904130126e-05
4.14305982922764e-05
3.05379224757431e-05
1.7760371511444e-05
3.61356518006615e-06
1.24826129948776e-07
1.72416621132617e-07
5.04041688866061e-06
2.49275562201636e-05
4.2935886455669e-05
5.82912386919654e-05
7.06107801770491e-05
7.99195942476594e-05
8.65504680499061e-05
9.10077553992548e-05
9.38385293624375e-05
9.55393831873859e-05
9.65077287585468e-05
9.70310130934435e-05
9.72999037468927e-05
9.74315307135936e-05
9.7493023233345e-05
9.75204836521675e-05
9.7532219703388e-05
9.75370214609619e-05
9.75388989912247e-05
9.75395959243464e-05
9.7539836806353e-05
9.75399099916745e-05
9.75399255606886e-05
9.75399230471668e-05
9.75399146496461e-05
9.75398991623797e-05
9.75398598398904e-05
9.75397477468482e-05
9.75394327678022e-05
9.75385836493524e-05
9.75363895618278e-05
9.75309451373797e-05
9.75179618006609e-05
9.74882184338401e-05
9.74228321070032e-05
9.72851038877281e-05
9.70076153758295e-05
9.6473853239569e-05
9.5495475452914e-05
9.37897626969726e-05
9.09664071989917e-05
8.653680933951e-05
7.99593778241349e-05
7.07277533475403e-05
5.84944154845364e-05
4.3203009129572e-05
2.51864075238016e-05
5.12863358329562e-06
1.7682206808293e-07
2.21327899481113e-07
6.47130574323101e-06
3.19099086222939e-05
5.47944468594211e-05
7.42184546970319e-05
8.97486891756007e-05
0.000101455104724047
0.000109780885870719
0.000115372801682404
0.000118923204677265
0.00012105680313043
0.000122272136850245
0.00012292939490577
0.000123267458393187
0.000123433138242569
0.000123510641681783
0.000123545303583806
0.000123560142369312
0.000123566225484432
0.000123568609809891
0.000123569497869055
0.00012356980656523
0.00012356990149645
0.000123569922482556
0.000123569920086886
0.000123569910075553
0.000123569890843486
0.000123569841761614
0.000123569701978986
0.000123569309411275
0.000123568250928738
0.00012356551423591
0.000123558718268011
0.000123542499126329
0.000123505314783633
0.000123423514035184
0.000123251105164841
0.000122903557755614
0.000122234719341556
0.000121008213253225
0.000118868938251718
0.000115325980314603
0.000109763178370467
0.00010149399246063
8.98694171240319e-05
7.4430428772586e-05
5.50737725676946e-05
3.21806296609691e-05
6.56488543545375e-06
2.26103184373085e-07
2.67067148128498e-07
7.81015983226195e-06
3.84050301139174e-05
6.57663219964629e-05
8.88971222009409e-05
0.000107336303681878
0.000121206918489181
0.000131059230028881
0.000137672035712899
0.000141869900230383
0.000144393117745526
0.000145831111009881
0.000146609357844406
0.000147010023879614
0.000147206599098543
0.000147298670063703
0.00014733990521379
0.000147357586433131
0.00014736484852326
0.000147367701768399
0.000147368768126779
0.000147369140995695
0.000147369257161021
0.000147369283873108
0.000147369281993607
0.000147369270748837
0.000147369248185409
0.000147369190282336
0.000147369025644646
0.00014736856380107
0.000147367318748743
0.000147364098513767
0.000147356096980491
0.000147336987775202
0.000147293148414485
0.000147196647974687
0.000146993145303181
0.000146582721883162
0.000145792552582594
0.000144343001465822
0.000141813713851912
0.000137622911954085
0.000131038816677731
0.00012124257476854
0.000107453020474413
8.91040293739635e-05
6.60396937111601e-05
3.86709181743316e-05
7.90425226108147e-06
2.72004731956513e-07
3.09116130183204e-07
9.04220314634082e-06
4.43540680058496e-05
7.57684025150106e-05
0.000102233069756573
0.00012327649067998
0.00013907884841913
0.000150291473383499
0.000157813457891243
0.00016258806086008
0.000165458638855415
0.000167095415474435
0.000167981871706181
0.00016843864895235
0.00016866298495099
0.000168768182341554
0.000168815359332513
0.000168835619348494
0.00016884395576579
0.000168847238765413
0.000168848469928999
0.000168848903000278
0.000168849039736467
0.000168849072446176
0.000168849071495333
0.000168849059306551
0.000168849033783443
0.000168848967917925
0.000168848781062375
0.000168848257761799
0.000168846847741513
0.000168843200257704
0.000168834132958015
0.000168812466193019
0.000168762730544182
0.000168653191373215
0.000168422079838834
0.000167955778155972
0.000167057702132481
0.000165409661273845
0.000162533102416072
0.00015776510229821
0.000150270356853386
0.000139110890254188
0.000123385157045631
0.000102426687346742
7.60245795921316e-05
4.46045794255195e-05
9.13361524571614e-06
3.14069694245554e-07
3.47138208547248e-07
1.01576416256791e-05
4.97197716071987e-05
8.47529788063545e-05
0.000114177793940501
0.00013752481393481
0.000155031947460565
0.000167443654104486
0.000175766844514742
0.000181049920530063
0.000184227053653458
0.000186039519507577
0.000187021790443752
0.000187528360129836
0.00018777739214156
0.0001878942996177
0.000187946794134934
0.000187969370425024
0.000187978676069147
0.000187982349042639
0.000187983731060852
0.000187984220070346
0.000187984376510823
0.000187984415403512
0.000187984415737835
0.000187984402888351
0.000187984374744408
0.000187984301712553
0.000187984095101123
0.000187983517676059
0.000187981963025567
0.000187977941488959
0.000187967940994977
0.00018794403303249
0.000187889125210261
0.000187768136912107
0.000187512760021314
0.000186997308508327
0.000186004258318192
0.000184181426436771
0.00018099892361909
0.000175722185826132
0.000167424334962092
0.000155061585958355
0.000137624486771321
0.000114354591829358
8.4986407921388e-05
4.99493139576986e-05
1.02444832106186e-05
3.52010556821e-07
3.80962705937126e-07
1.11513903661886e-05
5.44859212478683e-05
9.2705957953489e-05
0.000124725440230152
0.000150085551947597
0.000169079873553386
0.000182536835109852
0.000191558469662959
0.00019728509059347
0.000200729940318518
0.000202696074889349
0.000203762310452642
0.000204312610772518
0.000204583386570296
0.00020471063324353
0.000204767837637242
0.000204792473009739
0.000204802644083177
0.000204806667313772
0.000204808186013133
0.000204808726463978
0.00020480890154449
0.000204808946680793
0.000204808948607403
0.000204808935356819
0.000204808904905197
0.000204808825454676
0.000204808601391046
0.000204807976687037
0.00020480629640211
0.000204801950591154
0.000204791141257704
0.000204765289614126
0.000204705892302582
0.000204574956998299
0.000204298480763177
0.000203740262082942
0.000202664524686851
0.000200689448628287
0.000197240374150054
0.000191520223720416
0.000182522104608825
0.000169109490365725
0.000150177671715843
0.000124885557195257
9.29155440715577e-05
5.46927837655769e-05
1.12328079647166e-05
3.85697084710492e-07
4.10570773929632e-07
1.20227149019749e-05
5.86556482671474e-05
9.96435533134151e-05
0.000133908087304165
0.00016100595467887
0.000181282466314706
0.000195640258950633
0.000205264009691801
0.000211373320521589
0.000215049448737669
0.000217148553629017
0.0002182875860722
0.000218875885625754
0.00021916560310266
0.000219301881955253
0.000219363213875723
0.000219389660334747
0.000219400595988106
0.000219404930483661
0.000219406571713819
0.00021940715895907
0.000219407351449528
0.000219407402765594
0.000219407406519129
0.000219407393088163
0.00021940736062101
0.000219407275461549
0.000219407036101507
0.000219406370470617
0.000219404582130636
0.000219399958121398
0.000219388455223111
0.000219360936226613
0.000219297684780793
0.000219158203148328
0.00021886358486004
0.000218268569727255
0.000217121653387666
0.000215015473562222
0.000211336780424481
0.00020523459579478
0.00019563297405824
0.000181315167993528
0.000161093611528293
0.0001340543018115
9.98314664493836e-05
5.88410089396468e-05
1.20986548827578e-05
4.151430094557e-07
4.36076163074688e-07
1.27747030780393e-05
6.22488618304861e-05
0.000105607775251541
0.000141789709127853
0.00017036912288159
0.000191737913020987
0.000206863066454656
0.000216999991380802
0.000223435787558652
0.00022730950026086
0.000229522398553381
0.000230723854368894
0.000231344812660143
0.000231650851228432
0.000231794934732944
0.000231859844572091
0.000231887866711143
0.000231899470523079
0.000231904078631716
0.000231905828510001
0.000231906457845929
0.000231906666384327
0.000231906723702523
0.000231906729443221
0.000231906716001761
0.000231906681793427
0.000231906591602578
0.00023190633895849
0.000231905638249542
0.000231903757954218
0.000231898897893122
0.000231886806942218
0.000231857873877455
0.000231791351627627
0.000231644611728107
0.000231334574854561
0.000230708268685618
0.000229500795539491
0.000227283040583277
0.000223408888819131
0.000216981451590368
0.000206865933234813
0.000191777103960432
0.000170456358299501
0.000141926469943533
0.000105778341542382
6.24158720839796e-05
1.28456892129966e-05
4.4048697154415e-07
4.57701130330517e-07
1.34135901663309e-05
6.52990652077294e-05
0.000110661140198455
0.000148459296663674
0.000178286021500415
0.000200574028719278
0.000216345110547527
0.000226914318840879
0.00023362545262843
0.000237666045144956
0.000239975226194437
0.000241229609045923
0.000241878322268733
0.000242198267135242
0.000242349019592726
0.000242416996493
0.000242446374300645
0.000242458555535817
0.000242463401489547
0.000242465246627971
0.000242465913384727
0.000242466136503244
0.000242466199564173
0.000242466207408719
0.000242466194049287
0.000242466158356623
0.000242466063781046
0.000242465799721157
0.000242465069269791
0.000242463111595031
0.000242458053548342
0.000242445469839825
0.000242415351687778
0.000242346086690143
0.000242193256111976
0.000241870272430113
0.000241217677030559
0.000239959305500876
0.000237647743531664
0.000233609229334888
0.000226908253335939
0.000216360497858174
0.000200623036285107
0.000178377211370851
0.000148591866134021
0.000110819862638606
6.54520348340604e-05
1.34805181642508e-05
4.61968708511554e-07
4.75749463999574e-07
1.39479962673509e-05
6.78498623470387e-05
0.000114881035414339
0.000154023651592185
0.000184887182975432
0.000207939233461352
0.000224247466049281
0.000235176491658924
0.000242117102366534
0.000246297002015134
0.000248686708844254
0.000249985451717291
0.000250657482762828
0.000250989141482761
0.000251145527757783
0.000251216104021421
0.000251246635014746
0.000251259309617703
0.000251264359980896
0.000251266287684732
0.000251266987315183
0.000251267223503137
0.000251267291920401
0.000251267301826967
0.000251267288730441
0.000251267251797408
0.000251267153451153
0.000251266879696067
0.000251266124317942
0.000251264102298507
0.000251258880192629
0.000251245888607599
0.000251214789450274
0.000251143252836554
0.000250985374486727
0.000250651654131988
0.000249977245766586
0.000248676625305026
0.000246287176073408
0.000242112170518327
0.000235184019709921
0.000224277265630467
0.000208001009682361
0.000184986534906704
0.000154157399646601
0.000115033780092358
6.79935709491484e-05
1.40119531841303e-05
4.79902712338901e-07
4.90578946818442e-07
1.4388142509934e-05
6.99514406734679e-05
0.000118354151162019
0.000158600338209897
0.000190314634002651
0.000213993792315595
0.000230743223175072
0.000241968116791024
0.000249097689234689
0.000253392497014698
0.000255848756724359
0.000257184243277319
0.000257875635820907
0.000258217046988808
0.000258378137536667
0.000258450891367562
0.000258482392012988
0.000258495483314552
0.000258500707326093
0.000258502705758362
0.000258503433920752
0.000258503681686885
0.000258503754997038
0.000258503766910949
0.000258503754174878
0.000258503716228914
0.000258503614689901
0.000258503332808526
0.000258502556799996
0.000258500481942679
0.000258495125603038
0.000258481800681824
0.000258449899790018
0.000258376505753492
0.000258214497368098
0.000257871986936796
0.000257179711017013
0.000255844469530896
0.000253391177842645
0.00024910427516264
0.000241989868703688
0.000230788765356408
0.000214070706171637
0.000190425817693285
0.000158740208880087
0.000118506520911457
7.00905954948926e-05
1.44502586530506e-05
4.94651684205736e-07
5.02575344943615e-07
1.47451058033132e-05
7.16572720525484e-05
0.000121171325159567
0.000162311201689673
0.000194714496033755
0.000218901797914041
0.000236009065145259
0.000247474228580791
0.000254757493081593
0.000259145931480599
0.000261656532257011
0.000263022089074713
0.000263729366495214
0.000264078800875313
0.000264243773165257
0.000264318329768026
0.000264350636186735
0.000264364075313775
0.000264369445112787
0.000264371503416755
0.000264372256040954
0.00026437251394403
0.000264372591668867
0.000264372605467582
0.000264372593149628
0.000264372554401971
0.000264372450207447
0.000264372161613932
0.000264371368761305
0.000264369251090956
0.000264363786377105
0.000264350192652146
0.000264317645228191
0.000264242752569218
0.000264077409762939
0.000263727798067099
0.00026302107960829
0.000261657841832775
0.000259152908791318
0.000254775477558722
0.000247510369538882
0.000236071092326313
0.00021899552177209
0.000194840411365263
0.000162461357424886
0.000121328226624619
7.17961205131451e-05
1.48064438045732e-05
5.06601766850023e-07
5.12129524252276e-07
1.50301584314463e-05
7.30212141550589e-05
0.000123423055744189
0.000165276755538702
0.000198230594076844
0.000222824252844267
0.000240218003416126
0.000251875801509953
0.000259282495969959
0.000263746274403281
0.000266300695293927
0.000267690558189852
0.000268410708840223
0.000268766663626818
0.000268934800254878
0.000269010831406626
0.000269043799404535
0.00026905752540364
0.000269063016139224
0.000269065124515909
0.00026906589785343
0.000269066164514793
0.000269066246152071
0.000269066261685915
0.00026906624983415
0.000269066210478779
0.000269066104121294
0.000269065810074285
0.000269065003672391
0.000269062851808616
0.000269057300837761
0.000269043493400251
0.000269010431904013
0.000268934346963308
0.000268766349425967
0.000268411080052269
0.000267692848140895
0.000266307281468389
0.000263761146897771
0.000259311471960825
0.000251926084414686
0.000240296697219943
0.00022293573725923
0.000198373269007997
0.00016544038945757
0.000123588450210886
7.3163306538959e-05
1.50916403600129e-05
5.16141007541441e-07
5.19618693674792e-07
1.52542220127005e-05
7.40951252456604e-05
0.000125195838761406
0.000167611619385603
0.000200999273329676
0.000225913465138928
0.000243533493902352
0.000255343686179251
0.00026284820551137
0.000267371817895638
0.000269961119302772
0.000271370377822037
0.000272100828713793
0.000272462015894676
0.00027263269982144
0.000272709922099013
0.000272743426593568
0.000272757386294708
0.000272762976128035
0.00027276512587088
0.000272765916530493
0.000272766190656588
0.000272766275710155
0.000272766292826212
0.000272766281468483
0.000272766241679246
0.000272766133603021
0.000272765835208311
0.000272765018089283
0.000272762839351188
0.000272757220797034
0.000272743246058146
0.000272709782016211
0.000272632762756987
0.00027246268305648
0.000272102972563678
0.000271375696437928
0.000269972579489616
0.000267394046673523
0.000262887545908281
0.000255407527655186
0.00024362854704825
0.000226042988925472
0.000201159873716854
0.000167790913499986
0.000125372654178187
7.42432115294179e-05
1.53165917962918e-05
5.23641904029698e-07
5.25392184604254e-07
1.54274487648212e-05
7.49270389888891e-05
0.000126569386245132
0.000169421071209828
0.000203145492500874
0.000228308830006115
0.000246105011030897
0.000258034048272295
0.000265615008570191
0.000270185478949842
0.000272802162682741
0.000274226687489702
0.000274965268755614
0.000275330598714827
0.000275503306146519
0.000275581478033651
0.000275615411967953
0.000275629559621299
0.000275635229629939
0.000275637413118553
0.000275638218084776
0.000275638498493768
0.000275638586497305
0.000275638605036277
0.000275638594181076
0.000275638554110354
0.000275638444709547
0.000275638142926094
0.000275637317496959
0.000275635118030262
0.000275629447479861
0.000275615344080685
0.000275581570264019
0.000275503831227982
0.000275332145599886
0.000274969006020781
0.00027423474002501
0.000272818048597394
0.000270214441302654
0.000265663939290852
0.00025811062013958
0.000246215731772095
0.000228456107578178
0.000203324419203045
0.000169617270279869
0.000126759558618261
7.50830753622594e-05
1.54912644153826e-05
5.29448324756057e-07
5.29761652005765e-07
1.55589281105383e-05
7.55598858336677e-05
0.00012761469717225
0.00017079867158682
0.000204780143057875
0.000230133942181787
0.000248065021452704
0.000260085251132805
0.000267724995495856
0.000272331587520644
0.0002749694352725
0.000276405793174553
0.000277150695739279
0.000277519257284606
0.000277693548749634
0.000277772466869123
0.000277806739717688
0.000277821036446036
0.00027782677044711
0.000277828981104894
0.000277829797739243
0.000277830083375011
0.000277830173899289
0.000277830193702354
0.00027783018334676
0.000277830143126512
0.00027783003274537
0.000277829728395422
0.000277828896683046
0.000277826681604101
0.000277820971955929
0.000277806771779363
0.000277772764630393
0.000277694482488608
0.000277521582981877
0.000277155847274639
0.000276416281905919
0.00027498928685205
0.000272366628500715
0.000267782669150195
0.000260173579063129
0.000248190457189394
0.000230298268054703
0.000204977188617556
0.000171012238319927
0.000127819304973053
7.57251218569029e-05
1.56245765915507e-05
5.33866612102718e-07
5.32995189874736e-07
1.56565053214059e-05
7.60307018017526e-05
0.000128392883353948
0.000171824835282925
0.000205998450671171
0.000231494882685551
0.000249527193362585
0.000261616013203567
0.000269300083442071
0.000273933988035624
0.000276587886404336
0.000278033247403941
0.000278782976133613
0.000279154014069683
0.00027932952421876
0.000279409018927734
0.00027944355489539
0.000279457968002769
0.000279463752309553
0.000279465984530712
0.000279466810557476
0.000279467100491589
0.000279467193147954
0.000279467214065871
0.000279467204201891
0.000279467163944361
0.000279467052878955
0.000279466746660652
0.000279465910362201
0.000279463683913073
0.000279457945799255
0.000279443675039444
0.000279409497240484
0.000279330816681546
0.000279157024080448
0.000278789373279495
0.000278045889763136
0.000276611261799081
0.000273974467475948
0.000269365649115895
0.000261715074629909
0.00024966626034572
0.000231675293243354
0.000206212987939803
0.000172055652481003
0.000128612338121075
7.6205818227023e-05
1.57242323410752e-05
5.37160328105172e-07
5.35314594871544e-07
1.57266912341225e-05
7.63702336972967e-05
0.000128954606436702
0.000172566167507244
0.000206879249075903
0.00023247945190536
0.00025058560145076
0.000262724592923371
0.000270441186936445
0.000275095199980082
0.000277760958792101
0.000279212998868942
0.000279966323136688
0.000280339214355092
0.000280515640951803
0.000280595571514747
0.000280630307524085
0.000280644809701516
0.000280650632831102
0.00028065288188401
0.000280653715365234
0.000280654008794876
0.000280654103240825
0.000280654125139298
0.000280654115755158
0.000280654075553512
0.000280653964054719
0.000280653656557893
0.00028065281709522
0.000280650582804425
0.0002806448250228
0.000280630505276519
0.000280596208368545
0.000280517248110085
0.000280342825148487
0.000279973816173384
0.000279227542427487
0.000277787459683976
0.000275140533220032
0.000270513852490606
0.000262833407475566
0.000250737209138694
0.00023267488670687
0.000207110426874612
0.000172813755908756
0.000129188865862336
7.65555030674299e-05
1.57966385940951e-05
5.39547878387052e-07
5.36894897068912e-07
1.57746384884564e-05
7.66028345828186e-05
0.000129339959360524
0.000173075353868404
0.000207484883976429
0.000233157085059483
0.000251314649257719
0.000263488713781154
0.000271228142884229
0.000275896341550799
0.000278570510482951
0.000280027312878583
0.000280783216023503
0.000281157444861493
0.000281334537329611
0.000281414786839852
0.00028144967038332
0.000281464238844825
0.00028147009118957
0.000281472353101488
0.000281473192401798
0.000281473488643691
0.000281473584584779
0.000281473607345114
0.000281473598424947
0.000281473558353898
0.00028147344663179
0.000281473138355008
0.000281472296931037
0.000281470057775667
0.000281464287721651
0.000281449937072802
0.000281415564057997
0.000281336422823157
0.000281161587333516
0.00028079168068227
0.00028004354708198
0.000278599802298086
0.000275946032678464
0.000271307227105739
0.000263606421003758
0.000251477810117019
0.000233366533117038
0.000207731809050081
0.000173339079420146
0.000129588734290502
7.67982807541018e-05
1.58468825585963e-05
5.41202160220584e-07
5.37865274213213e-07
1.58041593564075e-05
7.67465410933269e-05
0.000129578622345165
0.000173391388855178
0.000207861499412877
0.000233579179966499
0.000251769423825231
0.000263965934768385
0.000271720089314123
0.000276397512227537
0.0002790771987753
0.000280537155528057
0.000281294784164744
0.000281669917536219
0.000281847465317559
0.000281927935491594
0.000281962922407024
0.000281977537981789
0.000281983411457726
0.000281985682886637
0.000281986526631021
0.000281986825110645
0.000281986922298511
0.000281986945817502
0.000281986937342699
0.000281986897460381
0.000281986785689591
0.00028198647705881
0.00028198563471495
0.000281983393281939
0.000281977617372336
0.000281963251454064
0.000281928839340169
0.000281849601701134
0.00028167453947528
0.000281304126321536
0.000280554920274416
0.000279109025703818
0.000276451179237395
0.000271805062267052
0.00026409185550575
0.000251943341875611
0.00023380180005794
0.000208123388793845
0.000173670639057192
0.000129841555343685
7.69520787547307e-05
1.58787454560245e-05
5.42251389852418e-07
5.38310558227971e-07
1.58177627037929e-05
7.68132342388924e-05
0.00012969013900896
0.000173539943965512
0.000208039474772585
0.000233779583624301
0.000251986215460825
0.000264194190705455
0.000271956017478644
0.000276638351316463
0.000279321041931425
0.00028078275691885
0.000281541370944042
0.000281917033816713
0.000282094854941206
0.00028217546107813
0.000282210513470137
0.000282225159827009
0.000282231047637514
0.000282233325842233
0.000282234172952855
0.000282234473252459
0.000282234571523087
0.000282234595735304
0.000282234587689258
0.000282234548023006
0.000282234436312951
0.00028223412764519
0.00028223328524184
0.000282231043787274
0.000282225267751619
0.000282210900631092
0.000282176482727413
0.000282097224573504
0.000281922101610003
0.000281551529834872
0.000280801948446323
0.000279355237324687
0.000276695743721937
0.000272046529285869
0.000264327871422182
0.000252170351146729
0.00023401479360113
0.000208315769791492
0.000173834259825701
0.000129966937998733
7.70287744045823e-05
1.58947313851549e-05
5.42780361833061e-07
5.38272586749061e-07
1.58166881629298e-05
7.68087939785261e-05
0.000129684182778839
0.000173533726628279
0.000208033851408779
0.000233775062763713
0.000251983014524971
0.000264192303510251
0.000271955290167962
0.000276638556342904
0.000279321938162456
0.000280784130171018
0.000281543052407065
0.00028191890281304
0.000282096832022984
0.000282177497576768
0.000282212581414965
0.000282227244020259
0.000282233140203267
0.000282235422838849
0.000282236272435088
0.000282236574240134
0.000282236673483251
0.000282236698346476
0.000282236690712103
0.000282236651267837
0.000282236539687056
0.000282236231238644
0.000282235389551854
0.000282233150206913
0.000282227379552425
0.00028221302480722
0.000282178633206193
0.000282099427339988
0.000281924402055311
0.000281554001871546
0.000280804703449465
0.000279358428885528
0.000276699562263064
0.000272051180134781
0.000264333532345854
0.000252177110790601
0.000234022578696308
0.000208324272486644
0.000173842873687129
0.000129974702417698
7.70343148755425e-05
1.58960941380404e-05
5.42831550347372e-07
5.37751267126843e-07
1.58009352100686e-05
7.67332204061191e-05
0.000129560737347406
0.000173372701627672
0.000207844582945461
0.000233565573109684
0.000251759792582578
0.00026396027033068
0.00027171793404192
0.000276398181981821
0.000279079966178414
0.000280541371806688
0.000281299937314235
0.000281675641060339
0.00028185351769468
0.000281934168662617
0.000281969251238341
0.000281983916204037
0.000281989815092923
0.000281992099939038
0.00028199295118639
0.000281993254194329
0.000281993354299113
0.000281993379766901
0.000281993372522944
0.000281993333305638
0.000281993221929134
0.000281992913979457
0.000281992073844537
0.000281989838879071
0.000281984079421002
0.000281969751281283
0.000281935419390947
0.000281856341127181
0.000281681576456896
0.00028131168568584
0.000280563340437348
0.000279118772649651
0.000276462829408956
0.000271819235009919
0.000264109083277523
0.000251963883264242
0.000233825420329182
0.000208149143143972
0.000173696684632049
0.000129864990028197
7.69687696052089e-05
1.58828460428892e-05
5.42405346860491e-07
5.36705036050589e-07
1.57692747742599e-05
7.65806663467446e-05
0.000129310127625112
0.000173044114240223
0.000207456550321477
0.000233134268216579
0.00025129850640369
0.000263479263867474
0.000271224637365648
0.00027589763688356
0.000278575379773761
0.000280034655777478
0.000280792160979071
0.000281167366346129
0.00028134502230736
0.000281425581743163
0.000281460629262701
0.000281475282326147
0.00028148117812806
0.000281483462916995
0.000281484314956523
0.000281484618847841
0.00028148471969082
0.000281484745708832
0.000281484738832102
0.000281484699853582
0.000281484588779553
0.000281484281664427
0.000281483444048712
0.000281481216041245
0.000281475474312468
0.000281461188647498
0.000281426953518644
0.00028134808600115
0.000281173761092712
0.000280804749826138
0.000280058089603063
0.000278616611685538
0.000275966086171584
0.000271331567176627
0.000263635931149121
0.000251512895804332
0.000233406752902699
0.000207775518225993
0.000173383131077778
0.000129628231459432
7.68263151033155e-05
1.58537574690421e-05
5.41460317799e-07
5.35049995127703e-07
1.57192270411342e-05
7.63393586095317e-05
0.000128912900010971