/*--------------------------------*- C++ -*----------------------------------*\
  =========                 |
  \\      /  F ield         | OpenFOAM: The Open Source CFD Toolbox
   \\    /   O peration     | Website:  https://openfoam.org
    \\  /    A nd           | Version:  10
     \\/     M anipulation  |
\*---------------------------------------------------------------------------*/
FoamFile
{
    format      ascii;
    class       volScalarField;
    location    "7.4";
    object      nut;
}
// * * * * * * * * * * * * * * * * * * * * * * * * * * * * * * * * * * * * * //

dimensions      [0 2 -1 0 0 0 0];

internalField   nonuniform List<scalar> 
2500
(
6.15214204771193e-15
1.20936288377706e-13
5.17254156082235e-13
8.9833668995243e-13
1.22862981379493e-12
1.49615404644105e-12
1.69925912712067e-12
1.84401099770122e-12
1.94101450291574e-12
2.00225137850613e-12
2.03874111989656e-12
2.05930815630464e-12
2.07029682617738e-12
2.07587402390617e-12
2.07856853891791e-12
2.07981013095117e-12
2.08035668365912e-12
2.08058678964898e-12
2.0806794435123e-12
2.08071502755964e-12
2.08072794302447e-12
2.08073225579103e-12
2.08073347474918e-12
2.08073366339854e-12
2.08073354923374e-12
2.08073335379285e-12
2.08073304616867e-12
2.08073229039589e-12
2.08073011339665e-12
2.08072391576637e-12
2.0807070346796e-12
2.08066303836938e-12
2.08055301257694e-12
2.08028864064224e-12
2.07967837825592e-12
2.07832642774864e-12
2.07545631558639e-12
2.06962787626564e-12
2.0583284654856e-12
2.03745986752845e-12
2.00082322121487e-12
1.93981929254015e-12
1.84368916711858e-12
1.70063790711067e-12
1.50001114782686e-12
1.23529011347123e-12
9.07154633580759e-13
5.25983971367169e-13
1.24511800672545e-13
6.44238746041256e-15
6.09026988118611e-13
3.14029620572386e-11
1.37106496909532e-10
2.382847548793e-10
3.26105204975414e-10
3.97409834330778e-10
4.51712506996756e-10
4.90556665237132e-10
5.16697276015559e-10
5.3327644425063e-10
5.43205442210774e-10
5.48831774368722e-10
5.51854679604065e-10
5.53397813180021e-10
5.54147773726385e-10
5.54495430196057e-10
5.54649405930644e-10
5.54714636025647e-10
5.54741070750064e-10
5.54751294331708e-10
5.54755036524129e-10
5.54756302138413e-10
5.54756669799793e-10
5.54756735185567e-10
5.54756709315957e-10
5.54756655746679e-10
5.54756566984469e-10
5.54756345607203e-10
5.54755711356236e-10
5.5475391927383e-10
5.54749070583231e-10
5.54736509918308e-10
5.54705276721995e-10
5.54630646025898e-10
5.54459319985043e-10
5.54081844312527e-10
5.53284836182857e-10
5.51675033350357e-10
5.48570670782299e-10
5.42866861276288e-10
5.32903100921458e-10
5.16390806527875e-10
4.90485680112484e-10
4.52092022761735e-10
3.98438942399e-10
3.27862544411561e-10
2.4059572500089e-10
1.39382864052033e-10
3.23123530383553e-11
6.36665066054535e-13
2.15882514312638e-12
5.63837264667059e-10
1.93492661239686e-07
3.35653279706052e-07
4.58280834781708e-07
5.57527018215869e-07
6.32989717446126e-07
6.86963788865085e-07
7.23327731994552e-07
7.46440923696524e-07
7.60324159821603e-07
7.68219266077325e-07
7.72478137743185e-07
7.7466162027362e-07
7.7572763661856e-07
7.7622415561077e-07
7.76445144456529e-07
7.76539241657768e-07
7.76577580356304e-07
7.76592496521209e-07
7.76597996835933e-07
7.76599878054163e-07
7.76600437537194e-07
7.7660054761892e-07
7.76600518965657e-07
7.76600444818197e-07
7.76600315699541e-07
7.76599990181396e-07
7.76599061934961e-07
7.76596454276658e-07
7.76589432831054e-07
7.76571318687649e-07
7.76526447072632e-07
7.76419619681686e-07
7.76175264515979e-07
7.75638813823439e-07
7.74510167730504e-07
7.72238495898702e-07
7.67872654431175e-07
7.59876850854698e-07
7.45950085465356e-07
7.22927182444254e-07
6.86873818868263e-07
6.33490101477479e-07
5.58876439913031e-07
4.60581217439214e-07
3.38674883078269e-07
1.96461064802296e-07
5.78700707644101e-10
2.24190657508856e-12
3.81804003475662e-12
1.00418135271459e-09
3.45747097806209e-07
5.97594107789768e-07
8.13490626662343e-07
9.87402901794224e-07
1.11919045044605e-06
1.21324046033254e-06
1.27652614024325e-06
1.31673295585301e-06
1.34088758161961e-06
1.35463228227478e-06
1.36205369878069e-06
1.36586320594425e-06
1.36772571708586e-06
1.36859460345769e-06
1.36898200508452e-06
1.36914728056992e-06
1.36921476594843e-06
1.36924108900895e-06
1.36925082793907e-06
1.36925417623003e-06
1.3692551825646e-06
1.36925538877889e-06
1.36925534577702e-06
1.36925522119678e-06
1.36925499886427e-06
1.36925443648545e-06
1.36925283264463e-06
1.36924832572756e-06
1.36923618237477e-06
1.3692048294473e-06
1.36912709919938e-06
1.3689418998611e-06
1.36851798040654e-06
1.36758675101195e-06
1.36562651339509e-06
1.36167935696088e-06
1.3540906117133e-06
1.3401870987042e-06
1.31595979405561e-06
1.27588323068339e-06
1.21306244040088e-06
1.1199026514975e-06
9.8939847694381e-07
8.1692181890666e-07
6.02100265457656e-07
3.50133030927056e-07
1.02567399742872e-09
3.93603556440255e-12
5.44825692631724e-12
1.43372316766164e-09
4.92468625332409e-07
8.48322257266752e-07
1.15177840330549e-06
1.39524757239489e-06
1.57921700789456e-06
1.71026165216193e-06
1.79834921383975e-06
1.85429200896963e-06
1.88790453685174e-06
1.90704093698895e-06
1.9173819682987e-06
1.92269568788993e-06
1.92529683615875e-06
1.9265120151432e-06
1.92705466927811e-06
1.92728658832457e-06
1.92738147691226e-06
1.92741857925787e-06
1.92743235171234e-06
1.92743711218958e-06
1.92743855882929e-06
1.92743886681722e-06
1.92743881739591e-06
1.92743865166914e-06
1.92743834580211e-06
1.92743756894052e-06
1.92743535410349e-06
1.92742913005904e-06
1.92741235095849e-06
1.92736899367194e-06
1.92726140523673e-06
1.92700483803154e-06
1.92641706994884e-06
1.9251249442685e-06
1.92240322616305e-06
1.91691959773709e-06
1.90637150208645e-06
1.88703683498745e-06
1.85332826087613e-06
1.79753202807174e-06
1.7099916086965e-06
1.58000301357927e-06
1.39755885282696e-06
1.15579285982343e-06
8.53599560762762e-07
4.97581465762018e-07
1.45880857684878e-09
5.58742688579306e-12
7.00498078788227e-12
1.84362415396974e-09
6.31383658933862e-07
1.08426697570338e-06
1.46869085941019e-06
1.77605829534491e-06
2.00774650975152e-06
2.17252561505602e-06
2.28319666020669e-06
2.3534629826881e-06
2.39568886690092e-06
2.4197412733712e-06
2.43274884636804e-06
2.43943931290308e-06
2.44271819618498e-06
2.44425202055654e-06
2.44493799129013e-06
2.44523165498116e-06
2.44535204123384e-06
2.44539922750908e-06
2.44541680242036e-06
2.44542291174871e-06
2.44542479071183e-06
2.445425206241e-06
2.44542515897659e-06
2.44542496098712e-06
2.44542458051528e-06
2.44542360935108e-06
2.44542084327403e-06
2.44541307459901e-06
2.44539212752364e-06
2.44533796837557e-06
2.44520347454162e-06
2.44488249289703e-06
2.44414660242385e-06
2.44252773329861e-06
2.43911568052543e-06
2.43223752275133e-06
2.41900076631104e-06
2.39472724561708e-06
2.35238900406598e-06
2.28226999770622e-06
2.17217509755057e-06
2.008515995935e-06
1.77844733729732e-06
1.47288538142154e-06
1.08979361584164e-06
6.36738984002074e-07
1.87027471427341e-09
7.15605641207783e-12
8.46192638338121e-12
2.22742248878894e-09
7.60683524580476e-07
1.30269143406528e-06
1.76091488648706e-06
2.12620075448817e-06
2.40098148886225e-06
2.59615745422754e-06
2.72715743768297e-06
2.81031683004918e-06
2.86030132223078e-06
2.88878758523464e-06
2.90420438868729e-06
2.91214142044598e-06
2.91603548540335e-06
2.91785936473317e-06
2.91867621043194e-06
2.91902646492123e-06
2.9191703223139e-06
2.91922684315181e-06
2.91924796693015e-06
2.91925535323128e-06
2.91925765450485e-06
2.91925818375833e-06
2.91925814658433e-06
2.91925792389852e-06
2.91925747701767e-06
2.91925633013019e-06
2.91925306897273e-06
2.91924392043093e-06
2.91921925716961e-06
2.91915546695049e-06
2.91899696161395e-06
2.9186184192657e-06
2.91774998581796e-06
2.91583836161952e-06
2.91180706839671e-06
2.90367674876028e-06
2.88802376732249e-06
2.85930854692114e-06
2.80920380291032e-06
2.72618430603168e-06
2.59575304552305e-06
2.40168776751282e-06
2.12851273018126e-06
1.76501323031307e-06
1.30810573111593e-06
7.65948656870936e-07
2.25424726376391e-09
8.61830028460162e-12
9.80114113787162e-12
2.58052066286937e-09
8.7907811182251e-07
1.50174492873527e-06
2.02631643827298e-06
2.44343241316087e-06
2.75666109429087e-06
2.97891286423872e-06
3.12800975920323e-06
3.22264912742323e-06
3.27954785476932e-06
3.31199088930516e-06
3.32956156258429e-06
3.33861544352367e-06
3.3430620492273e-06
3.34514718350624e-06
3.34608228493927e-06
3.34648386084949e-06
3.34664909757748e-06
3.3467141699891e-06
3.3467385728479e-06
3.34674715673156e-06
3.3467498670035e-06
3.34675051537922e-06
3.34675049652979e-06
3.34675025495286e-06
3.34674974910446e-06
3.34674844367095e-06
3.34674474014775e-06
3.34673436798736e-06
3.3467064201953e-06
3.34663412360007e-06
3.34645439996546e-06
3.34602494053254e-06
3.34503912379048e-06
3.34286793102935e-06
3.3382870274156e-06
3.32904436256125e-06
3.31124337310107e-06
3.27857706937543e-06
3.22155979402622e-06
3.12705129938326e-06
2.97849430997242e-06
2.75729619206032e-06
2.44558625740031e-06
2.03015393559652e-06
1.5068219214841e-06
8.84042066515247e-07
2.60659961681763e-09
9.95813462711549e-12
1.10113511647031e-11
2.89998815788302e-09
9.85789472344891e-07
1.68042170811688e-06
2.26385937674995e-06
2.72678702320568e-06
3.07392009487787e-06
3.32001994934763e-06
3.48505212845947e-06
3.58980471573501e-06
3.65280065553656e-06
3.68873803156915e-06
3.70821437031962e-06
3.71825855770289e-06
3.72319632288488e-06
3.72551434311994e-06
3.72655519411711e-06
3.72700283199219e-06
3.72718734209077e-06
3.72726016879894e-06
3.72728757103283e-06
3.72729726693543e-06
3.7273003687822e-06
3.72730113993234e-06
3.72730114654379e-06
3.72730089176824e-06
3.72730033375975e-06
3.72729888575625e-06
3.72729478921529e-06
3.72728334031618e-06
3.72725251528779e-06
3.72717277749383e-06
3.72697449003526e-06
3.72650044793149e-06
3.72541174651432e-06
3.72301281290502e-06
3.71794924340153e-06
3.70772895001761e-06
3.68803888385005e-06
3.65189597404589e-06
3.58879356671912e-06
3.48416665405175e-06
3.31963690486725e-06
3.07450777547613e-06
2.72876331625681e-06
2.26736478499468e-06
1.68504965018285e-06
9.90339808486921e-07
2.92477447148682e-09
1.11658464923427e-11
1.208714276159e-11
3.18438865724388e-09
1.08050528600121e-06
1.83846256413392e-06
2.47345834181202e-06
2.97638890761425e-06
3.35307549709978e-06
3.61994733253657e-06
3.79885970841915e-06
3.9124269586109e-06
3.98074329523995e-06
4.01973455061292e-06
4.04087951177051e-06
4.05179274124372e-06
4.0571626040599e-06
4.05968608264171e-06
4.0608205249225e-06
4.06130907820622e-06
4.06151078440742e-06
4.06159057044795e-06
4.06162068825203e-06
4.06163140607707e-06
4.06163487813565e-06
4.06163577323225e-06
4.06163581142156e-06
4.06163554863949e-06
4.0616349447521e-06
4.06163336917249e-06
4.06162892574784e-06
4.06161653711045e-06
4.0615832149057e-06
4.0614970317263e-06
4.06128266793114e-06
4.06076999425619e-06
4.05959206343831e-06
4.05699543440779e-06
4.05151252446694e-06
4.04044226371278e-06
4.01910886919437e-06
3.97994029326866e-06
3.91154017581136e-06
3.79810124707125e-06
3.61965521913189e-06
3.35366285896695e-06
2.97821578938466e-06
2.47663364872834e-06
1.84261870661106e-06
1.08460705407769e-06
3.20763355933835e-09
1.22373124791007e-11
1.3028184034787e-11
3.43358875499761e-09
1.16331507008306e-06
1.9762372403451e-06
2.65581549296938e-06
3.19325531842024e-06
3.59540494578805e-06
3.88016676416484e-06
4.07103697299665e-06
4.19220436690852e-06
4.26511384839848e-06
4.30674585592502e-06
4.32933652999887e-06
4.34100439830173e-06
4.34675042463585e-06
4.34945327068319e-06
4.35066967883249e-06
4.35119419655899e-06
4.35141108538711e-06
4.35149705218801e-06
4.3515296029651e-06
4.35154124987452e-06
4.35154506755154e-06
4.35154608529592e-06
4.35154615972697e-06
4.35154589334235e-06
4.35154524941915e-06
4.35154356045405e-06
4.351538813217e-06
4.35152561168952e-06
4.35149014328431e-06
4.35139843453556e-06
4.35117029541532e-06
4.35062450580815e-06
4.34937002735365e-06
4.3466036600386e-06
4.3407604351679e-06
4.32895937587151e-06
4.30621233957419e-06
4.26444001442049e-06
4.1914796636307e-06
4.07045360705966e-06
3.88002229097349e-06
3.59605354112915e-06
3.19499385641551e-06
2.6587153944549e-06
1.97996404465178e-06
1.16699102752565e-06
3.45527365638957e-09
1.31732417385384e-11
1.38383948037785e-11
3.64855183041215e-09
1.23464124438176e-06
2.09462565015179e-06
2.81226227878884e-06
3.37910965956034e-06
3.80294053769225e-06
4.10293433242997e-06
4.30399104063124e-06
4.43163918559837e-06
4.50847072752281e-06
4.55236153081556e-06
4.57619129955717e-06
4.58850743373885e-06
4.59457742556969e-06
4.59743518833448e-06
4.59872261471387e-06
4.59927840774038e-06
4.59950855848892e-06
4.59959995598475e-06
4.59963466315724e-06
4.59964714542553e-06
4.59965128157482e-06
4.59965241841598e-06
4.59965253226876e-06
4.5996522656657e-06
4.59965158717701e-06
4.59964979833576e-06
4.59964478739526e-06
4.59963088951743e-06
4.59959359565681e-06
4.59949720093097e-06
4.59925738822629e-06
4.59868352781633e-06
4.59736412077361e-06
4.59445367092158e-06
4.58830437652046e-06
4.57588217234798e-06
4.55193305575838e-06
4.50794592552564e-06
4.43110567592785e-06
4.30362332421064e-06
4.10299119814514e-06
3.8037178647889e-06
3.38083991095773e-06
2.81497481391025e-06
2.09800862731303e-06
1.23795356283996e-06
3.66882432162693e-09
1.39783499624529e-11
1.45250802085492e-11
3.83112197626308e-09
1.29516902017784e-06
2.19490215884372e-06
2.94460938733247e-06
3.53620730247758e-06
3.97827850037265e-06
4.29108976248584e-06
4.50072451757598e-06
4.6338363541362e-06
4.71397939135572e-06
4.75978078560667e-06
4.78466080990732e-06
4.7975276950589e-06
4.80387363277172e-06
4.80686372816621e-06
4.80821201403451e-06
4.80879470727315e-06
4.80903631558836e-06
4.80913243248834e-06
4.80916902981282e-06
4.80918225456651e-06
4.8091866799949e-06
4.80918793076797e-06
4.80918808635554e-06
4.8091878213758e-06
4.80918711343157e-06
4.80918523758043e-06
4.80918000010247e-06
4.80916551200288e-06
4.80912668258465e-06
4.80902635893823e-06
4.8087767677733e-06
4.80817939018436e-06
4.80680555558457e-06
4.80377424177818e-06
4.79736803080731e-06
4.78442414480976e-06
4.75946500731229e-06
4.71361638897302e-06
4.63351457445105e-06
4.50060421292814e-06
4.29139496472224e-06
3.97925054618056e-06
3.53801601728699e-06
2.94723884435733e-06
2.19805031895716e-06
1.2982030077837e-06
3.8502367151211e-09
1.46605016512123e-11
1.50980513076044e-11
3.9838025222194e-09
1.34577646277465e-06
2.27862333527899e-06
3.05500364417272e-06
3.66717114105964e-06
4.12440056549281e-06
4.44786867246851e-06
4.66464206997241e-06
4.80230664722496e-06
4.88521348668965e-06
4.9326124799407e-06
4.95837258685902e-06
4.97170208545274e-06
4.97828041900771e-06
4.98138228548585e-06
4.98278214069899e-06
4.98338771212828e-06
4.98363910837283e-06
4.98373928052539e-06
4.98377751583868e-06
4.983791392754e-06
4.98379607745357e-06
4.98379743448205e-06
4.98379763097285e-06
4.98379737120667e-06
4.98379663865355e-06
4.98379468799309e-06
4.98378925816285e-06
4.98377427551324e-06
4.98373416948531e-06
4.98363059087896e-06
4.98337290740531e-06
4.98275606663888e-06
4.9813371632191e-06
4.97820570196751e-06
4.97158647662625e-06
4.95820982475779e-06
4.93241247657434e-06
4.88501859274146e-06
4.80220882601229e-06
4.6647913867683e-06
4.44845973807277e-06
4.12562587854894e-06
3.66914175852256e-06
3.05765649802812e-06
2.281652968682e-06
1.3486268344066e-06
4.00206933837057e-09
1.52298508706706e-11
1.55687641818684e-11
4.10953674472881e-09
1.38746652544129e-06
2.34752080242804e-06
3.14579279279302e-06
3.77483706853858e-06
4.24450659667898e-06
4.5767268926065e-06
4.79936952467517e-06
4.94078260144047e-06
5.02596891219018e-06
5.07468813583599e-06
5.10117713750013e-06
5.11489071483277e-06
5.12166250962592e-06
5.12485769545875e-06
5.12630074727693e-06
5.12692555373041e-06
5.12718521601439e-06
5.12728883281087e-06
5.12732847114942e-06
5.12734291404276e-06
5.12734782841217e-06
5.12734928249673e-06
5.12734951880474e-06
5.12734926618788e-06
5.12734851354068e-06
5.12734649954419e-06
5.12734090850862e-06
5.12732551660104e-06
5.12728436239389e-06
5.12717812090723e-06
5.12691382484226e-06
5.12628107961171e-06
5.12482532949263e-06
5.12161193860924e-06
5.11481834023631e-06
5.10108724138885e-06
5.07460310056327e-06
5.02594274680098e-06
4.94091323152718e-06
4.79980096794716e-06
4.57763020962551e-06
4.24603216320182e-06
3.77704236964883e-06
3.14856709352993e-06
2.35054301422221e-06
1.39022660653717e-06
4.12727812813101e-09
1.56980120281898e-11
1.59495165742287e-11
4.21150107827137e-09
1.42130370495963e-06
2.40340255010712e-06
3.21940173231985e-06
3.8621129815955e-06
4.34186206353841e-06
4.68118042389074e-06
4.90858906610105e-06
5.0530507902796e-06
5.14009436449655e-06
5.18989150058218e-06
5.21697697714318e-06
5.23100564713417e-06
5.23793659028227e-06
5.24120877420335e-06
5.24268758568207e-06
5.24332837537468e-06
5.24359493707855e-06
5.24370144568976e-06
5.24374227162971e-06
5.24375719974016e-06
5.2437623151819e-06
5.24376385683383e-06
5.24376413052751e-06
5.24376388620387e-06
5.24376311765411e-06
5.24376105098263e-06
5.24375532680394e-06
5.24373960077313e-06
5.24369759731639e-06
5.24358920609355e-06
5.24331957797861e-06
5.24267400800655e-06
5.2411885309365e-06
5.23790899791615e-06
5.23097453775401e-06
5.21695695462661e-06
5.18991747568231e-06
5.14023275769226e-06
5.05340750786024e-06
4.90930591297049e-06
4.68241071769436e-06
4.34372105353437e-06
3.86461048245934e-06
3.22238003647705e-06
2.40651465242464e-06
1.42405772313842e-06
4.22902036149595e-09
1.60772962212935e-11
1.62527406279066e-11
4.29292131615278e-09
1.4483581343157e-06
2.44806657697015e-06
3.27822468903855e-06
3.93185618156181e-06
4.41966550737859e-06
4.7646663779188e-06
4.99589600582841e-06
5.14280601276718e-06
5.23134398646397e-06
5.28201031157004e-06
5.3095779084061e-06
5.32386192363654e-06
5.33092220135273e-06
5.33425715099263e-06
5.33576521062705e-06
5.33641912294631e-06
5.33669137484064e-06
5.33680028226121e-06
5.33684210140566e-06
5.33685744036918e-06
5.33686272953298e-06
5.3368643487886e-06
5.33686465689863e-06
5.33686442182181e-06
5.33686364121771e-06
5.33686153164296e-06
5.33685569929178e-06
5.33683970450474e-06
5.33679702280471e-06
5.33668692063232e-06
5.33641305342691e-06
5.33575728659054e-06
5.33424816006474e-06
5.33091596925538e-06
5.32386928653856e-06
5.30962332903377e-06
5.28214094675437e-06
5.23163897881132e-06
5.14338074457567e-06
4.99689335517437e-06
4.76622725071589e-06
4.42187677433994e-06
3.9346861054543e-06
3.28147032997876e-06
2.45134713740151e-06
1.4511765003915e-06
4.31048177579358e-09
1.63800469634051e-11
1.64904203886055e-11
4.35691974673906e-09
1.46965926070684e-06
2.48322984838455e-06
3.32453684711894e-06
3.98677308244357e-06
4.48094019480882e-06
4.83042930440807e-06
5.06468167887145e-06
5.21353204722897e-06
5.3032568303111e-06
5.35461501205534e-06
5.38256732186782e-06
5.39705564274289e-06
5.4042197051463e-06
5.4076051805091e-06
5.40913686614014e-06
5.40980141987341e-06
5.41007830724697e-06
5.41018918027005e-06
5.4102318199113e-06
5.41024750245784e-06
5.41025293968417e-06
5.41025462670164e-06
5.41025496619471e-06
5.410254740917e-06
5.41025395170711e-06
5.41025180804101e-06
5.41024588945283e-06
5.41022968209044e-06
5.41018646733565e-06
5.4100750246421e-06
5.40979783899865e-06
5.40913408763368e-06
5.40760642882367e-06
5.40423293814584e-06
5.39709816550125e-06
5.38267281535892e-06
5.35484232215335e-06
5.30369773286507e-06
5.21431235470085e-06
5.06594795946295e-06
4.83231466113742e-06
4.48350926867017e-06
3.98995855358333e-06
3.32809310420854e-06
2.48673694093851e-06
1.47259651640899e-06
4.3747338246768e-09
1.66180992360096e-11
1.66736479323078e-11
4.40639729175028e-09
1.48616018516519e-06
2.51047400383368e-06
3.36042710386016e-06
4.02934307350874e-06
4.52845195787946e-06
4.88143502489368e-06
5.11804467409127e-06
5.26841123927549e-06
5.3590654446902e-06
5.4109667513133e-06
5.43922186593006e-06
5.45387145168528e-06
5.46111768552977e-06
5.46454329683002e-06
5.46609381783118e-06
5.46676688943926e-06
5.46704750481685e-06
5.46715996810505e-06
5.46720327708837e-06
5.46721924340423e-06
5.46722480525079e-06
5.46722655078041e-06
5.46722691849675e-06
5.46722670318658e-06
5.46722590839345e-06
5.46722373845443e-06
5.46721775265087e-06
5.46720138045837e-06
5.46715775455393e-06
5.46704528052041e-06
5.46676554291424e-06
5.46609564720211e-06
5.46455371170089e-06
5.46114836763484e-06
5.45394557946476e-06
5.43938158607781e-06
5.41128184469764e-06
5.35963990614924e-06
5.26938176861411e-06
5.11956345907575e-06
4.88363114477833e-06
4.53137317395919e-06
4.03289204275081e-06
3.3643186665935e-06
2.51424602841858e-06
1.48925512971533e-06
4.42462435051816e-09
1.68023719744726e-11
1.68123162922096e-11
4.44395059088008e-09
1.49871257191968e-06
2.53120752232401e-06
3.38775150745263e-06
4.06176600888219e-06
4.56465265647012e-06
4.92031139995858e-06
5.15872983082419e-06
5.31026236484976e-06
5.40163303505853e-06
5.45395412528846e-06
5.48244394671189e-06
5.49721891402043e-06
5.50452924565454e-06
5.5079862759022e-06
5.50955159825527e-06
5.51023139215194e-06
5.51051496439883e-06
5.51062869696268e-06
5.51067254484043e-06
5.51068874259096e-06
5.51069440810948e-06
5.51069620363745e-06
5.51069659642681e-06
5.51069639102623e-06
5.51069559326729e-06
5.5106934038835e-06
5.51068736717406e-06
5.51067087035481e-06
5.51062693478477e-06
5.51051368525543e-06
5.51023202809082e-06
5.50955750428353e-06
5.50800479639906e-06
5.50457537531737e-06
5.49732109351781e-06
5.48265198823774e-06
5.45434787670733e-06
5.40232806466635e-06
5.31140630823187e-06
5.1604817945667e-06
4.92279938832536e-06
4.56791202156943e-06
4.06567436132383e-06
3.39198755354628e-06
2.53526587009935e-06
1.50198998954799e-06
4.46270114802171e-09
1.69425897247612e-11
1.69149345993152e-11
4.47182061900233e-09
1.5080510799983e-06
2.54664263197258e-06
3.40810518053775e-06
4.08593080187966e-06
4.59164653236373e-06
4.94931317215437e-06
5.18909206952675e-06
5.34150379484537e-06
5.43341620221832e-06
5.48605565196571e-06
5.51472404733512e-06
5.52959474029535e-06
5.5369541904611e-06
5.54043539297478e-06
5.54201215182416e-06
5.54269716461725e-06
5.54298304521119e-06
5.54309777557548e-06
5.54314205115716e-06
5.54315843520388e-06
5.54316418597899e-06
5.54316602379639e-06
5.54316643869857e-06
5.54316624304908e-06
5.54316544455065e-06
5.54316324159467e-06
5.5431571678269e-06
5.54314058004413e-06
5.54309641894975e-06
5.54298260481246e-06
5.54269954764943e-06
5.54202163904855e-06
5.54046102867393e-06
5.53701389332064e-06
5.52972162618328e-06
5.51497480555996e-06
5.48651929742551e-06
5.43421910239787e-06
5.34280427456395e-06
5.19105692961593e-06
4.95207153305239e-06
4.59522493334596e-06
4.09018609815976e-06
3.41268338541288e-06
2.55099546570611e-06
1.511524473082e-06
4.49116485094274e-09
1.70471178440772e-11
1.69885420993128e-11
4.49186708307789e-09
1.51478558698841e-06
2.55778422820267e-06
3.4228092645609e-06
4.10340115124225e-06
4.61117514138263e-06
4.97030635067818e-06
5.21108038582776e-06
5.36413720955973e-06
5.45644846149963e-06
5.5093231593138e-06
5.53812403204486e-06
5.55306604136439e-06
5.56046225080451e-06
5.56396163077296e-06
5.56554703465231e-06
5.56623601521163e-06
5.5665236624835e-06
5.56663916288671e-06
5.5666837723213e-06
5.56670030422514e-06
5.56670612433316e-06
5.56670799764652e-06
5.56670843199778e-06
5.56670824586579e-06
5.56670744847582e-06
5.56670523692376e-06
5.5666991377969e-06
5.56668248725284e-06
5.56663817062169e-06
5.56652396638029e-06
5.5662399375877e-06
5.56555966650083e-06
5.56399350838263e-06
5.56053387004479e-06
5.55321466398596e-06
5.53841250010602e-06
5.50984879826383e-06
5.45734763563572e-06
5.36557851370696e-06
5.21323869683207e-06
4.97331345344585e-06
4.61505154462244e-06
4.10798650841473e-06
3.4277201221821e-06
2.56243070873043e-06
1.51846036128464e-06
4.51184549015452e-09
1.71228879835611e-11
1.7038693627942e-11
4.50556171203397e-09
1.51939913818598e-06
2.56542755724614e-06
3.43290878167418e-06
4.11541368749429e-06
4.62461573492218e-06
4.98476673389565e-06
5.22623642948767e-06
5.3797461785092e-06
5.47233879692342e-06
5.52538030633526e-06
5.55427563790909e-06
5.56926879832373e-06
5.5766915389718e-06
5.58020412626635e-06
5.58179585635559e-06
5.58248776320459e-06
5.58277672519914e-06
5.58289280507564e-06
5.58293766956469e-06
5.58295431688838e-06
5.5829601927766e-06
5.58296209574564e-06
5.58296254719172e-06
5.58296237026253e-06
5.58296157546294e-06
5.58295935948154e-06
5.58295324488456e-06
5.58293655543896e-06
5.58289214232107e-06
5.58277769466218e-06
5.58249305293061e-06
5.58181127229749e-06
5.58024152458955e-06
5.57677370393056e-06
5.56943669283645e-06
5.55459763950549e-06
5.5259613025779e-06
5.47332440871411e-06
5.38131479537685e-06
5.22857112446341e-06
4.98800299102412e-06
4.62877008770077e-06
4.12031138804117e-06
3.43813971574066e-06
2.57036194926027e-06
1.52327576685235e-06
4.52619610661428e-09
1.71753873024149e-11
1.70694887756309e-11
4.51399337975979e-09
1.52224948888164e-06
2.57016132362839e-06
3.43917718390207e-06
4.12288367326525e-06
4.63298778379105e-06
4.99378696801032e-06
5.23570187760529e-06
5.38950369885208e-06
5.48227927594174e-06
5.53543022476332e-06
5.56438812161592e-06
5.57941550641507e-06
5.58685618810421e-06
5.59037780634999e-06
5.59197391321767e-06
5.59266787040956e-06
5.592957766878e-06
5.59307426588407e-06
5.59311931913942e-06
5.5931360546099e-06
5.59314197488285e-06
5.59314390258139e-06
5.59314436907524e-06
5.59314420097972e-06
5.59314340992361e-06
5.59314119297663e-06
5.5931350713583e-06
5.5931183636673e-06
5.59307390537394e-06
5.59295934157342e-06
5.59267439698284e-06
5.59199184084381e-06
5.5904201810167e-06
5.5869478631764e-06
5.57960080588975e-06
5.56474048116269e-06
5.5360615043672e-06
5.48334374839318e-06
5.39118911727936e-06
5.23819948565117e-06
4.99723659140659e-06
4.63740340065196e-06
4.12807818719565e-06
3.44471604561209e-06
2.57537653746649e-06
1.52632627978028e-06
4.53529670579556e-09
1.72086848809492e-11
1.70836197560116e-11
4.5178786738113e-09
1.52357229715137e-06
2.57237317198419e-06
3.44212366134692e-06
4.12641367887159e-06
4.63696263780336e-06
4.99808686549494e-06
5.24022916130635e-06
5.39418315587847e-06
5.48705613788598e-06
5.54026667046323e-06
5.56925944082714e-06
5.58430637023299e-06
5.59175755428418e-06
5.59528459414678e-06
5.59688339776994e-06
5.59757865365847e-06
5.59786916067614e-06
5.59798594400233e-06
5.59803113165321e-06
5.59804793389185e-06
5.59805389026353e-06
5.59805583943836e-06
5.59805631968214e-06
5.59805616009094e-06
5.59805537332044e-06
5.59805315757817e-06
5.5980470352265e-06
5.5980303263559e-06
5.59798586763601e-06
5.59787130133787e-06
5.59758633290729e-06
5.59690366194476e-06
5.5953315952456e-06
5.59185807276719e-06
5.58450786942953e-06
5.56964010023114e-06
5.54094492798966e-06
5.48819450265239e-06
5.39597843612982e-06
5.24288068664716e-06
5.00173915319206e-06
4.64162797195677e-06
4.13189392509776e-06
3.44796134668894e-06
2.57786341435211e-06
1.5278474852592e-06
4.53986251378401e-09
1.72254717481502e-11
1.70824143198817e-11
4.51757166016392e-09
1.52348419099972e-06
2.57225497307003e-06
3.44200026364546e-06
4.12630204692305e-06
4.63687286212912e-06
4.99802326199904e-06
5.24019161003587e-06
5.39416860713991e-06
5.48706007972021e-06
5.54028432096598e-06
5.56928655227139e-06
5.5843395946241e-06
5.59179449818435e-06
5.59532368181598e-06
5.59692366392208e-06
5.59761954352252e-06
5.59791037281718e-06
5.59802732220733e-06
5.5980725977423e-06
5.59808944928216e-06
5.59809543551379e-06
5.59809740397766e-06
5.59809789713403e-06
5.59809774570826e-06
5.59809696334081e-06
5.59809475016272e-06
5.5980886321619e-06
5.59807193750449e-06
5.5980275206295e-06
5.59791306106813e-06
5.59762833810562e-06
5.59694618886545e-06
5.59537515931625e-06
5.59190357435313e-06
5.58455677465663e-06
5.56969461836915e-06
5.54100810579871e-06
5.4882701176665e-06
5.39607056186893e-06
5.24299285046198e-06
5.0018731153468e-06
4.64178228188691e-06
4.13206248004948e-06
3.44813212215788e-06
2.57801736112896e-06
1.52795734444607e-06
4.54025164089998e-09
1.72270958566121e-11
1.70658695301067e-11
4.51307218989011e-09
1.52198517248492e-06
2.56980640373796e-06
3.4388062926932e-06
4.12254785802449e-06
4.63271757909726e-06
4.99359559407083e-06
5.23558916780021e-06
5.38946058202126e-06
5.48229218651246e-06
5.53548473807504e-06
5.56447137105414e-06
5.5795173374392e-06
5.58696933186607e-06
5.59049747259276e-06
5.59209716535563e-06
5.59279301989938e-06
5.59308389600543e-06
5.59320089906336e-06
5.59324621844269e-06
5.59326310273161e-06
5.59326911282221e-06
5.59327109837698e-06
5.59327160352469e-06
5.59327145984274e-06
5.59327068197701e-06
5.59326847285076e-06
5.59326236474237e-06
5.59324570086629e-06
5.59320137085815e-06
5.59308713337771e-06
5.59280293813515e-06
5.59212197325785e-06
5.59055347470843e-06
5.58708705904881e-06
5.57975036359947e-06
5.56490711362174e-06
5.53625445520516e-06
5.48357445285566e-06
5.39146986262806e-06
5.2385408372047e-06
4.99764368419526e-06
4.63787158688535e-06
4.12858873711399e-06
3.44523241851587e-06
2.57584118328506e-06
1.52665723481525e-06
4.53646760900975e-09
1.72135696330571e-11
1.70326663510413e-11
4.50402921545485e-09
1.51895926441362e-06
2.56483556109748e-06
3.43228876185666e-06
4.11485122951626e-06
4.62416264382478e-06
4.98444597892119e-06
5.22604839999965e-06
5.37967603726927e-06
5.47236386892361e-06
5.5254762609256e-06
5.55442065264904e-06
5.56944558777553e-06
5.5768876968031e-06
5.5804114604509e-06
5.58200933765931e-06
5.58270449685612e-06
5.58299513687724e-06
5.58311207870314e-06
5.58315739694728e-06
5.58317429694845e-06
5.5831803245605e-06
5.58318232475715e-06
5.58318284081842e-06
5.58318270442032e-06
5.58318193129087e-06
5.58317972816417e-06
5.58317363660904e-06
5.58315702270118e-06
5.5831128307043e-06
5.58299894488271e-06
5.58271559212315e-06
5.58203654650229e-06
5.58047222809064e-06
5.57701453508138e-06
5.56969528456089e-06
5.55488545699875e-06
5.52629408607314e-06
5.47372154424209e-06
5.38179696458911e-06
5.22915585819563e-06
4.98869834158964e-06
4.62956731263377e-06
4.12117788188268e-06
3.43901308003068e-06
2.57114507483587e-06
1.52383164895293e-06
4.52815921071607e-09
1.718357815919e-11
1.69801422167094e-11
4.48973445123411e-09
1.51417294847022e-06