/*--------------------------------*- C++ -*----------------------------------*\
  =========                 |
  \\      /  F ield         | OpenFOAM: The Open Source CFD Toolbox
   \\    /   O peration     | Website:  https://openfoam.org
    \\  /    A nd           | Version:  10
     \\/     M anipulation  |
\*---------------------------------------------------------------------------*/
FoamFile
{
    format      ascii;
    class       volScalarField;
    location    "7.4";
    object      omega;
}
// * * * * * * * * * * * * * * * * * * * * * * * * * * * * * * * * * * * * * //

dimensions      [0 0 -1 0 0 0 0];

internalField   nonuniform List<scalar> 
2500
(
127924.599805679
127934.396067644
127931.424599733
127929.143118077
127927.685576493
127926.813984355
127926.310386044
127926.027234254
127925.873134248
127925.792847066
127925.752034389
127925.73228458
127925.723099585
127925.718715435
127925.716606354
127925.715420871
127925.714897242
127925.714475571
127925.714079634
127925.713823251
127925.713612737
127925.713437149
127925.713295506
127925.713211656
127925.71312358
127925.713054067
127925.713033981
127925.713034517
127925.713063316
127925.713123504
127925.71322152
127925.713405179
127925.713625455
127925.7139559
127925.71450634
127925.715545994
127925.717680071
127925.722125973
127925.731975725
127925.752369119
127925.793826202
127925.875266494
127926.029532116
127926.311438452
127926.812672207
127927.679175489
127929.135451166
127931.429378755
127934.419291095
127924.567359947
31885.6927510583
14170.2975070243
14168.855334014
14167.7783723488
14167.0794655995
14166.6514611107
14166.3973493724
14166.2506163284
14166.1686241887
14166.1245303555
14166.1017428951
14166.0904567208
14166.0850969937
14166.082641194
14166.0815518738
14166.081076272
14166.0808767085
14166.0807849818
14166.0807350167
14166.0807068693
14166.0806873855
14166.0806719138
14166.0806595842
14166.0806511773
14166.0806437219
14166.0806377259
14166.080634815
14166.0806336148
14166.0806342582
14166.0806379254
14166.0806469626
14166.0806679164
14166.0807118869
14166.0808086142
14166.0810283365
14166.0815383605
14166.0827070075
14166.0853089978
14166.0909250306
14166.1025630984
14166.1257728627
14166.1702734795
14166.2523746311
14166.3985724717
14166.6512657684
14167.0774032456
14167.776665928
14168.8607972612
14170.3144638781
31885.6499528764
31795.6199807499
3532.34025116882
50.8581848140006
50.8527740973032
50.8493003721757
50.8471834691964
50.8459297008545
50.8452062306555
50.8448016126136
50.8445834912625
50.8444704829176
50.8444143249065
50.8443875643179
50.8443753069244
50.8443698983266
50.8443675858211
50.8443666323622
50.8443662332363
50.8443660520358
50.8443659632666
50.8443659095116
50.8443658689558
50.8443658367106
50.8443658139543
50.8443657951827
50.8443657798532
50.8443657707694
50.8443657651094
50.8443657625572
50.8443657687097
50.844365794341
50.8443658668594
50.8443660523538
50.8443664966735
50.8443675504575
50.8443700504723
50.8443758343682
50.8443887620092
50.8444166198345
50.8444743078789
50.8445891577339
50.8448089830883
50.8452140678515
50.8459352898642
50.8471832745977
50.8492941591682
50.8527762195418
50.8582354008641
3532.34969936479
31795.6346074021
31713.5436929903
3523.09804220929
50.724553178692
50.7189803670522
50.7154990928982
50.7134280445464
50.7122279213397
50.7115484367357
50.7111744487798
50.7109755004093
50.7108735870017
50.7108234269465
50.710799724432
50.7107889589479
50.7107842527579
50.7107822677039
50.7107814617941
50.7107811377655
50.7107810021526
50.7107809412916
50.7107809072712
50.7107808817656
50.7107808608271
50.7107808457558
50.7107808339815
50.7107808241623
50.7107808174023
50.710780811901
50.7107808074631
50.7107808069194
50.7107808191198
50.7107808685032
50.7107810149726
50.7107813801019
50.7107822613067
50.7107843866489
50.7107893691398
50.7108006327406
50.710825155181
50.710876495703
50.7109798942933
50.7111803242657
50.7115550057881
50.7122332953076
50.7134300105276
50.7154997374482
50.7189985251563
50.7246387592152
3523.11279132071
31713.6692253754
31646.1986768239
3515.61375469812
50.6175519371166
50.6127077155869
50.6097687929164
50.6080652452584
50.6071007645806
50.6065653407466
50.6062752989667
50.606122934532
50.6060456566872
50.6060079186993
50.6059901979466
50.6059821945485
50.6059787164995
50.60597726202
50.6059766787517
50.605976451159
50.6059763618877
50.6059763254855
50.6059763071278
50.6059762933314
50.6059762812463
50.605976272418
50.6059762659286
50.6059762603482
50.6059762559036
50.6059762514157
50.6059762467192
50.6059762440212
50.6059762462594
50.6059762723512
50.6059763726757
50.6059766306953
50.6059772593424
50.6059787948057
50.6059824305959
50.6059907209182
50.6060089200777
50.6060473660806
50.6061255725065
50.6062789304364
50.6065695874823
50.6071046301349
50.6080679210562
50.609774050233
50.612735895701
50.6176561163308
3515.63163576551
31646.4218140427
31595.7896506986
3510.10032565305
50.5396491828378
50.535936339733
50.5337486248381
50.532513156147
50.5318297062326
50.5314575395184
50.531258955135
50.5311558125432
50.5311039354749
50.5310787545044
50.5310669818204
50.5310616833879
50.531059389227
50.5310584354803
50.5310580570651
50.5310579133098
50.5310578603172
50.5310578411199
50.5310578330663
50.5310578270756
50.5310578210343
50.5310578165267
50.5310578135214
50.5310578107751
50.531057808149
50.5310578049113
50.531057800892
50.5310577974795
50.5310577955736
50.5310578062934
50.5310578667378
50.5310580304981
50.5310584320734
50.5310594236331
50.5310617896934
50.5310672193669
50.5310792141514
50.5311047321565
50.5311570689455
50.5312607318636
50.5314596849215
50.5318317932454
50.5325152110521
50.5337548402784
50.5359654957801
50.5397509332714
3510.11826516843
31596.0595267909
31561.0342171026
3506.36660605343
50.4875271685398
50.4849577395526
50.4834861032304
50.4826759445472
50.4822378062637
50.4820036301983
50.4818804410012
50.4818171081088
50.4817854759836
50.4817701915025
50.4817630658131
50.4817598649109
50.4817584818181
50.4817579092518
50.4817576842431
50.481757601025
50.4817575722851
50.4817575633452
50.481757560921
50.4817575593634
50.4817575569626
50.4817575550585
50.4817575540676
50.481757552972
50.4817575515684
50.4817575494524
50.4817575464618
50.4817575433423
50.4817575407563
50.4817575432911
50.4817575757309
50.481757670902
50.4817579060644
50.4817584925833
50.4817599004312
50.4817631458962
50.4817703483649
50.4817857524497
50.4818175544949
50.4818810854405
50.4820044047474
50.4822385359853
50.4826769183861
50.4834909130728
50.4849815578918
50.4876114442325
3506.38210285936
31561.2966564307
31538.7898036463
3504.02276426125
50.4552068915634
50.4535764131535
50.4526676216996
50.4521794897972
50.4519212416669
50.4517856791717
50.4517153205563
50.4516794821167
50.4516616870812
50.4516531171652
50.4516491281811
50.4516473375488
50.4516465645542
50.4516462455498
50.4516461213019
50.4516460765586
50.4516460623287
50.4516460591443
50.4516460589026
50.4516460589681
50.4516460585223
50.4516460579506
50.4516460579931
50.4516460577454
50.4516460570811
50.4516460558115
50.4516460538071
50.4516460514135
50.4516460489714
50.4516460485003
50.4516460644907
50.4516461153909
50.4516462435111
50.4516465660319
50.4516473435843
50.4516491413627
50.4516531432199
50.4516617342644
50.4516795613912
50.4517154321473
50.4517857731875
50.4519212171545
50.4521795836352
50.4526703866157
50.4535927624768
50.4552680409697
3504.03460001551
31539.0086603527
31525.487050127
3502.64934636635
50.4365008980372
50.4355415054301
50.4350204403674
50.4347471087536
50.4346055445285
50.4345325206219
50.434495105368
50.4344762088244
50.4344668724871
50.4344623867037
50.4344602999938
50.4344593630652
50.4344589586569
50.4344587921643
50.4344587278982
50.4344587054014
50.4344586992776
50.4344586987106
50.4344586990807
50.4344586995891
50.434458699727
50.4344586997668
50.4344587000025
50.434458699998
50.4344586997064
50.4344586990137
50.4344586977783
50.4344586961591
50.4344586943158
50.4344586932072
50.4344587003597
50.4344587256964
50.434458791316
50.4344589578765
50.4344593606555
50.4344602933929
50.4344623731345
50.4344668483859
50.4344761698175
50.4344950382279
50.4345323781087
50.434605238343
50.4347467409184
50.4350215660715
50.4355512089307
50.4365405991435
3502.65749051439
31525.6489566109
31518.0116137729
3501.89363375017
50.4263347470634
50.4258067376868
50.4255269319718
50.4253834449006
50.4253106438047
50.4252737240642
50.4252550412487
50.4252456801175
50.4252410745864
50.4252388651989
50.425237837236
50.4252373752471
50.425237175748
50.4252370937807
50.4252370624407
50.4252370519387
50.4252370495816
50.4252370497267
50.4252370502069
50.4252370506936
50.4252370509731
50.4252370511811
50.4252370514039
50.4252370514689
50.4252370513564
50.4252370509758
50.4252370502644
50.4252370492718
50.4252370480769
50.4252370471646
50.4252370500541
50.4252370618772
50.4252370937005
50.425237175097
50.4252373723209
50.4252378292184
50.4252388484005
50.4252410438709
50.4252456282496
50.4252549528792
50.4252735575739
50.425310318109
50.425382959531
50.4255271099062
50.4258117743999
50.426358154277
3501.89875399411
31518.1201239406
31514.0446921347
3501.50112895021
50.4211195879715
50.420845877803
50.4207041711497
50.420633060598
50.4205976929179
50.4205800527603
50.4205712336501
50.4205668478571
50.4205646980369
50.420563667641
50.4205631878326
50.420562971874
50.4205628785371
50.4205628402592
50.4205628257646
50.4205628211779
50.4205628203909
50.4205628206367
50.4205628210175
50.4205628213675
50.4205628216051
50.4205628217938
50.42056282195
50.4205628220182
50.4205628219761
50.4205628217715
50.420562821386
50.4205628208242
50.4205628201285
50.4205628195515
50.4205628205986
50.4205628258111
50.4205628405049
50.4205628783698
50.420562970224
50.4205631828812
50.4205636569086
50.4205646779255
50.4205668127753
50.420571171436
50.420579931554
50.4205974465541
50.4206326421627
50.420703957666
50.4208481558265
50.4211322553236
3501.50410239859
31514.1115372684
31512.0481282714
3501.30782617832
50.4185828180856
50.4184483962027
50.4183803186798
50.4183468564192
50.4183305314944
50.4183225209313
50.4183185634549
50.4183166095196
50.418315654842
50.4183151974447
50.4183149841706
50.4183148879933
50.4183148463777
50.4183148293422
50.4183148229558
50.4183148210566
50.4183148208481
50.4183148210476
50.4183148212947
50.418314821511
50.4183148216678
50.418314821794
50.418314821888
50.4183148219353
50.4183148219185
50.4183148218124
50.4183148216141
50.4183148213167
50.418314820943
50.4183148206252
50.4183148209597
50.418314823145
50.4183148296339
50.4183148464838
50.4183148873819
50.4183149819256
50.4183151923034
50.4183156448967
50.4183165914567
50.4183185293443
50.4183224493223
50.4183303750567
50.4183465614656
50.4183800303295
50.4184492691313
50.4185891599945
3501.30943508906
31512.0863855418
31511.0914197309
3501.21720202045
50.4174082227223
50.4173453712177
50.417314195335
50.4172991712058
50.4172919770423
50.4172885030021
50.4172868067677
50.4172859751281
50.4172855699746
50.4172853758538
50.4172852851812
50.4172852441998
50.4172852264433
50.4172852191881
50.4172852165041
50.4172852157637
50.417285215729
50.4172852158475
50.4172852159883
50.4172852161084
50.4172852161981
50.4172852162702
50.4172852163207
50.4172852163472
50.4172852163393
50.4172852162863
50.4172852161887
50.4172852160398
50.4172852158513
50.4172852156862
50.4172852157762
50.4172852166572
50.4172852194081
50.4172852266106
50.4172852440947
50.4172852844237
50.4172853739254
50.4172855660497
50.4172859675454
50.4172867909906
50.4172884660542
50.4172918887131
50.4172989888365
50.4173139610009
50.4173456280035
50.4174111765468
3501.21801896193
31511.1119320635
31510.6535477167
3501.17662448298
50.4168888547429
50.4168607578455
50.4168470914849
50.41684062828
50.4168375887384
50.4168361438662
50.4168354465652
50.4168351070299
50.4168349420553
50.416834862982
50.4168348259703
50.4168348092003
50.4168348019232
50.4168347989554
50.4168347978747
50.4168347975969
50.4168347976023
50.4168347976677
50.4168347977404
50.4168347978014
50.4168347978475
50.4168347978842
50.4168347979086
50.4168347979211
50.4168347979166
50.4168347978908
50.4168347978442
50.416834797773
50.4168347976827
50.4168347976039
50.416834797622
50.4168347979618
50.4168347990837
50.4168348020514
50.4168348092542
50.416834825823
50.416834862468
50.4168349408864
50.4168351044773
50.4168354402774
50.4168361266616
50.4168375430879
50.416840525996
50.4168469368671
50.4168607896615
50.4168901392694
3501.17701604721
31510.6639200973
31510.4616582078
3501.15923124165
50.4166690805166
50.4166570279613
50.4166512725341
50.4166485989105
50.4166473632129
50.4166467848075
50.4166465088768
50.4166463754274
50.4166463107463
50.4166462797247
50.4166462651704
50.416646258558
50.4166462556839
50.4166462545138
50.4166462540946
50.416646253994
50.4166462540032
50.4166462540357
50.41664625407
50.4166462540983
50.4166462541198
50.4166462541364
50.4166462541468
50.4166462541516
50.4166462541485
50.4166462541358
50.4166462541139
50.4166462540807
50.416646254039
50.4166462540019
50.416646254002
50.4166462541288
50.4166462545704
50.416646255752
50.4166462586199
50.4166462651973
50.4166462796859
50.416646310571
50.4166463748332
50.4166465067374
50.4166467774358
50.4166473412232
50.4166485458277
50.4166511827827
50.4166569998596
50.4166696028622
3501.15940928707
31510.4666321737
31510.3810579236
3501.15209025789
50.4165800753918
50.4165750985687
50.4165727626399
50.4165716957652
50.4165712108427
50.41657098726
50.416570881816
50.4165708311624
50.4165708066686
50.4165707949116
50.4165707893816
50.416570786862
50.4165707857648
50.4165707853186
50.4165707851612
50.4165707851256
50.416570785131
50.4165707851454
50.41657078516
50.4165707851718
50.4165707851805
50.4165707851869
50.4165707851904
50.4165707851913
50.4165707851888
50.4165707851822
50.4165707851716
50.4165707851562
50.4165707851372
50.4165707851198
50.4165707851166
50.4165707851619
50.4165707853297
50.4165707857849
50.4165707868908
50.41657078942
50.4165707949673
50.4165708067403
50.4165708311541
50.4165708812226
50.416570984306
50.4165712008369
50.4165716699271
50.4165727151477
50.4165750673393
50.4165802738084
3501.15216738651
31510.3833304419
31510.348683774
3501.14929311493
50.4165457596295
50.4165437759228
50.4165428597192
50.4165424479241
50.416542263722
50.4165421800325
50.4165421410103
50.4165421223904
50.4165421134073
50.4165421090915
50.4165421070562
50.4165421061261
50.4165421057202
50.4165421055551
50.4165421054973
50.4165421054845
50.4165421054866
50.416542105492
50.4165421054972
50.4165421055012
50.4165421055038
50.4165421055053
50.4165421055056
50.4165421055048
50.4165421055026
50.4165421054987
50.4165421054931
50.4165421054856
50.4165421054766
50.4165421054681
50.416542105465
50.4165421054799
50.4165421055409
50.4165421057103
50.4165421061234
50.4165421070668
50.4165421091276
50.4165421134812
50.4165421224749
50.4165421408909
50.4165421789006
50.4165422593687
50.4165424360052
50.4165428363452
50.4165437547509
50.4165458296913
3501.14932506227
31510.3496769306
31510.3363910502
3501.14826515166
50.416533428316
50.4165326632376
50.4165323151271
50.4165321610127
50.4165320931196
50.4165320627119
50.416532048693
50.4165320420492
50.4165320388516
50.4165320373142
50.4165320365873
50.4165320362542
50.4165320361083
50.4165320360487
50.4165320360277
50.4165320360226
50.4165320360228
50.416532036024
50.416532036025
50.4165320360255
50.4165320360254
50.4165320360248
50.4165320360238
50.4165320360222
50.4165320360201
50.4165320360174
50.4165320360139
50.4165320360097
50.4165320360049
50.4165320360003
50.4165320359975
50.4165320360014
50.416532036022
50.4165320360822
50.4165320362311
50.4165320365721
50.4165320373153
50.4165320388792
50.4165320420977
50.4165320486755
50.4165320622779
50.4165320912824
50.4165321557527
50.4165323042814
50.4165326513669
50.4165334510394
3501.14827784371
31510.3368076552
31510.3321563018
3501.14793182737
50.4165296155885
50.4165293294617
50.4165292010686
50.4165291450291
50.4165291206988
50.4165291099532
50.4165291050552
50.4165291027506
50.4165291016447
50.4165291011129
50.416529100861
50.4165291007451
50.4165291006942
50.4165291006731
50.4165291006651
50.4165291006626
50.4165291006618
50.4165291006613
50.4165291006606
50.4165291006596
50.4165291006584
50.416529100657
50.4165291006553
50.4165291006535
50.4165291006514
50.4165291006491
50.4165291006466
50.4165291006437
50.4165291006407
50.4165291006376
50.4165291006352
50.416529100635
50.4165291006407
50.4165291006604
50.4165291007113
50.4165291008298
50.4165291010891
50.4165291016343
50.4165291027536
50.4165291050377
50.4165291097697
50.4165291199289
50.4165291427832
50.4165291962705
50.4165293235011
50.4165296221685
3501.1479366759
31510.3323245333
31510.331045297
3501.1478621001
50.4165289925367
50.416528888584
50.416528842533
50.4165288227008
50.4165288142103
50.4165288105123
50.4165288088468
50.4165288080697
50.4165288076985
50.4165288075204
50.416528807436
50.4165288073971
50.4165288073798
50.4165288073722
50.416528807369
50.4165288073673
50.4165288073661
50.4165288073649
50.4165288073635
50.416528807362
50.4165288073603
50.4165288073585
50.4165288073567
50.4165288073547
50.4165288073527
50.4165288073506
50.4165288073484
50.4165288073461
50.4165288073437
50.4165288073412
50.416528807339
50.4165288073374
50.4165288073377
50.4165288073427
50.4165288073583
50.4165288073968
50.4165288074831
50.4165288076662
50.4165288080432
50.4165288088135
50.4165288104141
50.4165288138754
50.4165288217557
50.4165288404835
50.4165288858025
50.4165289941057
3501.14786388442
31510.3311108622
31510.3311068265
3501.14788926817
50.4165295262004
50.4165294894547
50.4165294733695
50.4165294665306
50.4165294636432
50.416529462404
50.4165294618538
50.4165294616002
50.4165294614802
50.4165294614231
50.4165294613962
50.4165294613838
50.4165294613781
50.4165294613753
50.4165294613736
50.4165294613723
50.4165294613709
50.4165294613694
50.4165294613678
50.416529461366
50.4165294613642
50.4165294613623
50.4165294613604
50.4165294613585
50.4165294613564
50.4165294613544
50.4165294613524
50.4165294613503
50.4165294613481
50.4165294613459
50.4165294613437
50.4165294613416
50.4165294613401
50.4165294613399
50.4165294613431
50.4165294613536
50.4165294613797
50.4165294614374
50.4165294615586
50.416529461809
50.4165294623337
50.4165294634799
50.4165294661242
50.4165294725069
50.416529488215
50.4165295264054
3501.14788990087
31510.3311315351
31510.3315953874
3501.14795100889
50.4165304669492
50.4165304542975
50.4165304488217
50.4165304465231
50.4165304455672
50.4165304451643
50.4165304449891
50.4165304449103
50.416530444874
50.4165304448572
50.4165304448495
50.4165304448459
50.4165304448441
50.4165304448428
50.4165304448417
50.4165304448405
50.416530444839
50.4165304448374
50.4165304448357
50.416530444834
50.4165304448321
50.4165304448302
50.4165304448283
50.4165304448263
50.4165304448244
50.4165304448224
50.4165304448204
50.4165304448184
50.4165304448163
50.4165304448142
50.4165304448121
50.4165304448099
50.4165304448076
50.4165304448058
50.4165304448047
50.4165304448057
50.4165304448114
50.4165304448268
50.4165304448623
50.4165304449386
50.4165304451032
50.41653044547
50.4165304463319
50.4165304484494
50.4165304537517
50.4165304668622
3501.1479512243
31510.3316044026
31510.3322351222
3501.14802474544
50.4165315469873
50.4165315427436
50.4165315409278
50.4165315401764
50.4165315398699
50.4165315397445
50.4165315396922
50.4165315396701
50.4165315396608
50.416531539657
50.4165315396554
50.4165315396547
50.4165315396541
50.4165315396533
50.4165315396523
50.4165315396511
50.4165315396497
50.4165315396481
50.4165315396464
50.4165315396445
50.4165315396427
50.4165315396408
50.4165315396389
50.4165315396369
50.416531539635
50.4165315396331
50.4165315396311
50.4165315396292
50.4165315396272
50.4165315396251
50.416531539623
50.4165315396207
50.4165315396184
50.4165315396159
50.4165315396135
50.4165315396115
50.4165315396105
50.4165315396122
50.4165315396197
50.4165315396395
50.4165315396866
50.4165315397978
50.4165315400685
50.4165315407504
50.4165315424923
50.416531546875
3501.14802481464
31510.3322383007
31510.3329269646
3501.14810253632
50.4165326734391
50.4165326720557
50.4165326714715
50.4165326712345
50.416532671141
50.4165326711051
50.4165326710919
50.4165326710875
50.4165326710865
50.4165326710866
50.4165326710869
50.4165326710869
50.4165326710866
50.416532671086
50.4165326710851
50.4165326710839
50.4165326710824
50.4165326710808
50.4165326710791
50.4165326710773
50.4165326710755
50.4165326710736
50.4165326710717
50.4165326710698
50.4165326710679
50.416532671066
50.416532671064
50.4165326710621
50.4165326710601
50.4165326710581
50.4165326710561
50.4165326710539
50.4165326710515
50.4165326710489
50.4165326710462
50.4165326710432
50.4165326710403
50.4165326710378
50.4165326710366
50.4165326710388
50.4165326710489
50.4165326710785
50.4165326711583
50.4165326713692
50.4165326719236
50.4165326733471
3501.14810255598
31510.3329280388
31510.3336363211
3501.14818166398
50.4165338149756
50.4165338145416
50.4165338143619
50.4165338142916
50.416533814266
50.416533814258
50.4165338142566
50.4165338142573
50.4165338142585
50.4165338142596
50.4165338142603
50.4165338142604
50.4165338142602
50.4165338142595
50.4165338142586
50.4165338142573
50.4165338142559
50.4165338142543
50.4165338142526
50.4165338142508
50.416533814249
50.4165338142471
50.4165338142452
50.4165338142433
50.4165338142415
50.4165338142396
50.4165338142377
50.4165338142358
50.4165338142339
50.4165338142319
50.4165338142299
50.4165338142277
50.4165338142254
50.4165338142229
50.4165338142201
50.4165338142171
50.4165338142138
50.4165338142102
50.4165338142066
50.4165338142037
50.4165338142028
50.4165338142075
50.4165338142275
50.416533814288
50.4165338144561
50.4165338149011
3501.14818166739
31510.3336366592
31510.334351426
3501.14826122224
50.4165349613006
50.416534961174
50.4165349611239
50.416534961106
50.416534961101
50.416534961101
50.4165349611027
50.4165349611045
50.4165349611061
50.4165349611072
50.4165349611078
50.4165349611079
50.4165349611076
50.4165349611068
50.4165349611058
50.4165349611045
50.4165349611031
50.4165349611015
50.4165349610998
50.416534961098
50.4165349610962
50.4165349610943
50.4165349610925
50.4165349610907
50.4165349610888
50.4165349610869
50.4165349610851
50.4165349610832
50.4165349610813
50.4165349610794
50.4165349610774
50.4165349610754
50.4165349610732
50.4165349610708
50.4165349610681
50.4165349610652
50.4165349610619
50.4165349610583
50.4165349610544
50.4165349610504
50.4165349610467
50.4165349610444
50.4165349610466
50.4165349610606
50.4165349611065
50.4165349612358
3501.14826122049
31510.3343515108
31510.3350683756
3501.14834091615
50.416536109112
50.4165361090825
50.4165361090725
50.4165361090701
50.4165361090709
50.4165361090727
50.4165361090748
50.4165361090765
50.4165361090779
50.4165361090787
50.416536109079
50.4165361090789
50.4165361090785
50.4165361090776
50.4165361090765
50.4165361090752
50.4165361090738
50.4165361090721
50.4165361090705
50.4165361090687
50.4165361090669
50.416536109065
50.4165361090632
50.4165361090614
50.4165361090596
50.4165361090577
50.4165361090559
50.4165361090541
50.4165361090523
50.4165361090504
50.4165361090485
50.4165361090465
50.4165361090445
50.4165361090422
50.4165361090397
50.416536109037
50.416536109034
50.4165361090307
50.416536109027
50.4165361090231
50.4165361090192
50.4165361090155
50.416536109013
50.4165361090135
50.416536109022
50.4165361090521
3501.1483409128
31510.3350683782
31510.3357859047
3501.14842065193
50.4165372573754
50.4165372573754
50.416537257377
50.4165372573787
50.4165372573805
50.4165372573823
50.4165372573839
50.4165372573852
50.4165372573861
50.4165372573866
50.4165372573866
50.4165372573863
50.4165372573856
50.4165372573847
50.4165372573836
50.4165372573822
50.4165372573807
50.4165372573791
50.4165372573773
50.4165372573756
50.4165372573738
50.416537257372
50.4165372573702
50.4165372573684
50.4165372573666
50.4165372573648
50.416537257363
50.4165372573612
50.4165372573595
50.4165372573577
50.4165372573559
50.416537257354
50.416537257352
50.4165372573499
50.4165372573476
50.4165372573452
50.4165372573425
50.4165372573396
50.4165372573364
50.416537257333
50.4165372573295
50.416537257326
50.4165372573228
50.41653725732
50.4165372573178
50.4165372573179
3501.14842064818
31510.3357858806
31510.3365036121
3501.14850040036
50.4165384057733
50.4165384057817
50.4165384057861
50.4165384057883
50.4165384057898
50.416538405791
50.416538405792
50.4165384057927
50.4165384057931
50.4165384057932
50.416538405793
50.4165384057924
50.4165384057916
50.4165384057905
50.4165384057893
50.4165384057879
50.4165384057863
50.4165384057846
50.4165384057829
50.4165384057812
50.4165384057794
50.4165384057776
50.4165384057758
50.416538405774
50.4165384057723
50.4165384057705
50.4165384057688
50.416538405767
50.4165384057654
50.4165384057636
50.4165384057619
50.4165384057601
50.4165384057582
50.4165384057563
50.4165384057543
50.4165384057521
50.4165384057498
50.4165384057472
50.4165384057446
50.4165384057418
50.4165384057389
50.4165384057361
50.4165384057334
50.4165384057304
50.4165384057257
50.4165384057173
3501.14850039653
31510.336503581
31510.3372213735
3501.14858015256
50.4165395542107
50.4165395542209
50.4165395542255
50.4165395542272
50.4165395542279
50.4165395542284
50.4165395542287
50.4165395542288
50.4165395542287
50.4165395542284
50.4165395542278
50.4165395542271
50.4165395542261
50.4165395542248
50.4165395542235
50.416539554222
50.4165395542204
50.4165395542187
50.416539554217
50.4165395542153
50.4165395542135
50.4165395542117
50.4165395542099
50.4165395542082
50.4165395542064
50.4165395542047
50.416539554203
50.4165395542013
50.4165395541997
50.4165395541981
50.4165395541964
50.4165395541947
50.4165395541931
50.4165395541913
50.4165395541895
50.4165395541876
50.4165395541856
50.4165395541835
50.4165395541814
50.4165395541792
50.4165395541771
50.4165395541751
50.4165395541731
50.4165395541708
50.416539554166
50.4165395541558
3501.14858014879
31510.3372213401
31510.3379391509
3501.14865990586
50.4165407026594
50.4165407026695
50.4165407026735
50.4165407026744
50.4165407026743
50.4165407026739
50.4165407026735
50.4165407026731
50.4165407026725
50.4165407026719
50.416540702671
50.4165407026699
50.4165407026687
50.4165407026674
50.416540702666
50.4165407026643
50.4165407026627
50.416540702661
50.4165407026592
50.4165407026575
50.4165407026558
50.416540702654
50.4165407026522
50.4165407026505
50.4165407026488
50.4165407026471
50.4165407026455
50.4165407026438
50.4165407026422
50.4165407026407
50.4165407026391
50.4165407026376
50.416540702636
50.4165407026345
50.4165407026329
50.4165407026313
50.4165407026297
50.416540702628
50.4165407026263
50.4165407026248
50.4165407026234
50.4165407026222
50.4165407026211
50.4165407026196
50.4165407026155
50.4165407026054
3501.14865990209
31510.3379391172
31510.338656933
3501.14873965949
50.4165418511114
50.4165418511207
50.4165418511239
50.4165418511238
50.416541851123
50.4165418511218
50.4165418511208
50.4165418511198
50.4165418511188
50.4165418511177
50.4165418511165
50.4165418511152
50.4165418511138
50.4165418511124
50.4165418511108
50.4165418511091
50.4165418511075
50.4165418511057
50.4165418511039
50.4165418511022
50.4165418511004
50.4165418510986
50.4165418510969
50.4165418510952
50.4165418510935
50.4165418510919
50.4165418510903
50.4165418510887
50.4165418510872
50.4165418510857
50.4165418510843
50.4165418510829
50.4165418510815
50.4165418510801
50.4165418510787
50.4165418510774
50.4165418510761
50.4165418510749
50.4165418510737
50.4165418510728
50.416541851072
50.4165418510716
50.4165418510714
50.4165418510708
50.4165418510676
50.4165418510583
3501.14873965573
31510.3386568974
31510.3393747167
3501.14881941322
50.4165429995645
50.4165429995728
50.4165429995751
50.4165429995741
50.4165429995724
50.4165429995706
50.4165429995689
50.4165429995673
50.4165429995659
50.4165429995644
50.4165429995629
50.4165429995614
50.4165429995598
50.4165429995582
50.4165429995565
50.4165429995547
50.416542999553
50.4165429995512
50.4165429995494
50.4165429995477
50.4165429995459
50.4165429995441
50.4165429995424
50.4165429995407
50.4165429995391
50.4165429995375
50.4165429995359
50.4165429995344
50.416542999533
50.4165429995316
50.4165429995302
50.416542999529
50.4165429995277
50.4165429995265
50.4165429995254
50.4165429995243
50.4165429995234
50.4165429995226
50.4165429995219
50.4165429995215
50.4165429995215
50.4165429995218
50.4165429995225
50.4165429995228
50.4165429995205
50.4165429995121
3501.14881940955
31510.3393746825
31510.3400925009
3501.14889916699
50.4165441480179
50.4165441480252
50.4165441480264
50.4165441480246
50.416544148022
50.4165441480195
50.4165441480172
50.4165441480152
50.4165441480132
50.4165441480114
50.4165441480096
50.4165441480078
50.4165441480061
50.4165441480043
50.4165441480025
50.4165441480007
50.4165441479989
50.4165441479971
50.4165441479953
50.4165441479935
50.4165441479917
50.4165441479899
50.4165441479883
50.4165441479866
50.416544147985
50.4165441479834
50.4165441479819
50.4165441479805
50.4165441479791
50.4165441479778
50.4165441479765
50.4165441479754
50.4165441479743
50.4165441479733
50.4165441479724
50.4165441479716
50.416544147971
50.4165441479706
50.4165441479704
50.4165441479706
50.4165441479712
50.4165441479723
50.4165441479737
50.4165441479749
50.4165441479736
50.4165441479663
3501.14889916341
31510.3400924682
31510.3408102854
3501.14897892078
50.4165452964715
50.4165452964777
50.4165452964779
50.4165452964751
50.4165452964718
50.4165452964686
50.4165452964658
50.4165452964632
50.4165452964608
50.4165452964586
50.4165452964566
50.4165452964546
50.4165452964526
50.4165452964507
50.4165452964488
50.4165452964469
50.416545296445
50.4165452964431
50.4165452964413
50.4165452964395
50.4165452964378
50.416545296436
50.4165452964344
50.4165452964327
50.4165452964311
50.4165452964296
50.4165452964281
50.4165452964268
50.4165452964255
50.4165452964242
50.4165452964231
50.4165452964221
50.4165452964211
50.4165452964203