/*--------------------------------*- C++ -*----------------------------------*\
  =========                 |
  \\      /  F ield         | OpenFOAM: The Open Source CFD Toolbox
   \\    /   O peration     | Website:  https://openfoam.org
    \\  /    A nd           | Version:  10
     \\/     M anipulation  |
\*---------------------------------------------------------------------------*/
FoamFile
{
    format      ascii;
    class       volScalarField;
    location    "7.4";
    object      p;
}
// * * * * * * * * * * * * * * * * * * * * * * * * * * * * * * * * * * * * * //

dimensions      [1 -1 -2 0 0 0 0];

internalField   nonuniform List<scalar> 
2500
(
100098.179062778
100098.179063591
100098.179064511
100098.179065343
100098.179065934
100098.179066345
100098.179066614
100098.17906679
100098.179066904
100098.179066977
100098.179067025
100098.179067056
100098.179067077
100098.179067091
100098.179067101
100098.179067108
100098.179067114
100098.179067119
100098.179067123
100098.179067127
100098.17906713
100098.179067133
100098.179067136
100098.179067139
100098.179067141
100098.179067144
100098.179067146
100098.179067149
100098.179067151
100098.179067153
100098.179067155
100098.179067156
100098.179067157
100098.179067156
100098.179067155
100098.179067151
100098.179067145
100098.179067134
100098.179067116
100098.179067088
100098.179067042
100098.179066971
100098.179066859
100098.179066684
100098.179066417
100098.179066005
100098.17906541
100098.179064571
100098.179063638
100098.179062827
100098.176813196
100098.176813813
100098.17681456
100098.176815275
100098.176815798
100098.176816173
100098.176816422
100098.176816587
100098.176816695
100098.176816765
100098.176816811
100098.176816841
100098.176816862
100098.176816876
100098.176816886
100098.176816894
100098.1768169
100098.176816905
100098.176816909
100098.176816912
100098.176816916
100098.176816919
100098.176816922
100098.176816924
100098.176816927
100098.17681693
100098.176816932
100098.176816935
100098.176816937
100098.176816939
100098.176816941
100098.176816942
100098.176816942
100098.176816942
100098.17681694
100098.176816937
100098.17681693
100098.176816919
100098.176816902
100098.176816874
100098.176816831
100098.176816763
100098.176816657
100098.176816492
100098.176816244
100098.176815869
100098.176815343
100098.176814621
100098.176813862
100098.176813247
100098.174556647
100098.174557097
100098.174557586
100098.174558106
100098.174558496
100098.174558788
100098.174558987
100098.174559123
100098.174559213
100098.174559274
100098.174559314
100098.174559342
100098.174559361
100098.174559374
100098.174559384
100098.174559391
100098.174559397
100098.174559402
100098.174559406
100098.17455941
100098.174559413
100098.174559416
100098.174559419
100098.174559422
100098.174559425
100098.174559427
100098.17455943
100098.174559432
100098.174559435
100098.174559437
100098.174559438
100098.174559439
100098.17455944
100098.174559439
100098.174559438
100098.174559434
100098.174559428
100098.174559418
100098.174559403
100098.174559378
100098.17455934
100098.174559282
100098.174559193
100098.174559058
100098.17455886
100098.174558567
100098.174558173
100098.174557648
100098.174557149
100098.174556696
100098.172293758
100098.172294013
100098.172294247
100098.172294546
100098.172294777
100098.172294964
100098.172295096
100098.172295191
100098.172295257
100098.172295304
100098.172295336
100098.172295359
100098.172295376
100098.172295388
100098.172295397
100098.172295405
100098.17229541
100098.172295415
100098.172295419
100098.172295423
100098.172295426
100098.172295429
100098.172295432
100098.172295435
100098.172295438
100098.17229544
100098.172295443
100098.172295445
100098.172295448
100098.17229545
100098.172295451
100098.172295452
100098.172295453
100098.172295453
100098.172295451
100098.172295448
100098.172295443
100098.172295434
100098.172295421
100098.172295401
100098.172295371
100098.172295326
100098.172295262
100098.172295168
100098.172295036
100098.172294849
100098.172294614
100098.17229431
100098.17229407
100098.172293807
100098.170025452
100098.170025525
100098.170025557
100098.170025664
100098.170025756
100098.170025846
100098.170025916
100098.170025973
100098.170026015
100098.170026048
100098.170026072
100098.17002609
100098.170026104
100098.170026114
100098.170026123
100098.170026129
100098.170026135
100098.170026139
100098.170026143
100098.170026147
100098.17002615
100098.170026153
100098.170026156
100098.170026159
100098.170026162
100098.170026164
100098.170026167
100098.170026169
100098.170026172
100098.170026174
100098.170026175
100098.170026177
100098.170026177
100098.170026177
100098.170026176
100098.170026173
100098.170026169
100098.170026162
100098.170026151
100098.170026136
100098.170026115
100098.170026085
100098.170026044
100098.170025989
100098.170025919
100098.170025828
100098.170025735
100098.170025624
100098.170025589
100098.170025507
100098.167752882
100098.167752815
100098.167752711
100098.167752676
100098.167752663
100098.167752677
100098.167752697
100098.167752721
100098.167752744
100098.167752763
100098.16775278
100098.167752794
100098.167752805
100098.167752813
100098.167752821
100098.167752827
100098.167752832
100098.167752836
100098.16775284
100098.167752843
100098.167752847
100098.16775285
100098.167752853
100098.167752855
100098.167752858
100098.167752861
100098.167752863
100098.167752866
100098.167752868
100098.16775287
100098.167752872
100098.167752873
100098.167752874
100098.167752874
100098.167752873
100098.167752871
100098.167752868
100098.167752863
100098.167752855
100098.167752845
100098.167752831
100098.167752813
100098.167752793
100098.16775277
100098.16775275
100098.167752737
100098.167752749
100098.167752784
100098.167752886
100098.167752946
100098.165477256
100098.165477104
100098.165476929
100098.165476804
100098.165476723
100098.165476684
100098.165476669
100098.165476668
100098.165476675
100098.165476684
100098.165476694
100098.165476704
100098.165476712
100098.165476719
100098.165476725
100098.16547673
100098.165476735
100098.165476739
100098.165476743
100098.165476746
100098.165476749
100098.165476752
100098.165476755
100098.165476758
100098.16547676
100098.165476763
100098.165476766
100098.165476768
100098.16547677
100098.165476772
100098.165476774
100098.165476776
100098.165476777
100098.165476777
100098.165476777
100098.165476776
100098.165476774
100098.16547677
100098.165476765
100098.165476759
100098.165476752
100098.165476745
100098.16547674
100098.165476742
100098.165476759
100098.165476798
100098.16547688
100098.165477006
100098.165477182
100098.16547733
100098.163199613
100098.163199428
100098.163199232
100098.163199063
100098.163198945
100098.163198875
100098.163198836
100098.163198819
100098.163198813
100098.163198814
100098.163198818
100098.163198824
100098.16319883
100098.163198835
100098.16319884
100098.163198844
100098.163198848
100098.163198852
100098.163198856
100098.163198859
100098.163198862
100098.163198865
100098.163198868
100098.16319887
100098.163198873
100098.163198876
100098.163198878
100098.163198881
100098.163198883
100098.163198885
100098.163198887
100098.163198889
100098.16319889
100098.163198891
100098.163198891
100098.163198891
100098.16319889
100098.163198888
100098.163198885
100098.163198883
100098.163198882
100098.163198883
100098.163198891
100098.16319891
100098.163198951
100098.163199022
100098.163199141
100098.163199312
100098.163199511
100098.163199696
100098.160920742
100098.16092056
100098.160920373
100098.160920193
100098.160920062
100098.160919976
100098.160919923
100098.160919894
100098.16091988
100098.160919874
100098.160919874
100098.160919876
100098.16091988
100098.160919883
100098.160919887
100098.160919891
100098.160919894
100098.160919897
100098.160919901
100098.160919904
100098.160919907
100098.160919909
100098.160919912
100098.160919915
100098.160919918
100098.16091992
100098.160919923
100098.160919925
100098.160919927
100098.16091993
100098.160919932
100098.160919934
100098.160919935
100098.160919936
100098.160919937
100098.160919938
100098.160919938
100098.160919938
100098.160919938
100098.160919939
100098.160919942
100098.16091995
100098.160919967
100098.160919997
100098.160920052
100098.160920139
100098.160920272
100098.160920455
100098.160920647
100098.16092083
100098.158641177
100098.158641019
100098.158640855
100098.158640683
100098.158640554
100098.158640462
100098.158640403
100098.158640367
100098.158640347
100098.158640337
100098.158640332
100098.158640331
100098.158640333
100098.158640335
100098.158640338
100098.15864034
100098.158640343
100098.158640346
100098.158640349
100098.158640352
100098.158640354
100098.158640357
100098.15864036
100098.158640363
100098.158640365
100098.158640368
100098.15864037
100098.158640373
100098.158640375
100098.158640378
100098.15864038
100098.158640382
100098.158640384
100098.158640385
100098.158640387
100098.158640388
100098.158640389
100098.158640391
100098.158640393
100098.158640397
100098.158640404
100098.158640417
100098.15864044
100098.158640478
100098.158640539
100098.158640632
100098.158640764
100098.158640938
100098.158641107
100098.158641267
100098.156361249
100098.156361122
100098.156360985
100098.156360832
100098.156360712
100098.156360622
100098.156360561
100098.156360522
100098.156360497
100098.156360483
100098.156360476
100098.156360472
100098.156360472
100098.156360472
100098.156360474
100098.156360476
100098.156360478
100098.156360481
100098.156360483
100098.156360486
100098.156360489
100098.156360491
100098.156360494
100098.156360496
100098.156360499
100098.156360502
100098.156360504
100098.156360507
100098.156360509
100098.156360511
100098.156360514
100098.156360516
100098.156360518
100098.15636052
100098.156360522
100098.156360524
100098.156360526
100098.156360529
100098.156360534
100098.15636054
100098.15636055
100098.156360567
100098.156360594
100098.156360636
100098.156360699
100098.156360791
100098.156360913
100098.156361069
100098.15636121
100098.15636134
100098.154081148
100098.154081051
100098.15408094
100098.154080809
100098.154080701
100098.154080617
100098.154080557
100098.154080516
100098.154080489
100098.154080472
100098.154080462
100098.154080457
100098.154080454
100098.154080454
100098.154080454
100098.154080456
100098.154080457
100098.154080459
100098.154080462
100098.154080464
100098.154080466
100098.154080469
100098.154080471
100098.154080474
100098.154080477
100098.154080479
100098.154080482
100098.154080484
100098.154080487
100098.154080489
100098.154080492
100098.154080494
100098.154080497
100098.154080499
100098.154080501
100098.154080504
100098.154080508
100098.154080512
100098.154080518
100098.154080526
100098.154080539
100098.154080558
100098.154080588
100098.154080631
100098.154080693
100098.15408078
100098.15408089
100098.154081024
100098.154081138
100098.154081238
100098.151800973
100098.151800901
100098.151800813
100098.151800702
100098.151800608
100098.151800531
100098.151800473
100098.151800432
100098.151800404
100098.151800386
100098.151800374
100098.151800367
100098.151800363
100098.151800361
100098.151800361
100098.151800362
100098.151800363
100098.151800365
100098.151800366
100098.151800369
100098.151800371
100098.151800373
100098.151800376
100098.151800378
100098.151800381
100098.151800383
100098.151800386
100098.151800388
100098.151800391
100098.151800394
100098.151800396
100098.151800399
100098.151800401
100098.151800404
100098.151800407
100098.151800411
100098.151800415
100098.15180042
100098.151800427
100098.151800438
100098.151800452
100098.151800473
100098.151800504
100098.151800548
100098.151800607
100098.151800687
100098.151800783
100098.151800896
100098.151800986
100098.151801061
100098.149520771
100098.149520718
100098.149520649
100098.149520557
100098.149520476
100098.149520406
100098.149520353
100098.149520312
100098.149520284
100098.149520265
100098.149520252
100098.149520243
100098.149520238
100098.149520236
100098.149520235
100098.149520235
100098.149520235
100098.149520237
100098.149520238
100098.14952024
100098.149520242
100098.149520245
100098.149520247
100098.149520249
100098.149520252
100098.149520254
100098.149520257
100098.14952026
100098.149520262
100098.149520265
100098.149520267
100098.14952027
100098.149520273
100098.149520276
100098.14952028
100098.149520284
100098.149520289
100098.149520295
100098.149520303
100098.149520315
100098.149520331
100098.149520353
100098.149520384
100098.149520426
100098.149520482
100098.149520554
100098.149520638
100098.149520731
100098.149520803
100098.149520857
100098.147240565
100098.147240526
100098.147240471
100098.147240395
100098.147240326
100098.147240264
100098.147240214
100098.147240176
100098.147240148
100098.147240128
100098.147240114
100098.147240105
100098.147240099
100098.147240096
100098.147240094
100098.147240093
100098.147240094
100098.147240095
100098.147240096
100098.147240098
100098.1472401
100098.147240102
100098.147240104
100098.147240106
100098.147240109
100098.147240111
100098.147240114
100098.147240117
100098.147240119
100098.147240122
100098.147240125
100098.147240128
100098.147240131
100098.147240134
100098.147240138
100098.147240143
100098.147240148
100098.147240155
100098.147240165
100098.147240177
100098.147240194
100098.147240217
100098.147240247
100098.147240288
100098.147240339
100098.147240403
100098.147240475
100098.147240552
100098.147240609
100098.147240648
100098.144960361
100098.144960333
100098.144960289
100098.144960227
100098.144960167
100098.144960112
100098.144960067
100098.144960031
100098.144960004
100098.144959984
100098.14495997
100098.14495996
100098.144959954
100098.14495995
100098.144959947
100098.144959946
100098.144959946
100098.144959947
100098.144959948
100098.14495995
100098.144959951
100098.144959953
100098.144959956
100098.144959958
100098.14495996
100098.144959963
100098.144959965
100098.144959968
100098.144959971
100098.144959974
100098.144959976
100098.14495998
100098.144959983
100098.144959987
100098.144959991
100098.144959996
100098.144960002
100098.14496001
100098.144960019
100098.144960032
100098.14496005
100098.144960072
100098.144960102
100098.14496014
100098.144960187
100098.144960244
100098.144960305
100098.144960369
100098.144960414
100098.144960443
100098.142680163
100098.142680141
100098.142680106
100098.142680055
100098.142680005
100098.142679957
100098.142679916
100098.142679882
100098.142679857
100098.142679837
100098.142679823
100098.142679813
100098.142679806
100098.142679801
100098.142679798
100098.142679797
100098.142679797
100098.142679797
100098.142679798
100098.142679799
100098.142679801
100098.142679803
100098.142679805
100098.142679807
100098.14267981
100098.142679812
100098.142679815
100098.142679817
100098.14267982
100098.142679823
100098.142679826
100098.142679829
100098.142679833
100098.142679837
100098.142679841
100098.142679846
100098.142679853
100098.142679861
100098.142679871
100098.142679885
100098.142679902
100098.142679924
100098.142679952
100098.142679988
100098.142680031
100098.142680081
100098.142680133
100098.142680186
100098.142680222
100098.142680243
100098.14039997
100098.140399954
100098.140399926
100098.140399884
100098.14039984
100098.140399798
100098.140399762
100098.140399731
100098.140399707
100098.140399688
100098.140399674
100098.140399664
100098.140399656
100098.140399652
100098.140399649
100098.140399647
100098.140399646
100098.140399647
100098.140399647
100098.140399648
100098.14039965
100098.140399652
100098.140399654
100098.140399656
100098.140399658
100098.140399661
100098.140399663
100098.140399666
100098.140399669
100098.140399672
100098.140399675
100098.140399678
100098.140399682
100098.140399686
100098.14039969
100098.140399696
100098.140399703
100098.140399711
100098.140399722
100098.140399735
100098.140399752
100098.140399774
100098.1403998
100098.140399833
100098.140399872
100098.140399916
100098.140399961
100098.140400004
100098.140400033
100098.140400049
100098.138119781
100098.138119769
100098.138119747
100098.138119712
100098.138119675
100098.138119639
100098.138119606
100098.138119578
100098.138119555
100098.138119538
100098.138119524
100098.138119514
100098.138119507
100098.138119502
100098.138119498
100098.138119496
100098.138119496
100098.138119496
100098.138119496
100098.138119497
100098.138119499
100098.1381195
100098.138119502
100098.138119505
100098.138119507
100098.138119509
100098.138119512
100098.138119514
100098.138119517
100098.13811952
100098.138119523
100098.138119527
100098.13811953
100098.138119535
100098.138119539
100098.138119545
100098.138119552
100098.138119561
100098.138119571
100098.138119584
100098.138119601
100098.138119622
100098.138119647
100098.138119677
100098.138119711
100098.13811975
100098.138119788
100098.138119824
100098.138119847
100098.138119859
100098.135839597
100098.135839588
100098.135839569
100098.135839541
100098.13583951
100098.135839478
100098.135839449
100098.135839424
100098.135839403
100098.135839386
100098.135839373
100098.135839363
100098.135839356
100098.135839351
100098.135839348
100098.135839346
100098.135839345
100098.135839345
100098.135839345
100098.135839346
100098.135839347
100098.135839349
100098.135839351
100098.135839353
100098.135839355
100098.135839358
100098.13583936
100098.135839363
100098.135839366
100098.135839369
100098.135839372
100098.135839375
100098.135839379
100098.135839383
100098.135839388
100098.135839394
100098.135839401
100098.13583941
100098.13583942
100098.135839433
100098.135839449
100098.135839468
100098.135839492
100098.135839519
100098.13583955
100098.135839583
100098.135839616
100098.135839646
100098.135839665
100098.135839674
100098.133559416
100098.133559409
100098.133559394
100098.133559371
100098.133559344
100098.133559317
100098.133559291
100098.133559269
100098.13355925
100098.133559234
100098.133559222
100098.133559212
100098.133559205
100098.1335592
100098.133559197
100098.133559195
100098.133559194
100098.133559194
100098.133559194
100098.133559195
100098.133559196
100098.133559198
100098.1335592
100098.133559202
100098.133559204
100098.133559206
100098.133559209
100098.133559211
100098.133559214
100098.133559217
100098.13355922
100098.133559224
100098.133559228
100098.133559232
100098.133559237
100098.133559243
100098.13355925
100098.133559258
100098.133559268
100098.133559281
100098.133559296
100098.133559314
100098.133559336
100098.13355936
100098.133559388
100098.133559417
100098.133559445
100098.133559469
100098.133559485
100098.133559492
100098.131279238
100098.131279233
100098.13127922
100098.131279201
100098.131279179
100098.131279155
100098.131279133
100098.131279113
100098.131279095
100098.131279081
100098.13127907
100098.131279061
100098.131279054
100098.131279049
100098.131279046
100098.131279044
100098.131279043
100098.131279043
100098.131279043
100098.131279044
100098.131279045
100098.131279046
100098.131279048
100098.13127905
100098.131279052
100098.131279055
100098.131279057
100098.13127906
100098.131279063
100098.131279066
100098.131279069
100098.131279072
100098.131279076
100098.13127908
100098.131279085
100098.131279091
100098.131279098
100098.131279106
100098.131279116
100098.131279128
100098.131279142
100098.131279159
100098.131279179
100098.131279201
100098.131279225
100098.13127925
100098.131279274
100098.131279294
100098.131279307
100098.131279312
100098.128999062
100098.128999058
100098.128999048
100098.128999032
100098.128999013
100098.128998993
100098.128998974
100098.128998956
100098.128998941
100098.128998928
100098.128998917
100098.128998909
100098.128998903
100098.128998898
100098.128998895
100098.128998893
100098.128998892
100098.128998891
100098.128998892
100098.128998893
100098.128998894
100098.128998895
100098.128998897
100098.128998899
100098.128998901
100098.128998903
100098.128998906
100098.128998908
100098.128998911
100098.128998914
100098.128998917
100098.128998921
100098.128998924
100098.128998929
100098.128998934
100098.128998939
100098.128998946
100098.128998954
100098.128998963
100098.128998975
100098.128998988
100098.128999003
100098.128999021
100098.128999041
100098.128999062
100098.128999084
100098.128999104
100098.128999121
100098.128999131
100098.128999135
100098.126718888
100098.126718885
100098.126718877
100098.126718864
100098.126718848
100098.126718831
100098.126718815
100098.126718799
100098.126718785
100098.126718774
100098.126718764
100098.126718756
100098.126718751
100098.126718746
100098.126718743
100098.126718741
100098.12671874
100098.12671874
100098.12671874
100098.126718741
100098.126718742
100098.126718744
100098.126718746
100098.126718748
100098.12671875
100098.126718752
100098.126718754
100098.126718757
100098.12671876
100098.126718762
100098.126718766
100098.126718769
100098.126718773
100098.126718777
100098.126718782
100098.126718787
100098.126718794
100098.126718801
100098.12671881
100098.126718821
100098.126718833
100098.126718847
100098.126718863
100098.126718881
100098.126718899
100098.126718918
100098.126718935
100098.126718949
100098.126718957
100098.12671896
100098.124438715
100098.124438713
100098.124438707
100098.124438696
100098.124438684
100098.124438669
100098.124438655
100098.124438642
100098.12443863
100098.124438619
100098.124438611
100098.124438604
100098.124438598
100098.124438594
100098.124438592
100098.12443859
100098.124438589
100098.124438589
100098.124438589
100098.12443859
100098.124438591
100098.124438593
100098.124438594
100098.124438596
100098.124438598
100098.1244386
100098.124438603
100098.124438605
100098.124438608
100098.124438611
100098.124438614
100098.124438617
100098.124438621
100098.124438625
100098.12443863
100098.124438635
100098.124438641
100098.124438648
100098.124438657
100098.124438666
100098.124438678
100098.124438691
100098.124438705
100098.12443872
100098.124438736
100098.124438752
100098.124438766
100098.124438777
100098.124438784
100098.124438786
100098.122158543
100098.122158542
100098.122158538
100098.122158529
100098.122158519
100098.122158507
100098.122158495
100098.122158484
100098.122158473
100098.122158464
100098.122158457
100098.122158451
100098.122158446
100098.122158442
100098.12215844
100098.122158438
100098.122158437
100098.122158437
100098.122158438
100098.122158439
100098.12215844
100098.122158441
100098.122158443
100098.122158445
100098.122158447
100098.122158449
100098.122158451
100098.122158454
100098.122158456
100098.122158459
100098.122158462
100098.122158465
100098.122158469
100098.122158473
100098.122158477
100098.122158482
100098.122158488
100098.122158495
100098.122158503
100098.122158512
100098.122158522
100098.122158533
100098.122158546
100098.12215856
100098.122158573
100098.122158586
100098.122158598
100098.122158607
100098.122158612
100098.122158613
100098.119878372
100098.119878372
100098.119878369
100098.119878363
100098.119878355
100098.119878345
100098.119878335
100098.119878326
100098.119878317
100098.119878309
100098.119878302
100098.119878297
100098.119878293
100098.11987829
100098.119878288
100098.119878286
100098.119878286
100098.119878286
100098.119878286
100098.119878287
100098.119878288
100098.11987829
100098.119878291
100098.119878293
100098.119878295
100098.119878297
100098.1198783
100098.119878302
100098.119878305
100098.119878307
100098.11987831
100098.119878313
100098.119878317
100098.119878321
100098.119878325
100098.11987833
100098.119878335
100098.119878341
100098.119878348
100098.119878357
100098.119878366
100098.119878376
100098.119878387
100098.119878399
100098.11987841
100098.119878421
100098.11987843
100098.119878437
100098.119878441
100098.119878441
100098.117598202
100098.117598203
100098.117598201
100098.117598197
100098.117598191
100098.117598183
100098.117598175
100098.117598167
100098.11759816
100098.117598153
100098.117598148
100098.117598143
100098.11759814
100098.117598137
100098.117598135
100098.117598134
100098.117598134
100098.117598134
100098.117598135
100098.117598135
100098.117598137
100098.117598138
100098.11759814
100098.117598142
100098.117598144
100098.117598146
100098.117598148
100098.11759815
100098.117598153
100098.117598156
100098.117598158
100098.117598161
100098.117598165
100098.117598168
100098.117598172
100098.117598177
100098.117598182
100098.117598187
100098.117598194
100098.117598201
100098.117598209
100098.117598218
100098.117598228
100098.117598238
100098.117598247
100098.117598256
100098.117598263
100098.117598268
100098.117598271
100098.11759827
100098.115318033
100098.115318034
100098.115318034
100098.115318031
100098.115318027
100098.115318021
100098.115318015
100098.115318009
100098.115318003
100098.115317998
100098.115317993
100098.115317989
100098.115317986
100098.115317984
100098.115317983
100098.115317982
100098.115317982
100098.115317982
100098.115317983
100098.115317984
100098.115317985
100098.115317987
100098.115317988
100098.11531799
100098.115317992
100098.115317994
100098.115317996
100098.115317999
100098.115318001
100098.115318004
100098.115318006
100098.115318009
100098.115318012
100098.115318016
100098.115318019
100098.115318023
100098.115318028
100098.115318033
100098.115318039
100098.115318046
100098.115318053
100098.11531806
100098.115318068
100098.115318076
100098.115318084
100098.115318091
100098.115318097
100098.1153181
100098.115318101
100098.1153181
100098.113037864
100098.113037866
100098.113037867
100098.113037866
100098.113037863
100098.11303786
100098.113037855
100098.11303785
100098.113037846
100098.113037842
100098.113037838
100098.113037835
100098.113037833
100098.113037831
100098.11303783
100098.11303783
100098.11303783
100098.11303783
100098.113037831
100098.113037832
100098.113037833
100098.113037835
100098.113037836
100098.113037838
100098.11303784
100098.113037842
100098.113037844
100098.113037847
100098.113037849
100098.113037851
100098.113037854
100098.113037857
100098.11303786
100098.113037863
100098.113037866
100098.11303787
100098.113037874
100098.113037879
100098.113037884
100098.11303789
100098.113037896
100098.113037902
100098.113037909
100098.113037915
100098.113037921
100098.113037927
100098.11303793
100098.113037932
100098.113037932
100098.11303793
100098.110757696
100098.110757699
100098.1107577
100098.110757701
100098.1107577
100098.110757698
100098.110757695
100098.110757692
100098.110757688
100098.110757685
100098.110757683
100098.11075768
100098.110757679
100098.110757678
100098.110757677
100098.110757677
100098.110757677
100098.110757678
100098.110757679
100098.11075768
100098.110757681
100098.110757683
100098.110757685
100098.110757686
100098.110757688
100098.11075769
100098.110757693
100098.110757695
100098.110757697
100098.110757699
100098.110757702
100098.110757704
100098.110757707
100098.11075771
100098.110757713
100098.110757717
100098.11075772
100098.110757724
100098.110757729
100098.110757734
100098.110757739
100098.110757744
100098.110757749
100098.110757754
100098.110757759
100098.110757762
100098.110757764
100098.110757764
100098.110757763
100098.11075776
100098.108477527
100098.108477531
100098.108477534
100098.108477536
100098.108477537
100098.108477536
100098.108477535
100098.108477533
100098.108477531
100098.108477529
100098.108477527
100098.108477526
100098.108477525
100098.108477524
100098.108477524
100098.108477524
100098.108477525
100098.108477525
100098.108477527
100098.108477528
100098.108477529
100098.108477531
100098.108477533
100098.108477535
100098.108477536
100098.108477538
100098.10847754
100098.108477543
100098.108477545
100098.108477547
100098.108477549
100098.108477552
100098.108477554
100098.108477557
100098.10847756
100098.108477563
100098.108477566
100098.10847757
100098.108477573
100098.108477577
100098.108477581
100098.108477585
100098.10847759
100098.108477593
100098.108477596
100098.108477598
100098.108477599
100098.108477597
100098.108477595
100098.108477591
100098.106197359
100098.106197364
100098.106197368
100098.106197372
100098.106197374
100098.106197375
100098.106197375
100098.106197374
100098.106197373
100098.106197372
100098.106197372
100098.106197371
100098.106197371
100098.10619737
100098.106197371
100098.106197371
100098.106197372
100098.106197373
100098.106197374
100098.106197376
100098.106197377
100098.106197379
100098.106197381
100098.106197382
100098.106197384
100098.106197386
100098.106197388
100098.10619739
100098.106197392
100098.106197395
100098.106197397
100098.106197399
100098.106197401
100098.106197404
100098.106197406
100098.106197409
100098.106197412
100098.106197415
100098.106197418
100098.106197421
100098.106197424
100098.106197427
100098.10619743
100098.106197432
100098.106197434
100098.106197434
100098.106197433
100098.10619743
100098.106197427
100098.106197422
100098.103917191
100098.103917197
100098.103917202
100098.103917208
100098.103917211
100098.103917214
100098.103917215
100098.103917215
100098.103917216
100098.103917216
100098.103917216
100098.103917216
100098.103917216
100098.103917217
100098.103917217
100098.103917218
100098.103917219
100098.10391722
100098.103917222
100098.103917223
100098.103917225
100098.103917227
100098.103917228
100098.10391723
100098.103917232
100098.103917234
100098.103917236
100098.103917238
100098.10391724
100098.103917242
100098.103917244
100098.103917246
100098.103917248
100098.10391725
100098.103917253
100098.103917255
100098.103917257
100098.10391726
100098.103917262
100098.103917264
100098.103917267
100098.103917269
100098.10391727
100098.103917271
100098.103917272
100098.10391727
100098.103917268
100098.103917264
100098.103917259
100098.103917253
100098.101637023
100098.10163703
100098.101637037
100098.101637044
100098.101637049
100098.101637052
100098.101637055
100098.101637057
100098.101637058
100098.101637059
100098.10163706
100098.101637061
100098.101637062
100098.101637063
100098.101637064
100098.101637065
100098.101637066
100098.101637068
100098.101637069
100098.101637071
100098.101637072
100098.101637074
100098.101637076
100098.101637078
100098.10163708
100098.101637082
100098.101637084
100098.101637086
100098.101637087
100098.101637089
100098.101637091
100098.101637093
100098.101637095
100098.101637097
100098.101637099
100098.101637101