/*--------------------------------*- C++ -*----------------------------------*\
  =========                 |
  \\      /  F ield         | OpenFOAM: The Open Source CFD Toolbox
   \\    /   O peration     | Website:  https://openfoam.org
    \\  /    A nd           | Version:  10
     \\/     M anipulation  |
\*---------------------------------------------------------------------------*/
FoamFile
{
    format      ascii;
    class       volScalarField;
    location    "7.4";
    object      p_rgh;
}
// * * * * * * * * * * * * * * * * * * * * * * * * * * * * * * * * * * * * * //

dimensions      [1 -1 -2 0 0 0 0];

internalField   nonuniform List<scalar> 
2500
(
98.2925444230787
98.2925466976594
98.2925515727402
98.292555440159
98.292557970708
98.2925595415145
98.2925604798656
98.2925610325765
98.2925613505358
98.2925615305867
98.2925616319262
98.2925616890279
98.2925617218571
98.2925617417059
98.2925617544388
98.2925617632864
98.2925617697038
98.2925617748551
98.2925617792353
98.2925617830042
98.2925617864385
98.2925617896253
98.2925617926376
98.2925617955043
98.2925617982837
98.2925618009613
98.2925618034933
98.2925618058944
98.2925618081063
98.2925618100562
98.2925618116715
98.2925618127338
98.2925618131267
98.2925618124718
98.2925618102454
98.2925618054578
98.2925617963338
98.2925617797009
98.292561749171
98.2925616938883
98.2925615938439
98.2925614143605
98.2925610975944
98.2925605475903
98.2925596135028
98.2925580487936
98.2925555164838
98.292551624967
98.2925467124733
98.2925445094006
98.2928588057111
98.2928686074883
98.2928811667371
98.2928907048481
98.2928969541535
98.2929008358187
98.29290316689
98.2929045349738
98.2929053144617
98.2929057460278
98.2929059786256
98.2929061014584
98.2929061658651
98.2929062001931
98.2929062193143
98.2929062308394
98.2929062384064
98.2929062439944
98.29290624852
98.2929062523763
98.2929062558251
98.2929062590265
98.2929062620533
98.2929062649491
98.292906267714
98.292906270377
98.2929062729236
98.2929062753101
98.292906277522
98.2929062794719
98.292906281029
98.2929062820476
98.2929062822077
98.292906281029
98.2929062775365
98.2929062697367
98.2929062537005
98.292906221599
98.2929061582254
98.2929060352908
98.2929058016307
98.2929053687549
98.2929045900091
98.292903227557
98.2929009087093
98.2928970417997
98.2928907863243
98.2928811825259
98.2928685177321
98.2928590126685
98.293190695229
98.2932081528706
98.2932261738169
98.2932393197552
98.2932478175644
98.293253050957
98.2932561765192
98.293258001504
98.2932590364362
98.2932596060709
98.2932599103224
98.2932600688509
98.2932601503126
98.2932601924113
98.293260214894
98.2932602277724
98.2932602359215
98.2932602416986
98.2932602462679
98.2932602501387
98.293260253573
98.2932602567889
98.2932602598157
98.293260262697
98.2932602654764
98.2932602681249
98.293260270686
98.293260273058
98.2932602752699
98.2932602772198
98.2932602787769
98.2932602797664
98.2932602798392
98.2932602784276
98.2932602743385
98.2932602650399
98.293260245453
98.2932602052897
98.2932601244684
98.2932599652122
98.2932596591272
98.2932590876298
98.2932580532652
98.2932562346978
98.2932531230181
98.2932479028095
98.2932393823285
98.2932261171954
98.2932078870072
98.2931906896411
98.2935003808379
98.2935222775122
98.2935417704721
98.2935553917487
98.2935639471252
98.293569085843
98.2935720880196
98.2935738083179
98.2935747689044
98.2935752911435
98.2935755674116
98.2935757104278
98.2935757837404
98.2935758216772
98.2935758421227
98.2935758540116
98.2935758616659
98.2935758672102
98.2935758716485
98.293575875432
98.2935758788371
98.2935758820095
98.2935758850217
98.2935758878884
98.2935758906533
98.2935758933163
98.2935758958483
98.2935758982494
98.2935759004758
98.2935759024258
98.2935759040265
98.2935759050888
98.2935759053071
98.293575904172
98.2935759006214
98.2935758924432
98.2935758751555
98.2935758395615
98.2935757675587
98.2935756246588
98.2935753474303
98.2935748238378
98.2935738633241
98.293572147013
98.2935691533057
98.293564016858
98.2935554168653
98.2935416295222
98.29352182617
98.2934999508288
98.2937603753235
98.2937826416892
98.2938004869211
98.2938124409848
98.2938197213807
98.293823978398
98.2938264080731
98.2938277743815
98.2938285264972
98.2938289315498
98.2938291448227
98.2938292554027
98.2938293125771
98.2938293427578
98.2938293595507
98.2938293697371
98.293829376591
98.2938293817278
98.2938293859479
98.293829389615
98.2938293929619
98.2938293960906
98.2938293990883
98.2938294019259
98.2938294046762
98.2938294073247
98.2938294098713
98.2938294122723
98.2938294144842
98.2938294164778
98.2938294181367
98.29382941933
98.293829419752
98.2938294190535
98.2938294163905
98.2938294101041
98.2938293967745
98.2938293694751
98.2938293144107
98.2938292051258
98.2938289922313
98.2938285870478
98.2938278352231
98.293826471112
98.2938240448129
98.2938197809708
98.2938124427601
98.2938002997253
98.293782075285
98.2937595582334
98.2939592044713
98.2939786604256
98.2939930311986
98.2940022705297
98.2940077227104
98.2940108235343
98.2940125516034
98.2940135056997
98.2940140242572
98.2940143017622
98.2940144479944
98.2940145244938
98.2940145649336
98.2940145870671
98.2940146000328
98.2940146084002
98.2940146143665
98.2940146190667
98.2940146230394
98.2940146265755
98.2940146298351
98.2940146329056
98.2940146358451
98.2940146386682
98.2940146414185
98.2940146440524
98.294014646599
98.294014649
98.2940146512556
98.2940146532637
98.2940146550245
98.2940146563342
98.2940146570327
98.2940146567853
98.2940146550827
98.2940146507171
98.2940146414476
98.2940146226028
98.2940145849425
98.2940145106404
98.2940143660089
98.2940140895662
98.2940135719982
98.2940126194735
98.2940108922485
98.2940077811363
98.2940022710973
98.2939928492415
98.2939780861198
98.2939581909159
98.2940990500938
98.2941141205665
98.2941245248658
98.2941309475136
98.2941346162697
98.2941366425075
98.2941377436073
98.2941383401339
98.2941386604944
98.2941388313047
98.2941389218613
98.2941389701446
98.2941389965999
98.2941390119086
98.2941390215419
98.2941390282504
98.2941390333872
98.2941390376218
98.2941390413325
98.2941390447231
98.2941390478663
98.294139050864
98.2941390537599
98.2941390565538
98.294139059275
98.2941390619235
98.2941390644555
98.2941390668711
98.2941390691558
98.2941390712367
98.2941390730557
98.2941390745254
98.2941390755004
98.2941390757333
98.2941390749038
98.2941390722699
98.2941390664346
98.2941390546621
98.2941390313936
98.2941389858897
98.2941388976906
98.2941387288156
98.2941384101578
98.2941378153628
98.2941367147578
98.2941346794396
98.2941309628368
98.2941243867244
98.2941136298759
98.2940980547719
98.2941902227321
98.294200774515
98.2942076428008
98.2942117078637
98.2942139498773
98.2942151472671
98.2942157789512
98.2942161134561
98.2942162905529
98.2942163847038
98.2942164352135
98.294216462964
98.2942164790584
98.2942164891138
98.2942164960841
98.294216501381
98.294216505732
98.2942165095155
98.2942165129643
98.2942165161512
98.2942165191926
98.2942165221175
98.2942165249551
98.29421652772
98.2942165304121
98.2942165330314
98.294216535578
98.2942165380227
98.2942165403365
98.2942165424756
98.2942165443965
98.2942165460408
98.2942165472923
98.2942165480054
98.2942165479617
98.2942165467539
98.2942165436689
98.2942165372369
98.294216524504
98.2942164998094
98.2942164520646
98.2942163603439
98.2942161854444
98.2942158530495
98.2942152224859
98.2942140194209
98.2942117435741
98.294207564104
98.2942004150682
98.2941893960815
98.2942456841556
98.2942524512036
98.294256624431
98.2942589809099
98.2942602274561
98.2942608640151
98.2942611857579
98.294261349889
98.2942614345229
98.2942614790663
98.2942615033244
98.2942615173088
98.2942615261709
98.2942615324282
98.294261537274
98.2942615413631
98.2942615450156
98.294261548348
98.2942615514912
98.2942615544889
98.2942615573993
98.2942615602224
98.2942615629872
98.2942615657084
98.294261568386
98.2942615710053
98.2942615735519
98.2942615760257
98.2942615783832
98.2942615806096
98.2942615826469
98.2942615844659
98.2942615859938
98.294261587158
98.2942615878274
98.2942615878274
98.2942615868669
98.2942615843058
98.2942615788779
98.2942615680513
98.2942615466891
98.2942615048087
98.294261422634
98.2942612608895
98.2942609410093
98.2942603021511
98.2942590349267
98.2942566018901
98.2942522273661
98.294245087076
98.2942773403774
98.2942813525297
98.2942836991133
98.2942849481187
98.2942855711444
98.2942858659371
98.2942860026233
98.294286066026
98.2942860959593
98.2942861107294
98.2942861188349
98.2942861239717
98.2942861279298
98.2942861313495
98.2942861345655
98.2942861376214
98.29428614059
98.2942861434858
98.294286146338
98.2942861491319
98.2942861518823
98.2942861546035
98.2942861573101
98.2942861599731
98.294286162607
98.2942861651973
98.294286167773
98.2942861702759
98.2942861726769
98.2942861749762
98.2942861771589
98.2942861791671
98.2942861809861
98.2942861825723
98.2942861838965
98.2942861849442
98.2942861856282
98.2942861858901
98.2942861853662
98.2942861834308
98.294286178294
98.294286166245
98.2942861388728
98.2942860779876
98.2942859436007
98.2942856489826
98.2942850151594
98.2942837198061
98.2942812416877
98.2942769635119
98.2942943728121
98.2942965855618
98.2942978072824
98.2942984030669
98.2942986704002
98.2942987752467
98.2942988109135
98.2942988194554
98.2942988192372
98.2942988171126
98.2942988155992
98.294298815119
98.294298815701
98.2942988170253
98.2942988188734
98.294298821027
98.2942988233845
98.2942988258583
98.2942988283903
98.294298830966
98.2942988335562
98.2942988361756
98.2942988387804
98.2942988413852
98.2942988440045
98.2942988465802
98.2942988491559
98.2942988516734
98.2942988541472
98.2942988565337
98.2942988588475
98.2942988610448
98.2942988631548
98.294298865163
98.2942988670839
98.2942988690338
98.2942988710856
98.2942988734285
98.2942988762807
98.2942988799623
98.2942988844443
98.2942988893337
98.2942988921277
98.2942988861032
98.2942988529394
98.2942987496062
98.2942984778347
98.2942978566716
98.2942965559196
98.2942941706133
98.2943030419119
98.2943041803665
98.2943047646404
98.2943050070608
98.2943050887552
98.2943050973699
98.2943050826434
98.2943050636968
98.294305047908
98.2943050365429
98.2943050293543
98.2943050252798
98.2943050234753
98.2943050231697
98.2943050238828
98.2943050252507
98.2943050270114
98.2943050290778
98.2943050313042
98.2943050336471
98.2943050360773
98.2943050385657
98.2943050410977
98.2943050436588
98.2943050462345
98.2943050488102
98.2943050513713
98.2943050539179
98.2943050564354
98.2943050589238
98.2943050613685
98.2943050637696
98.2943050661561
98.2943050685426
98.2943050710455
98.2943050737667
98.2943050769391
98.2943050808972
98.2943050861504
98.2943050934264
98.2943051035836
98.2943051176844
98.2943051360489
98.294305157513
98.2943051747279
98.2943051682378
98.2943050856411
98.2943048308662
98.2943042026309
98.2943029609742
98.2943072239141
98.294307769349
98.2943080190307
98.2943080863188
98.2943080802506
98.294308045326
98.2943080082914
98.2943079769175
98.294307953649
98.2943079374527
98.2943079269025
98.294307920456
98.2943079169199
98.2943079153338
98.2943079150718
98.2943079157121
98.2943079169636
98.294307918608
98.2943079205434
98.2943079226679
98.2943079249235
98.2943079272954
98.2943079297402
98.2943079322431
98.2943079347751
98.2943079373217
98.2943079398974
98.2943079424731
98.2943079450488
98.2943079476245
98.2943079502002
98.2943079527904
98.2943079554389
98.2943079582328
98.2943079612305
98.2943079646502
98.2943079687684
98.2943079740071
98.2943079809775
98.2943079906399
98.2943080041296
98.2943080230907
98.2943080489058
98.294308082739
98.2943081222184
98.2943081594422
98.2943081663398
98.2943080939731
98.294307821634
98.294307218719
98.2943091343477
98.2943093750364
98.2943094619841
98.2943094511866
98.2943094091024
98.2943093579524
98.2943093130307
98.294309277102
98.2943092507339
98.2943092321075
98.2943092196074
98.2943092115747
98.2943092067144
98.2943092041096
98.2943092030473
98.2943092030619
98.2943092038331
98.2943092051137
98.294309206758
98.2943092086643
98.2943092107598
98.2943092130154
98.2943092153582
98.2943092177884
98.2943092202913
98.2943092228234
98.294309225399
98.2943092280038
98.2943092306232
98.2943092332716
98.2943092359783
98.2943092387577
98.2943092416681
98.2943092447822
98.294309248231
98.2943092522764
98.2943092571659
98.2943092634232
98.2943092716887
98.2943092829228
98.2943092983769
98.2943093197682
98.2943093486829
98.2943093870417
98.2943094342772
98.2943094877119
98.2943095313385
98.2943095407973
98.2943094430666
98.2943091723137
98.2943099549157
98.2943100495177
98.2943100639241
98.294310023688
98.2943099707772
98.2943099165132
98.2943098706746
98.2943098341348
98.2943098069372
98.2943097872776
98.2943097736861
98.2943097645766
98.2943097587704
98.2943097553507
98.2943097536045
98.2943097530951
98.2943097534153
98.2943097543612
98.2943097557436
98.2943097574462
98.2943097593961
98.2943097615207
98.2943097637763
98.2943097661482
98.2943097686075
98.294309771125
98.2943097736861
98.2943097763055
98.294309778983
98.2943097817042
98.2943097845273
98.2943097874668
98.29430979061
98.2943097940297
98.2943097978859
98.2943098024407
98.2943098079995
98.2943098150427
98.2943098242395
98.2943098365358
98.2943098530814
98.2943098754913
98.2943099052354
98.2943099441618
98.2943099922413
98.2943100486737
98.2943101033743
98.294310143945
98.2943101249111
98.2943100154516
98.2943102787685
98.294310308338
98.2943102941499
98.2943102468998
98.2943101943092
98.2943101426645
98.2943100990669
98.2943100637785
98.2943100369739
98.2943100171251
98.2943100030097
98.2943099932309
98.2943099867553
98.2943099826953
98.2943099804106
98.2943099794211
98.2943099793774
98.2943099800032
98.2943099811528
98.2943099826662
98.2943099844706
98.2943099864788
98.2943099886616
98.2943099909753
98.2943099933764
98.2943099958648
98.2943099984404
98.2943100010743
98.294310003781
98.294310006575
98.2943100094999
98.2943100125849
98.2943100159173
98.2943100196135
98.2943100238335
98.2943100288103
98.2943100348784
98.2943100425327
98.2943100523844
98.2943100653356
98.294310082405
98.2943101050041
98.2943101343262
98.2943101719575
98.2943102177378
98.2943102714489
98.294310325844
98.2943103741127
98.2943103865837
98.2943103500293
98.2943103875441
98.2943103907164
98.2943103678263
98.2943103228026
98.2943102748541
98.2943102279969
98.2943101878482
98.2943101547135
98.2943101289857
98.294310109457
98.2943100952252
98.2943100850971
98.2943100781704
98.2943100736593
98.2943100709526
98.2943100695848
98.2943100692064
98.2943100695848
98.2943100705161
98.2943100718694
98.2943100735283
98.2943100754492
98.2943100775447
98.2943100797856
98.2943100821576
98.2943100846169
98.294310087178
98.2943100898265
98.2943100925622
98.294310095429
98.2943100984266
98.2943101016426
98.2943101051496
98.2943101090641
98.2943101135461
98.2943101188721
98.2943101253477
98.294310133424
98.2943101436977
98.2943101569836
98.2943101741548
98.2943101964047
98.29431022465
98.2943102600839
98.2943103023572
98.2943103511934
98.29431040083
98.2943104470905
98.2943104695878
98.2943104632286
98.2943104083679
98.2943104023434
98.2943103789294
98.2943103392608
98.2943102972058
98.294310255631
98.2943102193385
98.2943101887358
98.2943101644341
98.2943101455894
98.2943101315468
98.2943101213168
98.2943101141427
98.294310109326
98.2943101062992
98.2943101046403
98.2943101040291
98.2943101041892
98.2943101049314
98.2943101061246
98.2943101076817
98.2943101094861
98.2943101115088
98.2943101137062
98.2943101160199
98.2943101184646
98.2943101210112
98.2943101236597
98.2943101264245
98.2943101293204
98.2943101324054
98.2943101357232
98.2943101393612
98.2943101434503
98.2943101481505
98.2943101537239
98.294310160476
98.2943101688288
98.2943101793353
98.294310192694
98.2943102096469
98.2943102311983
98.2943102579884
98.2943102908612
98.2943103292055
98.2943103726575
98.2943104163423
98.2943104572478
98.2943104807928
98.2943104853766
98.2943103958096
98.2943103876314
98.294310366633
98.294310332858
98.2943102966237
98.2943102602148
98.294310227735
98.2943101998098
98.294310177138
98.2943101592391
98.294310145604
98.2943101354758
98.294310128229
98.2943101232377
98.2943101200071
98.2943101181445
98.294310117315
98.2943101173005
98.2943101179117
98.294310118974
98.2943101204146
98.2943101221463
98.2943101240962
98.2943101262354
98.29431012852
98.2943101309356
98.2943101334531
98.2943101361016
98.294310138881
98.2943101418205
98.2943101449491
98.2943101483397
98.2943101520796
98.2943101562996
98.29431016116
98.2943101668934
98.2943101738201
98.2943101823184
98.2943101928686
98.2943102060817
98.2943102226127
98.2943102431891
98.2943102683057
98.2943102984864
98.2943103329599
98.2943103711732
98.29431040895
98.2943104438891
98.2943104652077
98.2943104727165
98.2943103721482
98.2943103644357
98.2943103465805
98.294310318277
98.2943102873251
98.2943102556892
98.2943102268619
98.2943102015852
98.2943101806886
98.2943101638666
98.2943101508281
98.2943101409764
98.2943101338024
98.2943101287674
98.2943101254205
98.2943101234268
98.2943101224664
98.2943101223209
98.2943101228011
98.2943101237761
98.2943101251294
98.2943101267738
98.2943101286655
98.2943101307465
98.294310133002
98.294310135374
98.2943101378914
98.2943101405253
98.2943101433048
98.2943101462588
98.2943101494311
98.2943101528799
98.294310156678
98.2943101609853
98.294310165933
98.2943101717683
98.2943101787532
98.2943101872515
98.2943101976998
98.2943102106074
98.2943102264981
98.2943102459685
98.2943102692807
98.2943102967693
98.2943103275611
98.2943103609432
98.2943103933358
98.2943104227306
98.2943104409642
98.2943104483275
98.2943103459547
98.2943103394646
98.2943103246362
98.2943103011203
98.2943102748541
98.2943102474819
98.2943102220743
98.2943101993878
98.2943101802957
98.294310164667
98.2943101523706
98.294310142941
98.294310135956
98.2943101309793
98.2943101276178
98.294310125566
98.2943101245182
98.2943101242854
98.2943101246783
98.294310125566
98.2943101268465
98.2943101284473
98.2943101302808
98.2943101323181
98.2943101345154
98.2943101368728
98.2943101393612
98.2943101419805
98.2943101447745
98.2943101477285
98.2943101509009
98.2943101543788
98.2943101582059
98.2943101625424
98.2943101675337
98.2943101733836
98.2943101803539
98.2943101887504
98.2943101989658
98.2943102114223
98.2943102265417
98.2943102447753
98.2943102662684
98.2943102911086
98.2943103184371
98.2943103474681
98.2943103751313
98.2943103996658
98.2943104148726
98.2943104211299
98.2943103201833
98.2943103150465
98.2943103029247
98.2943102834979
98.2943102612917
98.2943102377758
98.2943102154968
98.2943101952987
98.2943101780111
98.2943101636629
98.2943101522105
98.2943101433048
98.2943101366254
98.2943101317942
98.2943101285055
98.2943101264391
98.2943101253622
98.2943101250712
98.2943101254205
98.2943101262499
98.2943101274723
98.2943101290148
98.2943101308047
98.2943101327983
98.2943101349665
98.2943101372948
98.2943101397541
98.2943101423589
98.2943101451237
98.2943101480778
98.2943101512501
98.2943101547135
98.2943101585552
98.2943101628916
98.2943101678684
98.2943101736601
98.2943101805286
98.2943101887358
98.294310198602
98.2943102105055
98.2943102247373
98.2943102416612
98.2943102613062
98.2943102836289
98.2943103077705
98.2943103329162
98.2943103564321
98.2943103768193
98.2943103893049
98.2943103943107
98.2943102957361
98.2943102918216
98.2943102820427
98.2943102660938
98.2943102474383
98.2943102273421
98.2943102079735
98.2943101901328
98.294310174635
98.2943101615965
98.2943101510464
98.2943101427518
98.2943101364654
98.294310131867
98.2943101287092
98.294310126701
98.2943101256387
98.2943101253477
98.2943101256678
98.2943101264682
98.2943101276469
98.2943101291603
98.2943101309065
98.294310132871
98.2943101349956
98.2943101372803
98.294310139725
98.2943101423007
98.2943101450364
98.2943101479614
98.2943101511191
98.2943101545534
98.294310158366
98.2943101626588
98.2943101675628
98.2943101732671
98.2943101799465
98.2943101878773
98.2943101973069
98.2943102085555
98.294310221856
98.2943102374265
98.2943102552381
98.2943102751597
98.2943102963472
98.2943103180151
98.2943103379512
98.2943103548023
98.294310364945
98.2943103687721
98.2943102726858
98.2943102698773
98.2943102620775
98.2943102491408
98.2943102335703
98.2943102165591
98.2943101998535
98.2943101842393
98.2943101704877
98.2943101587734
98.2943101491837
98.2943101415731
98.2943101357378
98.2943101314595
98.2943101284764
98.2943101265846
98.2943101255951
98.2943101253186
98.2943101256242
98.29431012641
98.2943101275887
98.2943101290584
98.2943101307756
98.294310132711
98.2943101348064
98.294310137062
98.2943101394631
98.2943101420096
98.2943101447163
98.2943101476121
98.2943101507262
98.2943101541168
98.2943101578712
98.2943101620767
98.2943101668789
98.2943101724086
98.2943101788551
98.2943101864366
98.2943101953715
98.2943102058925
98.2943102181889
98.2943102324061
98.2943102484278
98.2943102660793
98.2943102845602
98.2943103031139
98.2943103198922
98.294310333702
98.2943103418656
98.2943103446451
98.2943102508871
98.294310249039
98.2943102429999
98.294310232639
98.2943102198187
98.2943102055433
98.294310191297
98.2943101777782
98.2943101657147
98.2943101553246
98.294310146739
98.2943101398414
98.29431013453
98.2943101306009
98.2943101278652
98.2943101261335
98.2943101252313
98.294310125013
98.2943101253622
98.294310126148
98.2943101273122
98.2943101287674
98.29431013047
98.2943101323763
98.2943101344426
98.2943101366691
98.2943101390265
98.2943101415294
98.2943101441924
98.2943101470446
98.2943101501005
98.2943101534183
98.2943101571
98.2943101611891
98.2943101658311
98.2943101711571
98.2943101773126
98.2943101844867
98.2943101928686
98.2943102026184
98.2943102138815
98.2943102267309
98.2943102410354
98.2943102565478
98.2943102725403
98.2943102883
98.2943103023135
98.2943103135185
98.2943103199068
98.2943103217694
98.2943102301506
98.2943102291756
98.2943102246645
98.2943102165882
98.2943102061981
98.2943101944111
98.2943101824203
98.2943101708806
98.2943101604469
98.2943101513665
98.2943101437704
98.2943101376441
98.2943101328856
98.294310129364
98.2943101269047
98.2943101253768
98.2943101246055
98.2943101244746
98.2943101248675
98.2943101256824
98.2943101268611
98.2943101283163
98.2943101299898
98.2943101318815
98.2943101339188
98.2943101361016
98.2943101384299
98.2943101408891
98.2943101435085
98.2943101462879
98.294310149271
98.2943101525161
98.2943101560813
98.2943101600249
98.2943101644923
98.2943101695564
98.2943101753772
98.2943101821002
98.2943101898709
98.2943101988203
98.2943102090503
98.2943102205463
98.2943102331919
98.2943102466816
98.2943102603895
98.2943102736172
98.2943102851714
98.2943102940626
98.2943102989375
98.2943102999561
98.2943102102436
98.2943102100689
98.2943102069548
98.2943102009158
98.2943101927085
98.2943101831916
98.2943101732671
98.2943101636047
98.2943101547135
98.2943101469136
98.2943101403216
98.2943101349811
98.2943101308192
98.2943101277342
98.2943101256096
98.2943101243
98.2943101237033
98.2943101236742
98.2943101241399
98.294310125013
98.2943101262063
98.2943101276614
98.2943101293349
98.2943101311976
98.2943101332203
98.294310135374
98.2943101376586
98.2943101400742
98.2943101426208
98.294310145342
98.2943101482379
98.2943101513665
98.2943101548008
98.2943101585843
98.2943101628189
98.2943101676065
98.2943101730634
98.2943101792916
98.2943101864221
98.2943101945566
98.2943102037243
98.2943102139106
98.294310224941
98.2943102365389
98.2943102481368
98.2943102590798
98.2943102684221
98.2943102752615
98.294310278754
98.2943102790305
98.2943101910205
98.2943101916171
98.2943101897836
98.2943101855926
98.294310179379
98.2943101719429
98.2943101639394
98.2943101560231
98.2943101486308
98.2943101420824
98.2943101364945
98.2943101319397
98.294310128389
98.2943101257842
98.2943101240089
98.2943101229612
98.2943101225392
98.2943101226556
98.2943101232086
98.2943101241399
98.2943101253622
98.2943101268465
98.29431012852
98.2943101303681
98.2943101323617
98.2943101344863
98.2943101367273
98.2943101390847
98.2943101415731
98.294310144207
98.2943101470009
98.2943101500132
98.2943101532874
98.2943101568817
98.2943101608835
98.2943101653509
98.2943101704004
98.2943101761193
98.2943101825949
98.2943101898854
98.2943101980054
98.2943102069112
98.2943102164136
98.2943102262216
98.2943102358695
98.2943102447025
98.2943102520367
98.2943102570134
98.2943102592544
98.2943102587742
98.2943101722922
98.2943101736601
98.2943101730198
98.2943101705459
98.2943101661658
98.2943101606361
98.294310154437
98.2943101481651
98.2943101421988
98.2943101368437
98.2943101322599
98.2943101285055
98.2943101255951
98.2943101234705
98.294310122059
98.2943101213023
98.2943101210985
98.2943101213605
98.2943101220299
98.2943101230339
98.2943101243
98.2943101257988
98.2943101274868
98.2943101293349
98.2943101312994
98.2943101333949
98.2943101355922
98.2943101378914
98.2943101403071
98.2943101428391
98.2943101455312
98.2943101484125
98.2943101515266
98.2943101549026
98.2943101586425
98.2943101627752
98.2943101674027
98.2943101725687
98.2943101783749
98.2943101848214
98.2943101919082
98.2943101995625
98.2943102075951
98.2943102157296
98.294310223544
98.2943102304416
98.2943102359277
98.2943102391873
98.2943102402496
98.2943102390418
98.2943101539422
98.2943101560959
98.2943101565907
98.2943101557612
98.2943101530691
98.2943101493292
98.2943101448182
98.2943101400888
98.2943101354904
98.2943101312994
98.2943101276906
98.2943101247365
98.2943101224519
98.2943101208366
98.2943101198325
98.2943101193669
98.294310119396
98.2943101198325
98.2943101206183
98.2943101217097
98.2943101230339
98.2943101245619
98.2943101262645
98.294310128098
98.294310130048
98.2943101320998
98.2943101342535
98.2943101364945
98.2943101388373
98.294310141282
98.2943101438577
98.2943101465789
98.2943101495039
98.2943101526616
98.2943101561104
98.2943101598939
98.2943101640703
98.2943101686978
98.2943101738056
98.2943101794226
98.2943101854908
98.2943101919373
98.2943101985875
98.2943102051213
98.2943102112331
98.2943102163263
98.2943102201098
98.2943102217396
98.2943102216668
98.2943102197023
98.2943101358396
98.2943101388228
98.294310140438
98.2943101411802
98.2943101401033
98.2943101380224
98.2943101350829
98.2943101318233
98.2943101285346
98.2943101254641
98.2943101228011
98.2943101206329
98.2943101190031
98.2943101178971
98.2943101172859
98.294310117155
98.2943101174169
98.2943101180281
98.2943101189594
98.2943101201381
98.2943101215351
98.2943101231067
98.2943101248238
98.2943101266574
98.2943101285928
98.2943101306155
98.294310132711
98.2943101348937
98.2943101371493
98.2943101394922
98.2943101419369
98.2943101445126
98.2943101472338
98.2943101501587
98.2943101533019
98.2943101567216
98.2943101604469
98.2943101645069
98.2943101689307
98.2943101737037
98.2943101787969
98.2943101840647
98.2943101893761
98.2943101944256
98.2943101989367
98.2943102023419
98.2943102045101
98.2943102045538
98.2943102034042
98.2943102006393
98.2943101178535
98.2943101217388
98.2943101245037
98.2943101267738
98.2943101272249
98.2943101267447
98.2943101252749
98.2943101234123
98.2943101213459
98.2943101193669
98.2943101176352
98.2943101162382
98.2943101152341
98.294310114652
98.2943101144629
98.2943101146375
98.2943101151614
98.2943101159763
98.2943101170531
98.2943101183337
98.2943101198034
98.2943101214187
98.2943101231649
98.2943101249984
98.2943101269193
98.2943101289129
98.2943101309647
98.2943101330748
98.2943101352284
98.2943101374694
98.2943101397832
98.2943101421988
98.2943101447163
98.2943101473793
98.2943101502315
98.2943101532583
98.2943101565179
98.2943101600249
98.2943101637647
98.2943101677229
98.2943101718411
98.2943101759884
98.2943101800483
98.2943101836718
98.294310186684
98.2943101884739
98.2943101890996
98.2943101876153
98.2943101853452
98.2943101817364
98.29431009994
98.2943101048295
98.294310108744
98.2943101125566
98.2943101144774
98.294310115496
98.2943101154378
98.2943101148849
98.2943101139972
98.2943101130513
98.2943101122073
98.2943101115816
98.2943101112178
98.294310111145
98.2943101113779
98.2943101118872
98.294310112673
98.2943101136916
98.294310114914
98.294310116311
98.2943101178535
98.2943101195269
98.2943101212877
98.2943101231358
98.2943101250421
98.2943101269921
98.2943101290002
98.2943101310375
98.2943101331184
98.294310135243
98.2943101374258
98.2943101396522
98.294310141966
98.2943101443816
98.2943101468991
98.2943101495621
98.294310152356
98.2943101552955
98.294310158366
98.2943101615092
98.2943101646961
98.2943101677811
98.2943101706041
98.2943101728888
98.294310174475
98.2943101747514
98.2943101739074
98.2943101708952
98.2943101674755
98.2943101629062
98.294310081983
98.2943100879929
98.2943100931152
98.2943100984994
98.2943101018463
98.2943101043056
98.2943101055716
98.2943101062556
98.2943101064884
98.2943101065466
98.2943101065612
98.294310106663
98.294310106925
98.2943101073615
98.2943101080018
98.2943101088604
98.2943101099081
98.2943101111305
98.2943101125129
98.2943101140409
98.2943101156707
98.2943101173878
98.2943101191922
98.2943101210403
98.2943101229321
98.2943101248675
98.2943101268174
98.2943101287819
98.2943101307756
98.2943101327837
98.294310134821
98.2943101368728
98.2943101389828
98.294310141122
98.2943101433339
98.294310145604
98.2943101479323
98.2943101503042
98.2943101527198
98.2943101550918
98.2943101573765
98.2943101594137
98.2943101611017
98.2943101621058
98.2943101623532
98.2943101611745
98.2943101588899
98.2943101543206
98.2943101497222
98.2943101440615
98.2943100639241
98.2943100712437
98.2943100776465
98.2943100846169
98.2943100893608
98.2943100932025
98.29431009572
98.2943100975681
98.2943100988632
98.2943100998673
98.2943101007259
98.2943101015408
98.2943101023993
98.2943101033452
98.2943101044075
98.2943101056007
98.294310106925
98.2943101083656
98.2943101099081
98.2943101115525
98.2943101132696
98.2943101150449
98.2943101168785
98.2943101187411
98.2943101206329
98.2943101225246
98.2943101244309
98.2943101263227
98.294310128229
98.2943101301207
98.2943101319979
98.2943101338897
98.2943101357814
98.2943101376586
98.2943101395504
98.2943101414276
98.2943101432902
98.2943101451237