/*--------------------------------*- C++ -*----------------------------------*\
  =========                 |
  \\      /  F ield         | OpenFOAM: The Open Source CFD Toolbox
   \\    /   O peration     | Website:  https://openfoam.org
    \\  /    A nd           | Version:  10
     \\/     M anipulation  |
\*---------------------------------------------------------------------------*/
FoamFile
{
    format      ascii;
    class       surfaceScalarField;
    location    "7.4";
    object      phi;
}
// * * * * * * * * * * * * * * * * * * * * * * * * * * * * * * * * * * * * * //

dimensions      [1 0 -1 0 0 0 0];

internalField   nonuniform List<scalar> 
4900
(
-5.51892003274453e-12
5.54410061540441e-12
-7.99038097229658e-12
2.51015930877326e-12
-7.52878650651662e-12
-4.20297989269284e-13
-5.81303358641661e-12
-1.67521693896783e-12
-4.08810536433588e-12
-1.68507936774122e-12
-2.75948269462904e-12
-1.28906603123984e-12
-1.83896642674975e-12
-8.81114860536527e-13
-1.22663987310002e-12
-5.73106100192407e-13
-8.24835361869208e-13
-3.62838446228717e-13
-5.60682880268556e-13
-2.25511394889312e-13
-3.8496128182166e-13
-1.37454140268897e-13
-2.65780563982117e-13
-8.13133732345842e-14
-1.82867366514964e-13
-4.54521534632009e-14
-1.23508496447578e-13
-2.22975109612952e-14
-7.97570910413673e-14
-7.07272791785159e-15
-4.66329992076273e-14
3.19294604277744e-15
-2.09723541735142e-14
1.03195224099663e-14
-6.95348272489764e-16
1.53906297380853e-14
1.55988106001534e-14
1.90861414045282e-14
2.88941211748782e-14
2.18215073664812e-14
3.99121682793608e-14
2.38592114125287e-14
4.92066341246694e-14
2.53653213668851e-14
5.72230215760377e-14
2.64486833244595e-14
6.43388924901993e-14
2.71752084972613e-14
7.08838707058055e-14
2.7592705110007e-14
7.71764628125522e-14
2.77106408788414e-14
8.35324345924038e-14
2.75320050969794e-14
9.02812434816227e-14
2.70414921470707e-14
9.77910454545196e-14
2.61996080651554e-14
1.06506933274388e-13
2.49295635598693e-14
1.16969142578342e-13
2.31359775808378e-14
1.29889419469484e-13
2.06476007071774e-14
1.46238658910727e-13
1.72065235440839e-14
1.67408141088158e-13
1.23930983135309e-14
1.95476712993878e-13
5.52106241587069e-15
2.33637486326164e-13
-4.52301662127048e-15
2.86882866819966e-13
-1.95393485265952e-14
3.63173087123576e-13
-4.24982698583835e-14
4.75199768034831e-13
-7.81367621998607e-14
6.43247903283102e-13
-1.3405588074495e-13
8.99178170044874e-13
-2.21842877294565e-13
1.29227234042457e-12
-3.58930021449183e-13
1.89592349819273e-12
-5.69432316926975e-13
2.80982265104218e-12
-8.79624778107338e-13
4.13907334827822e-12
-1.29483688193974e-12
5.88057415577143e-12
-1.70668847543823e-12
7.63006722072344e-12
-1.7138112164971e-12
8.10635947167557e-12
-4.39160326124675e-13
5.57684338178937e-12
2.56695571338093e-12
5.60290818783546e-12
-8.58548190022323e-12
1.4164690032519e-11
-1.39270493019135e-11
7.90195124934686e-12
-1.36943684738118e-11
-6.00290211685887e-13
-1.09486976388019e-11
-4.36920914927416e-12
-7.9295714662104e-12
-4.65346105732923e-12
-5.51222447404287e-12
-3.65616771104862e-12
-3.78534243500389e-12
-2.55807928926426e-12
-2.60855223335523e-12
-1.70030904663468e-12
-1.81645219537561e-12
-1.10574118822454e-12
-1.28097501207467e-12
-7.12241502756949e-13
-9.13180536914273e-13
-4.56992078985551e-13
-6.54717353711953e-13
-2.92030006849006e-13
-4.6807483754001e-13
-1.84857477003212e-13
-3.29412686806362e-13
-1.14219561410738e-13
-2.2357242119005e-13
-6.6646296249743e-14
-1.40825096565043e-13
-3.37346264016434e-14
-7.48073134394081e-14
-1.02945035179803e-14
-2.12237529629282e-14
6.82470292274016e-15
2.29241825034916e-14
1.960148649489e-14
5.98119734297548e-14
2.92718036709486e-14
9.10867712295012e-14
3.66269245879908e-14
1.18047436383731e-13
4.21795765167418e-14
1.41771802587947e-13
4.62593827939145e-14
1.63178087315855e-13
4.90902289070292e-14
1.83102598944239e-13
5.08011493034182e-14
2.02338045274077e-13
5.14439275656508e-14
2.21676150859684e-13
5.10213205766936e-14
2.41944619165149e-13
4.94817031727131e-14
2.64056199928674e-13
4.6699237826682e-14
2.89066223283611e-13
4.24538715496708e-14
3.18257474616056e-13
3.64231242662485e-14
3.53251141684507e-13
2.80981482530733e-14
3.96192480591102e-13
1.66980186149345e-14
4.50059757607704e-13
9.71416039302027e-16
5.19155899566824e-13
-2.10910726095071e-14
6.09870454911474e-13
-5.26890620520495e-14
7.31957531267786e-13
-9.89884314474707e-14
9.00600533570193e-13
-1.68391629167035e-13
1.13965461052463e-12
-2.74314369535686e-13
1.48666513173844e-12
-4.38057619749419e-13
2.00004072130675e-12
-6.92084723552111e-13
2.76900941041703e-12
-1.08465714385147e-12
3.92289346817878e-12
-1.6799841945008e-12
5.63114015766543e-12
-2.54442335901019e-12
8.04417598226857e-12
-3.66415410953176e-12
1.1089407383576e-11
-4.70752517697748e-12
1.38947839816573e-11
-4.47345947637006e-12
1.41567432263562e-11
-6.53688928099751e-13
8.71716043893986e-12
8.05263440500448e-12
1.43500929498922e-11
-7.08545287159345e-12
2.1287686248382e-11
-1.30211078012477e-11
1.38893191371395e-11
-1.34564286985223e-11
-1.11623317146139e-13
-1.1223050394032e-11
-6.55052944665445e-12
-8.45908919811947e-12
-7.36656082785448e-12
-6.12538564492213e-12
-5.9397721094947e-12
-4.38589606210254e-12
-4.24801044725996e-12
-3.15436416353519e-12
-2.88276283137884e-12
-2.29258421033897e-12
-1.91892651342888e-12
-1.68603211226986e-12
-1.27069934914095e-12
-1.25179605699319e-12
-8.43645185690439e-13
-9.33875608672689e-13
-5.62881199271944e-13
-6.95267838079348e-13
-3.76898981279923e-13
-5.11737148320382e-13
-2.51669716031655e-13
-3.67349596633729e-13
-1.65415464652535e-13
-2.51493579632077e-13
-1.04407216269262e-13
-1.56941356171194e-13
-6.00683270919374e-14
-7.86341346494038e-14
-2.70801438990987e-14
-1.2908662186205e-14
-2.06743577910076e-15
4.29823856848307e-14
1.71200182039271e-14
9.11858079081102e-14
3.18746237478273e-14
1.33430603099595e-13
4.3124807147695e-14
1.71181055864912e-13
5.1465171772767e-14
2.05705149230652e-13
5.73142284901213e-14
2.38177578122146e-13
6.08935393076612e-14
2.69710991422149e-13
6.23156856954752e-14
3.01415256409839e-13
6.15853930865942e-14
3.34449393904775e-13
5.86005080572958e-14
3.70079094656333e-13
5.31280261676634e-14
4.0973640821703e-13
4.47811281781188e-14
4.55137544687737e-13
3.29531352268572e-14
5.08397840620009e-13
1.67372548649842e-14
5.72226444014981e-13
-5.24087362988052e-15
6.50264727978738e-13
-3.51631305103988e-14
7.47574841635372e-13
-7.64578875347907e-14
8.71386599049985e-13
-1.34492011654263e-13
1.03234140012722e-12
-2.17843668660498e-13
1.2463869517645e-12
-3.40224282421325e-13
1.53779972078247e-12
-5.23383055610018e-13
1.94365781907004e-12
-8.01429987536041e-13
2.52013159136672e-12
-1.2259295609537e-12
3.35060566699401e-12
-1.87236375964454e-12
4.55112199115803e-12
-2.83759187208403e-12
6.26421053926583e-12
-4.21441039892432e-12
8.586640988781e-12
-5.94309213579957e-12
1.13718308914826e-11
-7.44835447377129e-12
1.366606909313e-11
-6.72172632074076e-12
1.3274099293769e-11
-2.14038798742411e-13
7.25246794021143e-12
1.41199863768895e-11
2.16316942497814e-11
-4.11604244850562e-12
2.54422594983973e-11
-8.89207068728123e-12
1.87172852757067e-11
-9.9606659424843e-12
1.00994198564243e-12
-8.89890541452764e-12
-7.56089210223337e-12
-7.15349303445199e-12
-9.06203651481817e-12
-5.5111079012069e-12
-7.5332301415095e-12
-4.1855861056508e-12
-5.52533782598096e-12
-3.18064005333994e-12
-3.84012259098587e-12
-2.43146132423176e-12
-2.62107372360476e-12
-1.87205099465708e-12
-1.78361028874758e-12
-1.44933711036509e-12
-1.22037660636142e-12
-1.12471651646056e-12
-8.42021552457404e-13
-8.7097859213624e-13
-5.85641601238146e-13
-6.69152673783357e-13
-4.08965324505066e-13
-5.0598164471979e-13
-2.84496513301277e-13
-3.72100844096876e-13
-1.94613167590174e-13
-2.60768327302553e-13
-1.28113437300786e-13
-1.67042793732007e-13
-7.78778971335163e-14
-8.71826534921278e-14
-3.9330894079305e-14
-1.82878198339186e-14
-9.48199175810811e-15
4.19655990194148e-14
1.3637581446896e-14
9.55033425480043e-14
3.13533702835735e-14
1.43974835277256e-13
4.45356562585972e-14
1.88838262378335e-13
5.37930890044025e-14
2.31444831026908e-13
5.94542208513355e-14
2.73087511590234e-13
6.16870087089151e-14
3.15053508614287e-13
6.05029253548957e-14
3.58682940002338e-13
5.5744086076954e-14
4.05427345565505e-13
4.70667035766828e-14
4.56908931639005e-13
3.39124248174043e-14
5.15029087139856e-13
1.53949702744646e-14
5.82090481283957e-13
-9.79196525476107e-15
6.60954804701688e-13
-4.35823600674236e-14
7.55336695721487e-13
-8.90077004847171e-14
8.70172411263313e-13
-1.50717870217903e-13
1.0121808003574e-12
-2.35861259960428e-13
1.19073051253882e-12
-3.55666287314108e-13
1.41907568528421e-12
-5.27730660310797e-13
1.71621915427778e-12
-7.79556273639824e-13
2.10944855004723e-12
-1.15354288221737e-12
2.63756859616833e-12
-1.71277726649746e-12
3.35413562723145e-12
-2.54749660067582e-12
4.32643985034624e-12
-3.76828424611668e-12
5.62273286445863e-12
-5.46884726984864e-12
7.24783665801549e-12
-7.52587835665591e-12
9.00331647338847e-12
-9.16053879685207e-12
1.0113272646644e-11
-7.7866087993848e-12
9.09629459033532e-12
8.49782790888263e-13
4.27083738956405e-12
1.89900831388314e-11
2.59307081078512e-11
-1.29147989324858e-12
2.67719332128456e-11
-4.25410334370159e-12
2.17305090210941e-11
-5.72169316581298e-12
2.52840008522721e-12
-5.83952474303761e-12
-7.39397377930428e-12
-5.23680276675956e-12
-9.61731740291578e-12
-4.4229360598596e-12
-8.30084623385114e-12
-3.62933180279898e-12
-6.27356201941501e-12
-2.94207030205445e-12
-4.48269557758639e-12
-2.37379278388026e-12
-3.14525767577521e-12
-1.91258804788595e-12
-2.20126099015265e-12
-1.54000249722491e-12
-1.54991309902624e-12
-1.23832560729831e-12
-1.10112980071833e-12
-9.92589272032464e-13
-7.89267394754552e-13
-7.90793060324203e-13
-5.69088167826385e-13
-6.23567217034382e-13
-4.10463268457556e-13
-4.83656935728394e-13
-2.93655745614869e-13
-3.65436301493677e-13
-2.05831997931289e-13
-2.64527519151042e-13
-1.3862508961234e-13
-1.77462282919482e-13
-8.65491628604256e-14
-1.01450210440281e-13
-4.59353354432467e-14
-3.41914556838738e-14
-1.4325505038035e-14
2.62638364223864e-14
9.95583881138107e-15
8.16035670312389e-14
2.80405318235787e-14
1.33352576954846e-13
4.06993092276202e-14
1.82922442042432e-13
4.83729662709094e-14
2.31672033999707e-13
5.12809797051999e-14
2.80955611362378e-13
4.94385337590872e-14
3.32177032186725e-13
4.2637628189777e-14
3.86840812663321e-13
3.04323075507046e-14
4.4661963234696e-13
1.2096353878571e-14
5.13434892125149e-13
-1.35054281134095e-14
5.89564007641989e-13
-4.80348771792394e-14
6.77763420791155e-13
-9.39041626068818e-14
7.81472384713152e-13
-1.54826070591879e-13
9.05038273332688e-13
-2.36357367833855e-13
1.0540503350195e-12
-3.46887438925682e-13
1.2357302847921e-12
-4.99277294358232e-13
1.45942227858916e-12
-7.13247395416176e-13
1.73711206473023e-12
-1.01894392990169e-12
2.0837903792385e-12
-1.46177424943519e-12
2.51728709611573e-12
-2.10766866891013e-12
3.05632995339063e-12
-3.04776380262481e-12
3.71356177549108e-12
-4.38655017465749e-12
4.47838716973988e-12
-6.19444914082355e-12
5.27046309274382e-12
-8.27825975275054e-12
5.87050907433592e-12
-9.71989771217953e-12
5.78195760002719e-12
-7.65555049159652e-12
4.36471482598515e-12
2.31126374595812e-12
1.39479791299082e-12
2.20020216808283e-11
2.73515416330075e-11
6.88396354249808e-13
2.61206581267475e-11
-5.9201486827895e-13
2.30592818988821e-11
-2.18353813466216e-12
4.1680406603584e-12
-3.14208398886143e-12
-6.38925966549553e-12
-3.43934370173995e-12
-9.27567147900146e-12
-3.31656170257256e-12
-8.38056303914495e-12
-2.99139358612798e-12
-6.55663147343202e-12
-2.60043249634266e-12
-4.83230400739981e-12
-2.21307383024323e-12
-3.49187737412534e-12
-1.85972769626418e-12
-2.51440347532467e-12
-1.55036864768972e-12
-1.81955408209782e-12
-1.2851292770075e-12
-1.32710544722136e-12
-1.05992573993988e-12
-9.75636806702587e-13
-8.69263715387426e-13
-7.21325540716057e-13
-7.07607484511237e-13
-5.34083079702272e-13
-5.69936801251633e-13
-3.93657693605906e-13
-4.51938018493853e-13
-2.86507066663248e-13
-3.49989410235089e-13
-2.03572153241855e-13
-2.61067233046555e-13
-1.38767088236524e-13
-1.82634859095529e-13
-8.79378067122751e-14
-1.12546380729666e-13
-4.82328635715734e-14
-4.89388564865612e-14
-1.76964987630049e-14
9.8274589444066e-15
5.02717865864369e-15
6.52497625291045e-14
2.08499488142994e-14
1.18722382356199e-13
3.03150038201331e-14
1.71593262127857e-13
3.36872182822244e-14
2.25207181228894e-13
3.09841848350053e-14
2.80951505154945e-13
2.19542491043499e-14
3.40298549434967e-13
6.06524045543784e-15
4.04879803178534e-13
-1.7567721139226e-14
4.76518718495247e-13
-5.02731031005267e-14
5.57341753114094e-13
-9.40138586889105e-14
6.49849083597176e-13
-1.51576129118318e-13
7.57029807099257e-13
-2.27159852481408e-13
8.82455728731454e-13
-3.26903277315521e-13
1.03039502639488e-12
-4.59892461091289e-13
1.20579789954904e-12
-6.39668200787753e-13
1.41413880798167e-12
-8.86477060183786e-13
1.6608476433847e-12
-1.23042127041419e-12
1.94994202129211e-12
-1.71549782056312e-12
2.2812563556547e-12
-2.40345716588113e-12
2.64477527179947e-12
-3.37558780524772e-12
3.01015103250589e-12
-4.71604248490919e-12
3.30863184457873e-12
-6.45679667895371e-12
3.40675596451727e-12
-8.33980272807923e-12
3.09564735109381e-12
-9.37125316380819e-12
2.14730578906004e-12
-6.66789481027545e-12
5.97219816875477e-13
3.90236603121717e-12
-6.53724566958571e-13
2.32917746332366e-11
2.67216539886374e-11
1.74473709052502e-12
2.44106809854995e-11
1.64412482200826e-12
2.32042568915004e-11
1.47227659070748e-13
5.7083761166146e-12
-1.23242716759908e-12
-4.96815750560787e-12
-2.0691174372851e-12
-8.39933385395876e-12
-2.40144062081529e-12
-8.00995468342946e-12
-2.41031610764552e-12
-6.51046906581038e-12
-2.24680419741593e-12
-4.95928368276758e-12
-2.00910179209366e-12
-3.69365060969161e-12
-1.75242270185014e-12
-2.73566460759199e-12
-1.50510050824872e-12
-2.03191372783173e-12
-1.27965567070059e-12
-1.51800901966032e-12
-1.08006998448745e-12
-1.14107848368872e-12
-9.05988739109499e-13
-8.61641912225735e-13
-7.55103941889883e-13
-6.51564300637078e-13
-6.24423135604348e-13
-4.912785298754e-13
-5.10902755888157e-13
-3.67290460206839e-13
-4.11712218524409e-13
-2.7032885160516e-13
-3.24342169328087e-13
-1.93983751670713e-13
-2.46581607129598e-13
-1.33803102906421e-13
-1.76501597589324e-13
-8.66534181728836e-14
-1.12386954139782e-13
-5.0365536034117e-14
-5.27038216130193e-14
-2.34012612283508e-14
3.97138296978308e-15
-4.74043006668045e-15
5.89691881829667e-14
6.25259113259494e-15
1.13580908542299e-13
9.88132701800759e-15
1.69093331376751e-13
6.16688653335987e-15
2.26833215916114e-13
-5.18387226154225e-15
2.8819379214899e-13
-2.47692555183889e-14
3.5469767552788e-13
-5.36053923044637e-14
4.28024606295441e-13
-9.31764297274315e-14
5.10076384443691e-13
-1.45668583838294e-13
6.03027888224768e-13
-2.14138851808044e-13
7.09347785085805e-13
-3.03081258179099e-13
8.31805156499104e-13
-4.1893317839712e-13
9.73374680273487e-13
-5.70985042442402e-13
1.13696862148618e-12
-7.72715529565356e-13
1.3247970503991e-12
-1.04366821269419e-12
1.53710662268363e-12
-1.41198355196352e-12
1.76975760946834e-12
-1.91727313531424e-12
2.01003775782406e-12
-2.61271819824674e-12
2.22928183296433e-12
-3.56365813103282e-12
2.37176923086058e-12
-4.82718735511053e-12
2.33889222218107e-12
-6.39236153078254e-12
1.98082790829914e-12
-7.94979129745115e-12
1.12274673921982e-12
-8.48035920644604e-12
-2.61312867026252e-13
-5.24935884934751e-12
-1.72798639575369e-12
5.40506022319453e-12
-1.77273752405951e-12
2.33704968652726e-11
2.49692685156625e-11
2.10015803374772e-12
2.23421940320069e-11
2.63444675105042e-12
2.27094801382206e-11
1.35941942441208e-12
7.02163605983993e-12
-1.01150540286766e-13
-3.47132801906241e-12
-1.15829433770168e-12
-7.30769062119971e-12
-1.72479466189611e-12
-7.41030324815486e-12
-1.93362110313577e-12
-6.26947948921701e-12
-1.92304480395079e-12
-4.93843393473573e-12
-1.79637686260994e-12
-3.78946874453754e-12
-1.61800216931322e-12
-2.88366921924553e-12
-1.42518904663962e-12
-2.19477881212613e-12
-1.23752237186809e-12
-1.67611588899634e-12
-1.06417247913797e-12
-1.2852350137091e-12
-9.08424718459916e-13
-9.88547533111607e-13
-7.70458189116961e-13
-7.61024904328054e-13
-6.48964110330548e-13
-5.84587598096022e-13
-5.42026827511628e-13
-4.46345909121369e-13
-4.47575508670691e-13
-3.37183655093937e-13
-3.63610024129411e-13
-2.50617614214782e-13
-2.8826906259609e-13
-1.82056669878587e-13
-2.19865547597864e-13
-1.28192433710978e-13
-1.56860691217167e-13
-8.67075213080812e-14
-9.7847765056614e-14
-5.59323921682171e-14
-4.15082723063426e-14
-3.47587143119914e-14
1.34010089924227e-14
-2.24762257387248e-14
6.80941256911266e-14
-1.87540140653613e-14
1.2378082010743e-13
-2.35664274273001e-14
1.81694566527184e-13
-3.72317259258393e-14
2.431328307214e-13
-6.04132688457678e-14
3.09481705132755e-13
-9.42159914821081e-14
3.82253101789545e-13
-1.40249983047103e-13
4.63091094762252e-13
-2.00833640759971e-13
5.53827278745869e-13
-2.79211074437067e-13
6.56406275286747e-13
-3.79987878657227e-13
7.72838984813257e-13
-5.09668293355645e-13
9.04960250323712e-13
-6.77364930449376e-13
1.05398883898831e-12
-8.95940136646748e-13
1.21961799038004e-12
-1.18341236931928e-12
1.39842497456572e-12
-1.56480688507451e-12
1.58101987331516e-12
-2.07376939551e-12
1.74750688023728e-12
-2.75297923915584e-12
1.86008740106968e-12
-3.64987769159135e-12
1.85353008354511e-12
-4.7941281506467e-12
1.62352214940375e-12
-6.13567877371708e-12
1.03198050372842e-12
-7.33125344174829e-12
-4.97390230933689e-14
-7.37088690255895e-12
-1.52274888740088e-12
-3.7470896792472e-12
-2.77640173659257e-12
6.68940777217137e-12
-2.17108739394779e-12
2.27939505706564e-11
2.28151923439808e-11
2.03308969135712e-12
2.03363870233723e-11
2.79268661178727e-12
2.19829056231999e-11
1.78442180409965e-12
8.06122414668164e-12
4.51035033712846e-13
-2.10841995024994e-12
-6.11457357699387e-13
-6.21726840310355e-12
-1.2535784047524e-12
-6.74149695610129e-12
-1.5599042775468e-12
-5.93738534686991e-12
-1.64148925544896e-12
-4.83175944358725e-12
-1.59173736253341e-12
-3.81465654537076e-12
-1.47349511716214e-12
-2.97778068645417e-12
-1.32607772537012e-12
-2.31844568193356e-12
-1.17203897634893e-12
-1.8067553748192e-12
-1.02339990769214e-12
-1.41080884121009e-12
-8.85790216476104e-13
-1.10341412020423e-12
-7.61194375686887e-13
-8.6318789845721e-13
-6.49631832025634e-13
-6.74015908756939e-13
-5.50138508834421e-13
-5.23988443314489e-13
-4.61326462979887e-13
-4.04411875297256e-13
-3.81670753556522e-13
-3.08938074880542e-13
-3.09660420541613e-13
-2.32961444295411e-13
-2.43845942237197e-13
-1.73111245250137e-13
-1.82881082711864e-13
-1.26966741678672e-13
-1.25491517174017e-13
-9.27862665460687e-14
-7.04774632509919e-14
-6.93882047647495e-14
-1.66864088963487e-14
-5.60149481481618e-14
3.70032082401849e-14
-5.23058555558755e-14
9.17118216927268e-14
-5.82350199373726e-14
1.48578303558046e-13
-7.41405580976913e-14
2.08788497339939e-13
-1.00732381687928e-13
2.73583504790172e-13
-1.3917217735034e-13
3.44292907324078e-13
-1.91158649139251e-13
4.22311174502051e-13
-2.59074444087502e-13
5.09123956321495e-13
-3.4625527963768e-13
6.06198804620699e-13
-4.57288068448862e-13
7.1485656930479e-13
-5.98529174233344e-13
8.35976426449789e-13
-7.7864999286291e-13
9.69440346184754e-13
-1.00951540656942e-12
1.11313166237244e-12
-1.30714475184413e-12
1.26125942104581e-12
-1.69289111902464e-12
1.40155295954535e-12
-2.1939220028662e-12
1.51108900649445e-12
-2.84226907595637e-12
1.54993683094116e-12
-3.66837351781867e-12
1.4543000028078e-12
-4.67803880808907e-12
1.12961510378735e-12
-5.79042476814887e-12
4.64666507650017e-13
-6.64550225215756e-12
-6.21742245133249e-13
-6.26305476461562e-12
-1.96941763724198e-12
-2.37668003286494e-12
-2.96079997190136e-12
7.70472542912092e-12
-2.124591186572e-12
2.19800362499145e-11
2.07032394267962e-11
1.76465053443268e-12
1.85941901402411e-11
2.51373343197442e-12
2.12600392221154e-11
1.76163268560806e-12
8.83778303036913e-12
6.46490110478829e-13
-9.70406537929485e-13
-3.07561731895606e-13
-5.24173651700423e-12
-9.31867452583631e-13
-6.09681525143794e-12
-1.26944352532414e-12
-5.58025417242156e-12
-1.40050409171014e-12
-4.68174985511074e-12
-1.4016504932146e-12
-3.79502809607553e-12
-1.32839204827961e-12
-3.03294246453734e-12
-1.21788596744718e-12
-2.41119509674469e-12
-1.09294302612695e-12
-1.91425892073051e-12
-9.66751007852539e-13
-1.51986543711626e-12
-8.46285823456373e-13
-1.20703991983561e-12
-7.34765130425463e-13
-9.58156755548178e-13
-6.33214574416618e-13
-7.59292313552283e-13
-5.41449814083161e-13
-5.99744154084087e-13
-4.58672104665472e-13
-4.71431453519883e-13
-3.83785529632848e-13
-3.68300382260371e-13
-3.15602814321516e-13
-2.85835810787818e-13
-2.52912040146426e-13
-2.2069133850789e-13
-1.94547929095842e-13
-1.70399217580608e-13
-1.39377938595483e-13
-1.33184293403309e-13
-8.63198523638761e-14
-1.07816655248853e-13
-3.43214042693959e-14
-9.35078995756261e-14
1.7646845197494e-14
-8.98761360452605e-14
7.06112222322173e-14
-9.68931837820463e-14
1.25610879454467e-13
-1.14910427905356e-13
1.83714314457598e-13
-1.4466823718001e-13
2.46022547307735e-13
-1.87361727859702e-13
3.13680424340639e-13
-2.44733078049508e-13
3.87850547758092e-13
-3.1918350320419e-13
4.69686942325165e-13
-4.14039210387948e-13
5.60226746454659e-13
-5.33770549551814e-13
6.60201661889577e-13
-6.8442800773657e-13
7.69710713648708e-13
-8.74050409866731e-13
8.87627517372406e-13
-1.11327742138827e-12
1.01060758686384e-12
-1.41591080048814e-12
1.13149941536852e-12
-1.79949789457136e-12
1.2368645415243e-12
-2.28492243596239e-12
1.30351729067578e-12
-2.89447537761991e-12
1.29370488844526e-12
-3.64403937394456e-12
1.15103755582103e-12
-4.52078865682811e-12
7.97885541602292e-13
-5.4226281148465e-12
1.53968298472052e-13
-5.98678842604654e-12
-8.20731696692335e-13
-5.27307097638496e-12
-1.94772700487406e-12
-1.23330618660033e-12
-2.68356532914024e-12
8.45799347780489e-12
-1.85916970204322e-12
2.11716496663052e-11
1.88528419859323e-11
1.43533073372191e-12
1.71756560076773e-11
2.07387796323892e-12
2.06399960544792e-11
1.53870499113616e-12
9.38963646011096e-12
6.5583706017999e-13
-7.21017269631293e-14
-1.47881337881783e-13
-4.42367535118907e-12
-7.09584621709494e-13
-5.52167177444073e-12
-1.0408444270643e-12
-5.23623680778561e-12
-1.19401298449336e-12
-4.51633255779805e-12
-1.22760327428115e-12
-3.74958290206667e-12
-1.18757641335618e-12
-3.06144401336426e-12
-1.10680594893323e-12
-2.48073622626757e-12
-1.00675652061299e-12
-2.00336010878305e-12
-9.00659555347272e-13
-1.6152882462893e-12
-7.96119355346205e-13
-1.30117605233207e-12
-6.97123327261724e-13
-1.04701320042345e-12
-6.05423737065776e-13
-8.41109713494829e-13
-5.21456581199985e-13
-6.74075679706817e-13
-4.44910516505396e-13
-5.38575640358488e-13
-3.75072297502131e-13
-4.28954912347402e-13
-3.1104428545788e-13
-3.40882894212196e-13
-2.51843294922293e-13
-2.71096247980769e-13
-1.9647289776022e-13
-2.17140598868789e-13
-1.43944869388392e-13
-1.7723284865051e-13
-9.32906029148641e-14
-1.50124095446253e-13
-4.35605898183317e-14
-1.35006658903769e-13
6.17904484893008e-15
-1.31484842001176e-13
5.68606573330812e-14
-1.39528712489266e-13
1.09421191656918e-13
-1.59495676898105e-13
1.64813871893565e-13
-1.92143028429077e-13
2.24002093326738e-13
-2.38676956005516e-13
2.87951529835793e-13
-3.00841829654447e-13
3.57603128670357e-13
-3.8101502491227e-13
4.33816079198586e-13
-4.82440508975528e-13
5.17250390257576e-13
-6.09389694210949e-13
6.08148212012968e-13
-7.67495240443241e-13
7.05991238375154e-13
-9.64035530002063e-13
8.08927304156609e-13
-1.20831715533908e-12
9.12849381503006e-13
-1.51188807589051e-12
1.00998009712081e-12
-1.88862771142903e-12
1.08685848289961e-12
-2.35374038603557e-12
1.12167483626329e-12
-2.92117552622769e-12
1.08103933843167e-12
-3.59524682847703e-12
9.18280499091699e-13
-4.34985650841083e-12
5.74145230623452e-13
-5.07031812248753e-12
-3.50557165231597e-15
-5.40089964945651e-12
-8.23336908662692e-13
-4.44466241486114e-12
-1.71351423814425e-12
-3.33692782841094e-13
-2.23079327711872e-12
8.98548483604329e-12
-1.52229221620515e-12
2.0472302455156e-11
1.73348865719068e-11
1.11993366872797e-12
1.60670435425103e-11
1.6273833935691e-12
2.01438765424217e-11
1.26114966430062e-12
9.76561319994561e-12
5.85507616427998e-13
6.12375025933049e-13
-6.67980050130659e-14
-3.7633448467977e-12
-5.50866594446228e-13
-5.03027774584283e-12
-8.5711869668334e-13
-4.92320367916164e-12
-1.01581971733569e-12
-4.35126275057196e-12
-1.06914591054425e-12
-3.69021312134526e-12
-1.05343447337769e-12
-3.0713905819211e-12
-9.96511041297005e-13
-2.53215144496069e-12
-9.1765737633715e-13
-2.07695577624795e-12
-8.29446290073511e-13
-1.69848874061717e-12
-7.395933207667e-13
-1.3862656325637e-12
-6.52499242803295e-13
-1.12958797769007e-12
-5.70411913782439e-13
-9.18916733709025e-13
-4.94231157481423e-13
-7.46206022829585e-13
-4.24040593468795e-13
-6.04934379483102e-13
-3.59459118952899e-13
-4.89909246993286e-13
-2.99844041279826e-13
-3.97060095031056e-13
-2.4442256772468e-13
-3.23252702117475e-13
-1.92360477609968e-13
-2.66094286494034e-13
-1.42805086446739e-13
-2.23819428457238e-13
-9.49048162879113e-14
-1.95179295085966e-13
-4.78089270757649e-14
-1.79365208579273e-13
-6.81720258144685e-16
-1.7596764369057e-13
4.73146122759384e-14
-1.84959133246366e-13
9.70166178821707e-14
-2.0669731291386e-13
1.49261243072117e-13
-2.419402528772e-13
2.04878221377927e-13
-2.9188725939072e-13
2.64665604313828e-13
-3.58252655173917e-13
3.29365301144278e-13
-4.43356515786855e-13
3.99572638141262e-13
-5.50297157816412e-13
4.75620888138555e-13
-6.83085085127769e-13
5.57355881335581e-13
-8.46864080779547e-13
6.43801588071643e-13
-1.04809222342025e-12
7.3261432591548e-13
-1.29470943814109e-12
8.19285983590892e-13
-1.59610101844277e-12
8.95944902357438e-13
-1.96278536825069e-12
9.49807553846657e-13
-2.40506023816539e-12
9.61305870593473e-13
-2.93009915096043e-12
9.02206989873707e-13
-3.533562832869e-12
7.35667127285707e-13
-4.18075374326834e-12
4.19094783320216e-13
-4.75123163917936e-12
-7.72641190600488e-14
-4.90203780389494e-12
-7.4093225104545e-13
-3.77828860898584e-12
-1.41895590552636e-12
3.47651516314789e-13
-1.76503247039109e-12
9.33548351017582e-12
-1.19481153629705e-12
1.99051980539174e-11
1.61408334191328e-11
8.50578372640349e-13
1.52221943599675e-11
1.24156153238784e-12
1.97570626313217e-11
9.99128499825791e-13
1.0010838187912e-11
4.92329587522573e-13
1.12146279160515e-12
-2.58008907351171e-14
-3.24340820509502e-12
-4.32667131002821e-13
-4.62207754117957e-12
-7.06239914256144e-13
-4.64868804205577e-12
-8.60829469506617e-13
-4.19603816194957e-12
-9.2519582938438e-13
-3.62546445633124e-12
-9.27032802088692e-13
-3.06939764219138e-12
-8.89136307098096e-13
-2.57010947984119e-12
-8.28254209136832e-13
-2.13811822894236e-12
-7.55902470395111e-13
-1.77134259008692e-12
-6.79541690917742e-13
-1.46335338238217e-12
-6.03708960009112e-13
-1.20637168772883e-12
-5.30950593803349e-13
-9.928465840963e-13
-4.62496335840756e-13
-8.16044466342563e-13
-3.98745902538177e-13
-6.70271846736813e-13
-3.39587162176691e-13
-5.50844738156739e-13
-2.84600722988222e-13
-4.53999325728755e-13
-2.33201749275839e-13
-3.7676469390325e-13
-1.84711958389386e-13
-3.16842611820979e-13
-1.38404755847388e-13
-2.72514304112014e-13
-9.35430231711025e-14
-2.42542802481348e-13
-4.93781178417561e-14
-2.26131083742052e-13
-5.16803381238684e-15
-2.22863793493711e-13
3.98299009998607e-14
-2.32715226374031e-13
8.63521979152774e-14
-2.5603749054595e-13
1.35122167560755e-13
-2.93575834167762e-13
1.86841551722097e-13
-3.46509569073101e-13
2.42155865226361e-13
-4.16496249821339e-13
3.01618348608783e-13
-5.057650252717e-13
3.65602065262184e-13
-6.17233936849029e-13
4.34172902879693e-13
-7.54606266182737e-13
5.06865940932119e-13
-9.22496637741858e-13
5.8237667189881e-13
-1.12652352364391e-12
6.58074422274474e-13
-1.3733026978943e-12
7.29319809052863e-13
-1.67021215261528e-12
7.88521046693428e-13
-2.02482276564977e-12
8.23982640069908e-13
-2.44333396563573e-12
8.18737447300772e-13
-2.92765746925044e-12
7.4969309914077e-13
-3.4673419454566e-12
5.88843686017687e-13
-4.0227875206174e-12
3.07301132486211e-13
-4.47267029970805e-12
-1.08495121753779e-13
-4.48931002114631e-12
-6.33663192526124e-13
-3.25612773633508e-12
-1.1385184721291e-12
8.49864479169569e-13
-1.358955219877e-12
9.55358279575449e-12
-9.12686641227317e-13
1.94561320085306e-11
1.52251996689395e-11
6.35292984437844e-13
1.45878209071908e-11
9.34136885287192e-13
1.94564659873084e-11
7.78526655427157e-13
1.01637133800595e-11
4.02598177029606e-13
1.49449414427424e-12
-3.91980839374305e-15
-2.83999615132879e-12
-3.4074579461993e-13
-4.28863282364785e-12
-5.79897660201852e-13
-4.4131753499836e-12
-7.24992577176347e-13
-4.0548014332123e-12
-7.94437586188014e-13
-3.56006927073077e-12
-8.08662814873402e-13
-3.05940507205394e-12
-7.85843496569991e-13
-2.59734663820921e-12
-7.40139852398876e-13
-2.18843295275203e-12
-6.81798328119621e-13
-1.83449552588584e-12
-6.17779309108655e-13
-1.53238926177357e-12
-5.52554879242123e-13
-1.27681959262368e-12
-4.88807244959963e-13
-1.06202185635059e-12
-4.27979573025887e-13
-8.82497031048641e-13
-3.70705819627633e-13
-7.33358803597894e-13
-3.17088305001267e-13
-6.1045166867037e-13
-2.66903814961156e-13
-5.10336720864957e-13
-2.19731189111344e-13
-4.30239226741695e-13
-1.75033225233671e-13
-3.67976784580587e-13
-1.32207245018519e-13
-3.21895818562164e-13
-9.06227057580002e-14
-2.90788223704254e-13
-4.96318664539127e-14
-2.73874355895504e-13
-8.58573440029335e-15
-2.70740569567743e-13
3.31634338666722e-14
-2.813604723863e-13
7.62522173587091e-14
-3.06076330477448e-13
1.21298911695299e-13
-3.45615668713747e-13
1.68880329771479e-13
-4.01117299662256e-13
2.19504404094381e-13
-4.74170331012014e-13
2.73556994055036e-13
-5.66881874616653e-13
3.31224398941827e-13
-6.81971188699842e-13
3.92351966418931e-13
-8.22801488333633e-13
4.56250117893042e-13
-9.9345264590991e-13
5.21401761156712e-13
-1.19871702577114e-12
5.85050701947891e-13
-1.44397266444032e-12
6.42636958471123e-13
-1.73479762936075e-12