/*--------------------------------*- C++ -*----------------------------------*\
  =========                 |
  \\      /  F ield         | OpenFOAM: The Open Source CFD Toolbox
   \\    /   O peration     | Website:  https://openfoam.org
    \\  /    A nd           | Version:  10
     \\/     M anipulation  |
\*---------------------------------------------------------------------------*/
FoamFile
{
    format      ascii;
    class       volScalarField;
    location    "7.4";
    object      rho;
}
// * * * * * * * * * * * * * * * * * * * * * * * * * * * * * * * * * * * * * //

dimensions      [1 -3 0 0 0 0 0];

internalField   nonuniform List<scalar> 
2500
(
1.1453421440309
1.14535690033656
1.1453968124773
1.1454274545784
1.14544702760013
1.145458729253
1.14546549030215
1.14546928784435
1.14547135122046
1.14547242698705
1.14547297015541
1.14547323220955
1.14547335365069
1.14547340990875
1.14547343592044
1.14547344916957
1.14547345502397
1.14547345909825
1.14547346260402
1.14547346490038
1.14547346675042
1.14547346829287
1.14547346953475
1.14547347030468
1.14547347107653
1.14547347168957
1.14547347189603
1.14547347191524
1.14547347170218
1.14547347121787
1.14547347038028
1.1454734688037
1.14547346671311
1.14547346332701
1.14547345718513
1.14547344469131
1.14547341774286
1.14547335931322
1.14547323001166
1.14547295872333
1.14547240485895
1.14547131440769
1.14546924636694
1.14546546223986
1.14545873582113
1.14544709786457
1.14542753895014
1.14539673105259
1.145356569153
1.14534251981323
1.14847747815624
1.14856837321076
1.14868527992406
1.14877259707286
1.14882926965125
1.14886397821206
1.14888458612074
1.14889648618781
1.1489031358673
1.14890671197192
1.14890856009263
1.14890947543215
1.14890991012116
1.14891010929352
1.14891019764057
1.14891023621324
1.14891025239842
1.14891025983773
1.14891026389003
1.14891026617289
1.14891026775307
1.14891026900787
1.14891027000781
1.14891027068967
1.14891027129432
1.14891027178059
1.1489102720167
1.14891027211405
1.14891027206182
1.14891027176445
1.14891027103149
1.14891026933208
1.14891026576594
1.14891025792109
1.14891024010097
1.14891019873652
1.1489101039559
1.14890989292704
1.14890943745095
1.14890849357201
1.14890661120165
1.14890300210672
1.14889634358782
1.1488844869283
1.14886399405362
1.14882943689057
1.1487727354354
1.14868483701256
1.14856699878075
1.14847901968819
1.15173096238321
1.15189608009662
1.15206628420349
1.15218886363777
1.15226757440425
1.15231554635657
1.15234396036651
1.15236035692729
1.1523695273002
1.15237447092214
1.15237703222193
1.15237830503042
1.15237891155403
1.15237918936572
1.15237931195069
1.15237936436325
1.15237938597324
1.15237939501937
1.15237939912625
1.15237940113819
1.15237940235654
1.15237940327573
1.15237940400656
1.15237940452233
1.15237940494778
1.15237940529522
1.15237940550111
1.15237940562939
1.15237940568723
1.15237940554779
1.15237940496686
1.15237940332324
1.15237939911904
1.15237938904861
1.15237936516476
1.15237930850233
1.1523791774113
1.15237888440857
1.15237825301634
1.15237694553016
1.15237434249358
1.15236936025246
1.1523601793044
1.15234383370031
1.15231555076663
1.15226771519376
1.15218881555348
1.15206513828446
1.15189299904836
1.15173043256307
1.15471170155274
1.15491787061859
1.15510135286146
1.1552282710727
1.15530756963811
1.15535475039339
1.15538209228123
1.15539757325879
1.15540609415742
1.15541062702545
1.15541294904883
1.15541409191289
1.15541463195996
1.155414877245
1.15541498447273
1.155415029701
1.15541504806318
1.15541505544598
1.15541505853583
1.15541505992252
1.15541506069765
1.15541506127878
1.15541506175585
1.15541506209924
1.15541506236751
1.15541506259124
1.15541506274526
1.1554150628706
1.15541506297172
1.15541506298411
1.15541506270613
1.15541506158096
1.15541505824374
1.15541504992448
1.15541502984676
1.1554149814221
1.15541486789903
1.15541461126471
1.15541405253615
1.15541288277604
1.15541052691418
1.15540596029005
1.15539742359138
1.15538196984556
1.15535470560435
1.15530755495515
1.15522785748498
1.15509940402199
1.15491303568615
1.15470713085126
1.15716899757754
1.15737654156444
1.15754313983399
1.15765393010095
1.15772115537111
1.15776012609946
1.15778219093333
1.15779444041471
1.15780107612852
1.15780456202502
1.15780633004779
1.15780719344886
1.15780759887942
1.15780778198811
1.15780786156195
1.15780789483881
1.15780790818333
1.1578079133904
1.15780791543282
1.15780791626567
1.15780791668567
1.15780791700132
1.15780791727781
1.15780791747979
1.15780791762826
1.15780791775593
1.15780791785762
1.1578079179603
1.15780791806775
1.15780791812948
1.15780791807827
1.15780791748132
1.15780791518601
1.15780790928281
1.15780789490007
1.1578078597704
1.15780777658761
1.15780758691442
1.15780717053848
1.1578062909389
1.15780450167148
1.15780099304556
1.15779434325643
1.15778210249773
1.15776006488527
1.15772103510765
1.15765328554343
1.15754075742548
1.15737065496138
1.15716083844117
1.15901518540431
1.15919447064006
1.15932739833692
1.15941257338361
1.15946276685283
1.15949111454142
1.15950679681748
1.15951533664308
1.15951989345886
1.15952226023407
1.15952345064177
1.15952402846292
1.15952429860782
1.15952442018969
1.15952447283327
1.15952449471867
1.15952450340208
1.1595245067008
1.15952450791681
1.15952450835732
1.15952450854213
1.15952450867959
1.15952450881822
1.15952450892166
1.15952450899062
1.15952450905364
1.1595245091139
1.15952450918819
1.15952450928042
1.15952450935873
1.15952450940246
1.15952450915648
1.15952450776947
1.15952450401171
1.15952449479685
1.15952447204376
1.15952441775033
1.1595242931569
1.15952401791552
1.15952343236054
1.15952223140381
1.159519852689
1.15951528741379
1.15950674892874
1.15949106739071
1.15946262424376
1.15941190447608
1.15932506429167
1.15918854622799
1.15900528573661
1.16029150844987
1.16042882734062
1.16052425789058
1.16058332270517
1.16061715469072
1.16063578056679
1.16064585379236
1.16065123779973
1.16065407009703
1.16065552621695
1.16065625348919
1.16065660490374
1.16065676873475
1.16065684232864
1.16065687412816
1.16065688729239
1.1606568924657
1.16065689437902
1.16065689503979
1.16065689524534
1.16065689530107
1.16065689533688
1.16065689539208
1.16065689543586
1.16065689545864
1.16065689548383
1.1606568955161
1.16065689556475
1.16065689563351
1.16065689570524
1.16065689576469
1.16065689570641
1.16065689496057
1.16065689277243
1.16065688736567
1.16065687388066
1.16065684151197
1.16065676689351
1.16065660129722
1.16065624713279
1.16065551595384
1.16065405528041
1.16065121999177
1.16064583701521
1.16063575817748
1.16061704411228
1.16058277515288
1.16052232070276
1.16042369870951
1.16028186036323
1.16110986591395
1.16120503850286
1.16126765917191
1.16130518717252
1.16132610547633
1.16133734146904
1.16134328600375
1.16134640649972
1.16134802608241
1.16134885104804
1.16134926067268
1.16134945794403
1.16134954976669
1.16134959098536
1.16134960877897
1.16134961612215
1.16134961898223
1.16134962001217
1.16134962033973
1.16134962041303
1.1613496204186
1.16134962041709
1.16134962042735
1.16134962044051
1.16134962043953
1.16134962044524
1.16134962046053
1.16134962048975
1.16134962053589
1.16134962059099
1.16134962064721
1.16134962065805
1.16134962028996
1.16134961911829
1.16134961616908
1.16134960874496
1.16134959084643
1.16134954946326
1.16134945734427
1.16134925958657
1.16134884922321
1.1613480235137
1.16134640433557
1.161343286568
1.16133733930902
1.16132604183313
1.16130481085533
1.16126625177025
1.16120111624208
1.16110180869556
1.16159981737229
1.16166035664117
1.16169835251755
1.16172045052182
1.16173245273643
1.16173874875702
1.1617420096261
1.16174369170652
1.16174455355584
1.16174498883262
1.16174520389276
1.16174530722165
1.1617453552885
1.16174537687042
1.16174538618586
1.16174539002098
1.16174539150133
1.16174539201954
1.1617453921606
1.16174539217366
1.16174539216514
1.16174539215343
1.16174539215025
1.16174539214933
1.16174539214391
1.16174539214401
1.16174539215072
1.16174539216668
1.16174539219514
1.16174539223244
1.1617453922749
1.16174539230043
1.16174539213568
1.16174539155205
1.16174539004052
1.16174538620384
1.16174537692593
1.16174535544055
1.16174530753422
1.16174520444792
1.16174498973114
1.1617445551024
1.16174369498927
1.16174201667896
1.16173875722991
1.16173242680669
1.1617202270137
1.16169743808708
1.16165765562516
1.1615938517364
1.16187532540909
1.16191104426308
1.16193255555644
1.16194472216961
1.16195116967336
1.16195447604326
1.16195615360475
1.16195700435114
1.16195743486217
1.16195765057229
1.16195775669835
1.16195780760966
1.16195783129719
1.16195784194289
1.16195784653998
1.16195784842877
1.16195784915094
1.16195784939294
1.16195784944726
1.16195784944392
1.16195784943285
1.16195784942163
1.16195784941519
1.1619578494104
1.16195784940526
1.16195784940377
1.16195784940636
1.16195784941513
1.16195784943152
1.1619578494544
1.16195784948193
1.16195784950295
1.16195784943637
1.16195784916393
1.16195784843062
1.16195784655498
1.16195784201032
1.16195783148195
1.16195780799675
1.16195775740613
1.16195765176749
1.16195743689848
1.1619570081876
1.16195616110979
1.16195448722766
1.16195116557323
1.16194460611035
1.16193201620352
1.16190934539387
1.16187132532004
1.1620215798304
1.16204129001917
1.16205273660718
1.16205904482444
1.16206231077443
1.16206394968467
1.16206476481793
1.16206517137822
1.16206537463615
1.16206547571748
1.16206552526535
1.16206554901336
1.16206556007172
1.16206556504901
1.16206556720019
1.1620655680824
1.16206556841646
1.16206556852217
1.16206556854031
1.16206556853465
1.16206556852587
1.1620655685178
1.16206556851233
1.16206556850798
1.16206556850438
1.16206556850281
1.16206556850378
1.16206556850849
1.16206556851738
1.16206556853033
1.16206556854636
1.16206556855966
1.16206556853552
1.16206556841539
1.16206556807673
1.16206556720405
1.16206556508704
1.16206556018583
1.16206554926071
1.16206552572887
1.16206547652602
1.16206537607002
1.16206517417171
1.16206477049598
1.16206395932851
1.16206231569465
1.16205899232239
1.16205244466349
1.1620403032233
1.16201911504605
1.16209520406089
1.16210544484747
1.16211120434314
1.16211430267681
1.16211587182407
1.16211664311124
1.16211701939238
1.16211720403184
1.1621172952497
1.16211734028694
1.16211736229179
1.16211737283458
1.16211737775044
1.16211737996728
1.1621173809265
1.16211738131916
1.16211738146636
1.16211738151014
1.16211738151494
1.16211738151034
1.16211738150465
1.16211738149966
1.16211738149605
1.16211738149314
1.16211738149097
1.16211738148988
1.16211738149027
1.16211738149272
1.16211738149729
1.16211738150414
1.16211738151276
1.16211738152008
1.16211738151237
1.162117381462
1.16211738131243
1.16211738092405
1.16211737998137
1.16211737780219
1.16211737295308
1.16211736252103
1.16211734070329
1.16211729603593
1.16211720568239
1.16211702299819
1.16211664990977
1.16211587847038
1.16211428255634
1.16211105816683
1.16210491084042
1.16209379321837
1.16213048644422
1.16213552433732
1.16213827853201
1.16213972728221
1.16214044589907
1.16214079221171
1.16214095804035
1.16214103811852
1.16214107721749
1.16214109638715
1.16214110572612
1.16214111020069
1.16214111229074
1.16214111323538
1.16214111364467
1.16214111381191
1.16214111387378
1.16214111389084
1.16214111389164
1.16214111388891
1.16214111388567
1.1621411138829
1.16214111388083
1.16214111387917
1.16214111387801
1.16214111387739
1.16214111387758
1.1621411138788
1.16214111388105
1.16214111388448
1.16214111388883
1.16214111389263
1.16214111389056
1.16214111387025
1.16214111380684
1.16214111364082
1.1621411132378
1.1621411123082
1.16214111024515
1.16214110581659
1.16214109656194
1.16214107758116
1.16214103897019
1.16214096007638
1.1621407964154
1.16214045130057
1.1621397213632
1.16213821044536
1.16213525317548
1.16212972994892
1.16214663540844
1.16214899312306
1.16215025026258
1.16215089791925
1.1621512129404
1.16215136192279
1.16215143198683
1.16215146529238
1.16215148136577
1.16215148919235
1.16215149299516
1.16215149481787
1.16215149567102
1.16215149605758
1.16215149622532
1.16215149629373
1.16215149631865
1.16215149632505
1.16215149632492
1.16215149632342
1.16215149632174
1.16215149632033
1.16215149631927
1.16215149631843
1.16215149631786
1.16215149631757
1.16215149631768
1.16215149631827
1.16215149631935
1.16215149632099
1.16215149632307
1.16215149632489
1.16215149632447
1.16215149631664
1.16215149629078
1.16215149622237
1.16215149605634
1.16215149567441
1.16215149482971
1.1621514930221
1.16215148925119
1.16215148151071
1.16215146568896
1.16215143303912
1.16215136428053
1.16215121650447
1.16215089718587
1.1621502206532
1.16214886315078
1.16214625286404
1.16215371254205
1.16215476650741
1.16215531625914
1.16215559408282
1.16215572675132
1.16215578838111
1.16215581686521
1.16215583019805
1.16215583655854
1.16215583963469
1.16215584112566
1.16215584184074
1.16215584217623
1.16215584232865
1.1621558423949
1.16215584242187
1.16215584243154
1.16215584243385
1.16215584243364
1.16215584243289
1.1621558424321
1.16215584243145
1.16215584243096
1.16215584243057
1.16215584243033
1.16215584243022
1.16215584243029
1.16215584243059
1.16215584243109
1.16215584243185
1.16215584243282
1.16215584243367
1.16215584243367
1.16215584243075
1.16215584242057
1.16215584239333
1.16215584232722
1.16215584217561
1.16215584184163
1.16215584112969
1.16215583964839
1.16215583660786
1.16215583036798
1.1621558173721
1.16215578960472
1.16215572882019
1.16215559473059
1.16215530421854
1.16215470740803
1.16215352909463
1.16215668521062
1.16215713684954
1.16215736792109
1.16215748264232
1.16215753648805
1.16215756108069
1.16215757225868
1.16215757741251
1.16215757984311
1.16215758101073
1.16215758157534
1.16215758184636
1.16215758197383
1.16215758203191
1.1621575820572
1.16215758206748
1.16215758207111
1.16215758207193
1.16215758207181
1.16215758207148
1.16215758207114
1.16215758207087
1.16215758207067
1.16215758207052
1.16215758207044
1.16215758207042
1.16215758207048
1.16215758207063
1.16215758207087
1.16215758207123
1.16215758207167
1.16215758207207
1.16215758207214
1.1621575820711
1.16215758206723
1.16215758205673
1.16215758203124
1.16215758197294
1.16215758184507
1.16215758157369
1.16215758101093
1.16215757985679
1.16215757748061
1.16215757248933
1.16215756167628
1.1621575375828
1.16215748336219
1.16215736334737
1.16215711124779
1.1621566013962
1.16215787922579
1.1621580653217
1.16215815893751
1.16215820466419
1.16215822578372
1.16215823527606
1.16215823952213
1.16215824145126
1.16215824235077
1.16215824277998
1.16215824298705
1.16215824308653
1.16215824313345
1.16215824315489
1.16215824316425
1.16215824316805
1.16215824316938
1.16215824316968
1.16215824316963
1.16215824316951
1.16215824316939
1.16215824316929
1.16215824316923
1.1621582431692
1.16215824316919
1.16215824316921
1.16215824316926
1.16215824316935
1.16215824316948
1.16215824316965
1.16215824316986
1.16215824317006
1.16215824317013
1.16215824316979
1.16215824316838
1.16215824316447
1.16215824315495
1.1621582431332
1.1621582430857
1.16215824298534
1.16215824277803
1.16215824235352
1.16215824147736
1.16215823962247
1.1621582355508
1.16215822632251
1.16215820515223
1.16215815732251
1.16215805471723
1.16215784259634
1.16215833260355
1.16215840653999
1.16215844318825
1.16215846082418
1.16215846884852
1.16215847240103
1.16215847396605
1.16215847466698
1.16215847499013
1.16215847514328
1.16215847521698
1.16215847525242
1.16215847526918
1.16215847527686
1.16215847528022
1.16215847528159
1.16215847528208
1.1621584752822
1.16215847528219
1.16215847528216
1.16215847528214
1.16215847528213
1.16215847528213
1.16215847528214
1.16215847528217
1.1621584752822
1.16215847528225
1.16215847528232
1.1621584752824
1.16215847528249
1.1621584752826
1.16215847528271
1.16215847528277
1.16215847528269
1.16215847528221
1.16215847528082
1.16215847527739
1.16215847526953
1.1621584752524
1.16215847521635
1.16215847514216
1.16215847499053
1.16215847467698
1.1621584740084
1.16215847252228
1.16215846909852
1.16215846109781
1.16215844266445
1.16215840232703
1.16215831723842
1.16215848878877
1.16215851718245
1.16215853107596
1.16215853767151
1.16215854063112
1.16215854192289
1.16215854248373
1.16215854273143
1.16215854284434
1.16215854289746
1.16215854292295
1.16215854293521
1.16215854294102
1.16215854294369
1.16215854294486
1.16215854294535
1.16215854294553
1.16215854294559
1.16215854294561
1.16215854294562
1.16215854294564
1.16215854294566
1.16215854294569
1.16215854294572
1.16215854294576
1.1621585429458
1.16215854294585
1.1621585429459
1.16215854294596
1.16215854294603
1.1621585429461
1.16215854294617
1.16215854294622
1.16215854294623
1.16215854294609
1.16215854294564
1.16215854294447
1.16215854294174
1.16215854293576
1.16215854292319
1.16215854289739
1.16215854284474
1.16215854273566
1.16215854250148
1.16215854197466
1.16215854074172
1.16215853780891
1.16215853092428
1.16215851557303
1.16215848258402
1.16215852976466
1.16215854032747
1.16215854543802
1.16215854783424
1.16215854889577
1.16215854935293
1.16215854954864
1.16215854963389
1.16215854967228
1.16215854969019
1.16215854969875
1.16215854970285
1.1621585497048
1.16215854970569
1.16215854970609
1.16215854970627
1.16215854970634
1.16215854970638
1.16215854970641
1.16215854970644
1.16215854970647
1.1621585497065
1.16215854970654
1.16215854970658
1.16215854970663
1.16215854970667
1.16215854970672
1.16215854970677
1.16215854970682
1.16215854970687
1.16215854970693
1.16215854970698
1.16215854970703
1.16215854970707
1.16215854970706
1.16215854970695
1.16215854970659
1.1621585497057
1.16215854970371
1.16215854969949
1.1621585496908
1.16215854967305
1.16215854963615
1.16215854955636
1.16215854937471
1.16215854894302
1.16215854789836
1.16215854540185
1.1621585397352
1.16215852734647
1.16215852749534
1.16215853130939
1.16215853313646
1.16215853398349
1.16215853435427
1.16215853451192
1.16215853457847
1.16215853460704
1.16215853461972
1.16215853462557
1.16215853462833
1.16215853462965
1.16215853463027
1.16215853463055
1.16215853463069
1.16215853463075
1.16215853463079
1.16215853463082
1.16215853463085
1.16215853463089
1.16215853463092
1.16215853463096
1.16215853463101
1.16215853463105
1.16215853463109
1.16215853463114
1.16215853463119
1.16215853463123
1.16215853463128
1.16215853463133
1.16215853463138
1.16215853463143
1.16215853463148
1.16215853463153
1.16215853463156
1.16215853463157
1.16215853463149
1.16215853463125
1.16215853463065
1.16215853462932
1.16215853462652
1.16215853462075
1.16215853460866
1.16215853458224
1.16215853452128
1.16215853437415
1.16215853401206
1.16215853313173
1.16215853109938
1.16215852658397
1.16215850947632
1.1621585108154
1.16215851145113
1.16215851174276
1.16215851186899
1.16215851192197
1.16215851194401
1.16215851195329
1.16215851195733
1.16215851195915
1.16215851195998
1.16215851196037
1.16215851196055
1.16215851196063
1.16215851196067
1.1621585119607
1.16215851196073
1.16215851196076
1.16215851196079
1.16215851196083
1.16215851196087
1.16215851196091
1.16215851196095
1.16215851196099
1.16215851196104
1.16215851196108
1.16215851196113
1.16215851196117
1.16215851196122
1.16215851196127
1.16215851196131
1.16215851196136
1.16215851196141
1.16215851196146
1.16215851196151
1.16215851196156
1.16215851196158
1.16215851196156
1.16215851196143
1.16215851196107
1.16215851196026
1.16215851195849
1.1621585119547
1.16215851194625
1.16215851192638
1.16215851187757
1.16215851175534
1.16215851145313
1.16215851074391
1.16215850914384
1.16215848588173
1.16215848633956
1.16215848655502
1.16215848665284
1.1621584866947
1.16215848671202
1.16215848671908
1.16215848672197
1.16215848672318
1.16215848672369
1.1621584867239
1.16215848672399
1.16215848672402
1.16215848672404
1.16215848672406
1.16215848672407
1.1621584867241
1.16215848672412
1.16215848672416
1.16215848672419
1.16215848672423
1.16215848672427
1.16215848672432
1.16215848672436
1.16215848672441
1.16215848672445
1.16215848672449
1.16215848672454
1.16215848672458
1.16215848672463
1.16215848672468
1.16215848672472
1.16215848672477
1.16215848672482
1.16215848672488
1.16215848672494
1.16215848672499
1.16215848672504
1.16215848672506
1.16215848672502
1.16215848672485
1.16215848672439
1.1621584867233
1.16215848672074
1.1621584867145
1.16215848669878
1.16215848665863
1.16215848655761
1.16215848631659
1.16215848576448
1.16215846036533
1.16215846051793
1.16215846058902
1.16215846062091
1.16215846063438
1.16215846063984
1.16215846064199
1.16215846064282
1.16215846064313
1.16215846064323
1.16215846064325
1.16215846064325
1.16215846064324
1.16215846064324
1.16215846064325
1.16215846064326
1.16215846064328
1.16215846064331
1.16215846064334
1.16215846064338
1.16215846064342
1.16215846064346
1.1621584606435
1.16215846064355
1.16215846064359
1.16215846064363
1.16215846064368
1.16215846064372
1.16215846064377
1.16215846064381
1.16215846064386
1.1621584606439
1.16215846064395
1.162158460644
1.16215846064406
1.16215846064412
1.16215846064418
1.16215846064425
1.16215846064431
1.16215846064437
1.1621584606444
1.16215846064435
1.16215846064412
1.16215846064343
1.1621584606416
1.16215846063673
1.16215846062395
1.16215846059114
1.16215846051141
1.16215846032568
1.16215843420297
1.16215843425258
1.1621584342753
1.16215843428531
1.16215843428945
1.16215843429107
1.16215843429166
1.16215843429185
1.16215843429188
1.16215843429186
1.16215843429183
1.16215843429181
1.16215843429179
1.16215843429179
1.1621584342918
1.16215843429181
1.16215843429183
1.16215843429186
1.1621584342919
1.16215843429193
1.16215843429197
1.16215843429201
1.16215843429205
1.1621584342921
1.16215843429214
1.16215843429218
1.16215843429223
1.16215843429227
1.16215843429231
1.16215843429236
1.1621584342924
1.16215843429245
1.16215843429249
1.16215843429254
1.1621584342926
1.16215843429266
1.16215843429272
1.16215843429279
1.16215843429287
1.16215843429295
1.16215843429303
1.1621584342931
1.16215843429312
1.16215843429301
1.16215843429255
1.16215843429116
1.16215843428728
1.16215843427702
1.16215843425145
1.16215843419051
1.1621584078286
1.1621584078443
1.16215840785121
1.16215840785413
1.16215840785528
1.1621584078557
1.16215840785581
1.16215840785581
1.16215840785577
1.16215840785573
1.16215840785569
1.16215840785567
1.16215840785565
1.16215840785565
1.16215840785566
1.16215840785568
1.1621584078557
1.16215840785573
1.16215840785576
1.1621584078558
1.16215840785584
1.16215840785588
1.16215840785592
1.16215840785596
1.16215840785601
1.16215840785605
1.16215840785609
1.16215840785614
1.16215840785618
1.16215840785622
1.16215840785626
1.16215840785631
1.16215840785635
1.1621584078564
1.16215840785645
1.16215840785651
1.16215840785657
1.16215840785664
1.16215840785671
1.1621584078568
1.16215840785689
1.16215840785698
1.16215840785706
1.16215840785712
1.16215840785707
1.16215840785674
1.16215840785568
1.1621584078527
1.16215840784489
1.1621584078254
1.16215838138619
1.162158381391
1.16215838139285
1.16215838139353
1.16215838139377
1.16215838139382
1.1621583813938
1.16215838139376
1.16215838139371
1.16215838139367
1.16215838139364
1.16215838139362
1.16215838139361
1.16215838139362
1.16215838139363
1.16215838139365
1.16215838139367
1.1621583813937
1.16215838139374
1.16215838139377
1.16215838139381
1.16215838139385
1.16215838139389
1.16215838139394
1.16215838139398
1.16215838139402
1.16215838139406
1.16215838139411
1.16215838139415
1.16215838139419
1.16215838139423
1.16215838139427
1.16215838139432
1.16215838139436
1.16215838139441
1.16215838139446
1.16215838139452
1.16215838139458
1.16215838139465
1.16215838139473
1.16215838139481
1.1621583813949
1.16215838139499
1.16215838139508
1.16215838139514
1.16215838139513
1.16215838139493
1.16215838139423
1.1621583813921
1.16215838138607
1.16215835492242
1.1621583549238
1.16215835492408
1.16215835492408
1.16215835492404
1.16215835492401
1.16215835492396
1.16215835492392
1.16215835492388
1.16215835492385
1.16215835492383
1.16215835492382
1.16215835492382
1.16215835492383
1.16215835492384
1.16215835492387
1.16215835492389
1.16215835492392
1.16215835492396
1.162158354924
1.16215835492404
1.16215835492408
1.16215835492412
1.16215835492416
1.1621583549242
1.16215835492424
1.16215835492428
1.16215835492433
1.16215835492437
1.16215835492441
1.16215835492445
1.16215835492449
1.16215835492453
1.16215835492457
1.16215835492462
1.16215835492467
1.16215835492472
1.16215835492478
1.16215835492484
1.16215835492491
1.16215835492498
1.16215835492506
1.16215835492514
1.16215835492522
1.16215835492529
1.16215835492536
1.16215835492541
1.16215835492541
1.16215835492504
1.16215835492328
1.16215832845207
1.16215832845239
1.16215832845221
1.16215832845201
1.16215832845191
1.16215832845186
1.16215832845183
1.1621583284518
1.16215832845178
1.16215832845176
1.16215832845175
1.16215832845175
1.16215832845175
1.16215832845177
1.16215832845179
1.16215832845181
1.16215832845184
1.16215832845187
1.16215832845191
1.16215832845195
1.16215832845199
1.16215832845203
1.16215832845207
1.16215832845211
1.16215832845215
1.16215832845219
1.16215832845223
1.16215832845227
1.16215832845231
1.16215832845235
1.16215832845239
1.16215832845243
1.16215832845247
1.16215832845251
1.16215832845255
1.1621583284526
1.16215832845265
1.1621583284527
1.16215832845275
1.16215832845281
1.16215832845287
1.16215832845293
1.162158328453
1.16215832845306
1.16215832845313
1.1621583284532
1.1621583284533
1.1621583284535
1.16215832845367
1.16215832845323
1.16215830197973
1.16215830197974
1.16215830197943
1.16215830197919
1.16215830197908
1.16215830197904
1.16215830197903
1.16215830197902
1.16215830197901
1.16215830197901
1.16215830197901
1.16215830197902
1.16215830197903
1.16215830197905
1.16215830197907
1.1621583019791
1.16215830197913
1.16215830197916
1.1621583019792
1.16215830197924
1.16215830197928
1.16215830197932
1.16215830197936
1.1621583019794
1.16215830197944
1.16215830197948
1.16215830197952
1.16215830197956
1.1621583019796
1.16215830197964
1.16215830197968
1.16215830197972
1.16215830197975
1.16215830197979
1.16215830197983
1.16215830197987
1.16215830197991
1.16215830197996
1.16215830198
1.16215830198005
1.1621583019801
1.16215830198015
1.1621583019802
1.16215830198025
1.16215830198029
1.16215830198035
1.16215830198046
1.16215830198069
1.16215830198101
1.16215830198097
1.1621582755068
1.16215827550673
1.16215827550638
1.16215827550615
1.16215827550606
1.16215827550604
1.16215827550604
1.16215827550605
1.16215827550606
1.16215827550607
1.16215827550608
1.1621582755061
1.16215827550612
1.16215827550614
1.16215827550617
1.1621582755062
1.16215827550623
1.16215827550627
1.16215827550631
1.16215827550635
1.16215827550639
1.16215827550643
1.16215827550647
1.16215827550651
1.16215827550655
1.16215827550659
1.16215827550663
1.16215827550667
1.1621582755067
1.16215827550674
1.16215827550678
1.16215827550681
1.16215827550685
1.16215827550689
1.16215827550692
1.16215827550696
1.16215827550699
1.16215827550703
1.16215827550707
1.16215827550711
1.16215827550714
1.16215827550718
1.16215827550721
1.16215827550724
1.16215827550727
1.1621582755073
1.1621582755074
1.16215827550763
1.16215827550798
1.16215827550805
1.16215824903369
1.16215824903361
1.16215824903327
1.16215824903305
1.16215824903298
1.16215824903298
1.162158249033
1.16215824903303
1.16215824903305
1.16215824903307
1.1621582490331
1.16215824903312
1.16215824903315
1.16215824903318
1.16215824903321
1.16215824903324
1.16215824903328
1.16215824903332
1.16215824903336
1.1621582490334
1.16215824903344
1.16215824903348
1.16215824903352
1.16215824903356
1.1621582490336
1.16215824903364
1.16215824903368
1.16215824903372
1.16215824903375
1.16215824903379
1.16215824903382
1.16215824903386
1.16215824903389
1.16215824903392
1.16215824903396
1.16215824903399
1.16215824903402
1.16215824903405
1.16215824903408
1.16215824903411
1.16215824903413
1.16215824903416
1.16215824903417
1.16215824903418
1.16215824903419
1.1621582490342
1.16215824903428
1.16215824903449
1.16215824903484
1.16215824903494
1.16215822256054
1.16215822256045
1.16215822256013
1.16215822255993
1.16215822255988
1.1621582225599
1.16215822255994
1.16215822255999
1.16215822256002
1.16215822256006
1.16215822256009
1.16215822256013
1.16215822256016
1.1621582225602
1.16215822256023
1.16215822256027
1.16215822256031
1.16215822256035
1.16215822256039
1.16215822256043
1.16215822256047
1.16215822256051
1.16215822256055
1.1621582225606
1.16215822256063
1.16215822256067
1.16215822256071
1.16215822256075
1.16215822256078
1.16215822256082
1.16215822256085
1.16215822256088
1.16215822256092
1.16215822256094
1.16215822256097
1.162158222561
1.16215822256103
1.16215822256105
1.16215822256107
1.16215822256109
1.16215822256111
1.16215822256112
1.16215822256112
1.16215822256111
1.16215822256109
1.16215822256109
1.16215822256114
1.16215822256133
1.16215822256167
1.16215822256177
1.16215819608736
1.16215819608729
1.16215819608698
1.16215819608681
1.16215819608678
1.16215819608682
1.16215819608688
1.16215819608694
1.16215819608699
1.16215819608704
1.16215819608709
1.16215819608713
1.16215819608717
1.16215819608721
1.16215819608725
1.16215819608729
1.16215819608733
1.16215819608738
1.16215819608742
1.16215819608746
1.1621581960875
1.16215819608754
1.16215819608758
1.16215819608762
1.16215819608766
1.1621581960877
1.16215819608774
1.16215819608777
1.16215819608781
1.16215819608784
1.16215819608787
1.1621581960879
1.16215819608793
1.16215819608796
1.16215819608798
1.16215819608801
1.16215819608803
1.16215819608805
1.16215819608806
1.16215819608807
1.16215819608807
1.16215819608807
1.16215819608806
1.16215819608803
1.162158196088
1.16215819608797
1.162158196088
1.16215819608817
1.16215819608849
1.16215819608858
1.16215816961417
1.16215816961411
1.16215816961383
1.16215816961369
1.16215816961368
1.16215816961375
1.16215816961382
1.1621581696139
1.16215816961396
1.16215816961402
1.16215816961408
1.16215816961413
1.16215816961417
1.16215816961422
1.16215816961426
1.16215816961431
1.16215816961435
1.1621581696144
1.16215816961444
1.16215816961448
1.16215816961452
1.16215816961457
1.16215816961461
1.16215816961465
1.16215816961469
1.16215816961472
1.16215816961476
1.16215816961479
1.16215816961483
1.16215816961486
1.16215816961489
1.16215816961492
1.16215816961494
1.16215816961497
1.16215816961499