/*--------------------------------*- C++ -*----------------------------------*\
  =========                 |
  \\      /  F ield         | OpenFOAM: The Open Source CFD Toolbox
   \\    /   O peration     | Website:  https://openfoam.org
    \\  /    A nd           | Version:  10
     \\/     M anipulation  |
\*---------------------------------------------------------------------------*/
FoamFile
{
    format      ascii;
    class       volScalarField;
    location    "7.4";
    object      T;
}
// * * * * * * * * * * * * * * * * * * * * * * * * * * * * * * * * * * * * * //

dimensions      [0 0 0 1 0 0 0];

internalField   nonuniform List<scalar> 
2500
(
304.404864854012
304.400943029898
304.390335972226
304.38219302392
304.376991842987
304.373882422808
304.372085872948
304.371076797233
304.370528523701
304.370242675359
304.370098347099
304.370028715321
304.369996446593
304.369981498003
304.369974586332
304.36997106586
304.369969510279
304.369968427698
304.36996749618
304.369966886018
304.369966394449
304.369965984611
304.369965654638
304.369965450068
304.369965244991
304.369965082108
304.369965027261
304.369965022169
304.369965078794
304.369965207493
304.369965430063
304.369965848993
304.369966404501
304.369967304244
304.369968936237
304.36997225603
304.369979416635
304.369994942267
304.370029299647
304.370101385109
304.370248555491
304.370538305815
304.371087818869
304.372093330012
304.37388067789
304.376973172166
304.382170603625
304.39035761128
304.401031048729
304.404764980304
303.57383523983
303.549811107935
303.518917521374
303.495847329709
303.480875661723
303.471707141042
303.466263673129
303.46312042361
303.46136402478
303.460419466502
303.4599313238
303.459689556482
303.459574742852
303.459522135859
303.459498800951
303.459488612853
303.459484337915
303.459482373003
303.459481302694
303.459480699744
303.459480282388
303.459479950974
303.459479686876
303.459479506794
303.4594793471
303.459479218677
303.459479156326
303.459479130624
303.459479144431
303.459479222986
303.459479416591
303.459479865461
303.459480807383
303.459482879433
303.459487586225
303.459498511735
303.459523545951
303.4595792846
303.45969958871
303.459948894147
303.460446083272
303.461399355506
303.463158089549
303.46628987419
303.471702956886
303.480831483282
303.495810775895
303.519034552978
303.550174350425
303.573427771878
302.716273381465
302.672880736821
302.628164415932
302.595968316346
302.575298152754
302.562701666637
302.555241204107
302.550936244368
302.548528592537
302.547230676474
302.546558228136
302.5462240638
302.546064826801
302.54599189006
302.545959706601
302.545945946222
302.545940272752
302.5459378978
302.545936819597
302.545936291398
302.545935971548
302.545935730238
302.545935538379
302.545935402983
302.545935291298
302.545935200094
302.545935146053
302.545935112386
302.545935097211
302.545935133831
302.545935286358
302.545935717881
302.545936821659
302.545939465556
302.545945736026
302.545960612188
302.545995028852
302.546071953875
302.546237719924
302.546580988636
302.547264394769
302.548572450401
302.550982879437
302.555274461505
302.562700509073
302.575261183059
302.595980944958
302.628465429976
302.673690317339
302.716412637619
301.934843580108
301.880943969285
301.832991647382
301.799831012952
301.779115929374
301.766792298053
301.759651047206
301.755607820724
301.753382431112
301.752198602549
301.75159217387
301.751293699956
301.751152659815
301.751088600577
301.751060596746
301.751048784844
301.751043989355
301.751042061264
301.751041254326
301.751040892193
301.751040689772
301.751040538018
301.751040413439
301.751040323772
301.751040253723
301.751040195308
301.751040155095
301.751040122372
301.751040095976
301.751040092751
301.751040165358
301.751040459219
301.751041330781
301.751043503461
301.75104874701
301.751061393709
301.75109104167
301.751158064936
301.75130398401
301.751609482227
301.752224748399
301.753417393146
301.75564690979
301.759683025013
301.766803996873
301.779119765109
301.799939061889
301.833500888811
301.882207765195
301.936038735466
301.293665676329
301.23963685673
301.196281235301
301.167456026663
301.149968168549
301.139831324964
301.134092248849
301.130906246103
301.129180372452
301.128273738399
301.127813901942
301.127589344683
301.1274838986
301.127436274963
301.127415579099
301.127406924343
301.127403453666
301.12740209941
301.127401568225
301.127401351632
301.127401242411
301.127401160331
301.127401088434
301.127401035915
301.127400997314
301.127400964121
301.127400937686
301.127400910993
301.127400883058
301.127400867014
301.127400880342
301.127401035608
301.127401632588
301.127403167919
301.127406908643
301.127416045308
301.127437679821
301.1274870108
301.127595303627
301.127824073898
301.128289435829
301.129201981621
301.130931516382
301.134115250943
301.1398472475
301.149999452239
301.16762371089
301.196901146971
301.241169018089
301.295790097092
300.813730106001
300.767205159449
300.732719394398
300.710626375781
300.697608528145
300.690256956386
300.686190134556
300.683975582093
300.682793919393
300.682180176527
300.681871485639
300.681721648043
300.68165159553
300.681620067601
300.68160641638
300.681600741198
300.681598489485
300.681597634097
300.681597318785
300.681597204568
300.681597156661
300.681597121028
300.681597085094
300.681597058285
300.681597040415
300.681597024086
300.681597008472
300.681596989219
300.681596965314
300.681596945019
300.681596933687
300.681596997482
300.68159735716
300.681598331609
300.681600721157
300.681606621364
300.681620700438
300.681653009326
300.681724383451
300.681876226565
300.682187653006
300.682804492051
300.683988348535
300.686202553561
300.690269184344
300.697645513088
300.710799867235
300.733324853776
300.768742328987
300.8162995131
300.482827552574
300.447270034386
300.422564089072
300.4072748779
300.398518006745
300.393697213001
300.391090101176
300.389696652575
300.388963623735
300.388586765737
300.38839854098
300.388307591756
300.388265190859
300.388246144136
300.38823791416
300.388234507164
300.388233168283
300.388232673117
300.388232502119
300.388232448938
300.388232434527
300.388232425273
300.388232411001
300.388232399684
300.388232393802
300.388232387295
300.388232378956
300.388232366376
300.388232348592
300.38823233004
300.388232314663
300.388232329754
300.388232522793
300.388233089107
300.388234488428
300.388237978469
300.388246355769
300.388265667679
300.388308525464
300.388400186399
300.388589422268
300.388967458783
300.389701261845
300.391094443714
300.39370300815
300.398546627777
300.407416607693
300.423065566205
300.448597897393
300.485326156519
300.271038551767
300.246428278958
300.230237667974
300.220535617843
300.215127916455
300.212223320937
300.210686633086
300.209879977732
300.209461313616
300.209248059452
300.209142171334
300.209091176658
300.209067440504
300.20905678549
300.209052185859
300.209050287663
300.209049548351
300.209049282125
300.209049197467
300.209049178533
300.20904917711
300.209049177513
300.209049174874
300.209049171486
300.209049171752
300.209049170291
300.20904916635
300.209049158807
300.209049146892
300.20904913266
300.209049118138
300.209049115344
300.209049210502
300.209049513387
300.209050275762
300.209052194903
300.209056821675
300.209067519231
300.209091332004
300.20914245242
300.209248531511
300.209461977986
300.209880537535
300.210686487606
300.212223879702
300.215144369296
300.220632903775
300.230601533729
300.247442440311
300.273122219043
300.144380326851
300.128738472598
300.118922107547
300.113213307424
300.11011274529
300.108486304105
300.107643935785
300.107209411978
300.106986775048
300.106874332456
300.106818777226
300.106792084891
300.106779668082
300.106774092969
300.106771686581
300.106770695894
300.106770313499
300.106770179648
300.106770143223
300.106770139864
300.106770142079
300.106770145119
300.106770145952
300.106770146203
300.106770147618
300.106770147604
300.106770145882
300.106770141772
300.106770134432
300.106770124808
300.10677011385
300.106770107263
300.106770149832
300.106770300604
300.106770691076
300.106771682188
300.1067740789
300.106779629094
300.106792004456
300.106818634138
300.106874100688
300.10698637589
300.107208564331
300.107642114229
300.108484115717
300.110119444115
300.113271047846
300.119158346668
300.129436314203
300.145921788707
300.07320218307
300.063977491127
300.058422293634
300.055280409792
300.053615444822
300.052761634644
300.052328436577
300.052108748106
300.051997577246
300.051941874454
300.05191446955
300.051901322743
300.051895205929
300.051892456907
300.051891269814
300.051890782087
300.051890595614
300.051890533136
300.051890519125
300.051890520001
300.051890522872
300.051890525782
300.051890527458
300.051890528709
300.051890530048
300.051890530447
300.051890529789
300.051890527537
300.051890523316
300.05189051742
300.051890510321
300.051890504903
300.051890522106
300.051890592467
300.051890781838
300.051891266189
300.051892439764
300.051895158509
300.051901223092
300.051914287103
300.051941566156
300.051997051762
300.052107757784
300.052326498926
300.052758746875
300.053616504009
300.055310380817
300.058561577068
300.064416225845
300.074235275147
300.03542751997
300.030338410479
300.027383016083
300.025754322211
300.02491110622
300.024487967538
300.024277514426
300.024172547774
300.024120070199
300.024093972803
300.024081180429
300.024075049123
300.024072194059
300.024070909019
300.024070353634
300.024070125875
300.024070039638
300.024070012357
300.024070007688
300.024070009163
300.024070011442
300.024070013538
300.024070014964
300.0240700161
300.024070017042
300.02407001746
300.024070017222
300.024070016017
300.024070013735
300.024070010403
300.024070006275
300.024070002852
300.024070009093
300.02407004012
300.024070127564
300.024070352886
300.024070899469
300.024072164883
300.024074985566
300.024081061079
300.024093764389
300.024119700351
300.024171826909
300.024276048832
300.024485478056
300.0249098363
300.025767877843
300.02745839271
300.030593194422
300.036063932178
300.016412021837
300.013768196016
300.012281308726
300.011481440243
300.011076349345
300.010877234235
300.010780093726
300.010732427307
300.010708878542
300.010697251739
300.01069157097
300.010688849248
300.010687580173
300.010687007879
300.010686760255
300.010686658895
300.010686620904
300.010686609614
300.010686608385
300.010686609584
300.010686611067
300.010686612367
300.010686613312
300.010686614076
300.010686614648
300.010686614942
300.010686614854
300.010686614235
300.010686613068
300.010686611309
300.010686609097
300.010686607217
300.010686609219
300.010686622233
300.010686660857
300.010686761132
300.010687004507
300.010687567099
300.010688818958
300.010691512111
300.010697144592
300.010708675919
300.010732001565
300.010779163231
300.010875479521
300.011074633935
300.011486634953
300.012319046237
300.013906057899
300.016776257864
300.007296663348
300.005996122312
300.005285126697
300.004911132859
300.004725622658
300.004636222394
300.004593413856
300.004572741702
300.004562648298
300.004557699633
300.004555288764
300.004554133645
300.004553594097
300.00455335024
300.004553244585
300.00455320142
300.004553185458
300.004553181062
300.004553180867
300.004553181584
300.004553182433
300.00455318316
300.004553183706
300.004553184148
300.00455318446
300.004553184631
300.004553184596
300.004553184293
300.004553183724
300.00455318285
300.00455318174
300.00455318077
300.004553181317
300.004553186572
300.004553202953
300.004553245825
300.004553349879
300.004553589873
300.004554122472
300.004555265727
300.004557654846
300.004562554765
300.004572522208
300.004592888633
300.004635137603
300.004724228665
300.004912661251
300.00530270364
300.006066123348
300.007491955325
300.003120986222
300.002512353483
300.002187829826
300.002020640925
300.001939319959
300.001900860904
300.001882774167
300.00187417644
300.001870027118
300.001868006682
300.001867024978
300.001866554437
300.001866334192
300.0018662344
300.0018661911
300.001866173445
300.001866167021
300.001866165378
300.00186616542
300.00186616582
300.001866166264
300.001866166639
300.001866166925
300.001866167155
300.001866167313
300.0018661674
300.001866167385
300.001866167244
300.001866166979
300.001866166567
300.001866166042
300.001866165585
300.001866165706
300.001866167741
300.001866174431
300.001866192105
300.001866234983
300.001866333596
300.001866551678
300.001867018338
300.001867991825
300.001869990048
300.001874074424
300.001882502898
300.001900252652
300.001938400309
300.002020830646
300.002195473723
300.002545905551
300.003219738857
300.001287232061
300.001015158922
300.00087324479
300.000801526679
300.000767279207
300.000751369815
300.000744016739
300.000740574867
300.000738932881
300.000738138744
300.000737753827
300.000737569212
300.000737482595
300.000737443243
300.000737426141
300.000737419182
300.000737416693
300.000737416102
300.000737416166
300.000737416369
300.000737416585
300.000737416765
300.000737416904
300.000737417015
300.000737417089
300.00073741713
300.000737417123
300.00073741706
300.000737416942
300.000737416757
300.000737416522
300.000737416313
300.000737416327
300.000737417096
300.000737419738
300.000737426787
300.000737443872
300.000737483034
300.000737569278
300.000737753097
300.000738135537
300.000738920494
300.000740531358
300.000743886259
300.000751054328
300.000766745537
300.000801359859
300.000876353376
300.001030415366
300.00133458806
300.000513027998
300.000396441352
300.000336792198
300.000307177779
300.000293277824
300.000286929301
300.000284043674
300.000282713157
300.000282085643
300.000281784177
300.00028163839
300.000281568406
300.000281535485
300.000281520485
300.000281513954
300.000281511302
300.00028151037
300.000281510165
300.000281510206
300.000281510301
300.000281510398
300.000281510479
300.000281510542
300.000281510592
300.000281510625
300.000281510643
300.00028151064
300.000281510613
300.000281510562
300.000281510483
300.000281510383
300.000281510292
300.000281510287
300.000281510571
300.000281511586
300.000281514313
300.000281520915
300.00028153599
300.000281569031
300.000281639127
300.000281784453
300.000282082452
300.000282695932
300.0002839845
300.000286775929
300.000292995611
300.000306992344
300.000337973262
300.000403050615
300.000534664357
300.000197969963
300.000149930989
300.00012576485
300.000113960794
300.000108508841
300.000106058343
300.000104962143
300.000104464059
300.000104231787
300.000104120937
300.000104067446
300.000104041739
300.000104029612
300.000104024069
300.00010402165
300.000104020668
300.000104020328
300.000104020259
300.000104020279
300.00010402032
300.000104020361
300.000104020395
300.000104020422
300.000104020443
300.000104020456
300.000104020464
300.000104020463
300.000104020451
300.000104020431
300.000104020399
300.000104020358
300.000104020321
300.000104020316
300.00010402042
300.0001040208
300.000104021827
300.000104024308
300.000104029949
300.000104042245
300.000104068193
300.000104121762
300.000104231414
300.000104457674
300.000104936601
300.000105987792
300.000108370137
300.0001138352
300.000126182142
300.00015266883
300.000207425909
300.000074100938
300.000055014911
300.000045554432
300.000041001765
300.000038930232
300.000038013063
300.000037608965
300.000037427938
300.000037344451
300.000037304866
300.000037285801
300.000037276627
300.000037272285
300.000037270293
300.000037269421
300.000037269066
300.000037268944
300.000037268919
300.000037268928
300.000037268943
300.000037268959
300.000037268973
300.000037268983
300.000037268991
300.000037268996
300.000037268999
300.000037268998
300.000037268994
300.000037268986
300.000037268974
300.000037268958
300.000037268945
300.000037268943
300.000037268981
300.000037269121
300.000037269499
300.000037270409
300.000037272465
300.000037276921
300.00003728627
300.000037305474
300.000037344681
300.000037425702
300.00003759839
300.000037982132
300.000038866072
300.000040931512
300.000045690034
300.000056102833
300.000078067688
300.000026949394
300.000019619807
300.000016033266
300.000014330588
300.000013566487
300.000013232923
300.000013088054
300.000013024033
300.000012994824
300.000012981062
300.000012974445
300.000012971255
300.000012969739
300.000012969039
300.000012968731
300.000012968605
300.00001296856
300.00001296855
300.000012968552
300.000012968557
300.000012968562
300.000012968567
300.00001296857
300.000012968573
300.000012968574
300.000012968575
300.000012968575
300.000012968573
300.000012968571
300.000012968566
300.000012968561
300.000012968557
300.000012968557
300.000012968572
300.000012968624
300.000012968761
300.000012969088
300.000012969821
300.000012971398
300.000012974684
300.000012981395
300.00001299505
300.000013023284
300.000013083826
300.000013219922
300.000013538309
300.000014295498
300.000016072802
300.000020035646
300.000028551474
300.000009538048
300.000006811334
300.000005492043
300.000004873397
300.000004599284
300.000004481183
300.000004430578
300.000004408502
300.000004398533
300.000004393863
300.00000439162
300.000004390535
300.000004390016
300.000004389775
300.000004389666
300.000004389621
300.000004389603
300.000004389598
300.000004389597
300.000004389597
300.000004389598
300.000004389599
300.000004389599
300.0000043896
300.0000043896
300.0000043896
300.0000043896
300.000004389599
300.000004389599
300.000004389598
300.000004389597
300.000004389596
300.000004389598
300.000004389604
300.000004389624
300.000004389674
300.000004389791
300.000004390048
300.000004390595
300.000004391725
300.000004394018
300.00000439866
300.000004408256
300.000004428935
300.000004475918
300.000004587456
300.00000485722
300.000005501757
300.0000069646
300.000010162657
300.000003290039
300.000002305458
300.000001833777
300.000001615056
300.000001519267
300.000001478493
300.00000146124
300.000001453803
300.000001450476
300.000001448924
300.000001448178
300.000001447815
300.000001447638
300.000001447554
300.000001447515
300.000001447497
300.000001447489
300.000001447485
300.000001447483
300.000001447482
300.000001447481
300.00000144748
300.000001447479
300.000001447479
300.000001447478
300.000001447478
300.000001447478
300.000001447478
300.000001447478
300.000001447479
300.000001447479
300.00000144748
300.000001447482
300.000001447486
300.000001447495
300.000001447514
300.000001447556
300.000001447646
300.000001447834
300.000001448217
300.000001448985
300.000001450531
300.000001453718
300.000001460613
300.000001476429
300.000001514496
300.000001608048
300.000001835368
300.000002360044
300.000003525671
300.000001107669
300.000000761983
300.000000597843
300.000000522504
300.000000489857
300.000000476113
300.000000470362
300.000000467908
300.000000466818
300.000000466311
300.000000466065
300.000000465943
300.000000465881
300.000000465851
300.000000465835
300.000000465826
300.000000465821
300.000000465817
300.000000465815
300.000000465813
300.000000465811
300.00000046581
300.000000465809
300.000000465808
300.000000465807
300.000000465807
300.000000465807
300.000000465807
300.000000465808
300.000000465808
300.000000465809
300.000000465811
300.000000465813
300.000000465816
300.000000465821
300.00000046583
300.000000465846
300.000000465879
300.000000465945
300.000000466074
300.000000466329
300.000000466836
300.000000467874
300.000000470124
300.000000475324
300.000000487999
300.00000051962
300.000000597692
300.000000780804
300.000001193863
300.000000364581
300.000000246388
300.000000190742
300.000000165445
300.000000154587
300.000000150059
300.000000148181
300.000000147385
300.000000147032
300.000000146866
300.000000146783
300.00000014674
300.000000146717
300.000000146704
300.000000146695
300.00000014669
300.000000146685
300.000000146682
300.000000146679
300.000000146677
300.000000146675
300.000000146674
300.000000146672
300.000000146672
300.000000146671
300.000000146671
300.000000146671
300.000000146671
300.000000146671
300.000000146672
300.000000146674
300.000000146675
300.000000146677
300.00000014668
300.000000146684
300.000000146689
300.000000146697
300.000000146711
300.000000146735
300.000000146781
300.000000146867
300.000000147032
300.000000147367
300.000000148088
300.000000149762
300.000000153884
300.000000164308
300.000000190435
300.00000025268
300.000000395211
300.000000117597
300.000000078195
300.000000059824
300.000000051555
300.000000048036
300.000000046578
300.000000045975
300.000000045719
300.000000045603
300.000000045547
300.000000045516
300.000000045498
300.000000045487
300.000000045479
300.000000045473
300.000000045469
300.000000045465
300.000000045462
300.000000045459
300.000000045457
300.000000045455
300.000000045453
300.000000045452
300.000000045451
300.00000004545
300.00000004545
300.00000004545
300.00000004545
300.000000045451
300.000000045452
300.000000045453
300.000000045455
300.000000045457
300.000000045459
300.000000045463
300.000000045467
300.000000045472
300.00000004548
300.000000045491
300.000000045509
300.00000004554
300.000000045596
300.000000045705
300.000000045935
300.000000046464
300.000000047774
300.000000051122
300.000000059633
300.000000080238
300.000000128187
300.000000037361
300.000000024549
300.000000018667
300.000000016056
300.000000014951
300.000000014493
300.000000014302
300.000000014218
300.000000014177
300.000000014155
300.000000014141
300.000000014131
300.000000014124
300.000000014118
300.000000014113
300.000000014108
300.000000014105
300.000000014101
300.000000014098
300.000000014096
300.000000014094
300.000000014092
300.000000014091
300.00000001409
300.00000001409
300.000000014089
300.000000014089
300.000000014089
300.00000001409
300.000000014091
300.000000014092
300.000000014094
300.000000014096
300.000000014099
300.000000014102
300.000000014106
300.00000001411
300.000000014116
300.000000014123
300.000000014132
300.000000014146
300.000000014168
300.000000014206
300.00000001428
300.000000014447
300.000000014853
300.000000015895
300.000000018575
300.000000025193
300.000000040928
300.000000011856
300.000000007799
300.000000006005
300.00000000523
300.000000004903
300.000000004764
300.000000004703
300.000000004672
300.000000004655
300.000000004643
300.000000004634
300.000000004627
300.000000004621
300.000000004615
300.00000000461
300.000000004606
300.000000004602
300.000000004599
300.000000004596
300.000000004594
300.000000004592
300.00000000459
300.000000004589
300.000000004588
300.000000004588
300.000000004587
300.000000004587
300.000000004587
300.000000004588
300.000000004589
300.00000000459
300.000000004592
300.000000004594
300.000000004597
300.0000000046
300.000000004603
300.000000004608
300.000000004612
300.000000004618
300.000000004625
300.000000004633
300.000000004644
300.000000004661
300.000000004688
300.000000004741
300.000000004864
300.000000005171
300.000000005965
300.000000007996
300.000000013027
300.000000003914
300.000000002675
300.000000002188
300.000000001997
300.000000001915
300.000000001876
300.000000001854
300.00000000184
300.00000000183
300.000000001821
300.000000001814
300.000000001807
300.000000001801
300.000000001796
300.000000001791
300.000000001787
300.000000001784
300.00000000178
300.000000001778
300.000000001775
300.000000001773
300.000000001772
300.00000000177
300.00000000177
300.000000001769
300.000000001769
300.000000001769
300.000000001769
300.000000001769
300.00000000177
300.000000001772
300.000000001773
300.000000001776
300.000000001778
300.000000001781
300.000000001785
300.000000001789
300.000000001793
300.000000001798
300.000000001804
300.000000001811
300.000000001819
300.000000001829
300.000000001842
300.000000001861
300.000000001897
300.000000001974
300.000000002172
300.000000002733
300.000000004288
300.000000001491
300.000000001138
300.000000001061
300.000000001051
300.000000001044
300.000000001036
300.000000001026
300.000000001017
300.000000001008
300.000000001001
300.000000000994
300.000000000987
300.000000000982
300.000000000976
300.000000000972
300.000000000968
300.000000000964
300.000000000961
300.000000000958
300.000000000956
300.000000000954
300.000000000952
300.000000000951
300.00000000095
300.000000000949
300.000000000949
300.000000000949
300.000000000949
300.00000000095
300.000000000951
300.000000000952
300.000000000954
300.000000000956
300.000000000959
300.000000000962
300.000000000965
300.000000000969
300.000000000974
300.000000000979
300.000000000984
300.000000000991
300.000000000998
300.000000001006
300.000000001014
300.000000001024
300.000000001033
300.000000001041
300.000000001055
300.000000001155
300.000000001606
300.000000000766
300.000000000687
300.000000000735
300.00000000078
300.000000000796
300.000000000796
300.000000000789
300.000000000782
300.000000000774
300.000000000766
300.000000000759
300.000000000753
300.000000000747
300.000000000742
300.000000000737
300.000000000733
300.00000000073
300.000000000727
300.000000000724
300.000000000722
300.00000000072
300.000000000718
300.000000000717
300.000000000716
300.000000000715
300.000000000715
300.000000000715
300.000000000715
300.000000000716
300.000000000717
300.000000000718
300.00000000072
300.000000000722
300.000000000725
300.000000000727
300.000000000731
300.000000000735
300.000000000739
300.000000000744
300.00000000075
300.000000000756
300.000000000763
300.000000000771
300.000000000778
300.000000000785
300.000000000787
300.000000000774
300.000000000733
300.000000000691
300.000000000799
300.000000000555
300.000000000558
300.000000000643
300.000000000704
300.000000000727
300.000000000729
300.000000000723
300.000000000715
300.000000000707
300.0000000007
300.000000000693
300.000000000687
300.000000000681
300.000000000676
300.000000000671
300.000000000667
300.000000000664
300.000000000661
300.000000000658
300.000000000656
300.000000000654
300.000000000652
300.000000000651
300.00000000065
300.00000000065
300.000000000649
300.000000000649
300.00000000065
300.00000000065
300.000000000651
300.000000000652
300.000000000654
300.000000000656
300.000000000659
300.000000000661
300.000000000665
300.000000000669
300.000000000673
300.000000000678
300.000000000684
300.00000000069
300.000000000697
300.000000000705
300.000000000712
300.000000000718
300.000000000719
300.0000000007
300.000000000643
300.000000000559
300.000000000562
300.000000000496
300.000000000524
300.00000000062
300.000000000684
300.000000000708
300.00000000071
300.000000000704
300.000000000697
300.000000000688
300.000000000681
300.000000000674
300.000000000667
300.000000000662
300.000000000657
300.000000000652
300.000000000648
300.000000000645
300.000000000642
300.000000000639
300.000000000637
300.000000000635
300.000000000634
300.000000000633
300.000000000632
300.000000000631
300.000000000631
300.000000000631
300.000000000631
300.000000000632
300.000000000633
300.000000000634
300.000000000636
300.000000000637
300.00000000064
300.000000000643
300.000000000646
300.00000000065
300.000000000654
300.000000000659
300.000000000665
300.000000000671
300.000000000678
300.000000000686
300.000000000694
300.0000000007
300.000000000701
300.000000000681
300.00000000062
300.000000000524
300.000000000496
300.000000000482
300.000000000518
300.000000000616
300.00000000068
300.000000000704
300.000000000705
300.000000000699
300.000000000691
300.000000000682
300.000000000675
300.000000000668
300.000000000661
300.000000000656
300.000000000651
300.000000000646
300.000000000642
300.000000000639
300.000000000636
300.000000000633
300.000000000631
300.000000000629
300.000000000628
300.000000000627
300.000000000626
300.000000000626
300.000000000625
300.000000000625
300.000000000626
300.000000000626
300.000000000627
300.000000000628
300.00000000063
300.000000000632
300.000000000634
300.000000000637
300.00000000064
300.000000000644
300.000000000648
300.000000000653
300.000000000659
300.000000000666
300.000000000673
300.000000000681
300.000000000689
300.000000000696
300.000000000697
300.000000000678
300.000000000617
300.000000000518
300.00000000048
300.000000000482
300.000000000519
300.000000000617
300.000000000681
300.000000000703
300.000000000704
300.000000000697
300.000000000688
300.00000000068
300.000000000672
300.000000000665
300.000000000658
300.000000000653
300.000000000648
300.000000000643
300.00000000064
300.000000000636
300.000000000633
300.000000000631
300.000000000629
300.000000000627
300.000000000626
300.000000000625
300.000000000624
300.000000000623
300.000000000623
300.000000000623
300.000000000623
300.000000000624
300.000000000625
300.000000000626
300.000000000628
300.000000000629
300.000000000632
300.000000000634
300.000000000638
300.000000000641
300.000000000646
300.000000000651
300.000000000657
300.000000000663
300.00000000067
300.000000000678
300.000000000687
300.000000000695
300.000000000697
300.000000000679
300.000000000619
300.00000000052
300.000000000479
300.000000000486
300.000000000524
300.000000000621
300.000000000683
300.000000000704
300.000000000703
300.000000000696
300.000000000686
300.000000000678
300.000000000669
300.000000000662
300.000000000656
300.00000000065
300.000000000646
300.000000000641
300.000000000638
300.000000000634
300.000000000632
300.000000000629
300.000000000627
300.000000000626
300.000000000624
300.000000000623
300.000000000622
300.000000000622
300.000000000622
300.000000000622
300.000000000622
300.000000000623
300.000000000623
300.000000000625
300.000000000626
300.000000000628
300.00000000063
300.000000000633
300.000000000636
300.00000000064
300.000000000644
300.000000000649
300.000000000655
300.000000000661
300.000000000669
300.000000000677
300.000000000686
300.000000000695
300.000000000697
300.000000000681
300.000000000623
300.000000000525
300.000000000483
300.000000000492
300.000000000531
300.000000000626
300.000000000686
300.000000000704
300.000000000703
300.000000000694
300.000000000685
300.000000000675
300.000000000667
300.00000000066
300.000000000654
300.000000000648
300.000000000644
300.000000000639
300.000000000636
300.000000000633
300.00000000063
300.000000000628
300.000000000626
300.000000000624
300.000000000623
300.000000000622
300.000000000621
300.000000000621
300.000000000621
300.000000000621
300.000000000621
300.000000000621
300.000000000622
300.000000000623
300.000000000625
300.000000000627
300.000000000629
300.000000000631
300.000000000634
300.000000000638