/*--------------------------------*- C++ -*----------------------------------*\
  =========                 |
  \\      /  F ield         | OpenFOAM: The Open Source CFD Toolbox
   \\    /   O peration     | Website:  https://openfoam.org
    \\  /    A nd           | Version:  10
     \\/     M anipulation  |
\*---------------------------------------------------------------------------*/
FoamFile
{
    format      ascii;
    class       volVectorField;
    location    "7.4";
    object      U;
}
// * * * * * * * * * * * * * * * * * * * * * * * * * * * * * * * * * * * * * //

dimensions      [0 1 -1 0 0 0 0];

internalField   nonuniform List<vector> 
2500
(
(-1.33843120395773e-06 -1.88907637079143e-06 2.99136155785478e-25)
(-3.39720627196235e-06 -2.59588035673867e-06 2.9159329205649e-24)
(-3.59381432676273e-06 -2.83622823200858e-06 4.20051746150259e-25)
(-2.97041005286224e-06 -2.94060194286178e-06 7.78897438205621e-26)
(-2.12348417056035e-06 -2.94887676023645e-06 -4.91677325824673e-25)
(-1.45069173801879e-06 -2.92948058386476e-06 -7.71760813033945e-25)
(-9.64441501461656e-07 -2.90509159098013e-06 -2.31908489242063e-25)
(-6.42313799173683e-07 -2.88538797718021e-06 -2.15031596833268e-25)
(-4.29652029918428e-07 -2.87076161232087e-06 -4.35855685588431e-25)
(-2.90886797358238e-07 -2.86075566976108e-06 3.53434440084039e-24)
(-1.99158305929273e-07 -2.85419589945974e-06 2.0323068130053e-24)
(-1.37550661384729e-07 -2.85008067998597e-06 4.32983874280618e-24)
(-9.51856875721913e-08 -2.84758212762931e-06 3.98202934546061e-24)
(-6.52097013855174e-08 -2.84610023732414e-06 1.57473336538436e-24)
(-4.33779325910075e-08 -2.84523274598009e-06 4.13457745838033e-24)
(-2.70179207967672e-08 -2.8447206452466e-06 1.11350969951091e-24)
(-1.44552148246425e-08 -2.84441580149912e-06 4.11063013231347e-24)
(-4.60838016075888e-09 -2.84422861871418e-06 3.98410760923428e-24)
(3.25174970177793e-09 -2.84411476041803e-06 8.86707579517443e-25)
(9.62352499641368e-09 -2.84404331138427e-06 2.93591334392639e-24)
(1.48664161294178e-08 -2.8439943581975e-06 1.71834289635479e-25)
(1.92535560950795e-08 -2.84396568389936e-06 -2.39653114439412e-25)
(2.29954998988175e-08 -2.84395200240352e-06 3.83444260503548e-24)
(2.62664435206389e-08 -2.84395037873017e-06 4.72056764025375e-25)
(2.92197096380885e-08 -2.84395245827566e-06 -1.01293806338465e-25)
(3.19976303923524e-08 -2.8439591872034e-06 3.362200404236e-24)
(3.47345688475625e-08 -2.84397813839976e-06 1.32600787041011e-25)
(3.75648016825408e-08 -2.84400639470675e-06 1.177524126413e-24)
(4.06438475081542e-08 -2.84404120985284e-06 3.75677419336302e-24)
(4.4143253246372e-08 -2.84409344864547e-06 -1.46874901433152e-25)
(4.82715775551723e-08 -2.84415851253763e-06 3.04464355035373e-25)
(5.32993572137526e-08 -2.84425853606271e-06 -4.55922407381568e-25)
(5.95773858709652e-08 -2.84439586941e-06 8.89503276250669e-25)
(6.75980254632408e-08 -2.84460674941753e-06 8.97221149842026e-25)
(7.8086942598609e-08 -2.8449380465868e-06 -7.67064489958377e-26)
(9.21354912813477e-08 -2.84548041066079e-06 3.03881695418904e-24)
(1.11426983503555e-07 -2.84637917247678e-06 -2.90528749547062e-24)
(1.38641939856623e-07 -2.84788941603686e-06 -3.54969407386301e-25)
(1.78021925861397e-07 -2.8504125814802e-06 -9.15182489535443e-27)
(2.36425404960645e-07 -2.85453599238224e-06 -2.18208880329713e-24)
(3.24721476120745e-07 -2.86106118631642e-06 -5.42243420832421e-24)
(4.59841412059164e-07 -2.87099521461791e-06 -5.20178649338794e-24)
(6.68660978693526e-07 -2.8855227842054e-06 -2.97789657085381e-24)
(9.87246074161241e-07 -2.90523298259213e-06 -4.95478596655301e-24)
(1.47143624709483e-06 -2.92998172024901e-06 -5.4086965350269e-24)
(2.14715763257328e-06 -2.95041258359545e-06 -3.1731745820719e-24)
(3.00558584310887e-06 -2.94335189816243e-06 -5.08051940232834e-24)
(3.64719718743665e-06 -2.83772844716734e-06 -5.18255327399124e-24)
(3.44179201462477e-06 -2.59083990934608e-06 -2.57249100772036e-24)
(1.34691204953477e-06 -1.88623821136105e-06 -2.93145769048981e-24)
(-1.78344570922245e-06 -2.25100218086847e-06 5.31121975746293e-26)
(-5.84546242380015e-06 -3.95845134734499e-06 -7.78469050244347e-26)
(-6.45735775830696e-06 -5.27150063468639e-06 2.54201187758288e-25)
(-5.51662843694226e-06 -5.82956695704703e-06 -1.06356138145416e-25)
(-4.05866917001719e-06 -5.85138447360215e-06 -2.18639420748205e-24)
(-2.84893152971555e-06 -5.68627767269371e-06 -2.52139981793571e-24)
(-1.94934064711066e-06 -5.50967956035826e-06 -7.4365358500933e-25)
(-1.33817353848065e-06 -5.37214858235706e-06 -7.75626801296246e-25)
(-9.25827252905987e-07 -5.27635843196905e-06 -2.5470889004045e-24)
(-6.49714443560502e-07 -5.21286057932554e-06 4.13346294151784e-25)
(-4.61811222493219e-07 -5.17191371488776e-06 3.97119677288718e-24)
(-3.31238766704794e-07 -5.14587317835918e-06 3.67973083514214e-24)
(-2.38046698946369e-07 -5.12939211488345e-06 1.69377569391161e-24)
(-1.69551183448132e-07 -5.11890285579195e-06 2.67571947521441e-24)
(-1.17787664017467e-07 -5.1121073903045e-06 8.16003733159234e-25)
(-7.76571443937199e-08 -5.10758681486929e-06 1.18873053238375e-24)
(-4.58717897724989e-08 -5.10448399603133e-06 2.7556201062719e-24)
(-2.02425837714891e-08 -5.10228572619292e-06 1.36528767787389e-24)
(7.47425389272938e-10 -5.10068757058967e-06 5.88381205520331e-25)
(1.81831169693602e-08 -5.09949750578403e-06 -1.25587541255367e-25)
(3.28642338135041e-08 -5.09860718728356e-06 -5.53779448524755e-25)
(4.54168332339304e-08 -5.09794827717059e-06 -1.93705306159775e-24)
(5.63471478531205e-08 -5.09746573624485e-06 1.79692594738722e-24)
(6.60830887613025e-08 -5.09714164502266e-06 2.57720069264625e-25)
(7.50030814734267e-08 -5.09694767003649e-06 -1.46460583451419e-24)
(8.34519369216423e-08 -5.09687651464167e-06 1.26651854167982e-24)
(9.17699729222095e-08 -5.09694269037851e-06 -7.77170707946175e-25)
(1.00307240520574e-07 -5.09714074214294e-06 2.7328825989785e-24)
(1.09437828326466e-07 -5.09748267317191e-06 2.08196949087106e-24)
(1.19582104925162e-07 -5.09801532123887e-06 -1.40499843733603e-24)
(1.31231823089111e-07 -5.09876930099934e-06 9.7074015808667e-25)
(1.45012704173561e-07 -5.09981894289602e-06 -1.3699259413836e-24)
(1.61715994275441e-07 -5.10128417728792e-06 2.70712079959813e-24)
(1.82400958817869e-07 -5.10334053369035e-06 2.60554805328591e-24)
(2.0858323409161e-07 -5.10630835015375e-06 -1.18596043638661e-24)
(2.4246740247391e-07 -5.11071356942628e-06 1.02775842126838e-24)
(2.87354634007069e-07 -5.1173973248388e-06 -1.4590462925548e-24)
(3.48350732189853e-07 -5.12778747453154e-06 -2.28528096325103e-25)
(4.33431650311778e-07 -5.14415733004898e-06 7.5176823854753e-25)
(5.55321598508064e-07 -5.17006482502177e-06 -4.723572435773e-24)
(7.33954835221102e-07 -5.2108232388166e-06 -5.44960239096718e-24)
(1.00030247828195e-06 -5.27409997848659e-06 -5.44485289884076e-24)
(1.40249258955524e-06 -5.36982548017594e-06 -6.37372669766368e-24)
(2.00409761444731e-06 -5.50810851854651e-06 -5.25058752568402e-24)
(2.89705244342168e-06 -5.68769102128176e-06 -5.73103691874811e-24)
(4.1096383806739e-06 -5.85950205480812e-06 -6.72628275505345e-24)
(5.58712899952247e-06 -5.84497016304739e-06 -5.4923962345997e-24)
(6.56200005092289e-06 -5.27836397912646e-06 -5.43331533113828e-24)
(5.93985792066814e-06 -3.9324905578892e-06 -5.30358757922009e-24)
(1.80513798250261e-06 -2.22201518504419e-06 -2.63503047755338e-24)
(-1.06402185211365e-06 7.50920349401138e-07 -3.87835253134113e-25)
(-5.37549443465419e-06 -1.20832744283426e-06 -3.60555258221213e-24)
(-6.20256836645318e-06 -3.6458328115012e-06 -1.94820879035903e-25)
(-5.53773796069516e-06 -4.69980490040994e-06 -3.85204547081599e-25)
(-4.23484299199563e-06 -4.75028573668807e-06 -4.71089149726235e-24)
(-3.09446014820833e-06 -4.42846773400071e-06 -4.45886989395399e-24)
(-2.20694566258746e-06 -4.08343088706684e-06 -1.01135886054956e-24)
(-1.58090899447853e-06 -3.8145303159437e-06 -1.12155186971818e-24)
(-1.14225460397726e-06 -3.62841593240828e-06 -5.06205794547176e-24)
(-8.36612254642674e-07 -3.50545930245658e-06 -3.34019160858258e-24)
(-6.19834791184916e-07 -3.42596496052874e-06 5.07609012125369e-24)
(-4.62727759040261e-07 -3.3747779424487e-06 2.03993801682782e-24)
(-3.45977203912926e-07 -3.34163633171877e-06 -1.99825947046642e-24)
(-2.56935720188405e-07 -3.31983784443971e-06 3.58464223706334e-24)
(-1.87424219704358e-07 -3.30516096837537e-06 -2.82160694417471e-24)
(-1.32018459092746e-07 -3.29499245641454e-06 4.1579900223679e-25)
(-8.70710160251754e-08 -3.28772940433995e-06 7.06432318931938e-25)
(-5.00537345961661e-08 -3.28240365372883e-06 -2.16431869332993e-24)
(-1.9151827643394e-08 -3.2784090080151e-06 -3.53509293912729e-25)
(6.97380599700761e-09 -3.2753663338011e-06 -3.68964467962531e-24)
(2.93512547350043e-08 -3.27304596171084e-06 -1.36622849276326e-24)
(4.88123835070539e-08 -3.2712861377904e-06 -4.13008531979025e-24)
(6.60289744324908e-08 -3.26998693255272e-06 -3.03120024985274e-25)
(8.15854344646506e-08 -3.26907494290213e-06 -2.61371683711738e-25)
(9.60124548651806e-08 -3.26852030998507e-06 -3.55603531780782e-24)
(1.09788627872223e-07 -3.26830503924931e-06 -7.69286916379151e-25)
(1.233972312491e-07 -3.26842417413713e-06 -2.77886140539657e-24)
(1.37328055917158e-07 -3.26889554234462e-06 4.43192236256859e-24)
(1.5209139509629e-07 -3.26975619271839e-06 4.35374059287867e-25)
(1.68267069636265e-07 -3.27107473502988e-06 -3.29023605340692e-24)
(1.86529719650869e-07 -3.27295081278668e-06 2.2571022048354e-24)
(2.07686829586538e-07 -3.27552708252933e-06 -2.72835598200026e-24)
(2.3275884135617e-07 -3.27905984055959e-06 4.55169911831035e-24)
(2.63070909934081e-07 -3.28391886293858e-06 4.32945564533145e-24)
(3.0042147286488e-07 -3.2907192361514e-06 -3.21432162688044e-24)
(3.4735571372767e-07 -3.30044636264017e-06 -7.1334530642452e-25)
(4.0752441286162e-07 -3.31469820866598e-06 -1.58912616318652e-25)
(4.86361433269299e-07 -3.33609562013918e-06 2.76064311698298e-25)
(5.92063829375e-07 -3.36884166836458e-06 2.84225818593404e-24)
(7.37323871181856e-07 -3.41965713420413e-06 -6.16674343700333e-24)
(9.41464739665412e-07 -3.49880818553905e-06 -3.76744626718078e-24)
(1.23385456689522e-06 -3.62150658431886e-06 -3.83999495258568e-24)
(1.65881315576591e-06 -3.8078570555083e-06 -8.06533000472748e-24)
(2.27182695518397e-06 -4.07867088236552e-06 -3.90441232392752e-24)
(3.14937817271617e-06 -4.42998042479157e-06 -4.19576469595731e-24)
(4.28966500440241e-06 -4.76522523710046e-06 -8.4680312770991e-24)
(5.61066583685051e-06 -4.72961179951904e-06 -4.09550916218385e-24)
(6.31281949759032e-06 -3.66125241392136e-06 -3.83005170419909e-24)
(5.48923316681208e-06 -1.16264757224075e-06 -7.11507294278299e-24)
(1.0997206390742e-06 8.19311243531544e-07 -1.75076819362798e-24)
(-3.26690304734789e-07 3.63604762717632e-06 -3.88188726290606e-25)
(-3.53128393293828e-06 1.99553333677119e-06 -3.98178031508302e-24)
(-4.39550769693164e-06 -1.389684165626e-06 -1.32074408159567e-25)
(-4.23325772090091e-06 -2.94223761036359e-06 -8.43819218940897e-26)
(-3.45579174459176e-06 -3.1174298308378e-06 -1.85487657627491e-24)
(-2.69380839427369e-06 -2.73671638530069e-06 -2.49494480498652e-24)
(-2.04326432454542e-06 -2.29557472320023e-06 -6.06008951452889e-25)
(-1.55109757320988e-06 -1.94085038586973e-06 -6.79954544100513e-25)
(-1.18242422988114e-06 -1.69086847413019e-06 -3.10857864561882e-24)
(-9.09008414998577e-07 -1.5228261784759e-06 -3.66458868935953e-24)
(-7.03549706355079e-07 -1.41201248460573e-06 2.93272511110163e-24)
(-5.4671311775189e-07 -1.33893913928734e-06 -3.01794927661783e-25)
(-4.24866638752839e-07 -1.29027478439992e-06 -2.87428540577698e-24)
(-3.2845881247814e-07 -1.25727103946559e-06 1.4344702096572e-24)
(-2.50926835799116e-07 -1.23434724068014e-06 -3.30236730075954e-24)
(-1.87622431555692e-07 -1.21799667885385e-06 7.59260279148432e-26)
(-1.35237733457383e-07 -1.20601860078604e-06 -1.28233062140955e-24)
(-9.13526377887578e-08 -1.1970459248679e-06 -2.62528879289202e-24)
(-5.41507952733613e-08 -1.19019887027614e-06 -3.65514665864818e-25)
(-2.22414984978393e-08 -1.18492412042291e-06 -3.74984547945294e-24)
(5.47897861290044e-09 -1.18085401889293e-06 -9.99605689597851e-25)
(2.99160622338297e-08 -1.17773701332892e-06 -2.42884731718536e-24)
(5.18302999366118e-08 -1.17542541755703e-06 -1.89740215152512e-24)
(7.18851829833615e-08 -1.17379460822905e-06 -1.90320662174196e-25)
(9.06806654784422e-08 -1.17279563290903e-06 -1.87470793242526e-24)
(1.08782492213004e-07 -1.17239904701508e-06 -2.11588520351089e-24)
(1.26743691234102e-07 -1.17258791535579e-06 -1.29991470933283e-24)
(1.45127974779697e-07 -1.17341116896412e-06 2.16790338318202e-24)
(1.64530235655864e-07 -1.17492084927932e-06 -1.4961055278741e-24)
(1.85607169693665e-07 -1.17721130457653e-06 -2.01617773747772e-24)
(2.0911154322989e-07 -1.18046078150888e-06 7.99102506636278e-25)
(2.35932709630763e-07 -1.1849018720982e-06 -1.57493754864468e-24)
(2.6716169305331e-07 -1.19088568791031e-06 2.62055281084593e-24)
(3.04181127198893e-07 -1.19899948128699e-06 2.51748463971514e-24)
(3.48791446189162e-07 -1.21012132209443e-06 -1.77263357285742e-24)
(4.03412620580758e-07 -1.22562381841374e-06 -2.16968027241705e-24)
(4.71349929287478e-07 -1.24772191924249e-06 1.56285806105262e-24)
(5.57248821106795e-07 -1.27991809845187e-06 3.52765930297761e-25)
(6.67677313085369e-07 -1.32779254619045e-06 1.04640423289103e-24)
(8.12231405129276e-07 -1.40014098774229e-06 -4.04503372258223e-24)
(1.00456468480683e-06 -1.5103104396643e-06 -6.54216129374411e-25)
(1.2642103402056e-06 -1.67796305148133e-06 -5.97298330949385e-25)
(1.61863218304068e-06 -1.92840577576668e-06 -4.97121785247368e-24)
(2.09700304318093e-06 -2.28617504049209e-06 -8.15924487489048e-25)
(2.73599765259945e-06 -2.7367864223594e-06 -9.71539767389698e-25)
(3.49426899739224e-06 -3.13763375601623e-06 -5.45513705798048e-24)
(4.28379081821493e-06 -2.98602327533247e-06 -8.65020425671033e-25)
(4.47814116039774e-06 -1.41835721538664e-06 -2.96995846302854e-25)
(3.63322131466312e-06 2.05110757481763e-06 -4.79755119216416e-24)
(3.68585998409e-07 3.73436053671186e-06 1.35339032063778e-25)
(1.76632784813698e-07 5.66377424893462e-06 8.33409166164004e-26)
(-1.49455146982462e-06 4.5429485461888e-06 -1.30906968805187e-24)
(-2.28908062881625e-06 5.84257590094529e-07 4.57490713046381e-25)
(-2.59416980699469e-06 -1.38324678675635e-06 3.90207253898056e-25)
(-2.39197081802799e-06 -1.75569544732725e-06 6.75663824340975e-25)
(-2.06753180387908e-06 -1.42433042440481e-06 -9.01485520756231e-25)
(-1.70901854186227e-06 -9.73851579231982e-07 -4.25987394362735e-26)
(-1.39357454876373e-06 -5.90817080671097e-07 -5.23217857684268e-26)
(-1.12729868923587e-06 -3.11370502357044e-07 -1.17596459951104e-24)
(-9.10308652989012e-07 -1.17715424569594e-07 -1.24978795851329e-24)
(-7.34476898550666e-07 1.38495166264446e-08 1.99959080226445e-24)
(-5.91976576000742e-07 1.03281041185341e-07 7.10202992597632e-25)
(-4.76017853141784e-07 1.6468375545608e-07 -5.99552136572733e-25)
(-3.80943464850535e-07 2.07571910577917e-07 1.04845628832793e-24)
(-3.02369578823547e-07 2.3818119235797e-07 -9.60132584881394e-25)
(-2.36843196115068e-07 2.60537785113878e-07 5.68597742957095e-25)
(-1.8168768282144e-07 2.7722790886589e-07 2.16593699062907e-25)
(-1.34809323938162e-07 2.8993589205517e-07 -3.02847388984179e-25)
(-9.4558769645302e-08 2.99741718174058e-07 4.78506358292476e-25)
(-5.96202425805302e-08 3.07358143510405e-07 -1.04252690940927e-24)
(-2.89072339353586e-08 3.13278789872138e-07 -9.10335112816662e-27)
(-1.51695241109028e-09 3.17822497181922e-07 -7.38950791723612e-25)
(2.33219508492623e-08 3.21210679859958e-07 -2.57630468292839e-25)
(4.62977099437452e-08 3.23587065232613e-07 3.45472424862057e-25)
(6.80363769055592e-08 3.25039688061459e-07 -4.38827897038989e-25)
(8.9133365247021e-08 3.25604688670887e-07 -3.71098676643161e-25)
(1.10164643616812e-07 3.25293598274337e-07 -3.10239756694667e-25)
(1.31720590652387e-07 3.24061741493056e-07 1.13210645454138e-24)
(1.54428837488212e-07 3.21820599602911e-07 -3.80685910234427e-25)
(1.78958165358801e-07 3.18439191614845e-07 -9.28422467729414e-25)
(2.06078061317388e-07 3.13688432917189e-07 2.36086562832728e-25)
(2.36688057302041e-07 3.07251949238828e-07 -9.92470480619734e-25)
(2.71846348983342e-07 2.98660494373215e-07 1.1372953149252e-24)
(3.1286084591862e-07 2.87181855068186e-07 1.18660911206848e-24)
(3.61373206268826e-07 2.71711773112892e-07 -8.22579395887511e-25)
(4.19458724346582e-07 2.5057970573404e-07 -7.69646445410068e-25)
(4.89777100385298e-07 2.2117529151275e-07 5.17227259437921e-25)
(5.75774536167411e-07 1.79491052044176e-07 8.33189591124274e-26)
(6.81813598597895e-07 1.19274278592453e-07 1.99363675331873e-25)
(8.13580616298205e-07 3.09698303657451e-08 -3.33418601301048e-24)
(9.77852963514543e-07 -9.95870357516016e-08 -8.39895518418156e-25)
(1.18261012391261e-06 -2.92596845076608e-07 -7.56303416309326e-25)
(1.43602330868699e-06 -5.72530153760168e-07 -3.37340084871225e-24)
(1.73856245165783e-06 -9.59337404610296e-07 -8.75586691876597e-25)
(2.08509292138119e-06 -1.42162675755334e-06 -9.90744069512228e-25)
(2.40236178228521e-06 -1.77852541997474e-06 -3.75449255977717e-24)
(2.6089798905524e-06 -1.43773726354286e-06 -9.51426803633135e-25)
(2.32631639175372e-06 5.41021578444563e-07 -8.33642109554808e-25)
(1.56081972889894e-06 4.59885747061236e-06 -3.95834581481179e-24)
(-1.40864956337774e-07 5.77955804439904e-06 -2.08069928294693e-25)
(4.2554286472081e-07 6.67141170385399e-06 4.70974509870377e-25)
(8.9080022223628e-08 6.05673285724532e-06 -1.08354813346212e-26)
(-5.87434797350708e-07 1.92867283082522e-06 9.08852657816751e-25)
(-1.19414773719346e-06 -3.05672598398763e-07 5.47376477197611e-25)
(-1.43406327445223e-06 -8.78371795976657e-07 1.49982270798066e-25)
(-1.46268886267024e-06 -6.54906847637876e-07 -2.52468825189195e-25)
(-1.35339909310008e-06 -2.51113401705243e-07 3.23548321328453e-25)
(-1.1966412260623e-06 1.19373561132905e-07 3.672457457496e-25)
(-1.02828621722511e-06 4.02005366492346e-07 -1.38942427477639e-25)
(-8.69775216622162e-07 6.05182388995849e-07 6.96027979988735e-28)
(-7.28410006579939e-07 7.47929586970404e-07 1.72524409829525e-24)
(-6.05899013915277e-07 8.48113562307948e-07 1.23929435009768e-24)
(-5.01359713496378e-07 9.19011819868926e-07 5.62196137663938e-25)
(-4.12641081388691e-07 9.6992175616208e-07 1.28742451448286e-24)
(-3.37431017893373e-07 1.00715330502676e-06 2.55786154644479e-25)
(-2.73486091392751e-07 1.03490360073986e-06 1.01779344547919e-24)
(-2.18828000664387e-07 1.05597240856086e-06 1.13237755338925e-24)
(-1.71776353955815e-07 1.0722046162656e-06 8.62711824790004e-25)
(-1.30929033109177e-07 1.08484712040584e-06 1.13710134973163e-24)
(-9.50976161054693e-08 1.09474056334956e-06 3.51757296488687e-25)
(-6.32847881087567e-08 1.10245801905214e-06 7.19979534256105e-25)
(-3.46400363277699e-08 1.10839489913101e-06 1.64449616690722e-25)
(-8.41561993089664e-09 1.11281897064584e-06 7.13275912777786e-25)
(1.60585797033804e-08 1.11590655363538e-06 7.54627353221782e-25)
(3.93984441600519e-08 1.11776989712999e-06 2.44549742252282e-25)
(6.21937515010743e-08 1.11846264815929e-06 6.23337607138256e-25)
(8.50191515236877e-08 1.11798430227257e-06 6.46138053084098e-26)
(1.08453311378798e-07 1.11628819296501e-06 8.69956866333701e-25)
(1.33114246338623e-07 1.11326711175621e-06 2.52476684933113e-25)
(1.59660882401019e-07 1.10874361616819e-06 -4.08110032866524e-25)
(1.88829247988736e-07 1.1024616846881e-06 2.43837675143443e-25)
(2.21465080411685e-07 1.09402073652106e-06 -8.25423842627447e-25)
(2.58547546780375e-07 1.08285313807324e-06 4.41930935017044e-25)
(3.01245555365232e-07 1.06811721022336e-06 5.49746626387696e-25)
(3.50953021047711e-07 1.04856531266392e-06 -4.37994842198446e-25)
(4.09324101793621e-07 1.02232533227794e-06 -2.88557800952876e-26)
(4.78312185163179e-07 9.86615828650023e-07 -2.12746304224604e-26)
(5.6013745010719e-07 9.37229647556109e-07 -1.50094561810149e-25)
(6.57069605866854e-07 8.67855743525489e-07 1.65575276883801e-25)
(7.71261207688175e-07 7.69152388868415e-07 -1.42289161888705e-24)
(9.035345887912e-07 6.27754356900136e-07 -7.32601004426315e-25)
(1.05224076251726e-06 4.25538936025416e-07 -7.00962106713376e-25)
(1.20994351851758e-06 1.4262936716905e-07 -1.58100909046424e-24)
(1.35540663383512e-06 -2.31729415497431e-07 -6.97212471438039e-25)
(1.45292272095658e-06 -6.48420157904416e-07 -7.85214574145818e-25)
(1.41441491737364e-06 -9.00717762776524e-07 -1.82889063557457e-24)
(1.17182567076659e-06 -3.65777781500474e-07 -7.75590661392648e-25)
(5.76959255207784e-07 1.87356532020549e-06 -7.15077348211513e-25)
(-6.86747918724319e-08 6.10648374857764e-06 -1.91699394652064e-24)
(-4.04570441871996e-07 6.79287846673107e-06 -1.39595941508159e-25)
(4.95512600579462e-07 6.78278169315579e-06 6.58802233660335e-25)
(1.02676481249124e-06 6.56863689884673e-06 1.2858532930318e-24)
(4.80490746496882e-07 2.58493419332944e-06 1.07893567765439e-24)
(-2.4298166120757e-07 2.31946189190123e-07 5.47892110037043e-25)
(-7.35837208974042e-07 -5.03333030306776e-07 3.11431562115824e-25)
(-9.85074921603981e-07 -4.03984569740535e-07 4.37980550421608e-25)
(-1.04636185384652e-06 -7.26801190141475e-08 4.70688913143144e-25)
(-1.00634683885247e-06 2.62703807552928e-07 5.34351311598157e-25)
(-9.15738396415044e-07 5.3241868669804e-07 7.05145656898617e-25)
(-8.07430980456451e-07 7.34318200221113e-07 9.34874822767882e-25)
(-6.9835968939146e-07 8.81269062219799e-07 1.08447413482341e-24)
(-5.96558238965388e-07 9.87743447767941e-07 1.32708250441456e-24)
(-5.05370539877821e-07 1.06529692949871e-06 1.22960749326777e-24)
(-4.25311993804453e-07 1.12242275202911e-06 9.77072702612709e-25)
(-3.55754002294007e-07 1.165116033771e-06 1.07476209729074e-24)
(-2.95507313513214e-07 1.19751815608254e-06 1.14988242123471e-24)
(-2.43260115005157e-07 1.22246676652407e-06 1.45471511224304e-24)
(-1.97747045304529e-07 1.24189902373138e-06 1.58008807168948e-24)
(-1.57819427109232e-07 1.25715161630934e-06 1.37870680479753e-24)
(-1.22475021140069e-07 1.26915778463433e-06 1.31099636177279e-24)
(-9.08217746012332e-08 1.27854565652338e-06 1.02568476837911e-24)
(-6.20826090931252e-08 1.2857765909887e-06 8.79452186023218e-25)
(-3.55700243993256e-08 1.29115198684582e-06 1.1041458810389e-24)
(-1.06473356084188e-08 1.29488633773091e-06 8.88111527429144e-25)
(1.32757628388136e-08 1.29710485672624e-06 8.87055603042053e-25)
(3.67592805250077e-08 1.29787698380308e-06 1.06078084493757e-24)
(6.0349831017267e-08 1.29719242631072e-06 5.63217404596157e-25)
(8.4607254760488e-08 1.29500399706764e-06 4.02830221125405e-25)
(1.10116757505415e-07 1.29118586102069e-06 5.39787629341319e-25)
(1.37498710786717e-07 1.28552955162335e-06 1.92001643578452e-25)
(1.67436255115451e-07 1.27773613540266e-06 -7.11443433122793e-26)
(2.00694242660725e-07 1.2673514507808e-06 -3.5164414677095e-25)
(2.38142816065428e-07 1.253750880671e-06 -2.4114735314403e-25)
(2.80782414987832e-07 1.23599746236649e-06 -1.07239254829785e-25)
(3.29731851259984e-07 1.21275385059066e-06 1.21123851882318e-25)
(3.86226352906301e-07 1.18207272459572e-06 3.29593469665814e-25)
(4.51548368846408e-07 1.14112025315318e-06 -2.65539225913215e-25)
(5.26850860100447e-07 1.08575640915535e-06 -2.72465072546176e-25)
(6.12710377351795e-07 1.00999107197187e-06 -1.04719395272874e-25)
(7.08576413769332e-07 9.05287657619033e-07 -1.90306232480005e-25)
(8.10998212268802e-07 7.60009007060754e-07 -5.62891340643079e-25)
(9.11909197548387e-07 5.59436421571105e-07 -5.77378753925457e-25)
(9.94080317507237e-07 2.89872194154405e-07 -2.41147496460398e-25)
(1.02449417108109e-06 -4.89686411758379e-08 -5.12564403961279e-25)
(9.52047523567487e-07 -3.93183687787227e-07 -5.58132467791985e-25)
(6.91375063176224e-07 -5.22851123296033e-07 -3.18365200166504e-25)
(1.90752972767917e-07 1.70562348280001e-07 -5.55254443106696e-25)
(-5.29395714930214e-07 2.52158673278687e-06 -4.19783127469592e-25)
(-1.04827365974553e-06 6.60789508512419e-06 2.56944370209388e-26)
(-4.90951350112465e-07 6.90007376217532e-06 1.01186882616286e-25)
(4.74183606528811e-07 6.32040050583764e-06 6.28734226359061e-25)
(1.4044556190141e-06 6.40544065373933e-06 1.66378724053485e-24)
(9.82635203811375e-07 2.7494691868435e-06 9.7209710502248e-25)
(2.82206362103608e-07 3.91764720246875e-07 4.49456481583282e-25)
(-2.99803591983882e-07 -4.5466952876821e-07 1.88360754584628e-25)
(-6.50210965712359e-07 -4.69255588849832e-07 7.00872080901743e-25)
(-8.06835284104981e-07 -2.15209550530274e-07 4.57150123936048e-25)
(-8.40883045808581e-07 7.59974539463643e-08 5.13189909114059e-25)
(-8.0535688562792e-07 3.24347701729396e-07 9.36161126001668e-25)
(-7.36115048185821e-07 5.18271195970526e-07 1.0661531522225e-24)
(-6.54428570807211e-07 6.64514412914494e-07 5.59453895543514e-25)
(-5.71654742460592e-07 7.73805159659368e-07 1.00655975039093e-24)
(-4.93703451278911e-07 8.55594470107322e-07 1.21003616925853e-24)
(-4.22897631079374e-07 9.17281568257977e-07 6.34667608450381e-25)
(-3.59856725181771e-07 9.64307803790148e-07 1.1172917614646e-24)
(-3.0424443617594e-07 1.00057984024433e-06 9.68730623466587e-25)
(-2.55319200996181e-07 1.02886032629329e-06 1.23341484571499e-24)
(-2.12201729024809e-07 1.05111784884326e-06 1.52082812723826e-24)
(-1.74008037732044e-07 1.06870731276419e-06 1.21878175090175e-24)
(-1.39906409467005e-07 1.08261193893657e-06 1.41071365618092e-24)
(-1.0913290146011e-07 1.09352829594216e-06 9.62775620249097e-25)
(-8.09969378228776e-08 1.10192776775061e-06 1.0077380944802e-24)
(-5.48709717034082e-08 1.10816675101389e-06 9.65713272718856e-25)
(-3.01687753506251e-08 1.11247522381669e-06 7.66471752366692e-25)
(-6.34252731366575e-09 1.11499615296907e-06 9.97147232761239e-25)
(1.7131438431194e-08 1.11579695235615e-06 9.72420909786104e-25)
(4.07709018338656e-08 1.11488384121756e-06 6.37695314682621e-25)
(6.50999491432724e-08 1.11219182900056e-06 1.05710438854779e-25)
(9.06588984826512e-08 1.10758651097692e-06 4.55593505969189e-25)
(1.18023919137974e-07 1.10083209386655e-06 3.96280595322419e-25)
(1.47810475430187e-07 1.09160329962816e-06 -2.02063880457752e-25)
(1.80699614520624e-07 1.07940166849192e-06 -7.83878850638441e-26)
(2.17434411820952e-07 1.06356201190225e-06 -5.16213871991795e-25)
(2.58831648137627e-07 1.04309955356117e-06 -4.015193097216e-25)
(3.05756124329648e-07 1.01663138359903e-06 3.49251581098213e-25)
(3.5904781957488e-07 9.82217645436527e-07 3.42080574675632e-25)
(4.19412855079231e-07 9.37081121537429e-07 -2.24703239566515e-25)
(4.87151393651051e-07 8.77332281982128e-07 -2.70756992429608e-25)
(5.61573863974866e-07 7.97526479593999e-07 -2.25401841113878e-25)
(6.40303267449952e-07 6.90252012406265e-07 4.50534163497372e-25)
(7.17288436277869e-07 5.45975064376815e-07 -2.66461032629551e-25)
(7.81070866508252e-07 3.5377923065234e-07 -2.64116778347157e-25)
(8.09976695458691e-07 1.06136300853352e-07 5.35488242046852e-25)
(7.67845589874694e-07 -1.87790695485261e-07 -2.11499674851927e-25)
(6.00980136364047e-07 -4.54103430820193e-07 -2.1356944469426e-25)
(2.38870068098969e-07 -4.70194693016437e-07 5.89698683413387e-25)
(-3.53420813932247e-07 3.31657611474909e-07 -2.31249970414855e-25)
(-1.05548923499701e-06 2.68052540955014e-06 -9.45936088388862e-26)
(-1.45509309695987e-06 6.43094361433835e-06 1.1071235293275e-24)
(-4.8224923523884e-07 6.42574678321367e-06 1.70525497673813e-25)
(4.17806935316964e-07 5.61378004509962e-06 5.18357635594961e-25)
(1.41275100587145e-06 5.93209732815494e-06 1.78336205828992e-24)
(1.10156920853528e-06 2.66648788808704e-06 7.72958718900464e-25)
(5.01283779006082e-07 3.72014725518487e-07 3.88080148696587e-25)
(-6.24756210247603e-08 -5.39649676266934e-07 8.04048629953974e-25)
(-4.31745877529926e-07 -6.47214998393489e-07 1.00308015316408e-24)
(-6.28282692932612e-07 -4.64167260291223e-07 3.99900107871316e-25)
(-7.03066478304017e-07 -2.18238871314953e-07 4.29366586861908e-25)
(-7.03595041700393e-07 5.16291630418728e-09 1.05083852149189e-24)
(-6.63147768564153e-07 1.87192070661006e-07 1.07834703322612e-24)
(-6.03569268559281e-07 3.29332268829886e-07 1.34661172476365e-26)
(-5.37315753310896e-07 4.38751664910333e-07 6.20604167777514e-25)
(-4.71565163800272e-07 5.22776452170516e-07 1.08570817830767e-24)
(-4.09728586385664e-07 5.87558618777952e-07 1.36118880057405e-25)
(-3.5330148912106e-07 6.37857113315926e-07 1.04445688666448e-24)
(-3.02595324253586e-07 6.77242888063866e-07 6.95177457222036e-25)
(-2.57334723886129e-07 7.08334251059436e-07 8.69428160620124e-25)
(-2.1698606867634e-07 7.33011931431316e-07 1.35175822659482e-24)
(-1.80905622283067e-07 7.52659563385337e-07 9.34160743086464e-25)
(-1.48426306459178e-07 7.68256196593833e-07 1.35097392868746e-24)
(-1.1891598440352e-07 7.80531731347353e-07 7.75679864184493e-25)
(-9.17708636726276e-08 7.89988252402831e-07 1.03588458947218e-24)
(-6.64273069705435e-08 7.97001211657454e-07 6.92535923911089e-25)
(-4.23584105698474e-08 8.01815134825904e-07 5.71079207666909e-25)
(-1.90580546732624e-08 8.045913006896e-07 1.0313314391093e-24)
(3.96110528562595e-09 8.05398194964206e-07 7.44025886646435e-25)
(2.71754134954955e-08 8.0424703675462e-07 6.77663661027132e-25)
(5.10712069172781e-08 8.01058762833978e-07 -2.24298827324886e-25)
(7.61450473766252e-08 7.95698441406047e-07 2.850527696549e-25)
(1.02918734272409e-07 7.87912630367003e-07 5.53154211051294e-25)
(1.31939367715796e-07 7.77344511188151e-07 -4.04205274298694e-25)
(1.63795102790451e-07 7.63485102462081e-07 2.81614129454007e-25)
(1.99111140154232e-07 7.45627252160719e-07 -7.68157819174341e-25)
(2.38527137156962e-07 7.22792250625162e-07 -6.68287127599962e-25)
(2.82667207364112e-07 6.93588207848472e-07 6.28418793789835e-25)
(3.32031277114179e-07 6.5613362104571e-07 2.83572468263028e-25)
(3.86847481060576e-07 6.07826603806963e-07 -1.32005083116708e-25)
(4.46766072747072e-07 5.45113405210245e-07 -2.31764851641695e-25)
(5.10226713219426e-07 4.63230532924598e-07 -4.52161551886253e-25)
(5.73742307870271e-07 3.56033337724766e-07 6.18966601610553e-25)
(6.2997683153226e-07 2.16143115889562e-07 -4.69244062100901e-26)
(6.66343205542848e-07 3.62455461587058e-08 -3.15728935414384e-26)
(6.60557275377958e-07 -1.85843472232592e-07 8.30471196485226e-25)