/*--------------------------------*- C++ -*----------------------------------*\
  =========                 |
  \\      /  F ield         | OpenFOAM: The Open Source CFD Toolbox
   \\    /   O peration     | Website:  https://openfoam.org
    \\  /    A nd           | Version:  10
     \\/     M anipulation  |
\*---------------------------------------------------------------------------*/
FoamFile
{
    format      ascii;
    class       volScalarField;
    location    "7.4";
    object      wallHeatFlux;
}
// * * * * * * * * * * * * * * * * * * * * * * * * * * * * * * * * * * * * * //

dimensions      [1 0 -3 0 0 0 0];

internalField   uniform 0;

boundaryField
{
    back
    {
        type            calculated;
        value           uniform 0;
    }
    bottom
    {
        type            calculated;
        value           nonuniform List<scalar> 
50
(
81.1758060051992
82.1984028128441
84.9643852742511
87.0872277494341
88.442637200237
89.2525118443252
89.7204144630591
89.9826764576264
90.1247057829486
90.1988558965617
90.2357835216998
90.2534884727986
90.2616326734441
90.2651649317623
90.2666453392472
90.2671922551522
90.2674342798274
90.2674960651624
90.2674875722036
90.2674875186426
90.2674800955507
90.2674737821311
90.267468197111
90.2674720986894
90.2674685586177
90.2674665565069
90.2674720667368
90.2674770591243
90.2674863985531
90.2674977998598
90.2675062008569
90.2675204664481
90.2674960363841
90.2674074301439
90.2671555562525
90.2664940970783
90.2648654301709
90.2609966460167
90.2524561346466
90.2340297768529
90.1960783220285
90.1210224781856
89.9783316131891
89.7165393104662
89.2514335877088
88.4453259003749
87.0904927230806
84.9563530740265
82.1727791226576
81.1994372969911
)
;
    }
    left
    {
        type            calculated;
        value           uniform 0;
    }
    front
    {
        type            calculated;
        value           uniform 0;
    }
    right
    {
        type            calculated;
        value           uniform 0;
    }
    top
    {
        type            calculated;
        value           uniform 0;
    }
}


// ************************************************************************* //
