/*--------------------------------*- C++ -*----------------------------------*\
  =========                 |
  \\      /  F ield         | OpenFOAM: The Open Source CFD Toolbox
   \\    /   O peration     | Website:  https://openfoam.org
    \\  /    A nd           | Version:  10
     \\/     M anipulation  |
\*---------------------------------------------------------------------------*/
FoamFile
{
    format      ascii;
    class       volScalarField;
    location    "7";
    object      alphat;
}
// * * * * * * * * * * * * * * * * * * * * * * * * * * * * * * * * * * * * * //

dimensions      [1 -1 -1 0 0 0 0];

internalField   nonuniform List<scalar> 
2500
(
7.65019391482322e-15
1.50249169914608e-13
6.41808653631683e-13
1.11194225291335e-12
1.51546513213023e-12
1.83778530952904e-12
2.07817056046465e-12
2.24586277620552e-12
2.35550032107872e-12
2.42282835334501e-12
2.46175415470799e-12
2.4829931228161e-12
2.49395641968838e-12
2.4993230385931e-12
2.50181996035094e-12
2.50292648828449e-12
2.50339431383164e-12
2.50358318231621e-12
2.50365591673457e-12
2.50368248050061e-12
2.50369151525927e-12
2.50369421747814e-12
2.50369477789387e-12
2.50369469036732e-12
2.50369446478283e-12
2.50369426102338e-12
2.5036940385819e-12
2.50369356459647e-12
2.50369213323776e-12
2.50368778804396e-12
2.50367530543529e-12
2.50364125504562e-12
2.50355249307155e-12
2.50333064608225e-12
2.50279866948739e-12
2.50157563066466e-12
2.49888373149649e-12
2.49322220032115e-12
2.48186861365139e-12
2.46020930081521e-12
2.42099802018468e-12
2.35380208317207e-12
2.2450733302205e-12
2.079366621541e-12
1.8420582106248e-12
1.52338183836261e-12
1.12281884623555e-12
6.52826645707491e-13
1.54826467909748e-13
8.02494960639395e-15
7.59047155249232e-13
3.91075623614117e-11
1.70546687347815e-10
2.95713489590355e-10
4.03332356808331e-10
4.89534273235724e-10
5.54049047370755e-10
5.99241174831334e-10
6.28926986494388e-10
6.4725137877255e-10
6.57904646052705e-10
6.63751522410447e-10
6.66788065176804e-10
6.68283825598821e-10
6.68984218563274e-10
6.69296614788149e-10
6.69429562244626e-10
6.69483595620843e-10
6.69504550750824e-10
6.69512265681101e-10
6.69514918345241e-10
6.69515728151797e-10
6.69515908664929e-10
6.69515895552726e-10
6.6951583721635e-10
6.69515781745327e-10
6.69515717593166e-10
6.69515576653648e-10
6.69515153914619e-10
6.69513883271342e-10
6.69510262040379e-10
6.69500450657591e-10
6.69475031193083e-10
6.69411875978129e-10
6.69261319531818e-10
6.68917199440346e-10
6.68164185500388e-10
6.66589604766239e-10
6.63449979166686e-10
6.5749399260707e-10
6.46769955279493e-10
6.28487642386966e-10
5.99049653827119e-10
5.54386490765201e-10
4.90681256233088e-10
4.0542861881973e-10
2.9857120061442e-10
1.73425351621573e-10
4.02736100543218e-11
7.94777711486671e-13
2.69715866110195e-12
7.03927237947531e-10
2.41218256571406e-07
4.17393109446881e-07
5.67895573386002e-07
6.88055392872138e-07
7.77855412052983e-07
8.40769703948166e-07
8.82159597766026e-07
9.07775202551536e-07
9.2271844693045e-07
9.30952903131013e-07
9.35248538740102e-07
9.37374629457568e-07
9.38375164957139e-07
9.38823751733696e-07
9.39015682917577e-07
9.39094124838862e-07
9.39124728727811e-07
9.39136075074329e-07
9.39140014223886e-07
9.39141238631775e-07
9.39141527819637e-07
9.39141524379373e-07
9.39141448638993e-07
9.39141371981135e-07
9.39141278467132e-07
9.3914106868914e-07
9.39140443868847e-07
9.39138581238905e-07
9.39133304833009e-07
9.39119076910031e-07
9.39082368203523e-07
9.38991522767642e-07
9.38775787349539e-07
9.38284572479187e-07
9.37213770577526e-07
9.34983125250662e-07
9.30551757159056e-07
9.22174987951536e-07
9.07141386659432e-07
8.81584494112239e-07
8.40522388946171e-07
7.78301630329037e-07
6.89559374005778e-07
5.70638483174604e-07
4.21128067728577e-07
2.44971836876506e-07
7.22994171775306e-10
2.8045378530995e-12
4.78033602064909e-12
1.25640131712049e-09
4.31819728558734e-07
7.44288933023872e-07
1.00947046423697e-06
1.22015098291946e-06
1.37705584783498e-06
1.48674370890068e-06
1.55882374047941e-06
1.60342025816769e-06
1.62944533920655e-06
1.64379812504622e-06
1.65129418680576e-06
1.65500959465915e-06
1.65676092729862e-06
1.65754756531192e-06
1.65788481096977e-06
1.65802294894012e-06
1.65807697952921e-06
1.65809707402906e-06
1.65810408184046e-06
1.65810627840188e-06
1.6581068098834e-06
1.65810681598208e-06
1.6581066920696e-06
1.65810656137078e-06
1.65810639964338e-06
1.65810603624135e-06
1.6581049557147e-06
1.65810173600049e-06
1.65809261110366e-06
1.65806798550402e-06
1.65800439186778e-06
1.6578468722339e-06
1.65747249570208e-06
1.65661945033595e-06
1.65475874820299e-06
1.65088062651731e-06
1.64317305040058e-06
1.62859727273517e-06
1.60242666932474e-06
1.55790954249639e-06
1.48631588294007e-06
1.37766813683152e-06
1.22235498973219e-06
1.01353810596315e-06
7.49833782367496e-07
4.37346107982968e-07
1.28390804592986e-09
4.93255884272504e-12
6.82992936953136e-12
1.79606703848752e-09
6.15653181209255e-07
1.05731305175806e-06
1.43005161126395e-06
1.72495435117428e-06
1.94394786087829e-06
2.09676217386544e-06
2.19708879481249e-06
2.259147102073e-06
2.29537294612728e-06
2.31536525001549e-06
2.32581706480064e-06
2.33100388679324e-06
2.33345231804389e-06
2.33455385596462e-06
2.33502696306717e-06
2.33522114772971e-06
2.33529728213756e-06
2.33532568401691e-06
2.3353356345799e-06
2.33533878114356e-06
2.33533956080294e-06
2.33533958837324e-06
2.33533942920127e-06
2.33533925211012e-06
2.33533902854271e-06
2.33533852488302e-06
2.33533703146652e-06
2.33533258633601e-06
2.33531998631185e-06
2.33528595711912e-06
2.33519799546227e-06
2.33497990185395e-06
2.33446107069478e-06
2.33327785658954e-06
2.33069500744672e-06
2.32530820188639e-06
2.31459601166299e-06
2.29432755947919e-06
2.25791633286363e-06
2.19593979637849e-06
2.09617943447156e-06
1.94459045793853e-06
1.72747758008448e-06
1.43477459499492e-06
1.0637663905536e-06
6.2206193780486e-07
1.82805158376519e-09
7.00894838829004e-12
8.7841931199468e-12
2.31025534192861e-09
7.89350977295329e-07
1.35115882969349e-06
1.82300064271717e-06
2.19498299257201e-06
2.470542554203e-06
2.66254200473131e-06
2.78850284276562e-06
2.86640715882103e-06
2.91189758418184e-06
2.93701961374292e-06
2.95016553262576e-06
2.95669688377658e-06
2.95978415402409e-06
2.9611752256525e-06
2.96177371496596e-06
2.96201984458511e-06
2.96211657122799e-06
2.96215276619941e-06
2.96216550790446e-06
2.96216957600772e-06
2.96217060975593e-06
2.96217067156811e-06
2.96217049006377e-06
2.96217027474746e-06
2.96216999535625e-06
2.96216936310658e-06
2.96216749588415e-06
2.96216195019413e-06
2.96214623690934e-06
2.96210378275688e-06
2.96199396210221e-06
2.96172143882719e-06
2.96107257446359e-06
2.9595916514118e-06
2.95635665937441e-06
2.94960560692266e-06
2.93617334072871e-06
2.9107461227559e-06
2.86504584442426e-06
2.78721557040644e-06
2.66184409299086e-06
2.47113393148477e-06
2.19755723990757e-06
1.82789173775123e-06
1.35786601357717e-06
7.96019692829788e-07
2.34406953062696e-09
8.97779390356952e-12
1.06058412581294e-11
2.78975389374081e-09
9.50310630293098e-07
1.62189178875639e-06
2.18355402403661e-06
2.62500297680221e-06
2.95135635776859e-06
3.17847118555743e-06
3.3273867175506e-06
3.41948415992039e-06
3.47328121210428e-06
3.50301000089036e-06
3.51858046207325e-06
3.52632486530664e-06
3.52999017605078e-06
3.53164408535205e-06
3.53235681870184e-06
3.53265048263363e-06
3.53276615301374e-06
3.53280956961589e-06
3.53282492858798e-06
3.53282988241795e-06
3.53283117536414e-06
3.53283128501447e-06
3.53283109212183e-06
3.53283084665584e-06
3.53283051710862e-06
3.53282976678889e-06
3.53282756213757e-06
3.53282103498064e-06
3.53280255902655e-06
3.5327526368561e-06
3.5326234294239e-06
3.53230257102135e-06
3.53153806092976e-06
3.52979198093814e-06
3.52597537755163e-06
3.51800621581085e-06
3.50214286444233e-06
3.4721011182475e-06
3.41808544857411e-06
3.32605178527234e-06
3.1777117742916e-06
2.9518650387392e-06
2.62746229284818e-06
2.1882883132616e-06
1.62840768652872e-06
9.56817888669729e-07
2.8235972029008e-09
1.08053636615943e-11
1.22703111299747e-11
3.22829414665452e-09
1.0967877546783e-06
1.86703830858073e-06
2.50888552184726e-06
3.01206232339806e-06
3.38342187916641e-06
3.64160550424964e-06
3.81082318917525e-06
3.91547990195087e-06
3.97663594489086e-06
4.01045290123609e-06
4.02817958932401e-06
4.03700553265721e-06
4.04118770686487e-06
4.04307740328837e-06
4.04389300234563e-06
4.04422965139723e-06
4.04436254474988e-06
4.04441257633346e-06
4.04443036258243e-06
4.04443615845476e-06
4.04443771329788e-06
4.04443788393529e-06
4.04443768967667e-06
4.0444374216153e-06
4.04443704715414e-06
4.04443618839195e-06
4.04443368018192e-06
4.04442628392759e-06
4.04440537902098e-06
4.0443489057868e-06
4.04420269274967e-06
4.04383939670023e-06
4.04297322303735e-06
4.04099374283849e-06
4.03666457298215e-06
4.02762079497418e-06
4.00961088905916e-06
3.97549179693704e-06
3.91412422323902e-06
3.80952514759019e-06
3.64084987525327e-06
3.38386026870221e-06
3.0143311131665e-06
2.51328068533356e-06
1.87309730126138e-06
1.10287478756536e-06
3.26100328658221e-09
1.24697262095505e-11
1.3763371966223e-11
3.62220252095399e-09
1.22784136017562e-06
2.08544153660692e-06
2.79787121441277e-06
3.35518125528438e-06
3.76592362165015e-06
4.05126772473986e-06
4.238233215913e-06
4.35387692405652e-06
4.42147911678051e-06
4.45888352470655e-06
4.4785064913798e-06
4.48828601288751e-06
4.49292521646445e-06
4.49502408297133e-06
4.49593127271258e-06
4.4963063610389e-06
4.49645473982736e-06
4.49651076462046e-06
4.49653077736157e-06
4.49653736369241e-06
4.496539180308e-06
4.49653942454821e-06
4.4965392366521e-06
4.4965389527395e-06
4.49653853819305e-06
4.49653757998336e-06
4.49653479980872e-06
4.49652663940785e-06
4.49650361820647e-06
4.49644145613041e-06
4.49628048424952e-06
4.4958803347859e-06
4.49492578172305e-06
4.49274316567579e-06
4.48796741118318e-06
4.47798647671022e-06
4.45810316093664e-06
4.42042338857847e-06
4.35263231998669e-06
4.23704949112867e-06
4.05058874508297e-06
3.76633894953469e-06
3.35725806373594e-06
2.8018628089826e-06
2.09092535320735e-06
1.23338058273883e-06
3.65312047031765e-09
1.39587924902044e-11
1.50794537651241e-11
3.97000391778772e-09
1.34321022088005e-06
2.27702343513795e-06
3.05075051552673e-06
3.65493513783242e-06
4.09972549400493e-06
4.40853817627159e-06
4.61084322633963e-06
4.73599179744535e-06
4.80917858096978e-06
4.84969676603925e-06
4.8709693174771e-06
4.88158049821877e-06
4.88661945461216e-06
4.88890187249055e-06
4.88988973159492e-06
4.89029882240638e-06
4.8904609740553e-06
4.8905223702273e-06
4.89054440332445e-06
4.89055172241037e-06
4.89055379492726e-06
4.89055412088247e-06
4.89055394935984e-06
4.89055365548669e-06
4.8905532053557e-06
4.89055215635399e-06
4.89054913385086e-06
4.89054030666822e-06
4.89051545850679e-06
4.89044840621818e-06
4.8902747608825e-06
4.88984295473932e-06
4.8888124178982e-06
4.88645497781749e-06
4.88129450541753e-06
4.87050555976059e-06
4.84900589797645e-06
4.80825241780567e-06
4.7349141230895e-06
4.6098426205338e-06
4.40801129947957e-06
4.10018899027543e-06
3.65687376280317e-06
3.05436417737363e-06
2.28192729392534e-06
1.34817556472814e-06
3.99887344213117e-09
1.52687483010089e-11
1.62200571466263e-11
4.2720235442659e-09
1.4431802232626e-06
2.44255018813418e-06
3.26880822744131e-06
3.91307479609076e-06
4.38694840663655e-06
4.71580429835505e-06
4.93121707680065e-06
5.06449654359164e-06
5.14246810105492e-06
5.18565931422679e-06
5.20835119901398e-06
5.21967981971408e-06
5.2250646336676e-06
5.22750637392127e-06
5.22856451227856e-06
5.22900335445865e-06
5.22917762281105e-06
5.22924378071266e-06
5.22926762697841e-06
5.229275617725e-06
5.22927793607208e-06
5.22927834929013e-06
5.22927820109308e-06
5.22927790221183e-06
5.22927742076768e-06
5.22927628949747e-06
5.2292730526451e-06
5.22926364856034e-06
5.22923723850217e-06
5.22916602652215e-06
5.22898161695931e-06
5.22852292067085e-06
5.22742779392476e-06
5.224921608881e-06
5.21943351691449e-06
5.2079559522578e-06
5.18507793087628e-06
5.14170210820916e-06
5.06362963055837e-06
4.93045814079595e-06
4.71550230617117e-06
4.38754407430413e-06
3.91496494375243e-06
3.2721316895128e-06
2.44694963022713e-06
1.44761904974967e-06
4.29888886774909e-09
1.64024831831121e-11
1.71922732869784e-11
4.53002127205098e-09
1.52846481587018e-06
2.5834314757331e-06
3.45411148504775e-06
4.13221913751386e-06
4.63063308438541e-06
4.9764042637655e-06
5.20288779862422e-06
5.34304331946413e-06
5.42506801244373e-06
5.47052812402797e-06
5.49442758540141e-06
5.50636822276488e-06
5.51204894124365e-06
5.51462743893349e-06
5.51574612582802e-06
5.51621071109187e-06
5.51639552081548e-06
5.51646585296562e-06
5.51649130801269e-06
5.51649990785542e-06
5.51650245879665e-06
5.51650296032282e-06
5.51650284011584e-06
5.51650254034348e-06
5.51650203171834e-06
5.51650082671892e-06
5.51649740202943e-06
5.51648750359184e-06
5.51645977216345e-06
5.51638506095499e-06
5.51619161301103e-06
5.51571034042594e-06
5.5145609530355e-06
5.5119297074372e-06
5.506165936867e-06
5.49410851622118e-06
5.47006918849963e-06
5.42448307319201e-06
5.34241921170909e-06
5.20241737843689e-06
4.97639238929018e-06
4.63144722220793e-06
4.13416840129224e-06
3.45726867130359e-06
2.58745193244235e-06
1.53247220321181e-06
4.55513569685108e-09
1.73681166875186e-11
1.80074222691727e-11
4.74685584744332e-09
1.6000986185793e-06
2.70154848807188e-06
3.60928994406823e-06
4.31560253654363e-06
4.83446595608075e-06
5.19433928879301e-06
5.43006161231893e-06
5.57596353719431e-06
5.66138156376051e-06
5.70874524619621e-06
5.73366028914815e-06
5.7461170233628e-06
5.75204801321214e-06
5.75474255972852e-06
5.75591281719663e-06
5.756399423472e-06
5.75659329940733e-06
5.7566672487987e-06
5.7566941144717e-06
5.75670325958238e-06
5.7567060259552e-06
5.75670661444418e-06
5.75670652567417e-06
5.7567062283788e-06
5.75670569660118e-06
5.75670442645056e-06
5.75670083901604e-06
5.75669052153573e-06
5.75666168479952e-06
5.75658406440218e-06
5.75638311820297e-06
5.75588312145202e-06
5.75468870931219e-06
5.751953612131e-06
5.74596074069323e-06
5.73342111495332e-06
5.70841554855845e-06
5.66098973009449e-06
5.57560292308542e-06
5.42991384431082e-06
5.19467124137033e-06
4.8355782981688e-06
4.31772096326351e-06
3.61241869320599e-06
2.70533905132852e-06
1.60379494207166e-06
4.77059797697197e-09
1.81776553796045e-11
1.86797831769088e-11
4.92616782231243e-09
1.65933942433076e-06
2.79909951198837e-06
3.73734160240476e-06
4.46685396004824e-06
5.00254101345952e-06
5.37402466415885e-06
5.6173623661334e-06
5.7680084155865e-06
5.85623325818463e-06
5.90517496225262e-06
5.93093399040318e-06
5.94382079837334e-06
5.94996097460591e-06
5.95275284236152e-06
5.95396650955437e-06
5.95447173258885e-06
5.95467331466001e-06
5.95475036161592e-06
5.95477844916971e-06
5.95478807575154e-06
5.95479103835117e-06
5.95479171043997e-06
5.95479165478201e-06
5.95479136255955e-06
5.95479081153489e-06
5.95478948477175e-06
5.95478575818612e-06
5.95477508976726e-06
5.95474533963839e-06
5.95466533053558e-06
5.95445824205487e-06
5.95394291329292e-06
5.95271161766474e-06
5.94989138748984e-06
5.94371057324728e-06
5.93077512035071e-06
5.90497600521371e-06
5.8560387555731e-06
5.7679213561929e-06
5.61755832376309e-06
5.3747399172978e-06
5.00401805657369e-06
4.46924199873001e-06
3.74057597401501e-06
2.8028118518377e-06
1.662851987774e-06
4.94897003079947e-09
1.88457602435131e-11
1.92254118370568e-11
5.07207949441902e-09
1.70757687004607e-06
2.87845827407942e-06
3.84145624304648e-06
4.58979711944623e-06
5.13914488302663e-06
5.52006532232134e-06
5.76960127743895e-06
5.92411526105373e-06
6.01463315201948e-06
6.06486699241275e-06
6.09131887043563e-06
6.1045597299599e-06
6.11087264524044e-06
6.11374514883282e-06
6.11499491871302e-06
6.11551569227479e-06
6.11572374599866e-06
6.11580341350894e-06
6.11583254640596e-06
6.11584259257977e-06
6.11584573113444e-06
6.11584648148347e-06
6.11584645906883e-06
6.11584617386542e-06
6.11584560735388e-06
6.11584423236422e-06
6.11584038859481e-06
6.11582943017443e-06
6.11579893503219e-06
6.11571699021619e-06
6.11550493653429e-06
6.11497721975062e-06
6.11371611146118e-06
6.11082702249152e-06
6.10449408565394e-06
6.0912380476767e-06
6.06479591377421e-06
6.0146335167612e-06
5.92430226347617e-06
5.77014937083221e-06
5.52118784331122e-06
5.14103567570867e-06
4.59253731895532e-06
3.84491383035695e-06
2.8822311414062e-06
1.7110260359587e-06
5.09437151732804e-09
1.9388617997789e-11
1.96610743800265e-11
5.18892028184267e-09
1.74624956782915e-06
2.94204668294565e-06
3.92485760328591e-06
4.68827219842486e-06
5.24856522046531e-06
5.63705574375156e-06
5.89157158021722e-06
6.04919895904047e-06
6.14156652015231e-06
6.1928451468228e-06
6.21985872354433e-06
6.23338744332307e-06
6.23984124430878e-06
6.24277973993294e-06
6.24405916861598e-06
6.24459277313712e-06
6.24480619549815e-06
6.24488805279168e-06
6.2449180687881e-06
6.24492847575481e-06
6.2449317695166e-06
6.2449325915631e-06
6.24493260150671e-06
6.24493232473063e-06
6.24493174629983e-06
6.24493033116305e-06
6.24492639039864e-06
6.24491519583685e-06
6.24488410149002e-06
6.24480060973186e-06
6.2445845978699e-06
6.24404701026866e-06
6.2427621380081e-06
6.23981812352429e-06
6.23336375841814e-06
6.21985165859789e-06
6.19289566532859e-06
6.14175385368386e-06
6.04965237922914e-06
5.89246869597073e-06
5.63859415562356e-06
5.25089960169299e-06
4.6914246246883e-06
3.92863179670874e-06
2.94599594808965e-06
1.74973944971071e-06
5.21108924156145e-09
1.98229377971594e-11
2.0003338064032e-11
5.28098968775705e-09
1.77677391662269e-06
2.99222632235536e-06
3.99066927310294e-06
4.76598458585279e-06
5.33492816138236e-06
5.72941015371841e-06
5.98787417934638e-06
6.14797487274963e-06
6.24181514376588e-06
6.29392770909028e-06
6.32139085466246e-06
6.33515065459438e-06
6.34171791560073e-06
6.34470974281209e-06
6.34601323299941e-06
6.34655729306033e-06
6.34677511378238e-06
6.34685877808485e-06
6.34688953063506e-06
6.34690024362134e-06
6.34690367219172e-06
6.34690455877988e-06
6.34690459943907e-06
6.34690433201974e-06
6.34690374498377e-06
6.34690229731342e-06
6.34689827782307e-06
6.34688689410469e-06
6.34685532511357e-06
6.34677061538782e-06
6.34655149439769e-06
6.34600615638423e-06
6.34470261653882e-06
6.34171542362908e-06
6.33516552660116e-06
6.32145183547137e-06
6.29409106880515e-06
6.24217744256218e-06
6.14868058060719e-06
5.9891074533945e-06
5.73135916227866e-06
5.33771719584204e-06
4.76958559775769e-06
3.99482601151264e-06
2.99644006477791e-06
1.7803873191661e-06
5.30335616139442e-09
2.01651069582384e-11
2.02678519247014e-11
5.35236744464158e-09
1.80048721577219e-06
3.0312123662349e-06
4.04180870870936e-06
4.82638553438007e-06
5.40207015517171e-06
5.80122863399714e-06
6.06278014171752e-06
6.22481911264191e-06
6.31981626512869e-06
6.37258564385133e-06
6.40040388012412e-06
6.41434675972485e-06
6.42100421085201e-06
6.42403858403878e-06
6.42536134547607e-06
6.42591381721944e-06
6.42613519578771e-06
6.42622033236183e-06
6.42625169138413e-06
6.42626266048737e-06
6.42626620450622e-06
6.42626714829118e-06
6.42626721750972e-06
6.42626695995999e-06
6.42626636733298e-06
6.42626489415284e-06
6.42626081220428e-06
6.42624927976671e-06
6.42621734114752e-06
6.42613168805989e-06
6.42591016380437e-06
6.4253588359963e-06
6.42404086000603e-06
6.42102024598623e-06
6.41439633777319e-06
6.40052634231525e-06
6.37285152555942e-06
6.32033876820558e-06
6.22575831684035e-06
6.06432919130813e-06
5.80357143882784e-06
5.40530833709494e-06
4.83044931468113e-06
4.04638695430614e-06
3.03575020037933e-06
1.80428420343186e-06
5.37517572018168e-09
2.0430531291516e-11
2.04688295152154e-11
5.40677488287723e-09
1.81860616925099e-06
3.06101136021068e-06
4.08091106935352e-06
4.87258668714525e-06
5.45344632930412e-06
5.85620146178085e-06
6.12013245809842e-06
6.28366869339232e-06
6.37956177872483e-06
6.4328412289991e-06
6.46093604992427e-06
6.47502199224427e-06
6.48175016396693e-06
6.48481802319083e-06
6.48615601416779e-06
6.48671516418891e-06
6.48693938316285e-06
6.48702570374378e-06
6.48705755568938e-06
6.48706873636373e-06
6.48707237792273e-06
6.48707337176886e-06
6.48707346718615e-06
6.4870732195987e-06
6.48707262405666e-06
6.48707113169294e-06
6.48706700153291e-06
6.48705535472894e-06
6.48702313394524e-06
6.4869367639051e-06
6.48671341580434e-06
6.4861575410822e-06
6.48482859537456e-06
6.48178255426465e-06
6.47510227063173e-06
6.46111309059739e-06
6.43319859526653e-06
6.38022826832065e-06
6.28481980691675e-06
6.12197186439859e-06
5.85891280758256e-06
5.45711502698289e-06
4.87710878317369e-06
4.08592606262814e-06
3.06590697884438e-06
1.82262544784227e-06
5.43019456305281e-09
2.06331673749129e-11
2.06187236691686e-11
5.44748557817501e-09
1.83220015816372e-06
3.08338177242502e-06
4.11028146291011e-06
4.90730688115333e-06
5.49207370994187e-06
5.89754997215072e-06
6.16328536801576e-06
6.32795987628005e-06
6.42453596447885e-06
6.47820542511633e-06
6.5065124089054e-06
6.52070847049043e-06
6.52749127867538e-06
6.53058511072266e-06
6.53193496527754e-06
6.53249934291391e-06
6.53272579826189e-06
6.53281305818549e-06
6.53284530551311e-06
6.53285665873508e-06
6.53286038160214e-06
6.5328614190992e-06
6.53286153857221e-06
6.53286130040136e-06
6.53286070425562e-06
6.53285919828323e-06
6.53285503219494e-06
6.5328432998759e-06
6.53281086906211e-06
6.53272396695092e-06
6.53249926590329e-06
6.53194001444455e-06
6.53060290782879e-06
6.52753791479922e-06
6.52081553840126e-06
6.50673723207558e-06
6.4786432718458e-06
6.42532996240866e-06
6.32930030959286e-06
6.16538720266624e-06
5.90059949043807e-06
5.49614530483069e-06
4.91226897807293e-06
4.11572976845295e-06
3.08864762964075e-06
1.83646238111503e-06
5.47162123961722e-09
2.07852341016048e-11
2.07280658717014e-11
5.47727869939524e-09
1.84217732663977e-06
3.09981422120772e-06
4.13187171081602e-06
4.93284681149341e-06
5.52050455086071e-06
5.927998995207e-06
6.19507618255778e-06
6.36059956796035e-06
6.45768660084094e-06
6.51164880364236e-06
6.54011561109841e-06
6.55439494551258e-06
6.56121923965349e-06
6.56433287972102e-06
6.56569182511418e-06
6.5662602300078e-06
6.56648841920803e-06
6.56657641347512e-06
6.56660897360745e-06
6.56662046579418e-06
6.56662425560588e-06
6.5666253303068e-06
6.56662547104993e-06
6.56662524302593e-06
6.56662464826003e-06
6.56662313348004e-06
6.5666189418933e-06
6.56660714808638e-06
6.56657456639772e-06
6.56648728244929e-06
6.56626160920652e-06
6.56569992461283e-06
6.56435691847221e-06
6.56127818129391e-06
6.55452519015368e-06
6.54038189704731e-06
6.51215679832137e-06
6.45859241491281e-06
6.36210735453593e-06
6.197412396503e-06
5.93135451988983e-06
5.52494676846648e-06
4.93822201444169e-06
4.13773712578227e-06
3.10544733474489e-06
1.84668947228036e-06
5.50218434440961e-09
2.08970756792332e-11
2.08054321483875e-11
5.4984255726968e-09
1.84928066328586e-06
3.11152698691909e-06
4.14727611886508e-06
4.95108527417055e-06
5.5408229797296e-06
5.94977375290992e-06
6.21782229242251e-06
6.38396234781079e-06
6.48142196624563e-06
6.53559850889579e-06
6.56418284576685e-06
6.57852370051298e-06
6.58537879467591e-06
6.58850721783054e-06
6.5898729863727e-06
6.59044443308969e-06
6.59067394175776e-06
6.59076250035993e-06
6.59079530427339e-06
6.59080690703509e-06
6.59081075158417e-06
6.5908118576804e-06
6.59081201761203e-06
6.59081179975754e-06
6.59081120799801e-06
6.5908096884523e-06
6.59080548011751e-06
6.59079364476196e-06
6.59076096079117e-06
6.59067341748689e-06
6.59044708089944e-06
6.58988372592571e-06
6.58853664350575e-06
6.58544835224276e-06
6.57867396514486e-06
6.56448504348815e-06
6.5361675071162e-06
6.48242555951104e-06
6.38561753574576e-06
6.22036682947173e-06
5.95340435789723e-06
5.54560299975574e-06
4.95684329417312e-06
4.15353565837122e-06
3.11751498773046e-06
1.85404074226119e-06
5.52412098303263e-09
2.09771391235402e-11
2.08574938115759e-11
5.51269891955093e-09
1.85409093117814e-06
3.11947191149271e-06
4.15774009608814e-06
4.96348994812456e-06
5.55465732626035e-06
5.96461319240822e-06
6.23333509635254e-06
6.3999047152384e-06
6.49762523917964e-06
6.55195272039653e-06
6.58062031931408e-06
6.59500503516092e-06
6.60188223611665e-06
6.60502134542464e-06
6.60639208382628e-06
6.60696576491815e-06
6.60719625251172e-06
6.60728523524296e-06
6.60731822575092e-06
6.60732991541925e-06
6.60733380454959e-06
6.60733493725103e-06
6.60733511432335e-06
6.6073349064036e-06
6.60733431890813e-06
6.6073327979098e-06
6.60732858010011e-06
6.60731671982406e-06
6.60728397399606e-06
6.60719627279767e-06
6.60696952753343e-06
6.6064051283921e-06
6.60505546065323e-06
6.60196102963946e-06
6.59517273494122e-06
6.58095386501839e-06
6.5525751602798e-06
6.49871491015186e-06
6.40169048621126e-06
6.23606563981392e-06
5.96849177137135e-06
5.55974536512715e-06
4.96960173020765e-06
4.16436944640028e-06
3.12579865600824e-06
1.85909243611728e-06
5.53918557953774e-09
2.10320266348188e-11
2.08891130128427e-11
5.52139451090093e-09
1.85703335306539e-06
3.12434586603108e-06
4.16417554637715e-06
4.97113575208108e-06
5.56320055896182e-06
5.97379178162971e-06
6.24294262289135e-06
6.40978817762692e-06
6.50767783069105e-06
6.56210410174701e-06
6.59082675476913e-06
6.60524078450004e-06
6.61213292595922e-06
6.61527934176705e-06
6.61665352017823e-06
6.61722876869512e-06
6.61745995379253e-06
6.6175492447698e-06
6.617582374623e-06
6.6175941316565e-06
6.61759805701024e-06
6.61759921240053e-06
6.61759940480514e-06
6.61759920645212e-06
6.61759862413444e-06
6.6175971043247e-06
6.61759288307841e-06
6.61758101198991e-06
6.61754823892146e-06
6.6174604667743e-06
6.61723353031113e-06
6.61666861904317e-06
6.61531762582978e-06
6.61221992487981e-06
6.60542398578861e-06
6.59118822404719e-06
6.562774284112e-06
6.50884470728529e-06
6.41169168066945e-06
6.24584192772835e-06
5.97789706067454e-06
5.56857272346938e-06
4.97757722958404e-06
4.17115355808281e-06
3.130996122157e-06
1.86226902219375e-06
5.54866935936028e-09
2.10665850643645e-11
2.09034485780821e-11
5.52535633637209e-09
1.85838534081814e-06
3.12660354689212e-06
4.16717759050921e-06
4.97472446531257e-06
5.56723195284167e-06
5.97814253440712e-06
6.24751339852777e-06
6.41450360877461e-06
6.5124840156891e-06
6.56696457199126e-06
6.59571823271501e-06
6.61014919345727e-06
6.61705018682233e-06
6.62020104498077e-06
6.62157737168181e-06
6.62215362785634e-06
6.6223852767862e-06
6.6224747817401e-06
6.62250801399579e-06
6.62251982418329e-06
6.62252378038083e-06
6.62252495626462e-06
6.62252516293479e-06
6.62252497378749e-06
6.62252439688515e-06
6.6225228795019e-06
6.62251865861101e-06
6.62250678736537e-06
6.62247401593945e-06
6.62238624878279e-06
6.62215931435067e-06
6.62159436534344e-06
6.62024316721327e-06
6.61714473650105e-06
6.61034666588458e-06
6.59610544068807e-06
6.56767884688908e-06
6.51372238907475e-06
6.41651653772254e-06
6.25057022770134e-06
5.98246051112118e-06
5.57287231156479e-06
4.98147931135846e-06
4.17448957457218e-06
3.13356642736826e-06
1.86384994648217e-06
5.55342212002342e-09
2.10840000792755e-11
2.09020405814448e-11
5.52499691294151e-09
1.85828288918892e-06
3.12646815277288e-06
4.16703865298574e-06
4.97460127578591e-06
5.56713526130645e-06
5.9780761856974e-06
6.247476205889e-06
6.41449131879943e-06
6.51249109071344e-06
6.56698552543202e-06
6.59574843820332e-06
6.61018516955432e-06
6.6170895514587e-06
6.62024229529354e-06
6.62161962469457e-06
6.62219639646081e-06
6.62242830659118e-06
6.62251794569026e-06
6.62255125043816e-06
6.6225631032457e-06
6.62256708690183e-06
6.62256828210447e-06
6.62256850249102e-06
6.62256832227756e-06
6.62256775051754e-06
6.62256623581282e-06
6.62256201763179e-06
6.62255015497948e-06
6.62251741156233e-06
6.62242972157066e-06
6.62220297518683e-06
6.62163844557098e-06
6.62028811794357e-06
6.61719138067701e-06
6.61039640308806e-06
6.59616047539602e-06
6.56774236283089e-06
6.51379853685849e-06
6.41661006967998e-06
6.25068564225529e-06
5.98260068003136e-06
5.57303672493967e-06
4.98166219608102e-06
4.17467812116234e-06
3.13373917640677e-06
1.86397509074952e-06
5.55386967141789e-09
2.10858700669896e-11
2.08848688158179e-11
5.520311956213e-09
1.85672489056063e-06
3.12393790335037e-06
4.16375656611586e-06
4.97076400774156e-06
5.56290869532687e-06
5.97359165191327e-06
6.24283083602276e-06
6.4097519829119e-06
6.50770050023045e-06
6.56216902104243e-06
6.59091986042401e-06
6.60535148228417e-06
6.6122539587355e-06
6.61540612697165e-06
6.61678336378044e-06
6.61736018394891e-06
6.61759216416795e-06
6.61768186251461e-06
6.61771521173544e-06
6.61772709720162e-06
6.617731104932e-06
6.6177323181369e-06
6.61773255160615e-06
6.61773237991753e-06
6.61773181297893e-06
6.61773030131167e-06
6.61772608859419e-06
6.61771424431209e-06
6.61768155768924e-06
6.61759402252714e-06
6.61736766221477e-06
6.61680403426615e-06
6.61545570262753e-06
6.6123631761821e-06
6.60557668237081e-06
6.59135708642647e-06
6.56296900523495e-06
6.50907789943059e-06
6.41197774137825e-06
6.2461944118081e-06
5.97832449152566e-06
5.56907327508844e-06
4.97813307733153e-06
4.17172562090932e-06
3.13151932567212e-06
1.86264734073536e-06
5.55002092350311e-09
2.10722302833139e-11
2.08503716223464e-11
5.51088459879586e-09
1.85357394338843e-06
3.11878680215935e-06
4.15703512829663e-06
4.96286347584352e-06
5.5541651239205e-06
5.96427611621564e-06
6.23314809066324e-06
6.39984658927588e-06
6.49766777050268e-06
6.55206767142136e-06
6.58078367415397e-06
6.59519864417024e-06
6.60209363719812e-06
6.60524265564388e-06
6.60661866315606e-06
6.60719505057168e-06
6.6074269053589e-06
6.60751658660978e-06
6.60754995162834e-06
6.60756185933468e-06
6.60756588737514e-06
6.60756711700289e-06
6.60756736270574e-06
6.6075671990082e-06
6.60756663667039e-06
6.60756512879424e-06
6.60756092523724e-06
6.60754911125181e-06
6.60751651520674e-06
6.60742922429909e-06
6.60720347556835e-06
6.60664129436125e-06
6.60529622326582e-06
6.60221072176686e-06
6.59543871071131e-06
6.58124767560788e-06
6.55291342229657e-06
6.49911916227176e-06
6.40218516951932e-06
6.2366735153626e-06
5.96922670938404e-06
5.56060331580892e-06
4.97055131097648e-06
4.16534340908021e-06
3.12668639553164e-06
1.85973221160341e-06
5.54146779993752e-09
2.10415642095696e-11
2.07953948531967e-11
5.49587322910411e-09
1.84855315144441e-06
3.11055968741727e-06