/*--------------------------------*- C++ -*----------------------------------*\
  =========                 |
  \\      /  F ield         | OpenFOAM: The Open Source CFD Toolbox
   \\    /   O peration     | Website:  https://openfoam.org
    \\  /    A nd           | Version:  10
     \\/     M anipulation  |
\*---------------------------------------------------------------------------*/
FoamFile
{
    format      ascii;
    class       volScalarField;
    location    "7";
    object      h;
}
// * * * * * * * * * * * * * * * * * * * * * * * * * * * * * * * * * * * * * //

dimensions      [0 2 -2 0 0 0 0];

internalField   nonuniform List<scalar> 
2500
(
6338.90828567608
6334.10931805646
6322.65458749385
6314.11695080486
6308.79848330542
6305.69171435814
6303.93784904866
6302.97684424233
6302.46859012546
6302.21132802092
6302.08529678586
6302.02640419212
6301.99998551462
6301.98801004809
6301.98251813357
6301.97963150592
6301.97834875909
6301.97736962096
6301.97646792086
6301.97586315899
6301.97536606412
6301.97494634267
6301.9746059218
6301.97439455764
6301.97418127161
6301.9740087051
6301.97394861872
6301.97393699323
6301.97398618599
6301.97410680091
6301.97431629208
6301.97470845962
6301.97520947883
6301.97597798448
6301.97729630223
6301.97991038469
6301.98555942023
6301.99800481172
6302.02642935235
6302.08778513337
6302.21689301006
6302.47868362452
6302.98921214367
6303.94784160909
6305.69297850754
6308.7811597281
6314.09228360454
6322.67473456107
6334.20976173669
6338.80216334872
5459.43289282072
5432.41436136657
5399.19628089824
5375.02625502691
5359.68004162208
5350.46793041942
5345.10751389134
5342.07942306854
5340.42836495249
5339.56426788918
5339.13064950583
5338.9225422644
5338.82693948592
5338.78456141217
5338.7663441152
5338.75857347612
5338.75538478946
5338.75388213624
5338.75299733492
5338.75246495829
5338.75206988895
5338.75174051226
5338.75147179369
5338.75128836713
5338.75112494027
5338.75099108807
5338.75092512074
5338.75089312934
5338.75089692325
5338.75095820442
5338.75111138052
5338.75146499791
5338.75219187826
5338.75375211388
5338.75727659681
5338.76562885724
5338.78534236572
5338.83064534908
5338.93165151682
5339.14755678303
5339.59115504812
5340.46585865414
5342.1219886489
5345.14119069133
5350.47121172797
5359.63765903496
5374.98206311176
5399.3110042311
5432.82252485389
5459.03178232939
4559.9131640731
4512.38031281191
4464.86478519657
4431.47740141604
4410.49516934124
4397.95739213387
4390.67728637819
4386.5660439641
4384.32151083626
4383.14347363978
4382.55065699017
4382.26513660448
4382.13351832772
4382.07526282199
4382.05042920485
4382.04015130161
4382.03604738011
4382.03434687203
4382.03354599186
4382.03312738678
4382.03284718238
4382.0326162337
4382.03242430075
4382.03228849024
4382.0321765559
4382.03208347672
4382.03202808158
4382.03199030674
4382.03196653549
4382.03198075838
4382.03207729397
4382.03237690054
4382.0331758351
4382.03509139073
4382.03967583248
4382.05087844778
4382.07768620606
4382.13964963813
4382.27763205377
4382.57246927027
4383.17721269571
4384.36745577608
4386.61783783909
4390.71863261852
4397.96422961193
4410.45939790423
4431.48065208928
4465.16810833014
4513.2709339211
4560.16056012811
3751.4904024138
3693.80076574037
3643.80438180768
3610.05304121897
3589.43480979412
3577.42231464551
3570.60461065943
3566.8292940115
3564.80150150952
3563.75136538968
3563.2288511516
3562.97957021015
3562.86560518631
3562.81559497634
3562.79449145237
3562.7859001321
3562.78253834476
3562.78122077188
3562.78066389543
3562.78040089996
3562.78023542856
3562.78009457999
3562.77997129553
3562.77988234853
3562.7798137809
3562.77975576506
3562.77971611105
3562.77968184336
3562.77964960945
3562.77963466621
3562.77966052263
3562.77983221877
3562.78043887319
3562.78196656533
3562.78568522352
3562.79495268575
3562.81746458038
3562.87013829269
3562.9886903562
3563.24488513604
3563.77660638557
3564.83675861512
3566.87083246894
3570.64147263307
3577.43930180877
3589.43876498938
3610.15254420701
3644.31848246431
3695.15822720728
3752.89207658939
3099.89331930103
3043.45276720881
2999.28134016124
2970.61166898005
2953.61836625408
2943.98256608593
2938.64393757615
2935.74649480984
2934.21488836756
2933.43146568121
2933.04538202913
2932.86254770186
2932.7794490876
2932.74317991
2932.72796998039
2932.72184289664
2932.71948566136
2932.71860110053
2932.71826063931
2932.71811933155
2932.71803856328
2932.71796533496
2932.71789475627
2932.71784308664
2932.71780640585
2932.71777464464
2932.71774974933
2932.71772338022
2932.71769267612
2932.71766962391
2932.7176568743
2932.71772064775
2932.71811390863
2932.719164489
2932.72173488296
2932.72824081338
2932.74422408952
2932.78196351331
2932.86762020561
2933.05440366895
2933.445945157
2934.23566429254
2935.77195819454
2938.66849196845
2944.00007492652
2953.64671830368
2970.76756989338
2999.89620769516
3045.05504095278
3102.24599738059
2622.36408325103
2575.01430800603
2540.7882881362
2519.38457341249
2507.07246909844
2500.27701709992
2496.60074062864
2494.64406550045
2493.62510282552
2493.10957512141
2492.85749169837
2492.73876060558
2492.6850006985
2492.66160905947
2492.65183646532
2492.64792933809
2492.64644922232
2492.64591611819
2492.64572999369
2492.64566595334
2492.64563710771
2492.64560765318
2492.6455724457
2492.64554615943
2492.6455299288
2492.64551513163
2492.64550121408
2492.64548325253
2492.64545897121
2492.64543550692
2492.64541391352
2492.64541910507
2492.64563917173
2492.64628494147
2492.64787338713
2492.65195223447
2492.6620612982
2492.68608949453
2492.74096909944
2492.86146363334
2493.11607196501
2493.63465749642
2494.65608745463
2496.61283902295
2500.2882682871
2507.10375397151
2519.5417035549
2541.37278469218
2576.57540710009
2625.10433152524
2300.86999106365
2265.67563636398
2241.84527955478
2227.45170359358
2219.40835569795
2215.08380920659
2212.7977934316
2211.60366811586
2210.99042081942
2210.68314414645
2210.53383588894
2210.46377891222
2210.4321257674
2210.4183726208
2210.41263915743
2210.41035999288
2210.40950886972
2210.40921568382
2210.40912354934
2210.40909856034
2210.40909609452
2210.40909192503
2210.40907777093
2210.40906662503
2210.40906185033
2210.40905645907
2210.40904948976
2210.40903843209
2210.40902153524
2210.40900219414
2210.40898012527
2210.40896486389
2210.40907604438
2210.40943494331
2210.41033381954
2210.41267513196
2210.41851755006
2210.43246853322
2210.46447306501
2210.53509272929
2210.68523826478
2210.99355478264
2211.6075423408
2212.80134611558
2215.08777662075
2219.43040635746
2227.57500088896
2242.31380545225
2266.98247607032
2303.44646023129
2100.37246503613
2076.71709466563
2061.56519661405
2052.70498472617
2047.88871352046
2045.36357142805
2044.05822662423
2043.38853913272
2043.0490915251
2042.88046645173
2042.79894564136
2042.76079105235
2042.743566765
2042.73608436196
2042.73296834468
2042.73173533108
2042.73128115182
2042.73113164076
2042.73109467668
2042.7310920976
2042.73109379011
2042.73109554025
2042.73109262482
2042.73108925167
2042.73109006797
2042.73108918307
2042.73108613311
2042.73107988165
2042.73106920261
2042.73105542745
2042.73103795745
2042.73102094061
2042.73107018126
2042.73125283407
2042.73172624821
2042.73297556511
2042.73610895098
2042.74361276281
2042.76087504096
2042.79909090803
2042.88071255267
2043.04943509636
2043.38870562507
2044.05753293977
2045.36260927226
2047.8995473139
2052.78541937585
2061.89291955939
2077.682732342
2102.45156075554
1983.73186686791
1969.14811873789
1960.24571967768
1955.19455922755
1952.51986946878
1951.15085405895
1950.45822226409
1950.10900341703
1949.93417885411
1949.84800693868
1949.80651852901
1949.78712907802
1949.77837468376
1949.77456899344
1949.77298460348
1949.77236010927
1949.77213340767
1949.77206436597
1949.77205260415
1949.77205524153
1949.77205883779
1949.77206194812
1949.77206251683
1949.77206277514
1949.77206437083
1949.77206458654
1949.77206337664
1949.77206011943
1949.77205386604
1949.77204508428
1949.77203338037
1949.77202097154
1949.77203927546
1949.77212502426
1949.77235969052
1949.77298583481
1949.77456202339
1949.77834209229
1949.78704963224
1949.80636125481
1949.84773375092
1949.93370740631
1950.10806187591
1950.45622355874
1951.14783035169
1952.52273346376
1955.23939088291
1960.450219038
1969.790143798
1985.22010810545
1920.04951146489
1911.71423474879
1906.83606647359
1904.14487258398
1902.75473105959
1902.05931681782
1901.71470405357
1901.5438596549
1901.45934612148
1901.41798645128
1901.39813986025
1901.38887063403
1901.3846816064
1901.38285805622
1901.3820987264
1901.38180054404
1901.38169410114
1901.38166498197
1901.38166260822
1901.38166544326
1901.38166869337
1901.38167132376
1901.38167268602
1901.38167379239
1901.38167512239
1901.3816756406
1901.38167523361
1901.38167349936
1901.38167006397
1901.38166494227
1901.38165797671
1901.38165070046
1901.38165596842
1901.3816932473
1901.38180340822
1901.382100397
1901.38285002398
1901.38464821685
1901.3887905543
1901.39798130466
1901.41770474305
1901.45885472692
1901.54292785182
1901.71283233194
1902.05616891591
1902.75365813541
1904.16633765922
1906.95165014023
1912.10388738916
1921.01436459112
1887.24661481359
1882.79288857373
1880.28126028373
1878.93142071636
1878.25029716473
1877.91691970867
1877.75498528635
1877.67601394143
1877.63739760029
1877.61862554762
1877.60964241496
1877.60544686589
1877.60354781676
1877.60271958983
1877.60237454213
1877.60223956334
1877.60219244718
1877.60218092523
1877.60218112534
1877.60218334596
1877.6021856135
1877.60218740284
1877.60218854717
1877.60218951052
1877.60219038686
1877.60219083111
1877.6021906963
1877.60218979299
1877.60218801539
1877.60218524246
1877.60218144065
1877.60217764072
1877.60217855747
1877.60219374803
1877.60224283399
1877.60237693951
1877.60271614881
1877.60352923604
1877.60540013771
1877.60954771142
1877.618452319
1877.63708255925
1877.67538988689
1877.75367419201
1877.9144886289
1878.24808684184
1878.94007302879
1880.34107618583
1883.01117876424
1887.82143608783
1871.23063100293
1868.99065537054
1867.76805298057
1867.12679207077
1866.81028521153
1866.6585527714
1866.58625836492
1866.55156427904
1866.53479010216
1866.52668765053
1866.52281918137
1866.52101147281
1866.52019156968
1866.51983319496
1866.51968378945
1866.51962557567
1866.51960580509
1866.51960154064
1866.5196021436
1866.51960355741
1866.51960492011
1866.51960598509
1866.51960672555
1866.51960735056
1866.51960785515
1866.51960813721
1866.51960808748
1866.51960763672
1866.51960676352
1866.51960535546
1866.51960341804
1866.51960148264
1866.51960136414
1866.51960730255
1866.51962812392
1866.51968606541
1866.51983286811
1866.52018422577
1866.52099093027
1866.52277577012
1866.52660488186
1866.53462961079
1866.55121963279
1866.58547634954
1866.65696529659
1866.80828813765
1867.1294944786
1867.79661353177
1869.10454567227
1871.54873763714
1863.7877671893
1862.72129166871
1862.15569861978
1861.86568274623
1861.72548900558
1861.65959386431
1861.62877582067
1861.61421715484
1861.60725622397
1861.60391444433
1861.60232201977
1861.60157719662
1861.60123855839
1861.60109017596
1861.60102826652
1861.60100424212
1861.60099631904
1861.60099485176
1861.60099532517
1861.60099611421
1861.60099685064
1861.60099742491
1861.60099784157
1861.60099819084
1861.60099845419
1861.60099860583
1861.60099858552
1861.60099837145
1861.6009979606
1861.60099728518
1861.60099635605
1861.60099541776
1861.60099519304
1861.60099741405
1861.60100588521
1861.60102994364
1861.60109097511
1861.60123674087
1861.60157037821
1861.60230633894
1861.60388234758
1861.60718722953
1861.61405026034
1861.62835849535
1861.65867157307
1861.72409777004
1861.86609734373
1862.16834360189
1862.77703428131
1863.95267172047
1860.48351545208
1860.00051823741
1859.75075177153
1859.62534074982
1859.56589257645
1859.53846881937
1859.52587063021
1859.52001012487
1859.51723872561
1859.51591616883
1859.51528699806
1859.51499234813
1859.5148580212
1859.51479900633
1859.51477436268
1859.51476483996
1859.51476180316
1859.51476133798
1859.51476160864
1859.51476200792
1859.51476237395
1859.51476265982
1859.51476287248
1859.51476304884
1859.5147631758
1859.5147632488
1859.51476324031
1859.51476314327
1859.51476295739
1859.51476264984
1859.51476222809
1859.51476179732
1859.51476164398
1859.51476244209
1859.51476576997
1859.51477540635
1859.51479987269
1859.51485815698
1859.51499104488
1859.51528303441
1859.51590654441
1859.51721351255
1859.51993725122
1859.52566610492
1859.53797904267
1859.56505761305
1859.62510211722
1859.75595575873
1860.02626666624
1860.56413787515
1859.07751371367
1858.86856950724
1858.76288124247
1858.71083326456
1858.68661023644
1858.67563258917
1858.67067542815
1858.66840385699
1858.66734127276
1858.66683715313
1858.66659768454
1858.66648536926
1858.66643401594
1858.66641139118
1858.66640193476
1858.66639829643
1858.66639717315
1858.66639703787
1858.66639717567
1858.66639736259
1858.66639753204
1858.6663976648
1858.6663977651
1858.66639784729
1858.6663979044
1858.66639793673
1858.66639793324
1858.66639789113
1858.66639781034
1858.66639767702
1858.66639749513
1858.66639730771
1858.66639722755
1858.66639750588
1858.66639877268
1858.66640250768
1858.66641199639
1858.66643453348
1858.66648568566
1858.66659755488
1858.66683555098
1858.66733374552
1858.66837472108
1858.67058183389
1858.67539079998
1858.68615882978
1858.71053435974
1858.76487094785
1858.87985123091
1859.11489676925
1858.5023851739
1858.41573312208
1858.37273880051
1858.35194021492
1858.34242545365
1858.33818513784
1858.33630152479
1858.33545091919
1858.33505727698
1858.33487159523
1858.3347835076
1858.33474212214
1858.33472314033
1858.33471475254
1858.33471124269
1858.33470989783
1858.33470949692
1858.33470946098
1858.33470952196
1858.33470960341
1858.33470967681
1858.33470973453
1858.33470977857
1858.33470981421
1858.33470983827
1858.33470985164
1858.33470985024
1858.33470983272
1858.33470979908
1858.33470974406
1858.33470966947
1858.33470959215
1858.33470955533
1858.33470965083
1858.33471012109
1858.33471152648
1858.33471509722
1858.3347235494
1858.33474263598
1858.33478415588
1858.33487208967
1858.33505574467
1858.33544015009
1858.33626104931
1858.33807286185
1858.34220033798
1858.3517311259
1858.37344216852
1858.42044213681
1858.51890243493
1858.27562375227
1858.24106416815
1858.22420126989
1858.21617620033
1858.21256323326
1858.21097829799
1858.21028516148
1858.2099765562
1858.20983523858
1858.20976895475
1858.20973754605
1858.20972276126
1858.20971595709
1858.20971294037
1858.20971167569
1858.20971119239
1858.20971105141
1858.20971104175
1858.20971106705
1858.20971109993
1858.20971112948
1858.20971115279
1858.20971117067
1858.20971118499
1858.2097111944
1858.20971119955
1858.209711199
1858.20971119205
1858.20971117874
1858.20971115726
1858.20971112834
1858.20971109833
1858.20971108326
1858.2097111165
1858.20971128799
1858.20971180337
1858.20971311113
1858.20971619389
1858.20972311613
1858.20973808564
1858.20976962444
1858.20983529149
1858.20997285003
1858.21026846268
1858.21092882765
1858.21245813704
1858.21605743829
1858.22442832889
1858.24294355655
1858.28260602873
1858.18923732272
1858.175944493
1858.16955183489
1858.16655463323
1858.16522513472
1858.16465047318
1858.16440284774
1858.16429408845
1858.16424479443
1858.16422180021
1858.16421091473
1858.16420577919
1858.16420340648
1858.16420234995
1858.16420190527
1858.16420173476
1858.1642016847
1858.16420168106
1858.16420169011
1858.16420170193
1858.16420171257
1858.16420172098
1858.16420172745
1858.16420173258
1858.16420173586
1858.16420173763
1858.1642017374
1858.16420173483
1858.16420172996
1858.16420172222
1858.1642017119
1858.1642017013
1858.16420169615
1858.16420170871
1858.16420177111
1858.16420195651
1858.16420242453
1858.1642035213
1858.16420596792
1858.16421122407
1858.16422223309
1858.16424506582
1858.16429289126
1858.16439622239
1858.16462964854
1858.16517873569
1858.16649484049
1858.16961685391
1858.17666397166
1858.19207111152
1858.15737022532
1858.15242702086
1858.15007944434
1858.14899360007
1858.14851848935
1858.14831594119
1858.14822986759
1858.14819255035
1858.14817580309
1858.14816803136
1858.14816435406
1858.14816261393
1858.14816180562
1858.14816144305
1858.14816128883
1858.14816122867
1858.14816120955
1858.1481612066
1858.14816120876
1858.14816121191
1858.1481612148
1858.14816121707
1858.14816121881
1858.1481612202
1858.14816122105
1858.14816122148
1858.14816122135
1858.14816122054
1858.14816121905
1858.14816121673
1858.14816121368
1858.14816121071
1858.14816120988
1858.14816121565
1858.14816123907
1858.14816130552
1858.14816147052
1858.14816185298
1858.14816269855
1858.14816450086
1858.14816825013
1858.14817598888
1858.14819218137
1858.14822732082
1858.14830751903
1858.14849897259
1858.14896593466
1858.1500947138
1858.15269195257
1858.15847780228
1858.14596452593
1858.14418334239
1858.1433465994
1858.14296429196
1858.14279910087
1858.14272957126
1858.14270040472
1858.14268791226
1858.14268235726
1858.14267979074
1858.14267857544
1858.14267799727
1858.14267772605
1858.14267760237
1858.14267754818
1858.14267752566
1858.14267751707
1858.14267751416
1858.14267751328
1858.14267751301
1858.14267751287
1858.14267751271
1858.14267751258
1858.1426775125
1858.14267751241
1858.14267751234
1858.14267751224
1858.14267751211
1858.14267751193
1858.14267751166
1858.14267751135
1858.1426775113
1858.14267751228
1858.14267751579
1858.14267752556
1858.14267755027
1858.14267760875
1858.14267774092
1858.14267802853
1858.14267863461
1858.14267988427
1858.14268244758
1858.14268779858
1858.14269944833
1858.14272628209
1858.14279123352
1858.14295230109
1858.14334868373
1858.14427740298
1858.14638253245
1858.14199655134
1858.14137341773
1858.14108346608
1858.14095244893
1858.14089648151
1858.14087319861
1858.14086354658
1858.14085945741
1858.14085765311
1858.14085682133
1858.14085642564
1858.14085623504
1858.14085614353
1858.14085610001
1858.14085607937
1858.14085606937
1858.14085606423
1858.14085606124
1858.1408560592
1858.14085605763
1858.14085605634
1858.14085605527
1858.14085605442
1858.14085605378
1858.14085605334
1858.14085605308
1858.14085605302
1858.14085605314
1858.14085605345
1858.14085605394
1858.14085605464
1858.14085605567
1858.14085605731
1858.14085606007
1858.14085606521
1858.14085607564
1858.1408560976
1858.1408561442
1858.14085624207
1858.14085644386
1858.14085685392
1858.14085768691
1858.14085941769
1858.14086319119
1858.14087195112
1858.14089342668
1858.14094752251
1858.14108293078
1858.14140568356
1858.1421492475
1858.14065254753
1858.14044052186
1858.14034271182
1858.14029896093
1858.14028046291
1858.14027284715
1858.14026972185
1858.14026840902
1858.140267832
1858.1402675648
1858.14026743559
1858.14026737124
1858.14026733845
1858.14026732119
1858.14026731154
1858.14026730562
1858.14026730157
1858.14026729852
1858.14026729605
1858.14026729401
1858.1402672923
1858.14026729089
1858.14026728977
1858.14026728893
1858.14026728836
1858.14026728804
1858.14026728799
1858.14026728821
1858.14026728869
1858.14026728946
1858.14026729052
1858.14026729194
1858.14026729382
1858.14026729635
1858.14026729996
1858.1402673056
1858.14026731533
1858.14026733336
1858.14026736818
1858.14026743645
1858.14026757093
1858.14026783887
1858.14026838968
1858.14026958765
1858.14027238345
1858.14027931404
1858.1402970262
1858.14034207697
1858.14045123476
1858.14070665089
1858.14020865965
1858.14013839007
1858.14010625476
1858.14009201853
1858.14008605328
1858.14008361766
1858.14008262483
1858.14008220873
1858.14008202448
1858.14008193704
1858.14008189259
1858.14008186847
1858.14008185446
1858.14008184561
1858.14008183949
1858.14008183488
1858.14008183117
1858.14008182809
1858.14008182547
1858.14008182325
1858.14008182139
1858.14008181987
1858.14008181865
1858.14008181774
1858.14008181712
1858.14008181679
1858.14008181674
1858.14008181699
1858.14008181754
1858.14008181841
1858.1400818196
1858.14008182115
1858.14008182312
1858.14008182558
1858.14008182869
1858.14008183277
1858.14008183849
1858.14008184718
1858.14008186151
1858.14008188663
1858.14008193261
1858.14008202006
1858.14008219489
1858.14008257022
1858.14008344537
1858.14008563125
1858.14009128699
1858.14010588689
1858.14014183757
1858.14022728778
1858.14006551031
1858.1400428053
1858.14003254021
1858.14002804056
1858.14002616844
1858.1400254068
1858.14002509554
1858.140024963
1858.14002490187
1858.1400248705
1858.14002485246
1858.14002484092
1858.14002483279
1858.1400248266
1858.14002482159
1858.14002481739
1858.1400248138
1858.1400248107
1858.14002480803
1858.14002480576
1858.14002480385
1858.14002480228
1858.14002480103
1858.1400248001
1858.14002479946
1858.14002479913
1858.14002479909
1858.14002479935
1858.14002479993
1858.14002480083
1858.14002480206
1858.14002480367
1858.14002480567
1858.1400248081
1858.14002481105
1858.14002481463
1858.14002481905
1858.14002482476
1858.14002483256
1858.14002484402
1858.14002486215
1858.14002489313
1858.1400249507
1858.14002506905
1858.14002533976
1858.14002601427
1858.14002777194
1858.14003236778
1858.1400438814
1858.14007175211
1858.1400203767
1858.14001322779
1858.14001006856
1858.14000870603
1858.14000814083
1858.14000790851
1858.14000781057
1858.1400077659
1858.1400077426
1858.14000772838
1858.14000771843
1858.14000771074
1858.14000770443
1858.14000769907
1858.14000769441
1858.14000769035
1858.1400076868
1858.1400076837
1858.14000768102
1858.14000767874
1858.14000767682
1858.14000767524
1858.14000767399
1858.14000767305
1858.14000767241
1858.14000767208
1858.14000767204
1858.14000767231
1858.1400076729
1858.14000767381
1858.14000767506
1858.14000767668
1858.14000767868
1858.14000768111
1858.140007684
1858.14000768741
1858.14000769143
1858.14000769618
1858.14000770194
1858.14000770915
1858.14000771871
1858.14000773237
1858.14000775412
1858.14000779388
1858.14000787851
1858.14000808237
1858.14000860874
1858.14000999618
1858.14001355332
1858.14002241376
1858.14000644823
1858.14000426578
1858.14000336208
1858.14000298786
1858.140002831
1858.14000276256
1858.14000273002
1858.14000271201
1858.1400027001
1858.14000269102
1858.14000268349
1858.14000267697
1858.14000267122
1858.14000266612
1858.14000266159
1858.14000265758
1858.14000265405
1858.14000265097
1858.1400026483
1858.14000264603
1858.14000264411
1858.14000264254
1858.14000264129
1858.14000264035
1858.14000263972
1858.14000263939
1858.14000263936
1858.14000263963
1858.14000264022
1858.14000264113
1858.14000264239
1858.140002644
1858.14000264601
1858.14000264843
1858.14000265129
1858.14000265464
1858.14000265852
1858.14000266298
1858.1400026681
1858.14000267402
1858.14000268098
1858.14000268945
1858.1400027005
1858.14000271675
1858.14000274533
1858.14000280583
1858.14000295188
1858.14000333368
1858.14000436069
1858.14000709516
1858.14000223697
1858.14000160447
1858.14000140095
1858.14000133135
1858.14000129932
1858.1400012805
1858.14000126753
1858.1400012574
1858.1400012488
1858.14000124121
1858.14000123438
1858.14000122821
1858.14000122264
1858.14000121763
1858.14000121316
1858.14000120919
1858.14000120569
1858.14000120263
1858.14000119998
1858.14000119772
1858.14000119582
1858.14000119426
1858.14000119302
1858.14000119209
1858.14000119147
1858.14000119115
1858.14000119112
1858.14000119139
1858.14000119198
1858.14000119289
1858.14000119414
1858.14000119575
1858.14000119774
1858.14000120015
1858.14000120299
1858.14000120631
1858.14000121013
1858.14000121449
1858.14000121941
1858.14000122495
1858.14000123115
1858.14000123813
1858.14000124608
1858.14000125551
1858.14000126765
1858.1400012855
1858.1400013167
1858.14000139025
1858.1400016306
1858.14000243565
1858.14000098897
1858.14000082995
1858.14000083907
1858.14000086121
1858.14000086637
1858.1400008621
1858.14000085475
1858.1400008468
1858.14000083909
1858.14000083188
1858.14000082524
1858.14000081916
1858.14000081366
1858.1400008087
1858.14000080426
1858.14000080033
1858.14000079686
1858.14000079384
1858.14000079122
1858.14000078898
1858.1400007871
1858.14000078556
1858.14000078434
1858.14000078343
1858.14000078282
1858.1400007825
1858.14000078247
1858.14000078275
1858.14000078333
1858.14000078424
1858.14000078547
1858.14000078707
1858.14000078905
1858.14000079143
1858.14000079426
1858.14000079755
1858.14000080133
1858.14000080565
1858.14000081051
1858.14000081594
1858.14000082195
1858.14000082854
1858.14000083569
1858.14000084328
1858.14000085083
1858.14000085643
1858.14000085387
1858.14000083514
1858.14000083622
1858.14000104655
1858.14000062705
1858.14000060979
1858.14000068196
1858.14000073086
1858.14000074658
1858.14000074625
1858.1400007403
1858.14000073282
1858.14000072526
1858.1400007181
1858.14000071147
1858.14000070542
1858.14000069995
1858.14000069502
1858.14000069063
1858.14000068674
1858.14000068331
1858.14000068033
1858.14000067774
1858.14000067554
1858.14000067369
1858.14000067217
1858.14000067098
1858.14000067008
1858.14000066948
1858.14000066917
1858.14000066915
1858.14000066942
1858.14000067
1858.1400006709
1858.14000067212
1858.1400006737
1858.14000067566
1858.14000067802
1858.14000068081
1858.14000068407
1858.14000068783
1858.14000069212
1858.14000069696
1858.14000070236
1858.14000070835
1858.1400007149
1858.14000072193
1858.14000072916
1858.14000073564
1858.14000073804
1858.14000072607
1858.1400006806
1858.1400006106
1858.14000064128
1858.14000052538
1858.14000054981
1858.14000063999
1858.14000069609
1858.14000071436
1858.14000071479
1858.14000070895
1858.14000070139
1858.14000069374
1858.14000068651
1858.14000067986
1858.14000067381
1858.14000066836
1858.14000066347
1858.14000065913
1858.14000065528
1858.14000065191
1858.14000064897
1858.14000064643
1858.14000064427
1858.14000064245
1858.14000064097
1858.1400006398
1858.14000063892
1858.14000063833
1858.14000063803
1858.14000063802
1858.14000063829
1858.14000063886
1858.14000063974
1858.14000064095
1858.14000064251
1858.14000064444
1858.14000064676
1858.14000064952
1858.14000065275
1858.14000065648
1858.14000066074
1858.14000066556
1858.14000067098
1858.140000677
1858.14000068362
1858.14000069076
1858.1400006981
1858.14000070457
1858.14000070646
1858.1400006923
1858.14000063967
1858.14000054928
1858.14000052668
1858.1400004991
1858.14000053561
1858.14000063042
1858.14000068786
1858.14000070623
1858.14000070639
1858.14000070023
1858.14000069241
1858.14000068458
1858.14000067724
1858.14000067055
1858.14000066449
1858.14000065906
1858.14000065422
1858.14000064993
1858.14000064615
1858.14000064283
1858.14000063995
1858.14000063746
1858.14000063535
1858.14000063358
1858.14000063213
1858.14000063098
1858.14000063013
1858.14000062956
1858.14000062927
1858.14000062926
1858.14000062953
1858.14000063009
1858.14000063096
1858.14000063214
1858.14000063367
1858.14000063557
1858.14000063786
1858.14000064058
1858.14000064376
1858.14000064745
1858.14000065168
1858.14000065649
1858.14000066193
1858.140000668
1858.14000067474
1858.14000068206
1858.14000068968
1858.1400006965
1858.14000069873
1858.14000068459
1858.14000063062
1858.1400005349
1858.14000049673
1858.14000049465
1858.14000053464
1858.14000063006
1858.140000687
1858.14000070464
1858.14000070414
1858.14000069748
1858.14000068932
1858.14000068126
1858.14000067379
1858.14000066704
1858.14000066098
1858.14000065559
1858.1400006508
1858.14000064657
1858.14000064286
1858.14000063961
1858.14000063679
1858.14000063437
1858.14000063231
1858.14000063059
1858.14000062918
1858.14000062807
1858.14000062724
1858.14000062669
1858.14000062641
1858.1400006264
1858.14000062667
1858.14000062722
1858.14000062807
1858.14000062923
1858.14000063073
1858.14000063258
1858.14000063483
1858.1400006375
1858.14000064063
1858.14000064427
1858.14000064847
1858.14000065327
1858.14000065871
1858.14000066485
1858.14000067172
1858.14000067928
1858.14000068725
1858.14000069458
1858.14000069748
1858.1400006841
1858.14000063064
1858.14000053407
1858.14000049138
1858.14000049685
1858.14000053784
1858.14000063256
1858.14000068828
1858.14000070479
1858.14000070344
1858.14000069617
1858.1400006876
1858.14000067928
1858.14000067169
1858.14000066488
1858.14000065883
1858.14000065347
1858.14000064875
1858.1400006446
1858.14000064096
1858.1400006378
1858.14000063506
1858.1400006327
1858.1400006307
1858.14000062904
1858.14000062767
1858.1400006266
1858.1400006258
1858.14000062527
1858.14000062501
1858.14000062501
1858.14000062527
1858.14000062581
1858.14000062663
1858.14000062777
1858.14000062922
1858.14000063103
1858.14000063323
1858.14000063584
1858.14000063891
1858.1400006425
1858.14000064665
1858.14000065142
1858.14000065687
1858.14000066308
1858.1400006701
1858.14000067791
1858.14000068629
1858.14000069423
1858.14000069799
1858.14000068574
1858.14000063348
1858.14000053751
1858.1400004935
1858.14000050158
1858.14000054283
1858.14000063625
1858.1400006903
1858.14000070541
1858.14000070304
1858.14000069507
1858.14000068605
1858.14000067746
1858.14000066973
1858.14000066288
1858.14000065684
1858.14000065154
1858.1400006469
1858.14000064283
1858.14000063929
1858.14000063622
1858.14000063356
1858.14000063129
1858.14000062936
1858.14000062775
1858.14000062644
1858.14000062541
1858.14000062465
1858.14000062414
1858.14000062389
1858.14000062389
1858.14000062415
1858.14000062467
1858.14000062547
1858.14000062657
1858.14000062799
1858.14000062974
1858.14000063187
1858.14000063442
1858.14000063743
1858.14000064095
1858.14000064504
1858.14000064977
1858.14000065522
1858.14000066149
1858.14000066865
1858.14000067673
1858.14000068557
1858.14000069421
1858.14000069899
1858.14000068813
1858.1400006375
1858.14000054276
1858.14000049838
1858.14000050784
1858.14000054907
1858.14000064073
1858.1400006927
1858.14000070613
1858.14000070258
1858.14000069384
1858.14000068433
1858.14000067547
1858.14000066761
1858.14000066072
1858.14000065472
1858.1400006495
1858.14000064495
1858.14000064099
1858.14000063755
1858.14000063458
1858.14000063202
1858.14000062983
1858.14000062798
1858.14000062644
1858.14000062519
1858.1400006242
1858.14000062347
1858.14000062299
1858.14000062276
1858.14000062276
1858.14000062301
1858.14000062352
1858.1400006243
1858.14000062536
1858.14000062672
1858.14000062842
1858.14000063048
1858.14000063295
1858.14000063588