/*--------------------------------*- C++ -*----------------------------------*\
  =========                 |
  \\      /  F ield         | OpenFOAM: The Open Source CFD Toolbox
   \\    /   O peration     | Website:  https://openfoam.org
    \\  /    A nd           | Version:  10
     \\/     M anipulation  |
\*---------------------------------------------------------------------------*/
FoamFile
{
    format      ascii;
    class       volScalarField;
    location    "7";
    object      k;
}
// * * * * * * * * * * * * * * * * * * * * * * * * * * * * * * * * * * * * * //

dimensions      [0 2 -2 0 0 0 0];

internalField   nonuniform List<scalar> 
2500
(
8.54814967574853e-10
1.67895679481352e-08
7.17143218066691e-08
1.24240259951958e-07
1.69322033720204e-07
2.05331201109451e-07
2.32186629764258e-07
2.50920971362082e-07
2.63169591307053e-07
2.70691473376221e-07
2.75040284449161e-07
2.77413125496038e-07
2.78637962570807e-07
2.79237530873669e-07
2.79516491370509e-07
2.79640113651624e-07
2.79692379431746e-07
2.79713479055744e-07
2.79721603651647e-07
2.79724570382313e-07
2.79725578872212e-07
2.79725880002039e-07
2.79725941984854e-07
2.79725931823689e-07
2.7972590622535e-07
2.79725883141747e-07
2.79725858186062e-07
2.79725805214554e-07
2.79725645397238e-07
2.79725160164565e-07
2.79723765938075e-07
2.79719962391136e-07
2.79710046341257e-07
2.79685261771677e-07
2.79625828762174e-07
2.79489188654742e-07
2.79188444394679e-07
2.78555927435144e-07
2.77287488326829e-07
2.74867687686415e-07
2.7048698537323e-07
2.62979867855294e-07
2.50832785083941e-07
2.32320272095417e-07
2.05808601767159e-07
1.70206544962481e-07
1.25455512294676e-07
7.29454558306314e-08
1.73010665985509e-08
8.96688749698287e-10
2.10760601528177e-08
4.82527348681556e-07
2.10382609450791e-06
3.64727759865315e-06
4.97412871399883e-06
6.03685587789669e-06
6.83220111877475e-06
7.38933655585561e-06
7.75531291930194e-06
7.9812261627959e-06
8.11256801580496e-06
8.18465419032064e-06
8.22209234016883e-06
8.24053411055571e-06
8.24916959284237e-06
8.25302129495043e-06
8.25466048237298e-06
8.25532668044835e-06
8.25558502786164e-06
8.25568013095661e-06
8.25571281925721e-06
8.25572278704772e-06
8.25572499837785e-06
8.25572482675662e-06
8.25572409856445e-06
8.25572340730654e-06
8.25572261268027e-06
8.25572087303821e-06
8.25571566049642e-06
8.25569999565795e-06
8.25565535096613e-06
8.25553438706987e-06
8.25522098189998e-06
8.25444230658611e-06
8.25258600288918e-06
8.24834314882239e-06
8.23905888392683e-06
8.21964534594237e-06
8.18093637948273e-06
8.10750518143028e-06
7.97529115949211e-06
7.7498972637914e-06
7.38697694360037e-06
6.83636377931685e-06
6.05100041323456e-06
4.99997964337368e-06
3.68252303058217e-06
2.13933826840063e-06
4.96915919541071e-07
2.20681135154655e-08
7.44493751210907e-08
2.15826123944157e-06
1.06466535937376e-05
1.841843823764e-05
2.50562478772397e-05
3.03553411257943e-05
3.43154565833082e-05
3.70899463954987e-05
3.89152566347723e-05
4.00449432708323e-05
4.07039799888432e-05
4.10671502766678e-05
4.12566080221461e-05
4.13503803813969e-05
4.13945102089708e-05
4.14142958996734e-05
4.14227614336057e-05
4.14262212752592e-05
4.14275710849868e-05
4.14280714917602e-05
4.14282451828947e-05
4.14282991321721e-05
4.1428311836766e-05
4.14283116479716e-05
4.1428308276316e-05
4.14283048693295e-05
4.14283007290449e-05
4.14282914648166e-05
4.1428263895663e-05
4.14281817334239e-05
4.14279490018724e-05
4.14273214477891e-05
4.14257023359725e-05
4.14216953972327e-05
4.14121799190521e-05
4.1390514028627e-05
4.13432850776962e-05
4.12449015045304e-05
4.10494578899901e-05
4.0680012164e-05
4.00169924588277e-05
3.88898984897288e-05
3.70790489143259e-05
3.43351510562015e-05
3.04216945078938e-05
2.51772624871471e-05
1.85832523249346e-05
1.08123470023497e-05
2.21673399883442e-06
7.74134771868195e-08
1.31250289591192e-07
3.83144366560378e-06
1.89563960727123e-05
3.26661634885099e-05
4.42987114367769e-05
5.35397847605036e-05
6.04219947932364e-05
6.5233216544221e-05
6.83949258257086e-05
7.03511543265354e-05
7.14927759029411e-05
7.21223933094773e-05
7.24512319453342e-05
7.26142230707283e-05
7.26910533819554e-05
7.27255633179961e-05
7.27403584923287e-05
7.27464187183569e-05
7.27487890646351e-05
7.27496705925553e-05
7.27499779836241e-05
7.2750074291004e-05
7.27500975507722e-05
7.27500977756467e-05
7.2750092306015e-05
7.27500865436965e-05
7.27500794288032e-05
7.27500634679414e-05
7.27500160439274e-05
7.27498747705091e-05
7.27494744244389e-05
7.27483940488776e-05
7.27456041440038e-05
7.27386936406499e-05
7.27222695056663e-05
7.26848462444904e-05
7.26032179757569e-05
7.24330889796468e-05
7.20949722137003e-05
7.14555740999488e-05
7.03075716530913e-05
6.83548303956157e-05
6.52144628868165e-05
6.04488753110101e-05
5.36365017973104e-05
4.4477213399368e-05
3.29095434862115e-05
1.91990629856404e-05
3.91536154662878e-06
1.35431015573614e-07
1.86719422381929e-07
5.45370035116242e-06
2.69116614127991e-05
4.62089010142756e-05
6.24920759452293e-05
7.53742789527143e-05
8.49405057393628e-05
9.16159482163209e-05
9.59986481846739e-05
9.87096855797702e-05
0.000100292257654038
0.000101165663648506
0.00010162228078969
0.000101848884964931
0.000101955854364019
0.000102003979878912
0.000102024649821424
0.00010203313376129
0.000102036460082517
0.000102037700954311
0.000102038135671099
0.000102038273104912
0.000102038307123045
0.000102038308292809
0.000102038301313333
0.000102038293554233
0.000102038283769072
0.000102038261744807
0.000102038196472038
0.000102038002234795
0.000102037451691635
0.000102035964892559
0.000102032121837387
0.000102022593352761
0.000101999925726629
0.000101948231778248
0.000101835389758948
0.000101600048654192
0.000101132056573935
0.00010024658731652
9.86559186083798e-05
9.59484575279067e-05
9.15905014199813e-05
8.49685977186927e-05
7.54845436894583e-05
6.26984781951327e-05
4.64909862221285e-05
2.71919139262468e-05
5.55087920607038e-06
1.91616497987325e-07
2.39388460635308e-07
6.99330797159163e-06
3.43998764156785e-05
5.88750885920104e-05
7.94285396330065e-05
9.56315882727338e-05
0.000107634617847582
0.00011599799268297
0.000121484862481602
0.000124878441979249
0.000126860074727122
0.000127954443414181
0.000128527113855549
0.000128811639190145
0.000128946131050019
0.000129006731220081
0.000129032803775156
0.000129043526216623
0.000129047740055998
0.000129049316873456
0.000129049871954652
0.000129050049160696
0.000129050094166937
0.000129050096837384
0.000129050088916084
0.000129050079522955
0.000129050067339088
0.000129050039779111
0.000129049958410839
0.000129049716786937
0.000129049032202619
0.000129047182647028
0.000129042398382209
0.000129030526169524
0.000129002259064673
0.000128937744568764
0.000128796817338652
0.000128502721020742
0.000127917576484119
0.000126809913358567
0.000124819140067378
0.000121428788421249
0.000115967596251911
0.000107660391126185
9.57437508831824e-05
7.96416622234716e-05
5.91674074755437e-05
3.4690632987984e-05
7.09573928567156e-06
2.44668943901555e-07
2.88417486956604e-07
8.42749570891519e-06
4.13325427386073e-05
7.05353737447931e-05
9.49567584029701e-05
0.00011415088637054
0.000128340745279716
0.000138215817389135
0.000144690820936718
0.000148695358959139
0.000151034559956278
0.000152327236398265
0.00015300428066753
0.000153341029439792
0.000153500408387845
0.000153572325744305
0.000153603317841612
0.000153616087417802
0.000153621117210537
0.000153623005141052
0.000153623673018144
0.000153623888429486
0.000153623944638392
0.000153623949395149
0.000153623941002418
0.000153623930322926
0.000153623915985583
0.000153623883346928
0.00015362378746122
0.000153623503610357
0.000153622700167395
0.0001536205293035
0.000153614910876131
0.000153600958824693
0.00015356771528224
0.000153491789978209
0.000153325832231791
0.000152979310110828
0.000152289529956254
0.000150983245197793
0.000148634538431975
0.000144632774648623
0.000138182797940016
0.000128362868469901
0.000114257835199908
9.51626535305984e-05
7.08188052119105e-05
4.16156968531394e-05
8.52980597814984e-06
2.93848359059746e-07
3.3323818466322e-07
9.74006010871227e-06
4.76463873395258e-05
8.11026583019169e-05
0.000108980508748678
0.00013083521877217
0.000146964724246747
0.000158178669527016
0.000165528524127012
0.000170074247028188
0.000172730550338712
0.000174199391398246
0.000174969353838546
0.00017535271175714
0.000175534366435368
0.000175616446478124
0.000175651872579164
0.000175666495204381
0.000175672267560876
0.000175674440746265
0.000175675213317626
0.000175675465071093
0.000175675532604378
0.000175675540012312
0.000175675531575385
0.000175675519930754
0.000175675503661984
0.000175675466353223
0.000175675357393341
0.000175675036111145
0.00017567412805836
0.000175671675048478
0.00017566532414808
0.000175649544113686
0.000175611921259771
0.000175525941358194
0.00017533790174822
0.000174945081913997
0.000174162817569056
0.00017268085289431
0.000170015361539075
0.000165472142222165
0.000158145847807891
0.000146983765770805
0.00013093376755933
0.000109171432898892
8.13658995338764e-05
4.79109228919794e-05
9.83880960441278e-06
3.38658586523666e-07
3.73497782178901e-07
1.09207226192494e-05
5.33037478068605e-05
9.05313403849921e-05
0.000121456550808447
0.000145648248113793
0.000163477802074681
0.000175864110672723
0.000183980003629869
0.000188999942538993
0.000191934472088478
0.000193558156152693
0.000194409969139439
0.000194834488885855
0.000195035872588275
0.000195126982635308
0.000195166363042168
0.000195182645369013
0.000195189086410534
0.000195191518425129
0.000195192387173919
0.000195192673087622
0.000195192751946831
0.000195192762549527
0.00019519275439511
0.000195192742070874
0.000195192724074034
0.000195192682474364
0.000195192561780131
0.000195192207529412
0.000195191208174215
0.000195188509730266
0.000195181522036722
0.000195164151838772
0.000195122715421646
0.000195027969846675
0.000194820658519382
0.000194387395492612
0.000193524280805606
0.000191888643189397
0.000188945914464083
0.000183928618036558
0.000175834635305554
0.000163495829185966
0.00014573839933937
0.000121629829611763
9.07694259742929e-05
5.35442923427868e-05
1.10139852937114e-05
3.78804665668365e-07
4.0903954389665e-07
1.19647626721944e-05
5.82915459829818e-05
9.88146484199522e-05
0.000132390406626703
0.000158608877875991
0.000177910509637444
0.000191311439160778
0.000200090488809336
0.000205521334628455
0.000208697293516859
0.000210455592394544
0.000211378722052266
0.000211839198230798
0.000212057865784499
0.000212156912296521
0.000212199780901782
0.000212217533608858
0.000212224570276334
0.000212227234605081
0.000212228190749503
0.000212228508369459
0.00021222859830953
0.000212228612456119
0.000212228605014665
0.000212228592262591
0.000212228572728309
0.000212228527203793
0.000212228396035569
0.000212228012967323
0.000212226934656223
0.000212224024870557
0.000212216489431537
0.000212197750990129
0.000212153030363395
0.000212050728214938
0.000211826787385468
0.000211358596952953
0.000210425611635656
0.000208657101871238
0.000205474567889758
0.000200047066228555
0.000191288573809977
0.000177930621178305
0.000158693002765439
0.000132547224196598
9.90274724057509e-05
5.85070728199294e-05
1.20518005531873e-05
4.14176927590722e-07
4.39883367812472e-07
1.28725163556513e-05
6.26189291174678e-05
0.000105980184858226
0.000141830180531209
0.000169783859484533
0.000190344491259023
0.00020461305134391
0.000213959496723288
0.000219742302912556
0.000223125380001902
0.000224999387471312
0.000225983957628743
0.00022647549131349
0.000226709131252708
0.000226815075157481
0.00022686098640905
0.000226880027214405
0.000226887588504283
0.00022689045901765
0.000226891493681224
0.000226891840392594
0.000226891940984551
0.000226891958915028
0.000226891952486264
0.000226891939518846
0.000226891918629376
0.000226891869543595
0.000226891729097875
0.000226891321062024
0.000226890175156345
0.000226887085350356
0.000226879084047512
0.000226859181802333
0.000226811665673015
0.000226702925586707
0.000226464804532667
0.000225966808329942
0.000224974161892219
0.000223092144372214
0.000219704688365167
0.000213926566968128
0.000204599947420542
0.000190370334916556
0.000169865868098471
0.000141974380002341
0.000106171079023132
6.28115527023771e-05
1.29534860609828e-05
4.44832407412912e-07
4.66200057353274e-07
1.36486686905112e-05
6.63138838638032e-05
0.000112084127754695
0.00014985892341381
0.000179278894239404
0.000200902796541492
0.000215904237038672
0.000225730333782235
0.000231811050658009
0.000235369733759174
0.000237342044315831
0.000238378935050209
0.000238896985975839
0.000239143447011881
0.000239255316540386
0.000239303851390092
0.000239324007685011
0.000239332025763244
0.000239335077166705
0.000239336181550887
0.000239336554661758
0.000239336665337007
0.000239336687097008
0.000239336681882563
0.000239336668877217
0.000239336646810144
0.00023933659452983
0.000239336445946301
0.000239336016494598
0.000239334813347383
0.000239331571955109
0.000239323179103442
0.000239302298822056
0.000239252432015166
0.000239138273987564
0.000238888209684129
0.000238365092036785
0.000237322133098736
0.000235344355761504
0.000231783973251806
0.000225709924086596
0.000215903721363749
0.000200938117356839
0.000179363462369528
0.000149995898050572
0.000112258560322229
6.64877607370407e-05
1.37243472446063e-05
4.70969368399263e-07
4.8828021923745e-07
1.43013831408746e-05
6.94192009640127e-05
0.000117204636156687
0.0001565861663834
0.000187228893146662
0.000209739316143862
0.000225352101943211
0.000235578708560934
0.000241908536904904
0.000245614324293775
0.000247669156986993
0.000248750074811568
0.000249290499602007
0.000249547810552608
0.000249664711168375
0.000249715481800462
0.000249736592805859
0.00024974500395257
0.000249748212186615
0.00024974937773268
0.000249749774486645
0.00024974989450412
0.000249749920035808
0.000249749916185035
0.000249749903287378
0.000249749880216618
0.00024974982511184
0.000249749669473303
0.000249749221856898
0.000249747970797584
0.000249744603299763
0.000249735885415963
0.000249714193477194
0.000249662374915713
0.000249543715043199
0.000249283719409989
0.000248739698435461
0.000247654853318495
0.000245597324891018
0.0002418928919105
0.000235572297660961
0.000225366503180897
0.000209787573606435
0.000187320798213963
0.000156721903222918
0.000117369087197244
6.9579569309198e-05
1.43729190257794e-05
4.92896714260241e-07
5.06500534574284e-07
1.48413490244953e-05
7.19881775777034e-05
0.0001214350132594
0.000162139268725773
0.000193788093197372
0.000217028094436944
0.000233144372792615
0.000243701226428156
0.000250236787475577
0.000254064294905743
0.00025618756016064
0.000257305078483417
0.000257864154093199
0.000258130536804432
0.000258251657972872
0.000258304311180919
0.000258326229558024
0.000258334974907996
0.000258338317480543
0.000258339536019478
0.000258339953655442
0.000258340082183954
0.000258340111341872
0.000258340108927452
0.000258340096249928
0.000258340072344501
0.000258340014784618
0.000258339853111719
0.000258339390277117
0.000258338099609654
0.000258334628528558
0.0002583256442911
0.000258303287492056
0.00025824986950009
0.000258127517868903
0.000257859372135497
0.00025729818613399
0.000256178928692257
0.000254055856681832
0.000250233010512523
0.000243709727728758
0.000233175402914215
0.000217092173547484
0.000193891694222065
0.000162279586454919
0.000121596067733496
7.21405678433711e-05
1.49100490971781e-05
5.11001260312687e-07
5.21290362442485e-07
1.52808313954156e-05
7.40804109974165e-05
0.000124877129725392
0.000166655169814487
0.000199120675656929
0.000222953202746725
0.000239478795099225
0.000250304493099526
0.00025700782276213
0.000260934789506775
0.000263114100373861
0.000264261670724846
0.000264836103206888
0.000265109978450197
0.000265234597202814
0.000265288816374647
0.00026531140926348
0.000265320435326204
0.00026532389156809
0.000265325155450357
0.000265325591287027
0.000265325727448149
0.000265325760000935
0.000265325759028618
0.000265325746655606
0.000265325722078449
0.000265325662426752
0.000265325495671111
0.000265325020258156
0.000265323697277146
0.00026532014223817
0.000265310942644072
0.000265288048535439
0.000265233337465962
0.000265107999184696
0.000264833255339717
0.000264258164365753
0.000263111016746765
0.000260934805330344
0.000257015935546511
0.000250328271201463
0.000239527493747375
0.000223035231485385
0.000199239554312394
0.000166805170971408
0.000125040809057794
7.42300483618647e-05
1.53479925022563e-05
5.25715771232577e-07
5.33101190163147e-07
1.56327954496249e-05
7.575796958849e-05
0.000127635508962706
0.000170273017443615
0.000203392406055098
0.000227699726039926
0.000244553699413566
0.000255595418430145
0.000262433803297903
0.000266441006497238
0.000268665638991925
0.000269837575229476
0.000270424494805931
0.000270704481546345
0.000270831962981908
0.000270887468732834
0.000270910618221621
0.000270919877173586
0.000270923428407713
0.000270924730598795
0.000270925182086759
0.000270925324980877
0.00027092536064398
0.000270925361075414
0.000270925349068
0.000270925323973803
0.000270925262580566
0.000270925091617409
0.000270924605961037
0.000270923256987633
0.000270919634845161
0.000270910263552326
0.000270886941264762
0.00027083119935398
0.000270703478492561
0.000270423467278893
0.000269837268730074
0.00026866783064899
0.00026644913363257
0.000262453474132198
0.000255634338208759
0.000244620440675944
0.000227800998982702
0.000203529168347203
0.000170436753906994
0.000127806840691701
7.59093723371107e-05
1.56995849434008e-05
5.37490102854751e-07
5.42380724400028e-07
1.59101576290804e-05
7.70821423495099e-05
0.00012981235309595
0.00017312799920124
0.000206763655523769
0.000231446246554062
0.000248560136560099
0.000259773132381144
0.000266718812379435
0.000270789903398888
0.000273050713121411
0.000274242152196024
0.000274839096317868
0.000275124005101294
0.000275253800133249
0.000275310349706125
0.000275333952771564
0.000275343402531173
0.000275347032156258
0.0002753483663003
0.000275348831063957
0.000275348979806344
0.000275349018269405
0.000275349020033353
0.00027534900843186
0.000275348982964364
0.000275348920159784
0.000275348745781414
0.000275348251919264
0.000275346882355411
0.000275343207376534
0.000275333701207161
0.000275310042700103
0.000275253490972962
0.000275123896991897
0.000274839741513471
0.000274244797739051
0.00027305780018902
0.000270805621080424
0.000266749428244557
0.000259826635753799
0.00024864469077883
0.000231567243763617
0.000206919878870311
0.000173308331690007
0.000129995158623941
7.72389034396449e-05
1.59775418117433e-05
5.46767034156228e-07
5.49552598242047e-07
1.61251927839847e-05
7.81108764300241e-05
0.000131503655115102
0.000175346544406468
0.000209383987019476
0.000234359020292352
0.000251675787081976
0.000263022724984709
0.000270052491930034
0.000274173771146072
0.000276463074964304
0.000277669918707541
0.000278274805259321
0.000278563626706033
0.000278695267485272
0.000278752653092051
0.00027877662107704
0.000278786225184905
0.000278789918680857
0.000278791279135216
0.000278791755009896
0.000278791908760748
0.000278791949705162
0.000278791952708094
0.000278791941534772
0.000278791915824726
0.000278791851913474
0.000278791674825527
0.000278791174511616
0.000278789788912504
0.000278786073008559
0.00027877646258033
0.000278752544222923
0.000278695366224116
0.000278564322361423
0.000278276956113277
0.000277675231507974
0.000276474609760607
0.000274196438995438
0.000270093237602318
0.000263089927693423
0.000251777425420306
0.000234499502934374
0.000209560286732024
0.000175545163238884
0.000131700520773427
7.82756018955341e-05
1.61939078447334e-05
5.53963577769269e-07
5.55001912291593e-07
1.62891054454875e-05
7.88969278030251e-05
0.000132796421035912
0.000177042917877337
0.000211388326989438
0.000236587867848858
0.000254060667975895
0.000265510835032046
0.000272605557671259
0.000276765705068821
0.000279077137281903
0.000280295980077457
0.000280907073109996
0.000281198962624287
0.000281332056126636
0.000281390102435905
0.000281414360144391
0.000281424087477502
0.000281427832339199
0.000281429214178043
0.000281429699231313
0.000281429857213748
0.000281429900329966
0.000281429904469478
0.00028142989372835
0.000281429867891843
0.000281429803148353
0.000281429623968856
0.000281429118693406
0.000281427720853197
0.000281423973845809
0.000281414284293959
0.000281390168678383
0.000281332514781715
0.000281200367818646
0.000280910555842208
0.000280303660665792
0.000279092640968822
0.000276794619510215
0.000272655496642043
0.000265590634335182
0.00025417829479028
0.000236747027632929
0.000211584509903778
0.000177260484232968
0.000133008808538664
7.90712969175834e-05
1.63596624417965e-05
5.59457853971865e-07
5.59066199262653e-07
1.641175527097e-05
7.94866784074514e-05
0.000133766921500537
0.000178317100434588
0.000212894601375334
0.000238263648737114
0.00025585450033466
0.000267382948112784
0.000274527052732539
0.000278716831012157
0.000281045183140186
0.000282273230248625
0.00028288910061163
0.000283183360432521
0.000283317580719956
0.00028337614170957
0.000283400626208877
0.0002834104505631
0.000283414236176502
0.000283415635168285
0.00028341612770722
0.000283416289217056
0.000283416334226988
0.000283416339410112
0.000283416329077506
0.000283416303214807
0.00028341623788093
0.000283416057142752
0.000283415548157385
0.000283414141205394
0.000283410371115039
0.000283400622867959
0.000283376360758571
0.000283318352815163
0.000283185383656172
0.000282893745558677
0.00028228298379387
0.000281064178325905
0.000278751277171272
0.00027458520499892
0.000267474132394097
0.000255986798149976
0.000238440287489206
0.000213109872938493
0.000178553465271735
0.000133995371147081
7.96715872153642e-05
1.64844693000954e-05
5.63581046463594e-07
5.62030968242362e-07
1.65015140828144e-05
7.99195221936881e-05
0.000134479817795109
0.000179253760052977
0.00021400261200625
0.00023949707715408
0.000257175484524356
0.000268762143884356
0.000275943075741203
0.000280155020570808
0.000282496072865295
0.000283731053675079
0.000284350536699501
0.000284646596323257
0.00028478167595024
0.000284840631331351
0.000284865290546729
0.000284875190121314
0.000284879007593001
0.000284880420155293
0.000284880918722977
0.000284881083137089
0.000284881129761043
0.000284881135866933
0.000284881125974528
0.000284881100171691
0.00028488103445571
0.000284880852611323
0.0002848803409584
0.000284878927460931
0.000284875140805136
0.000284865350380808
0.000284840982713459
0.000284782718827916
0.000284649153399483
0.000284356187127093
0.000283742606008075
0.000282518111293164
0.000280194317671517
0.000276008488327188
0.000268863496289217
0.000257321057876669
0.000239689794707374
0.00021423580543523
0.000179508220439401
0.000134724200204676
8.01152734484553e-05
1.65765478530461e-05
5.66613583825747e-07
5.64128736171314e-07
1.65652243700904e-05
8.02276908315049e-05
0.000134987960456192
0.000179922059817999
0.000214793863559412
0.000240378565341942
0.000258120153640345
0.000269748953838444
0.000276956639105316
0.000281184748059996
0.000283535099198184
0.000284775178860227
0.000285397330858631
0.000285694726697885
0.000285830447667949
0.000285889699061474
0.000285914490241874
0.000285924447059592
0.000285928289014092
0.000285929712152445
0.000285930215517243
0.000285930382306044
0.000285930430292029
0.000285930437230376
0.000285930427779157
0.000285930402106745
0.000285930336184009
0.000285930153613031
0.000285929640157575
0.000285928222222723
0.000285924424315088
0.000285914605112345
0.000285890164977569
0.000285831724247603
0.000285697744326946
0.000285403849817476
0.000284788289160869
0.000283559784155061
0.00028122828713545
0.000277028446434871
0.000269859343967875
0.000258277660859334
0.000240585937849537
0.000215043664823458
0.000180193618596276
0.000135247739019861
8.04341982326663e-05
1.66426374837917e-05
5.68784483884135e-07
5.65540385852044e-07
1.66082267109026e-05
8.04363791265368e-05
0.000135332642592851
0.000180376028494689
0.000215332027402158
0.000240978754078552
0.000258763947303886
0.000270421960715167
0.000277648282136669
0.000281887710192069
0.00028424460963103
0.000285488301521256
0.000286112356381717
0.000286410711297352
0.000286546895872855
0.000286606362877364
0.000286631250993173
0.000286641250280243
0.000286645110634985
0.000286646541868465
0.000286647049003572
0.000286647217726457
0.000286647266866663
0.000286647274548628
0.00028664726552841
0.000286647240040985
0.000286647174055227
0.000286646991073189
0.000286646476536581
0.000286645055918103
0.000286641251160349
0.000286631414227469
0.000286606928792288
0.000286548375900349
0.000286414129611777
0.000286119631733205
0.000285502771797978
0.000284271613058806
0.000281934983594949
0.000277725754578128
0.000270540420400988
0.00025893221243197
0.000241199489435347
0.000215597176005234
0.00018066363085831
0.000135607116951552
8.06533603653808e-05
1.66880236420311e-05
5.70272755069905e-07
5.66397749753799e-07
1.66344248534496e-05
8.056403440528e-05
0.000135544096406224
0.000180655227015807
0.000215663736509784
0.000241349397669271
0.000259162155492418
0.00027083877810057
0.000278077070826579
0.000282323836434761
0.000284685021798776
0.000285931102167986
0.000286556428786504
0.000286855431882348
0.000286991933443289
0.000287051549689078
0.000287076505805912
0.000287086535353376
0.000287090409080988
0.000287091846359774
0.00028709235641742
0.0002870925267118
0.000287092576836322
0.000287092585183451
0.000287092576578268
0.000287092551315471
0.000287092485381275
0.000287092302250138
0.000287091787244428
0.000287090365444108
0.000287086557608199
0.000287076712380055
0.00028705220472608
0.000286993594328181
0.000286859206173273
0.000286564376643228
0.000285946783859119
0.000284714096449018
0.000282374459266091
0.000278159650864508
0.000270964559198886
0.000259340255601263
0.000241582459313292
0.000215943188364671
0.000180957955436896
0.000135832605744018
8.07911744439753e-05
1.67165963803862e-05
5.71209814826304e-07
5.66786477017705e-07
1.66463614859915e-05
8.06226916105072e-05
0.000135642047970632
0.000180785473487316
0.000215819436152094
0.00024152430337954
0.000259350916821287
0.000271037085254493
0.000278281653927564
0.000282532356920636
0.00028489589745932
0.000286143323098291
0.000286769384266574
0.000287068771399955
0.000287205465690456
0.00028726517513863
0.000287290174972003
0.000287300224642455
0.000287304107653233
0.000287305549374632
0.000287306061738291
0.00028730623337078
0.000287306284384378
0.000287306293350394
0.000287306285144582
0.000287306260116719
0.000287306194287789
0.000287306011172063
0.000287305496159512
0.000287304074430387
0.000287300266810809
0.000287290421670331
0.000287265912377993
0.000287207293087487
0.000287072873267056
0.000286777951251238
0.000286160121416932
0.000284926884985784
0.000282586081513431
0.000278368981214516
0.000271169700267361
0.000259538244442457
0.000241769000155828
0.000216112482947998
0.000181102690709815
0.000135944119964496
8.08597636576918e-05
1.67309158842674e-05
5.71682040018499e-07
5.66748325666194e-07
1.66452794005348e-05
8.06182506008854e-05
0.000135636180315558
0.000180779454163485
0.000215814101621782
0.000241520119587075
0.000259348050209154
0.000271035484057921
0.000278281133417936
0.000282532676720088
0.000284896819456427
0.000286144646535576
0.000286770958079808
0.000287070492232481
0.000287207268335873
0.000287267021287093
0.000287292043489621
0.000287302104492243
0.000287305993322843
0.000287307438189251
0.000287307952401927
0.000287308125225665
0.000287308177077379
0.000287308186638455
0.000287308178820222
0.000287308154015448
0.000287308088302718
0.000287307905304546
0.000287307390664779
0.000287305970150698
0.000287302165878611
0.000287292328895822
0.000287267837796907
0.000287209256268925
0.00028707490990946
0.000286780122065638
0.000286162522025881
0.000284929653481621
0.000282589397912379
0.000278373051602494
0.000271174719664562
0.00025954433723321
0.000241776143939971
0.000216120426910156
0.000181110878707918
0.000135951620558203
8.08651964962484e-05
1.67322649933901e-05
5.71732769782534e-07
5.66282747654513e-07
1.66311656860269e-05
8.05506633099336e-05
0.000135526416182124
0.000180637074973622
0.000215647638493012
0.00024133676863985
0.000259153508605666
0.000270833965403205
0.000278075538546752
0.000282324858454296
0.000284687877070178
0.000285935180423905
0.00028656127033061
0.000286860721832278
0.000286997472970586
0.00028705722190758
0.000287082246211089
0.000287092310254839
0.000287096201655966
0.000287097648451817
0.000287098164081352
0.000287098337949516
0.000287098390582227
0.000287098400710873
0.000287098393262475
0.000287098368666868
0.000287098303085911
0.000287098120324757
0.000287097606481924
0.000287096188431698
0.00028709239087644
0.000287082570642218
0.000287058118659397
0.000286999623721125
0.000286865460034428
0.000286571040230585
0.000285954148686142
0.000284722582942754
0.0002823846144364
0.000278172099066765
0.000270979888077103
0.000259358834323102
0.000241604207823467
0.000215967332297175
0.000180982798054577
0.000135855322526849
8.08075981377386e-05
1.67206705475873e-05
5.71362959916016e-07
5.6534739929997e-07
1.6602764434552e-05
8.04139688085533e-05
0.000135302951103726
0.000180345485722541
0.000215304897962821
0.000240957455528483
0.000258749382664799
0.000270413909264299
0.000277645823543061
0.000281889619397065
0.000284249661170046
0.000285495453255287
0.00028612082078024
0.000286419947640693
0.000286556562137243
0.000286616257746137
0.000286641263276582
0.000286651321879156
0.00028665521253879
0.000286656660020062
0.000286657176614469
0.000286657351363757
0.000286657404708947
0.000286657415368326
0.000286657408266606
0.000286657383870595
0.000286657318454105
0.000286657136090354
0.000286656623561865
0.000286655209441129
0.000286651422482238
0.000286641628779937
0.00028661723956028
0.00028655888607214
0.000286425027143991
0.000286131235635024
0.00028551558312315
0.000284286352549345
0.000281952585416296
0.000277747278637175
0.000270566853468626
0.000258964155237626
0.000241236764893863
0.000215638420850806
0.000180705925528172
0.00013564566074171
8.06811341892328e-05
1.669490312393e-05
5.70531490687808e-07
5.63856757385525e-07
1.65575401019763e-05
8.01961544418278e-05