/*--------------------------------*- C++ -*----------------------------------*\
  =========                 |
  \\      /  F ield         | OpenFOAM: The Open Source CFD Toolbox
   \\    /   O peration     | Website:  https://openfoam.org
    \\  /    A nd           | Version:  10
     \\/     M anipulation  |
\*---------------------------------------------------------------------------*/
FoamFile
{
    format      ascii;
    class       volScalarField;
    location    "7";
    object      nut;
}
// * * * * * * * * * * * * * * * * * * * * * * * * * * * * * * * * * * * * * //

dimensions      [0 2 -1 0 0 0 0];

internalField   nonuniform List<scalar> 
2500
(
6.68073768497746e-15
1.31207071400745e-13
5.60446886300767e-13
9.70954770204068e-13
1.32329039736516e-12
1.60472114567251e-12
1.81461082351967e-12
1.96102965305912e-12
2.05675892050843e-12
2.11554615012994e-12
2.1495341883085e-12
2.1680790377125e-12
2.17765168885229e-12
2.18233758210325e-12
2.1845177837186e-12
2.18548395169564e-12
2.18589243443678e-12
2.18605734200431e-12
2.18612084517451e-12
2.18614403557248e-12
2.18615192091158e-12
2.18615427741101e-12
2.18615476431609e-12
2.18615468637921e-12
2.18615448788034e-12
2.18615430872961e-12
2.18615411407047e-12
2.18615370011683e-12
2.18615245064703e-12
2.18614865741032e-12
2.18613775945084e-12
2.18610803042711e-12
2.18603052958876e-12
2.1858368246281e-12
2.18537232728122e-12
2.1843044233813e-12
2.1819539741906e-12
2.1770105753179e-12
2.16709714844287e-12
2.14818528301101e-12
2.11394799273371e-12
2.05527613312792e-12
1.96034040840977e-12
1.81565525592971e-12
1.60845217286493e-12
1.33020311802378e-12
9.80452198865185e-13
5.70068170500662e-13
1.35204301720205e-13
7.00800074445287e-15
6.60952003247502e-13
3.40504949411961e-11
1.48476818104805e-10
2.57425797475263e-10
3.51092967677013e-10
4.26117180204293e-10
4.82265857166793e-10
5.21597662169815e-10
5.4743412610625e-10
5.63382548403621e-10
5.72654583607705e-10
5.77743438120419e-10
5.80386327466587e-10
5.81688187857856e-10
5.82297789707485e-10
5.82569691032443e-10
5.82685405167299e-10
5.82732434068201e-10
5.82750672157142e-10
5.82757386374893e-10
5.8275969455353e-10
5.82760398796236e-10
5.82760555404847e-10
5.82760543641017e-10
5.82760492551366e-10
5.82760444012323e-10
5.82760388046828e-10
5.82760265308983e-10
5.82759897355409e-10
5.82758791478278e-10
5.82755639776492e-10
5.8274710042119e-10
5.82724976180896e-10
5.82670007552312e-10
5.82538966828865e-10
5.82239453501574e-10
5.81584052109698e-10
5.80213590414179e-10
5.77480985728154e-10
5.7229717361844e-10
5.62963555937046e-10
5.47051777057248e-10
5.21431029306416e-10
4.82559634348335e-10
4.27115581007246e-10
3.52917673894478e-10
2.59913466867892e-10
1.50983021000665e-10
3.50658059063066e-11
6.92064025125571e-13
2.34166414309976e-12
6.11051726437633e-10
2.0935941095161e-07
3.62226214599113e-07
4.92802722945956e-07
5.97049170255312e-07
6.74955543224129e-07
7.29537244592692e-07
7.65445668621906e-07
7.87669152648544e-07
8.00633722057114e-07
8.07777919657818e-07
8.11504845403031e-07
8.13349474934936e-07
8.14217561842711e-07
8.1460676798123e-07
8.14773293497261e-07
8.14841352105268e-07
8.14867904605763e-07
8.14877748579644e-07
8.14881165783675e-07
8.1488222756917e-07
8.14882477979465e-07
8.14882474630162e-07
8.14882408610899e-07
8.1488234184612e-07
8.14882260556519e-07
8.14882078433227e-07
8.14881536219983e-07
8.14879920075211e-07
8.14875342056426e-07
8.1486299745216e-07
8.14831147865412e-07
8.14752327444903e-07
8.14565148552168e-07
8.14138956973781e-07
8.13209905971146e-07
8.11274565415554e-07
8.07429882775381e-07
8.0016222548762e-07
7.8711928316131e-07
7.64946769597635e-07
7.29322773281955e-07
6.75342824685837e-07
5.98354239529479e-07
4.95182879390446e-07
3.65467526928479e-07
2.12617450198444e-07
6.27604825404165e-10
2.43489238040699e-12
4.13923589731037e-12
1.08769591744764e-09
3.73774755298105e-07
6.44170281629646e-07
8.73621259070905e-07
1.05590764967912e-06
1.19166489343817e-06
1.28656961413066e-06
1.34893581572694e-06
1.38752282390196e-06
1.41004124677965e-06
1.42246026619433e-06
1.42894644381068e-06
1.43216133343057e-06
1.43367674799435e-06
1.43435742390542e-06
1.43464924324221e-06
1.43476877458155e-06
1.4348155272699e-06
1.43483291478325e-06
1.43483897820347e-06
1.43484087832914e-06
1.43484133766247e-06
1.4348413425188e-06
1.43484123496658e-06
1.43484112159177e-06
1.43484098145335e-06
1.43484066682146e-06
1.43483973163601e-06
1.43483694538828e-06
1.43482904928891e-06
1.43480774035992e-06
1.43475271253254e-06
1.43461641028185e-06
1.4342924614632e-06
1.43355432319969e-06
1.4319442724696e-06
1.42858859103196e-06
1.42191940081335e-06
1.40930744665365e-06
1.38666313537815e-06
1.34814486684802e-06
1.2861995666566e-06
1.19219489591268e-06
1.05781503658251e-06
8.77141510498402e-07
6.48969473969837e-07
3.78558923879962e-07
1.111514111073e-09
4.27106356575397e-12
5.90124552198656e-12
1.55156149167256e-09
5.31764275613434e-07
9.13157005474495e-07
1.23500629270515e-06
1.48963966287147e-06
1.67872889646997e-06
1.81067691955177e-06
1.89730522201092e-06
1.95089087869554e-06
1.98217124611882e-06
1.99943440812426e-06
2.00845952422301e-06
2.01293836336434e-06
2.01505260477182e-06
2.01600379692697e-06
2.01641233280939e-06
2.0165800150591e-06
2.01664575864974e-06
2.01667028414773e-06
2.01667887641687e-06
2.01668159314329e-06
2.01668226594739e-06
2.01668228941115e-06
2.0166821517136e-06
2.01668199857475e-06
2.01668180534713e-06
2.016681370236e-06
2.01668008039157e-06
2.01667624164581e-06
2.01666536081108e-06
2.01663597533013e-06
2.01656001867193e-06
2.01637169096143e-06
2.01592367149477e-06
2.01490195039862e-06
2.01267163756052e-06
2.00802011230724e-06
1.99877016562559e-06
1.9812685607055e-06
1.94982813891167e-06
1.89631312989087e-06
1.81017384238709e-06
1.67928395833308e-06
1.4918187645112e-06
1.23908522293884e-06
9.18730957540995e-07
5.37300867269537e-07
1.57920022167196e-09
6.05596993377873e-12
7.577804097142e-12
1.99266091931867e-09
6.80760510611328e-07
1.1651982597707e-06
1.57203618521692e-06
1.89276677030005e-06
2.1303599784217e-06
2.29590709243601e-06
2.40451487276119e-06
2.47168723367784e-06
2.51091128274353e-06
2.53257285767675e-06
2.54390804487481e-06
2.54953978786554e-06
2.55220183758388e-06
2.5534013161915e-06
2.55391737694912e-06
2.55412960834021e-06
2.55421301349346e-06
2.55424422362992e-06
2.5542552104717e-06
2.55425871812038e-06
2.55425960921664e-06
2.55425966229453e-06
2.55425950564729e-06
2.55425931985635e-06
2.55425907882149e-06
2.55425853348497e-06
2.55425692318637e-06
2.55425214097705e-06
2.5542385913356e-06
2.55420198345209e-06
2.55410728770858e-06
2.55387229820024e-06
2.55331280029464e-06
2.55203584486341e-06
2.54924641847588e-06
2.54342523385041e-06
2.53184314049435e-06
2.5099184176915e-06
2.47051343286637e-06
2.40340493899382e-06
2.29530537528139e-06
2.13087001109375e-06
1.89498665301235e-06
1.5762541080765e-06
1.17098294035487e-06
6.86513144249773e-07
2.02183706845669e-09
7.74488671005698e-12
9.13953679290821e-12
2.40377769497888e-09
8.18765800577359e-07
1.39731802758721e-06
1.88116006084e-06
2.26144163099499e-06
2.54257599644e-06
2.73822323465236e-06
2.86650674727036e-06
2.9458446716878e-06
2.9921887072406e-06
3.01779898942322e-06
3.03121242754404e-06
3.03788399417939e-06
3.0410415549425e-06
3.04246635374404e-06
3.04308035585246e-06
3.04333334062726e-06
3.04343298825513e-06
3.04347039085211e-06
3.04348362238584e-06
3.04348789000513e-06
3.04348900371901e-06
3.04348909806895e-06
3.04348893184625e-06
3.04348872032607e-06
3.04348843635505e-06
3.04348778985263e-06
3.04348589040319e-06
3.04348026714563e-06
3.04346435012419e-06
3.04342134265708e-06
3.04331003322369e-06
3.04303362142211e-06
3.04237501479241e-06
3.04087081274158e-06
3.03758291638595e-06
3.03071772511856e-06
3.01705196923911e-06
2.99117208347469e-06
2.94463971904728e-06
2.86535674768841e-06
2.73756904409857e-06
2.54301425202746e-06
2.26356036300527e-06
1.88523885009666e-06
1.40293228090587e-06
8.24373585051348e-07
2.4329491530642e-09
9.311553843531e-12
1.05668610700104e-11
2.7799017862823e-09
9.44402490527968e-07
1.60758889644213e-06
2.16020853093025e-06
2.59343368863185e-06
2.91316757526604e-06
3.13545986653085e-06
3.28115434300029e-06
3.371262864281e-06
3.4239178329855e-06
3.45303408697837e-06
3.4682967181845e-06
3.47589584383023e-06
3.47949669516847e-06
3.48112372548882e-06
3.48182595790728e-06
3.48211581385135e-06
3.48223023572107e-06
3.48227331330641e-06
3.48228862743625e-06
3.48229361775141e-06
3.48229495645079e-06
3.48229510333211e-06
3.48229493608325e-06
3.48229470526996e-06
3.48229438282055e-06
3.48229364334688e-06
3.4822914836336e-06
3.4822851152372e-06
3.48226711573469e-06
3.48221849160763e-06
3.48209260151917e-06
3.48177980266819e-06
3.48103402531009e-06
3.47932969058987e-06
3.47560227495562e-06
3.46781559204967e-06
3.4523091082887e-06
3.42293271338286e-06
3.37009561565804e-06
3.28003672081563e-06
3.1348092639098e-06
2.91354502730978e-06
2.59538714451728e-06
2.16399294622455e-06
1.61280634302527e-06
9.49644836691377e-07
2.80807679844489e-09
1.07386659955429e-11
1.18480606121848e-11
3.11798583011158e-09
1.05689256014886e-06
1.79506146361931e-06
2.40826997165245e-06
2.88796193512466e-06
3.2414997135107e-06
3.48710416710239e-06
3.64803146578632e-06
3.74756995830319e-06
3.80575756217996e-06
3.83795290064944e-06
3.85484312041357e-06
3.86326072633266e-06
3.86725386796596e-06
3.8690604445746e-06
3.86984129886937e-06
3.87016415262807e-06
3.87029186847816e-06
3.87034009145962e-06
3.87035731733232e-06
3.87036298651035e-06
3.8703645501568e-06
3.8703647603882e-06
3.87036459867846e-06
3.87036435430548e-06
3.87036399747202e-06
3.87036317265795e-06
3.87036077956187e-06
3.87035375544133e-06
3.87033393995351e-06
3.87028043422339e-06
3.87014187904142e-06
3.86979745429918e-06
3.8689758324599e-06
3.86709716904281e-06
3.86298649206006e-06
3.85439552100981e-06
3.83728120696546e-06
3.80484884944889e-06
3.74649867041777e-06
3.64701257673194e-06
3.486519728583e-06
3.24185718339055e-06
2.8897495126163e-06
2.41170576290993e-06
1.79978197289215e-06
1.06166129306353e-06
3.1446066466152e-09
1.20163457333705e-11
1.29782543941386e-11
3.41672162726371e-09
1.15599410504159e-06
1.95963529879577e-06
2.62550254372379e-06
3.14546184925266e-06
3.52824739737627e-06
3.79401122137243e-06
3.96811490235637e-06
4.07581783356806e-06
4.1388024668536e-06
4.17367248553343e-06
4.19197968788583e-06
4.2011116957902e-06
4.20544823534337e-06
4.20741249099808e-06
4.20826264581338e-06
4.2086147109287e-06
4.20875425938532e-06
4.20880709726616e-06
4.20882605910108e-06
4.20883235797842e-06
4.2088341416155e-06
4.20883442214961e-06
4.20883427455502e-06
4.20883402165363e-06
4.20883363426308e-06
4.20883273146297e-06
4.20883013023426e-06
4.20882253344687e-06
4.20880114890226e-06
4.20874344327826e-06
4.20859400333996e-06
4.2082223894148e-06
4.20733550598571e-06
4.2053066858457e-06
4.20086556889622e-06
4.1915805752945e-06
4.17307792002999e-06
4.13800540415559e-06
4.07489037790881e-06
3.96725376949237e-06
3.79355777669576e-06
3.52864626302384e-06
3.14713021011483e-06
2.62861248331873e-06
1.96385576185154e-06
1.16026782620041e-06
3.44157218043296e-09
1.31412143448937e-11
1.39584048582573e-11
3.67629733714185e-09
1.24192091555368e-06
2.10191390438359e-06
2.81293623663361e-06
3.36734887678924e-06
3.77513301457459e-06
4.05812473302268e-06
4.24349488501935e-06
4.35818652969871e-06
4.4252838058843e-06
4.46245137852572e-06
4.48197855529208e-06
4.49172723943412e-06
4.49636106554537e-06
4.49846227118594e-06
4.49937283761287e-06
4.49975047734193e-06
4.49990044169739e-06
4.49995737304793e-06
4.49997789367408e-06
4.49998477003336e-06
4.49998676507376e-06
4.49998712067757e-06
4.49998699316166e-06
4.49998673596997e-06
4.49998632166752e-06
4.49998534815427e-06
4.49998256269675e-06
4.49997447009316e-06
4.49995174320612e-06
4.49989046261093e-06
4.49973177138614e-06
4.49933704651852e-06
4.49839465024661e-06
4.49623798747134e-06
4.49151528672886e-06
4.48163843058597e-06
4.46195107598733e-06
4.42462463934869e-06
4.35744051647633e-06
4.24284178805088e-06
4.05786484913036e-06
3.77564559243197e-06
3.36897539316946e-06
2.81579618396912e-06
2.10569986392291e-06
1.24574097089539e-06
3.69941901809011e-09
1.41154211484103e-11
1.47942735393879e-11
3.89813927074602e-09
1.31525752100415e-06
2.22306095118597e-06
2.97228409969995e-06
3.55579809959381e-06
3.9846851831973e-06
4.28222268769238e-06
4.47711274076999e-06
4.59771719143423e-06
4.66829981603039e-06
4.70741845506946e-06
4.72798405543009e-06
4.73825903152668e-06
4.74314731752566e-06
4.74536612753233e-06
4.7463287632205e-06
4.74672854123426e-06
4.74688757099009e-06
4.74694809220023e-06
4.74696999642461e-06
4.74697739665166e-06
4.74697959176182e-06
4.74698002333763e-06
4.74697991990687e-06
4.74697966195564e-06
4.74697922428026e-06
4.7469781873648e-06
4.74697524038761e-06
4.74696672270747e-06
4.7469428596359e-06
4.74687857021473e-06
4.74671210723222e-06
4.74629796971654e-06
4.74530891610558e-06
4.74304471623995e-06
4.73808496343526e-06
4.72770949459507e-06
4.70702353829395e-06
4.66779647202828e-06
4.59718014212998e-06
4.47670793930262e-06
4.28221246474539e-06
3.98538574291957e-06
3.55747543343459e-06
2.97500085810391e-06
2.22652060242402e-06
1.31870603831897e-06
3.91975202506281e-09
1.49456058603589e-11
1.54953421354419e-11
4.08464320965324e-09
1.376873429341e-06
2.3246609352816e-06
3.10576377600899e-06
3.71353903572947e-06
4.16001614065416e-06
4.46968381486078e-06
4.67252071769157e-06
4.79806799992577e-06
4.87156944117447e-06
4.91232546452955e-06
4.93376463601341e-06
4.94448354464941e-06
4.94958710863041e-06
4.95190574199372e-06
4.95291273820023e-06
4.95333145862876e-06
4.9534982871867e-06
4.95356192000554e-06
4.95358503769482e-06
4.95359290699223e-06
4.9535952874388e-06
4.95359579383421e-06
4.95359571745276e-06
4.95359546163521e-06
4.95359500404491e-06
4.95359391108789e-06
4.95359082412506e-06
4.95358194601222e-06
4.95355713223715e-06
4.95349034054733e-06
4.95331742809318e-06
4.95288718528974e-06
4.95185940420811e-06
4.94950587735227e-06
4.94434906479014e-06
4.93355882867724e-06
4.91204176247913e-06
4.87123227147084e-06
4.79775769411951e-06
4.67239356353875e-06
4.46996945469366e-06
4.16097329563793e-06
3.71536191241425e-06
3.10845602409334e-06
2.32792268794625e-06
1.3800541472115e-06
4.10507394023978e-09
1.56418358643432e-11
1.60737311307649e-11
4.23890199411569e-09
1.4278383559205e-06
2.40858496051666e-06
3.21592818024462e-06
3.84366262118866e-06
4.30461333020114e-06
4.62426948505029e-06
4.83365796783855e-06
4.96328666320012e-06
5.03920283606145e-06
5.08131644970567e-06
5.10348171337253e-06
5.11457062162651e-06
5.11985415280089e-06
5.12225651389558e-06
5.12330085666309e-06
5.12373559366652e-06
5.12390905208689e-06
5.1239753498693e-06
5.12399951880368e-06
5.12400780234107e-06
5.12401035161827e-06
5.12401092994387e-06
5.12401088205321e-06
5.12401063060135e-06
5.12401015645259e-06
5.12400901479074e-06
5.12400580811532e-06
5.12399662809213e-06
5.12397102853541e-06
5.12390218186857e-06
5.12372398526559e-06
5.12328055243761e-06
5.12222104066505e-06
5.11979427412651e-06
5.11447577453758e-06
5.10334500802549e-06
5.08114525007041e-06
5.03903546935118e-06
4.96321174971083e-06
4.83382658610263e-06
4.62488494877902e-06
4.30588430126257e-06
3.8457174873612e-06
3.21871130113157e-06
2.41177937377204e-06
1.43086089232496e-06
4.25852335561528e-09
1.62165567603554e-11
1.65431612840951e-11
4.36444075418742e-09
1.46934121926418e-06
2.47686457556839e-06
3.30550774621158e-06
3.94944219568083e-06
4.42214651075691e-06
4.74992201540392e-06
4.9646434291924e-06
5.09760006646845e-06
5.17548916252896e-06
5.21871452279285e-06
5.24147591141865e-06
5.25286944462854e-06
5.25830160030309e-06
5.26077334054815e-06
5.26184874617734e-06
5.26229686293553e-06
5.262475889616e-06
5.26254444215205e-06
5.26256951051567e-06
5.26257815507913e-06
5.26258085575366e-06
5.26258150141767e-06
5.2625814821313e-06
5.26258123671923e-06
5.26258074924569e-06
5.26257956608984e-06
5.26257625859048e-06
5.26256682905448e-06
5.26254058850194e-06
5.26247007638325e-06
5.26228760780824e-06
5.26183351652869e-06
5.26074835439444e-06
5.25826234271708e-06
5.25281295883506e-06
5.24140636482397e-06
5.21865336084395e-06
5.17548947638159e-06
5.09776097883487e-06
4.9651150540798e-06
4.75088792510247e-06
4.42377350423427e-06
3.95180008748583e-06
3.30848293631586e-06
2.48011106152018e-06
1.47230917832828e-06
4.38362283637923e-09
1.66835996609615e-11
1.69180100712236e-11
4.46497371634593e-09
1.50261651490465e-06
2.531578366413e-06
3.37726941709733e-06
4.03417389683218e-06
4.51629593584283e-06
4.85058502740849e-06
5.06959131799583e-06
5.20522683754933e-06
5.2847074600141e-06
5.32883179466463e-06
5.35207649092674e-06
5.36371771066692e-06
5.36927109020169e-06
5.37179961277741e-06
5.37290053812587e-06
5.37335969521234e-06
5.37354334131417e-06
5.37361377804358e-06
5.37363960626967e-06
5.37364856127833e-06
5.37365139550192e-06
5.37365210285882e-06
5.37365211141559e-06
5.37365187325503e-06
5.37365137552574e-06
5.37365015782572e-06
5.37364676686828e-06
5.37363713414835e-06
5.37361037802117e-06
5.3735385348645e-06
5.37335266054422e-06
5.37289007609013e-06
5.37178446664248e-06
5.36925119518848e-06
5.36369733023936e-06
5.35207041167552e-06
5.32887526493956e-06
5.28486865715875e-06
5.20561699747094e-06
5.07036326993199e-06
4.85190880296771e-06
4.51830462828108e-06
4.03688650142437e-06
3.3805170401704e-06
2.53497663642884e-06
1.50561949934893e-06
4.4840497824082e-09
1.70572916410803e-11
1.72125094140097e-11
4.54419527377277e-09
1.52888145215495e-06
2.57475594405233e-06
3.4338977742779e-06
4.10104237046956e-06
4.59060787730303e-06
4.93005239459793e-06
5.15245594757109e-06
5.29021965774045e-06
5.37096748987319e-06
5.41580939660542e-06
5.43944092972033e-06
5.45128098522593e-06
5.45693199289056e-06
5.45950640534316e-06
5.46062803474787e-06
5.46109618845508e-06
5.4612836191933e-06
5.46135561079231e-06
5.46138207279855e-06
5.46139129112732e-06
5.46139424134966e-06
5.46139500424282e-06
5.46139503922952e-06
5.46139480912022e-06
5.46139430398655e-06
5.46139305829265e-06
5.46138959959467e-06
5.46137980411333e-06
5.46135263957474e-06
5.46127974840828e-06
5.46109119881346e-06
5.460621945452e-06
5.45950027331802e-06
5.45692984859764e-06
5.45129378231891e-06
5.43949340259338e-06
5.41594996465211e-06
5.37127924135525e-06
5.29082690642567e-06
5.15351715727998e-06
4.9317294806712e-06
4.59300779007029e-06
4.10414097453019e-06
3.43747457030239e-06
2.57838179121122e-06
1.53199072009711e-06
4.56344124472152e-09
1.7351709014021e-11
1.74401141884348e-11
4.60561364084545e-09
1.54928606658083e-06
2.60830235061137e-06
3.47790185424459e-06
4.15301573554031e-06
4.64838173011255e-06
4.99185023706822e-06
5.21691048434491e-06
5.35634202961891e-06
5.43808532691538e-06
5.4834924038804e-06
5.50742948304155e-06
5.51942707374183e-06
5.52515568763183e-06
5.52776670978696e-06
5.52890492160461e-06
5.52938031334949e-06
5.52957080552445e-06
5.52964406397645e-06
5.529671047837e-06
5.52968048654824e-06
5.52968353611128e-06
5.52968434822097e-06
5.52968440778236e-06
5.52968418616563e-06
5.52968367622104e-06
5.52968240857668e-06
5.52967889613515e-06
5.52966897268519e-06
5.52964149009227e-06
5.52956778719001e-06
5.529377169654e-06
5.52890276224457e-06
5.5277686682161e-06
5.52516948557068e-06
5.51946973474006e-06
5.50753485950107e-06
5.48372119019026e-06
5.43853493118187e-06
5.3571501975166e-06
5.21824341295107e-06
4.99386617739349e-06
4.65116812582941e-06
4.15651254325135e-06
3.48184134961242e-06
2.61220707270462e-06
1.5525533048196e-06
4.62523975305729e-09
1.75800969599152e-11
1.76130502508858e-11
4.65242998258917e-09
1.56487702663983e-06
2.63394374197572e-06
3.5115485997408e-06
4.19277084358901e-06
4.69258983537055e-06
5.03915318692537e-06
5.26626093384887e-06
5.40698084346621e-06
5.48949507206378e-06
5.53534105485502e-06
5.55951612929991e-06
5.5716368224748e-06
5.57742628996177e-06
5.58006612615583e-06
5.58121744267696e-06
5.58169858094203e-06
5.58189151722767e-06
5.58196579449328e-06
5.58199320250427e-06
5.58200282326814e-06
5.5820059567625e-06
5.58200681194881e-06
5.58200689405369e-06
5.5820066810093e-06
5.5820061685564e-06
5.58200488440499e-06
5.58200133047855e-06
5.58199130861881e-06
5.58196358322952e-06
5.58188926340524e-06
5.58169707648997e-06
5.58121875655929e-06
5.58007522332547e-06
5.57745416121566e-06
5.57170590054561e-06
5.55966846953062e-06
5.5356485619295e-06
5.49006857405359e-06
5.40797135539626e-06
5.26784370899818e-06
5.04148624990066e-06
4.69574668191946e-06
4.19666202357806e-06
3.51586390859832e-06
2.63815633115161e-06
1.56833554172823e-06
4.67258218918355e-09
1.7754460013213e-11
1.77420311381435e-11
4.68746076294613e-09
1.57657440376109e-06
2.65319307587791e-06
3.53682129435118e-06
4.22264694712446e-06
4.725828003848e-06
5.07473283923378e-06
5.30339323986476e-06
5.44509261308527e-06
5.52819455345741e-06
5.57437613319468e-06
5.5987337699864e-06
5.61094921881514e-06
5.61678569999728e-06
5.61944788533899e-06
5.62060941025531e-06
5.62109504678898e-06
5.62128990743401e-06
5.62136499298692e-06
5.6213927412169e-06
5.62140251045482e-06
5.62140571391324e-06
5.62140660666035e-06
5.62140670946471e-06
5.62140650452313e-06
5.62140599155075e-06
5.62140469568934e-06
5.6214011108473e-06
5.62139101540342e-06
5.62136310928703e-06
5.62128833162515e-06
5.62109498052323e-06
5.62061375497083e-06
5.61946319942078e-06
5.61682582952132e-06
5.611041348776e-06
5.5989272261735e-06
5.57475289222091e-06
5.52887777401491e-06
5.44624603119928e-06
5.3052018297687e-06
5.07735689340261e-06
4.72933153604442e-06
4.22691673984243e-06
3.5415094605652e-06
2.65772424866475e-06
1.58024196791819e-06
4.70822905547041e-09
1.78853103166302e-11
1.78361182566102e-11
4.71309725709505e-09
1.58515959720539e-06
2.66733293755636e-06
3.5553993625072e-06
4.24462365607068e-06
4.75029229666884e-06
5.10093374650443e-06
5.33074873783584e-06
5.4731785565705e-06
5.55672015681808e-06
5.6031536365653e-06
5.62764879908415e-06
5.63993590285163e-06
5.64580808203162e-06
5.64848731185404e-06
5.64965665928844e-06
5.65014576121078e-06
5.65034211380692e-06
5.65041783125008e-06
5.65044584864319e-06
5.65045573745787e-06
5.65045899852096e-06
5.65045992328131e-06
5.65046004438822e-06
5.6504598481778e-06
5.65045933639274e-06
5.65045803295254e-06
5.6504544261695e-06
5.65044427781627e-06
5.65041624187439e-06
5.65034113564738e-06
5.65014694798626e-06
5.64966362875806e-06
5.6485079967564e-06
5.64585880022617e-06
5.64004797596258e-06
5.6278779332302e-06
5.60359075661353e-06
5.55749959311317e-06
5.47447597909715e-06
5.33275900682718e-06
5.10382111357496e-06
4.75411474294197e-06
4.24924891900285e-06
3.56044644381678e-06
2.672180127766e-06
1.58904221526722e-06
4.73452810559254e-09
1.79815480869319e-11
1.79026908382762e-11
4.73129384450836e-09
1.59127191965286e-06
2.67741161150241e-06
3.56865464537445e-06
4.26031760521082e-06
4.76777602898664e-06
5.11967063027962e-06
5.35032145704518e-06
5.49328191191003e-06
5.57714411690292e-06
5.62376203310789e-06
5.64835832803288e-06
5.66069836916825e-06
5.66659705132188e-06
5.66928900177408e-06
5.67046422042679e-06
5.67095593979224e-06
5.67115342777022e-06
5.67122963081488e-06
5.67125785797773e-06
5.67126784194033e-06
5.67127115010399e-06
5.67127210187945e-06
5.6712722394977e-06
5.67127205203796e-06
5.67127154283982e-06
5.67127023529877e-06
5.67126661410427e-06
5.671256429999e-06
5.67122830604467e-06
5.67115297664517e-06
5.67095821818414e-06
5.67047346161464e-06
5.66931432202566e-06
5.66665690432642e-06
5.66082766911446e-06
5.64861836360171e-06
5.62425164558781e-06
5.5780076904074e-06
5.49470617061563e-06
5.35251098426845e-06
5.1227946989415e-06
4.77188914809814e-06
4.26527227526815e-06
3.57404086371205e-06
2.68256417579555e-06
1.59536787985699e-06
4.75340427158987e-09
1.80504415284091e-11
1.79474893221438e-11
4.74357589965356e-09
1.59541110158836e-06
2.68424813193587e-06
3.57765878406008e-06
4.27099169307607e-06
4.77968033504984e-06
5.13243980814416e-06
5.36367005772098e-06
5.50700014723625e-06
5.59108685847275e-06
5.63783465556864e-06
5.66250259649676e-06
5.67488037957518e-06
5.68079808434769e-06
5.68349923009774e-06
5.68467872524906e-06
5.68517236726384e-06
5.68537069759355e-06
5.68544726559515e-06
5.68547565331977e-06
5.68548571206414e-06
5.68548905858922e-06
5.68549003325799e-06
5.68549018562549e-06
5.68549000671441e-06
5.6854895011854e-06
5.68548819239437e-06
5.68548456304682e-06
5.6854743574977e-06
5.68544618031574e-06
5.68537071504961e-06
5.68517560492542e-06
5.68468994985818e-06
5.68352858562419e-06
5.68086588472356e-06
5.67502468214836e-06
5.66278960643339e-06
5.63837025362605e-06
5.59202450027775e-06
5.50853677027252e-06
5.36601964008476e-06
5.13577725391488e-06
4.78405849879367e-06
4.27625076900269e-06
3.58336321791366e-06
2.68969217907269e-06
1.59971480447978e-06
4.76636718285529e-09
1.80976716035446e-11
1.79746974634616e-11
4.75105840259325e-09
1.5979430374443e-06
2.68844214072796e-06
3.58319645142962e-06
4.27757086318967e-06
4.78703173758889e-06
5.14033793125332e-06
5.37193727872615e-06
5.51550480920258e-06
5.59973705483788e-06
5.64656985982912e-06
5.67128517435875e-06
5.68368818177478e-06
5.68961874270935e-06
5.69232617562912e-06
5.69350863087199e-06
5.69400362163833e-06
5.69420255216174e-06
5.6942793854051e-06
5.69430789303436e-06
5.69431800974545e-06
5.69432138744018e-06
5.6943223816323e-06
5.69432254719296e-06
5.69432237651387e-06
5.69432187544025e-06
5.69432056767194e-06
5.69431693536717e-06
5.69430672051391e-06
5.69427851989142e-06
5.69420299357347e-06
5.69400771892171e-06
5.69352162316796e-06
5.69235911836131e-06
5.68969360368058e-06
5.68384582311391e-06
5.67159621202335e-06
5.64714653942583e-06
5.60074113068145e-06
5.51714273855358e-06
5.37443207720204e-06
5.14387044834927e-06
4.79165438631902e-06
4.28311363608012e-06
3.58920090213017e-06
2.69416456378102e-06
1.60244823441076e-06
4.77452790795018e-09
1.81274088993315e-11
1.7987033360667e-11
4.7544675883648e-09
1.5991064343411e-06
2.69038489468804e-06
3.58577973664522e-06
4.28065898216737e-06
4.79050078670824e-06
5.14408179086435e-06
5.37587046922705e-06
5.51956247637501e-06
5.6038728159448e-06
5.650752333457e-06
5.67549433010564e-06
5.68791190662762e-06
5.69385008459926e-06
5.69656134014161e-06
5.69774564397529e-06
5.69824150182374e-06
5.69844083147096e-06
5.69851784883903e-06
5.6985464445844e-06
5.69855660703375e-06
5.69856001126907e-06
5.69856102309551e-06
5.69856120093142e-06
5.69856103817367e-06
5.69856054175984e-06
5.69855923607946e-06
5.69855560408043e-06
5.69854538909172e-06
5.69851718988195e-06
5.69844166785653e-06
5.69824639494802e-06
5.69776026670928e-06
5.69659758554909e-06
5.69393144286081e-06
5.68808182802295e-06
5.67582751545136e-06
5.651366953881e-06
5.60493841348629e-06
5.52129456474389e-06
5.37850081455638e-06
5.14779733047621e-06
4.79535421173745e-06
4.28647140305673e-06
3.5920715645594e-06
2.6963763253809e-06
1.60380862709218e-06
4.77861767943989e-09
1.81423946095914e-11
1.79858222143098e-11
4.75415841926324e-09
1.59901831298593e-06
2.69026845176803e-06
3.58566026507521e-06
4.28055307727837e-06
4.7904176944605e-06
5.14402481610965e-06
5.37583858801237e-06
5.51955202671602e-06
5.60387903143152e-06
5.65077049213333e-06
5.67552045056221e-06
5.68794299286971e-06
5.69388408675239e-06
5.69659696494636e-06
5.69778213161192e-06
5.69827843312886e-06
5.69847798753885e-06
5.69855512033813e-06
5.69858377846237e-06
5.69859397758571e-06
5.69859740544872e-06
5.69859843389869e-06
5.6985986235373e-06
5.69859846846696e-06
5.69859797647798e-06
5.69859667310239e-06
5.69859304343507e-06
5.69858283584054e-06
5.69855466073116e-06
5.69847920510308e-06
5.69828409400224e-06
5.69779832663103e-06
5.69663639449602e-06
5.69397170892596e-06
5.68812475544837e-06
5.67587500100321e-06
5.65142173682214e-06
5.60500406483872e-06
5.52137517295471e-06
5.37860024908944e-06
5.1479180604269e-06
4.79549579558219e-06
4.28662886957295e-06
3.59223388720105e-06
2.69652503412837e-06
1.60391634793519e-06
4.7790028979071e-09
1.81440041120417e-11
1.7971046634334e-11
4.75012720816471e-09
1.59767772015069e-06
2.68809127980682e-06
3.58283617117046e-06
4.27725127598004e-06
4.7867809210398e-06
5.14016607417693e-06
5.37184145485976e-06
5.51547404079816e-06
5.5997569437946e-06
5.64662610712288e-06
5.67136567718494e-06
5.68378382315216e-06
5.68972327756271e-06
5.69243566052633e-06
5.69362074754496e-06
5.69411709072241e-06
5.69431670544696e-06
5.69439388922945e-06
5.69442258562247e-06
5.6944328128482e-06
5.69443626142674e-06
5.69443730536734e-06
5.69443750626338e-06
5.69443735852851e-06
5.69443687068826e-06
5.69443556992633e-06
5.69443194496021e-06
5.69442175317268e-06
5.69439362693312e-06
5.69431830453132e-06
5.69412352563346e-06
5.69363853411931e-06
5.69247831946961e-06
5.68981725717324e-06
5.68397760369762e-06
5.6717419021429e-06
5.64731447885125e-06
5.60094217054855e-06
5.51738926514367e-06
5.37473575014324e-06
5.14423859587434e-06
4.79208542888064e-06
4.2835922252305e-06
3.58969339668606e-06
2.69461495468871e-06
1.6027738799218e-06
4.77569122972322e-09
1.81322677413402e-11
1.79413628405717e-11
4.74201524799179e-09
1.59496642421966e-06
2.68365891281938e-06
3.5770525786608e-06
4.27045311043181e-06
4.77925734704361e-06
5.13215034343475e-06
5.36350975220715e-06
5.50695075665371e-06
5.5911240911955e-06
5.63793420943011e-06
5.66264380375735e-06
5.67504762140077e-06
5.68098063659779e-06
5.68369030928624e-06
5.68487433854463e-06
5.68537030935748e-06
5.68556981615479e-06
5.68564698522842e-06
5.68567569521575e-06
5.68568594157896e-06
5.68568940763403e-06
5.68569046570622e-06
5.68569067712905e-06
5.68569053627034e-06
5.68569005238899e-06
5.68568875488921e-06
5.68568513780543e-06
5.6856749720874e-06
5.68564692378772e-06
5.6855718115607e-06
5.68537755891319e-06
5.68489381228259e-06
5.68373640324416e-06
5.68108138572495e-06
5.67525419426235e-06
5.66304306850939e-06
5.63866196256625e-06
5.59237298722661e-06
5.50896306211535e-06
5.3665433155823e-06
5.13641023817103e-06
4.78479729322837e-06
4.27706835173728e-06
3.58420170208314e-06
2.69045636821062e-06
1.60026550121076e-06
4.76833153234715e-09
1.81058805595874e-11
1.78940567453855e-11
4.72909834707512e-09
1.59064616095656e-06
2.67657969225897e-06
3.56779594330168e-06