/*--------------------------------*- C++ -*----------------------------------*\
  =========                 |
  \\      /  F ield         | OpenFOAM: The Open Source CFD Toolbox
   \\    /   O peration     | Website:  https://openfoam.org
    \\  /    A nd           | Version:  10
     \\/     M anipulation  |
\*---------------------------------------------------------------------------*/
FoamFile
{
    format      ascii;
    class       volScalarField;
    location    "7";
    object      omega;
}
// * * * * * * * * * * * * * * * * * * * * * * * * * * * * * * * * * * * * * //

dimensions      [0 0 -1 0 0 0 0];

internalField   nonuniform List<scalar> 
2500
(
127952.182510776
127962.370997939
127959.176078254
127956.79445073
127955.310533007
127954.443464008
127953.953957964
127953.685437982
127953.543161003
127953.471192106
127953.4356537
127953.418980856
127953.411464833
127953.407925345
127953.406217962
127953.405210164
127953.404762944
127953.404369203
127953.40397997
127953.403723951
127953.403510755
127953.403331309
127953.40318569
127953.403099294
127953.403007931
127953.402934442
127953.402912309
127953.402910145
127953.402936034
127953.402993154
127953.403086703
127953.403261817
127953.403465906
127953.403758427
127953.404219249
127953.405057933
127953.406761591
127953.410329423
127953.418482448
127953.43579542
127953.472035725
127953.545324864
127953.688047178
127953.955651375
127954.442935396
127955.304461584
127956.786103273
127959.180332007
127962.397486096
127952.148179786
31887.4291162795
14170.9349457287
14169.3910292641
14168.2676500347
14167.5543856941
14167.1262233606
14166.8770808542
14166.7363406431
14166.6596024317
14166.6194407533
14166.5992869489
14166.5896144972
14166.5851710509
14166.5832013928
14166.5823546854
14166.5819935195
14166.5818453148
14166.5817754743
14166.5817343501
14166.5817096064
14166.5816912444
14166.5816759357
14166.5816634459
14166.581654921
14166.5816473253
14166.5816411039
14166.5816380383
14166.5816365517
14166.5816367276
14166.5816395765
14166.5816466958
14166.5816631315
14166.5816969158
14166.5817694332
14166.5819332453
14166.5823214436
14166.583237693
14166.5853432955
14166.590037882
14166.6000727721
14166.6206904234
14166.6613450748
14166.7383190183
14166.878646095
14167.1263758741
14167.5524158325
14168.2655960798
14169.3963614041
14170.9539164392
31887.3871697945
31793.3617169108
3532.04343603447
50.853475109358
50.8478886820058
50.8443779033006
50.842280063489
50.8410619451914
50.8403740458877
50.8399984872011
50.8398013762261
50.8397021852391
50.8396544115296
50.8396323889553
50.8396226415523
50.8396184863515
50.8396167666357
50.8396160799605
50.8396157954284
50.8396156614238
50.8396155913823
50.8396155444984
50.839615505856
50.8396154737419
50.8396154510183
50.8396154322896
50.8396154167159
50.8396154074475
50.8396154011274
50.8396153971504
50.8396153995306
50.8396154156836
50.8396154658149
50.8396155994947
50.8396159200095
50.8396166870868
50.8396185615276
50.8396230470453
50.8396334148647
50.8396565022968
50.8397058349131
50.8398070215067
50.8400061747892
50.840382712129
50.8410688633197
50.8422812075606
50.8443719179861
50.8478892259319
50.853525861862
3532.05378465166
31793.3875886046
31708.8208663046
3522.53199092126
50.7160951990821
50.7104478739222
50.706998000356
50.7049880515344
50.7038473030012
50.7032156113056
50.7028763179891
50.7027006076164
50.7026131797358
50.7025714696654
50.7025524008605
50.7025440330731
50.7025405019973
50.7025390644831
50.7025385019829
50.7025382815243
50.7025381883467
50.702538144342
50.7025381166553
50.7025380930887
50.7025380724609
50.7025380575785
50.7025380461061
50.7025380363992
50.7025380297646
50.7025380240313
50.7025380186383
50.7025380161384
50.7025380204652
50.7025380491943
50.7025381507015
50.7025384063184
50.7025390285314
50.7025405791793
50.7025443459065
50.7025531593557
50.7025729956716
50.7026158625765
50.7027048309886
50.7028822172724
50.7032225615948
50.7038534708149
50.7049908938659
50.7069986621606
50.7104645229292
50.716181219197
3522.54776401272
31708.967447715
31640.6802066206
3514.97532030356
50.6082537826639
50.6034567300554
50.6006133850114
50.599001108376
50.5981078409834
50.597623036472
50.5973667657577
50.5972356822808
50.5971710821731
50.5971404900514
50.5971265858614
50.5971205172447
50.5971179722943
50.5971169471001
50.5971165526832
50.5971164046768
50.5971163477102
50.5971163240665
50.5971163105525
50.5971162983002
50.5971162864912
50.5971162778461
50.597116271709
50.5971162663951
50.5971162622299
50.5971162578182
50.5971162526812
50.5971162488244
50.5971162466917
50.5971162573629
50.5971163231648
50.5971164989505
50.5971169290341
50.5971180176182
50.5971206919667
50.5971270065878
50.5971413387998
50.5971725916975
50.5972381050191
50.5973702420278
50.5976272970556
50.5981119494736
50.5990040379948
50.6006181289334
50.6034828156468
50.6083566632434
3514.99393800328
31640.9262401609
31590.7428545948
3509.53235635432
50.5315391822407
50.5279578804011
50.5258978005309
50.5247607752399
50.5241456551038
50.5238182612582
50.5236477668764
50.5235615079952
50.5235193290101
50.5234994627397
50.5234904675474
50.5234865536206
50.5234849184537
50.5234842647062
50.5234840170504
50.5234839278504
50.5234838967077
50.5234838859925
50.5234838811663
50.5234838762382
50.5234838703476
50.5234838659498
50.5234838632344
50.5234838607589
50.5234838584306
50.5234838554256
50.5234838513632
50.5234838474375
50.523483843825
50.5234838446942
50.5234838815168
50.5234839895689
50.5234842553513
50.5234849378319
50.5234866292979
50.5234906497351
50.5234998322775
50.5235199936101
50.5235625950671
50.5236493655892
50.523820272801
50.5241476794373
50.5247626578181
50.5259030351762
50.5279841716676
50.5316369811014
3509.55049562321
31591.0294186543
31557.1230240466
3505.93806012883
50.4815207345756
50.4791123797268
50.4777665546273
50.4770429649849
50.4766604653755
50.4764606625225
50.4763580530554
50.4763066390546
50.4762816565678
50.4762699345257
50.4762646382713
50.4762623370723
50.4762613777393
50.4762609963853
50.4762608539738
50.4762608049173
50.4762607895013
50.4762607853203
50.476260784908
50.4762607842107
50.4762607818428
50.4762607799782
50.4762607791796
50.476260778278
50.4762607771122
50.4762607752624
50.4762607724356
50.4762607691998
50.4762607655076
50.4762607629545
50.476260781558
50.4762608416103
50.4762609920127
50.476261383766
50.47626236133
50.4762646956319
50.4762700506814
50.4762818668739
50.4763069894557
50.4763585774454
50.4764613107747
50.4766610598274
50.4770436288305
50.4777702441892
50.4791330100289
50.4815991290493
3505.95324501826
31557.3924607536
31536.1565232438
3503.74252672363
50.4513571463466
50.4498746423362
50.4490687765908
50.4486462660209
50.4484278537684
50.4483158006513
50.4482590037667
50.4482307891645
50.4482171489783
50.4482107648935
50.4482078828984
50.4482066309305
50.4482061095531
50.448205903243
50.4482058272489
50.4482058022324
50.4482057960477
50.4482057956164
50.4482057958999
50.4482057961931
50.4482057957057
50.4482057951417
50.4482057952787
50.448205795131
50.448205794621
50.4482057935753
50.4482057917889
50.4482057894843
50.4482057865616
50.4482057837147
50.4482057919543
50.4482058225166
50.4482059017298
50.4482061107684
50.4482066350525
50.4482078906032
50.4482107789554
50.4482171732939
50.4482308303523
50.4482590612638
50.4483158285197
50.4484277377111
50.4486461050428
50.4490705893288
50.4498881007944
50.4514119814563
3503.75374699919
31536.3739466548
31523.9594398081
3502.49270339325
50.4344053660032
50.4335601982437
50.4331126651505
50.432883599453
50.4327677072743
50.4327092754608
50.4326800235572
50.4326656051451
50.4326586632429
50.4326554189709
50.4326539541723
50.4326533173982
50.4326530522956
50.4326529478042
50.4326529098722
50.4326528983202
50.4326528963525
50.4326528967941
50.4326528973962
50.4326528979171
50.4326528980126
50.4326528980562
50.4326528983236
50.4326528983601
50.4326528981579
50.4326528976133
50.4326528965673
50.4326528950982
50.4326528931402
50.4326528910643
50.4326528941273
50.4326529084754
50.4326529477407
50.4326530525087
50.4326533162397
50.4326539487272
50.4326554056866
50.4326586369367
50.4326655594446
50.4326799446838
50.4327091179311
50.4327673728585
50.4328830935324
50.4331131443689
50.433567699554
50.4344395831551
3502.50016343591
31524.115074052
31517.3005147275
3501.82542725214
50.4254699299564
50.4250196353758
50.4247870348401
50.424670677114
50.4246130160104
50.4245844300835
50.4245702891611
50.4245633688042
50.4245600480458
50.4245584971065
50.424557796193
50.4245574910743
50.4245573640225
50.4245573141304
50.4245572963205
50.4245572914486
50.4245572910518
50.4245572915266
50.4245572920708
50.4245572925114
50.4245572927397
50.4245572929252
50.4245572931482
50.4245572932352
50.4245572931675
50.4245572928776
50.4245572923031
50.4245572914464
50.4245572902812
50.4245572890639
50.4245572899456
50.4245572961835
50.424557314616
50.4245573643089
50.4245574897379
50.4245577906142
50.424558483716
50.424560021525
50.4245633216778
50.42457020695
50.4245842741829
50.4246127028414
50.4246701504126
50.4247868553267
50.4250232269538
50.4254892695989
3501.82995484093
31517.4014151637
31513.8708383467
3501.48945396759
50.4210278877143
50.4208020305693
50.4206880639943
50.4206322828128
50.420605187728
50.420591974142
50.4205855128095
50.4205823718489
50.4205808687823
50.4205801667796
50.4205798490296
50.4205797104506
50.4205796527175
50.4205796301333
50.4205796222503
50.420579620323
50.4205796203569
50.420579620729
50.4205796211089
50.4205796214087
50.4205796216006
50.4205796217622
50.4205796219093
50.420579621984
50.4205796219617
50.4205796218109
50.4205796215137
50.4205796210499
50.420579620414
50.4205796197784
50.4205796199319
50.4205796224737
50.4205796306868
50.4205796531255
50.4205797098822
50.4205798459285
50.4205801589693
50.4205808529452
50.4205823428733
50.4205854601059
50.4205918697341
50.4206049683637
50.4206318760508
50.4206876941692
50.4208034782961
50.4210378962094
3501.49199040184
31513.9309508317
31512.1966693447
3501.32915797518
50.41893530719
50.4188280104958
50.4187750521354
50.4187496640724
50.4187375676912
50.4187317626443
50.4187289559772
50.4187276002718
50.4187269529996
50.4187266505349
50.4187265133501
50.4187264533881
50.4187264283905
50.4187264186511
50.4187264153439
50.418726414631
50.4187264147325
50.4187264149697
50.4187264151982
50.4187264153769
50.4187264155012
50.4187264156063
50.4187264156911
50.4187264157386
50.4187264157306
50.4187264156554
50.4187264155096
50.4187264152741
50.4187264149501
50.4187264146263
50.4187264146065
50.4187264156
50.4187264190837
50.4187264287781
50.4187264533406
50.418726512129
50.4187266471059
50.4187269457446
50.4187275864318
50.4187289291329
50.4187317049872
50.4187374368529
50.4187493984633
50.4187747179912
50.4188284626753
50.4189400859924
3501.33048132973
31512.2299356525
31511.4190425409
3501.2563905401
50.4179973879214
50.4179488620733
50.4179254046869
50.4179143790485
50.4179092225543
50.4179067865967
50.4179056218975
50.4179050627558
50.4179047963157
50.4179046716954
50.4179046150372
50.4179045902119
50.4179045798548
50.4179045758363
50.4179045745116
50.4179045742669
50.4179045743468
50.4179045744795
50.4179045746033
50.4179045747
50.4179045747702
50.4179045748291
50.4179045748735
50.4179045748992
50.4179045748961
50.4179045748606
50.417904574792
50.4179045746791
50.4179045745237
50.4179045743667
50.417904574329
50.4179045747003
50.4179045761173
50.417904580142
50.4179045903527
50.4179046147407
50.4179046705626
50.4179047937004
50.4179050573942
50.4179056103624
50.417906758681
50.4179091527363
50.4179142247387
50.4179251719123
50.4179489314529
50.4179995037068
3501.25703824469
31511.4362875933
31511.0742150496
3501.22485612963
50.4175961369901
50.4175751530689
50.4175652061483
50.4175606175972
50.4175585096752
50.4175575291066
50.4175570654063
50.4175568441246
50.4175567388582
50.4175566895622
50.4175566670901
50.4175566572183
50.4175566530969
50.4175566515051
50.4175566509982
50.4175566509214
50.4175566509675
50.417556651035
50.4175566510969
50.4175566511453
50.4175566511814
50.4175566512114
50.417556651233
50.4175566512456
50.4175566512445
50.4175566512285
50.4175566511975
50.4175566511461
50.4175566510756
50.4175566510034
50.4175566509775
50.4175566511106
50.4175566516668
50.4175566532781
50.4175566573704
50.4175566671203
50.417556689352
50.4175567382033
50.4175568425229
50.4175570611966
50.4175575169224
50.4175584754629
50.4175605356562
50.4175650664499
50.4175751131491
50.4175970077372
3501.22515531534
31511.0826462206
31510.9278988692
3501.21178314875
50.4174319934445
50.4174232847328
50.417419231732
50.4174173949655
50.4174165655501
50.4174161854866
50.4174160077077
50.4174159233683
50.4174158833078
50.4174158645207
50.4174158559323
50.4174158521498
50.4174158505698
50.4174158499628
50.4174158497762
50.4174158497547
50.4174158497787
50.4174158498108
50.4174158498398
50.4174158498626
50.41741584988
50.4174158498942
50.4174158499041
50.4174158499099
50.4174158499096
50.4174158499027
50.4174158498894
50.4174158498671
50.4174158498366
50.417415849805
50.4174158497913
50.4174158498373
50.4174158500484
50.4174158506721
50.4174158522579
50.4174158560263
50.4174158645815
50.4174158832943
50.4174159231087
50.417416006457
50.4174161806204
50.4174165498989
50.4174173545181
50.4174191562109
50.4174232347283
50.4174323263734
3501.21191423789
31510.9318082426
31510.8684720501
3501.2066011485
50.4173678626827
50.4173643826611
50.4173627906653
50.417362081196
50.4173617660492
50.4173616237427
50.4173615578918
50.4173615268339
50.4173615121028
50.4173615051841
50.4173615020124
50.4173615006123
50.4173615000275
50.4173614998044
50.4173614997389
50.4173614997341
50.4173614997453
50.4173614997598
50.4173614997729
50.4173614997831
50.4173614997911
50.4173614997975
50.4173614998019
50.4173614998045
50.4173614998045
50.4173614998018
50.4173614997963
50.417361499787
50.4173614997745
50.4173614997613
50.4173614997547
50.4173614997699
50.4173614998476
50.4173615000813
50.4173615006768
50.4173615020881
50.4173615052777
50.4173615122194
50.4173615269249
50.417361557644
50.4173616219496
50.4173617592857
50.4173620624188
50.4173627530075
50.4173643476847
50.41736798038
3501.20665586571
31510.8701993624
31510.8454760566
3501.20465132899
50.4173441576278
50.4173428148854
50.4173422103827
50.4173419452125
50.417341829256
50.4173417776366
50.4173417540044
50.417341742924
50.4173417376766
50.4173417352089
50.417341734075
50.4173417335737
50.4173417333648
50.4173417332859
50.4173417332641
50.4173417332638
50.4173417332691
50.4173417332755
50.4173417332812
50.4173417332858
50.4173417332893
50.4173417332922
50.4173417332942
50.4173417332954
50.4173417332956
50.4173417332946
50.4173417332924
50.4173417332888
50.4173417332838
50.4173417332785
50.4173417332754
50.4173417332802
50.4173417333078
50.4173417333924
50.417341733609
50.4173417341218
50.4173417352758
50.4173417377748
50.4173417430443
50.4173417540217
50.4173417770251
50.4173418264707
50.4173419369439
50.4173421928066
50.4173427950227
50.4173441956286
3501.20467316728
31510.8462062391
31510.8371599124
3501.20397442296
50.4173361620746
50.4173356605984
50.4173354381657
50.4173353420331
50.4173353006182
50.4173352824359
50.4173352742005
50.4173352703631
50.4173352685495
50.4173352676963
50.4173352673039
50.4173352671308
50.4173352670592
50.4173352670328
50.4173352670262
50.417335267027
50.4173352670296
50.4173352670326
50.4173352670351
50.4173352670373
50.4173352670389
50.4173352670403
50.4173352670413
50.4173352670419
50.4173352670421
50.4173352670418
50.417335267041
50.4173352670397
50.4173352670378
50.4173352670356
50.4173352670342
50.4173352670354
50.4173352670446
50.417335267074
50.4173352671499
50.4173352673303
50.4173352677354
50.4173352686091
50.4173352704436
50.4173352742543
50.4173352822441
50.4173352995183
50.4173353385574
50.4173354304108
50.4173356506027
50.4173361729627
3501.20398278364
31510.8374562652
31510.8345451794
3501.20378091585
50.417334052399
50.4173338707307
50.4173337912523
50.4173337573797
50.417333742994
50.4173337367642
50.4173337339737
50.4173337326828
50.4173337320751
50.4173337317899
50.4173337316593
50.4173337316023
50.4173337315793
50.4173337315715
50.4173337315702
50.4173337315711
50.4173337315726
50.4173337315742
50.4173337315755
50.4173337315766
50.4173337315775
50.4173337315782
50.4173337315788
50.4173337315791
50.4173337315794
50.4173337315794
50.4173337315792
50.4173337315787
50.417333731578
50.4173337315771
50.4173337315763
50.4173337315763
50.417333731579
50.4173337315883
50.4173337316135
50.4173337316743
50.4173337318114
50.4173337321074
50.4173337327274
50.417333734013
50.4173337367108
50.4173337425764
50.4173337559792
50.4173337879954
50.4173338661105
50.417334054963
3501.20378399487
31510.8346610099
31510.8340702164
3501.20376488336
50.4173340743241
50.4173340103698
50.417333982745
50.4173339711269
50.4173339662612
50.4173339641838
50.4173339632651
50.4173339628447
50.4173339626485
50.4173339625576
50.4173339625167
50.4173339624997
50.4173339624935
50.417333962492
50.4173339624924
50.4173339624934
50.4173339624945
50.4173339624955
50.4173339624963
50.417333962497
50.4173339624976
50.417333962498
50.4173339624985
50.4173339624988
50.417333962499
50.4173339624991
50.4173339624991
50.417333962499
50.4173339624987
50.4173339624982
50.4173339624977
50.4173339624974
50.4173339624977
50.4173339625
50.4173339625073
50.4173339625262
50.4173339625701
50.417333962666
50.4173339628682
50.4173339632884
50.4173339641731
50.4173339661096
50.4173339705852
50.4173339814373
50.4173340083723
50.4173340746821
3501.20376597701
31510.8341139355
31510.8343730603
3501.20381198863
50.4173348441284
50.417334822218
50.4173348128663
50.4173348089842
50.417334807382
50.4173348067093
50.4173348064174
50.4173348062866
50.4173348062272
50.4173348062009
50.41733480619
50.4173348061863
50.4173348061857
50.4173348061863
50.4173348061873
50.4173348061883
50.4173348061891
50.4173348061899
50.4173348061905
50.4173348061911
50.4173348061916
50.4173348061919
50.4173348061923
50.4173348061926
50.4173348061928
50.4173348061929
50.417334806193
50.417334806193
50.4173348061928
50.4173348061926
50.4173348061922
50.4173348061916
50.4173348061912
50.4173348061911
50.4173348061924
50.417334806197
50.4173348062093
50.4173348062378
50.4173348062999
50.4173348064311
50.417334806711
50.417334807331
50.4173348087841
50.4173348123638
50.4173348214025
50.417334844048
3501.20381236422
31510.8343890331
31510.8349503082
3501.20388090412
50.4173358686594
50.4173358613485
50.4173358582644
50.4173358570018
50.4173358564901
50.4173358562808
50.4173358561933
50.4173358561563
50.417335856141
50.4173358561356
50.4173358561343
50.4173358561349
50.417335856136
50.4173358561373
50.4173358561385
50.4173358561394
50.4173358561402
50.4173358561409
50.4173358561414
50.417335856142
50.4173358561424
50.4173358561427
50.4173358561431
50.4173358561433
50.4173358561435
50.4173358561437
50.4173358561438
50.4173358561438
50.4173358561437
50.4173358561435
50.4173358561432
50.4173358561426
50.4173358561419
50.4173358561411
50.4173358561403
50.4173358561403
50.4173358561422
50.4173358561487
50.4173358561651
50.4173358562024
50.4173358562858
50.4173358564761
50.4173358569328
50.4173358580808
50.4173358610336
50.4173358685624
3501.2038810293
31510.8349559726
31510.8356216862
3501.20395714878
50.4173369775702
50.417336975196
50.4173369742072
50.4173369738096
50.4173369736533
50.4173369735929
50.4173369735702
50.4173369735626
50.4173369735611
50.417336973562
50.4173369735636
50.4173369735655
50.4173369735671
50.4173369735685
50.4173369735697
50.4173369735706
50.4173369735714
50.417336973572
50.4173369735726
50.417336973573
50.4173369735734
50.4173369735738
50.4173369735741
50.4173369735743
50.4173369735746
50.4173369735747
50.4173369735748
50.4173369735749
50.4173369735748
50.4173369735746
50.4173369735743
50.4173369735738
50.417336973573
50.417336973572
50.4173369735707
50.4173369735692
50.4173369735679
50.4173369735675
50.4173369735696
50.4173369735774
50.4173369735987
50.4173369736526
50.4173369737894
50.4173369741452
50.4173369750824
50.4173369775178
3501.20395718949
31510.8356236397
31510.8363245141
3501.2040357934
50.4173381137112
50.4173381129647
50.4173381126591
50.4173381125403
50.4173381124966
50.4173381124825
50.4173381124795
50.4173381124806
50.417338112483
50.4173381124857
50.4173381124881
50.4173381124901
50.4173381124919
50.4173381124933
50.4173381124944
50.4173381124953
50.417338112496
50.4173381124966
50.4173381124971
50.4173381124975
50.417338112498
50.4173381124983
50.4173381124985
50.4173381124988
50.417338112499
50.4173381124992
50.4173381124993
50.4173381124994
50.4173381124994
50.4173381124992
50.4173381124989
50.4173381124984
50.4173381124977
50.4173381124967
50.4173381124952
50.4173381124935
50.4173381124914
50.417338112489
50.4173381124869
50.417338112486
50.4173381124886
50.4173381125005
50.4173381125375
50.417338112642
50.4173381129285
50.4173381136914
3501.20403580656
31510.8363251721
31510.8370375918
3501.20411520498
50.417339258426
50.4173392582032
50.417339258115
50.4173392580833
50.4173392580742
50.4173392580737
50.4173392580762
50.4173392580794
50.4173392580827
50.4173392580856
50.417339258088
50.41733925809
50.4173392580916
50.4173392580929
50.417339258094
50.4173392580948
50.4173392580955
50.4173392580961
50.4173392580966
50.417339258097
50.4173392580973
50.4173392580977
50.417339258098
50.4173392580982
50.4173392580985
50.4173392580986
50.4173392580988
50.4173392580988
50.4173392580988
50.4173392580987
50.4173392580985
50.417339258098
50.4173392580973
50.4173392580964
50.4173392580951
50.4173392580934
50.4173392580912
50.4173392580885
50.4173392580855
50.4173392580824
50.4173392580798
50.4173392580797
50.4173392580868
50.4173392581138
50.4173392581957
50.417339258423
3501.20411520941
31510.8370378112
31510.8377539327
3501.20419485609
50.4173404057786
50.4173404057199
50.4173404056989
50.4173404056934
50.4173404056941
50.4173404056971
50.4173404057006
50.4173404057041
50.4173404057072
50.4173404057099
50.4173404057121
50.417340405714
50.4173404057154
50.4173404057166
50.4173404057176
50.4173404057183
50.417340405719
50.4173404057195
50.4173404057199
50.4173404057203
50.4173404057207
50.417340405721
50.4173404057213
50.4173404057216
50.4173404057218
50.417340405722
50.4173404057221
50.4173404057222
50.4173404057222
50.4173404057222
50.4173404057219
50.4173404057216
50.417340405721
50.4173404057202
50.417340405719
50.4173404057174
50.4173404057155
50.417340405713
50.4173404057101
50.4173404057068
50.4173404057032
50.4173404057002
50.417340405699
50.4173404057033
50.4173404057228
50.4173404057828
3501.20419485783
31510.8377540044
31510.8384712896
3501.20427458039
50.417341553925
50.4173415539163
50.4173415539151
50.4173415539167
50.4173415539196
50.417341553923
50.4173415539263
50.4173415539294
50.4173415539321
50.4173415539345
50.4173415539364
50.417341553938
50.4173415539393
50.4173415539403
50.4173415539411
50.4173415539418
50.4173415539424
50.4173415539428
50.4173415539433
50.4173415539437
50.417341553944
50.4173415539442
50.4173415539446
50.4173415539448
50.4173415539451
50.4173415539453
50.4173415539455
50.4173415539456
50.4173415539456
50.4173415539456
50.4173415539455
50.4173415539451
50.4173415539447
50.417341553944
50.417341553943
50.4173415539417
50.41734155394
50.4173415539379
50.4173415539354
50.4173415539324
50.4173415539292
50.4173415539259
50.4173415539231
50.4173415539214
50.4173415539227
50.4173415539322
3501.20427458129
31510.8384713154
31510.8391889563
3501.20435432661
50.4173427023055
50.4173427023112
50.4173427023151
50.4173427023182
50.4173427023211
50.4173427023239
50.4173427023266
50.4173427023291
50.4173427023313
50.4173427023333
50.4173427023348
50.4173427023362
50.4173427023373
50.4173427023381
50.4173427023389
50.4173427023394
50.41734270234
50.4173427023404
50.4173427023407
50.4173427023411
50.4173427023414
50.4173427023417
50.417342702342
50.4173427023423
50.4173427023425
50.4173427023427
50.4173427023429
50.4173427023431
50.4173427023431
50.4173427023432
50.4173427023431
50.4173427023429
50.4173427023425
50.417342702342
50.4173427023412
50.4173427023402
50.4173427023388
50.4173427023371
50.4173427023351
50.4173427023327
50.4173427023301
50.4173427023274
50.4173427023248
50.4173427023221
50.4173427023187
50.4173427023138
3501.20435432731
31510.8391889673
31510.8399067155
3501.20443407925
50.4173438507535
50.4173438507628
50.4173438507676
50.4173438507703
50.4173438507725
50.4173438507746
50.4173438507766
50.4173438507785
50.4173438507802
50.4173438507817
50.417343850783
50.4173438507841
50.4173438507849
50.4173438507856
50.4173438507862
50.4173438507867
50.4173438507872
50.4173438507875
50.4173438507878
50.4173438507881
50.4173438507884
50.4173438507887
50.417343850789
50.4173438507893
50.4173438507895
50.4173438507897
50.41734385079
50.4173438507901
50.4173438507903
50.4173438507904
50.4173438507904
50.4173438507903
50.41734385079
50.4173438507896
50.4173438507891
50.4173438507883
50.4173438507873
50.417343850786
50.4173438507844
50.4173438507827
50.4173438507808
50.4173438507789
50.417343850777
50.4173438507748
50.4173438507708
50.4173438507622
3501.20443407989
31510.839906723
31510.8406245019
3501.20451383375
50.4173449992207
50.4173449992304
50.4173449992347
50.4173449992366
50.417344999238
50.4173449992393
50.4173449992406
50.4173449992419
50.417344999243
50.4173449992441
50.417344999245
50.4173449992458
50.4173449992464
50.417344999247
50.4173449992475
50.4173449992478
50.4173449992482
50.4173449992485
50.4173449992488
50.4173449992491
50.4173449992493
50.4173449992496
50.4173449992499
50.4173449992501
50.4173449992504
50.4173449992506
50.4173449992509
50.4173449992511
50.4173449992513
50.4173449992515
50.4173449992515
50.4173449992515
50.4173449992514
50.4173449992513
50.4173449992509
50.4173449992504
50.4173449992497
50.4173449992488
50.4173449992479
50.4173449992467
50.4173449992456
50.4173449992445
50.4173449992434
50.417344999242
50.4173449992385
50.4173449992295
3501.20451383441
31510.840624508
31510.8413422961
3501.20459358877
50.4173461476932
50.4173461477023
50.4173461477058
50.4173461477069
50.4173461477074
50.4173461477078
50.4173461477084
50.4173461477091
50.4173461477098
50.4173461477104
50.417346147711
50.4173461477115
50.4173461477119
50.4173461477123
50.4173461477126
50.4173461477129
50.4173461477132
50.4173461477134
50.4173461477136
50.4173461477139
50.4173461477141
50.4173461477143
50.4173461477146
50.4173461477149
50.4173461477151
50.4173461477154
50.4173461477157
50.4173461477159
50.4173461477162
50.4173461477164
50.4173461477166
50.4173461477167
50.4173461477168
50.4173461477168
50.4173461477166
50.4173461477164
50.4173461477161
50.4173461477156
50.4173461477151
50.4173461477146
50.4173461477142
50.4173461477139
50.4173461477137
50.4173461477132
50.4173461477105
50.4173461477021
3501.20459358938
31510.8413423018
31510.8420600926
3501.20467334394
50.4173472961672
50.4173472961753
50.417347296178
50.4173472961781
50.4173472961778
50.4173472961774
50.4173472961773
50.4173472961774
50.4173472961776
50.4173472961778
50.417347296178
50.4173472961783
50.4173472961785
50.4173472961787
50.4173472961788
50.417347296179
50.4173472961792
50.4173472961793
50.4173472961795
50.4173472961797
50.4173472961799
50.4173472961802
50.4173472961804
50.4173472961807
50.417347296181
50.4173472961813
50.4173472961816
50.4173472961819
50.4173472961822
50.4173472961825
50.4173472961828
50.417347296183
50.4173472961832
50.4173472961833
50.4173472961834
50.4173472961835
50.4173472961835
50.4173472961835
50.4173472961835
50.4173472961836
50.4173472961838
50.4173472961843
50.4173472961849
50.4173472961854
50.4173472961836
50.4173472961761
3501.20467334451
31510.8420600959
31510.8427778898
3501.20475309916
50.4173484446416
50.4173484446487
50.4173484446504
50.4173484446496
50.4173484446484
50.4173484446473
50.4173484446465
50.4173484446461
50.4173484446458
50.4173484446456
50.4173484446455
50.4173484446454
50.4173484446454
50.4173484446454
50.4173484446455
50.4173484446455
50.4173484446456
50.4173484446457
50.4173484446458
50.417348444646
50.4173484446462
50.4173484446464
50.4173484446466
50.4173484446469
50.4173484446472
50.4173484446475
50.4173484446478
50.4173484446482
50.4173484446485
50.4173484446489
50.4173484446493
50.4173484446497
50.41734844465
50.4173484446503
50.4173484446507
50.417348444651
50.4173484446513
50.4173484446517
50.4173484446522
50.4173484446529
50.4173484446538
50.417348444655
50.4173484446565
50.4173484446578
50.417348444657
50.4173484446505
3501.20475309977
31510.8427778941
31510.8434956872
3501.20483285439
50.4173495931161
50.4173495931221
50.4173495931228
50.417349593121
50.417349593119
50.4173495931173
50.4173495931159
50.4173495931148
50.417349593114
50.4173495931134
50.417349593113
50.4173495931127
50.4173495931125
50.4173495931123
50.4173495931122
50.4173495931121
50.4173495931121
50.4173495931121
50.4173495931122
50.4173495931124
50.4173495931125
50.4173495931127
50.4173495931129
50.4173495931132
50.4173495931135
50.4173495931138
50.4173495931142
50.4173495931146
50.417349593115
50.4173495931155
50.4173495931159
50.4173495931164
50.4173495931169
50.4173495931175
50.417349593118
50.4173495931186
50.4173495931193
50.4173495931201
50.417349593121
50.4173495931222
50.4173495931238
50.4173495931257
50.417349593128
50.4173495931303
50.4173495931304
50.417349593125
3501.20483285504
31510.8434956927
31510.8442134849
3501.20491260964
50.4173507415906
50.4173507415954
50.4173507415951
50.4173507415924
50.4173507415896
50.4173507415871
50.4173507415851
50.4173507415836
50.4173507415823
50.4173507415814
50.4173507415806
50.41735074158
50.4173507415796
50.4173507415792
50.417350741579
50.4173507415788
50.4173507415787
50.4173507415786
50.4173507415787
50.4173507415788
50.4173507415789
50.4173507415791
50.4173507415793
50.4173507415796
50.4173507415799
50.4173507415803
50.4173507415807
50.4173507415811
50.4173507415816
50.4173507415821
50.4173507415827
50.4173507415833
50.4173507415839
50.4173507415846
50.4173507415854