/*--------------------------------*- C++ -*----------------------------------*\
  =========                 |
  \\      /  F ield         | OpenFOAM: The Open Source CFD Toolbox
   \\    /   O peration     | Website:  https://openfoam.org
    \\  /    A nd           | Version:  10
     \\/     M anipulation  |
\*---------------------------------------------------------------------------*/
FoamFile
{
    format      ascii;
    class       volScalarField;
    location    "7";
    object      p;
}
// * * * * * * * * * * * * * * * * * * * * * * * * * * * * * * * * * * * * * //

dimensions      [1 -1 -2 0 0 0 0];

internalField   nonuniform List<scalar> 
2500
(
100096.6229591
100096.622959965
100096.622960901
100096.622961732
100096.622962311
100096.622962709
100096.622962966
100096.622963133
100096.62296324
100096.622963309
100096.622963354
100096.622963383
100096.622963404
100096.622963418
100096.622963429
100096.622963437
100096.622963444
100096.62296345
100096.622963455
100096.622963459
100096.622963463
100096.622963467
100096.622963471
100096.622963474
100096.622963478
100096.622963481
100096.622963485
100096.622963488
100096.622963491
100096.622963493
100096.622963496
100096.622963498
100096.622963499
100096.622963499
100096.622963499
100096.622963496
100096.622963491
100096.622963482
100096.622963466
100096.622963441
100096.6229634
100096.622963335
100096.622963231
100096.622963067
100096.622962812
100096.622962413
100096.622961831
100096.622960991
100096.622960041
100096.622959176
100096.620709872
100096.620710529
100096.620711283
100096.620711997
100096.620712508
100096.620712869
100096.620713107
100096.620713263
100096.620713364
100096.62071343
100096.620713473
100096.620713503
100096.620713523
100096.620713537
100096.620713548
100096.620713556
100096.620713563
100096.620713569
100096.620713574
100096.620713578
100096.620713582
100096.620713586
100096.62071359
100096.620713594
100096.620713597
100096.620713601
100096.620713604
100096.620713607
100096.62071361
100096.620713613
100096.620713615
100096.620713617
100096.620713618
100096.620713618
100096.620713618
100096.620713615
100096.62071361
100096.620713601
100096.620713586
100096.620713561
100096.620713522
100096.62071346
100096.620713362
100096.620713208
100096.620712972
100096.62071261
100096.620712096
100096.620711374
100096.620710607
100096.620709952
100096.61845331
100096.618453781
100096.618454261
100096.618454771
100096.618455147
100096.618455426
100096.618455613
100096.618455741
100096.618455826
100096.618455882
100096.61845592
100096.618455947
100096.618455966
100096.618455979
100096.61845599
100096.618455998
100096.618456005
100096.618456011
100096.618456016
100096.61845602
100096.618456024
100096.618456028
100096.618456032
100096.618456036
100096.618456039
100096.618456043
100096.618456046
100096.618456049
100096.618456052
100096.618456055
100096.618456057
100096.618456059
100096.61845606
100096.618456061
100096.61845606
100096.618456057
100096.618456052
100096.618456044
100096.61845603
100096.618456008
100096.618455974
100096.618455922
100096.61845584
100096.618455715
100096.618455529
100096.618455249
100096.618454871
100096.618454354
100096.618453864
100096.61845339
100096.616190174
100096.61619043
100096.61619064
100096.616190922
100096.616191136
100096.61619131
100096.616191432
100096.61619152
100096.616191581
100096.616191625
100096.616191656
100096.616191678
100096.616191695
100096.616191708
100096.616191717
100096.616191725
100096.616191732
100096.616191738
100096.616191743
100096.616191747
100096.616191752
100096.616191756
100096.616191759
100096.616191763
100096.616191767
100096.61619177
100096.616191773
100096.616191776
100096.616191779
100096.616191782
100096.616191784
100096.616191786
100096.616191787
100096.616191788
100096.616191787
100096.616191785
100096.616191781
100096.616191774
100096.616191762
100096.616191744
100096.616191718
100096.616191678
100096.61619162
100096.616191534
100096.616191414
100096.61619124
100096.616191024
100096.616190737
100096.61619052
100096.616190258
100096.613921512
100096.61392157
100096.613921573
100096.613921661
100096.613921736
100096.613921815
100096.613921877
100096.613921928
100096.613921968
100096.613921998
100096.613922022
100096.61392204
100096.613922054
100096.613922065
100096.613922074
100096.613922081
100096.613922088
100096.613922093
100096.613922098
100096.613922103
100096.613922107
100096.613922111
100096.613922115
100096.613922118
100096.613922122
100096.613922125
100096.613922129
100096.613922132
100096.613922135
100096.613922137
100096.61392214
100096.613922142
100096.613922143
100096.613922144
100096.613922143
100096.613922142
100096.613922138
100096.613922132
100096.613922123
100096.61392211
100096.613922091
100096.613922065
100096.613922029
100096.61392198
100096.61392192
100096.613921842
100096.613921766
100096.613921677
100096.613921671
100096.613921606
100096.61164858
100096.611648491
100096.611648363
100096.61164831
100096.611648283
100096.611648289
100096.611648304
100096.611648325
100096.611648345
100096.611648364
100096.61164838
100096.611648394
100096.611648406
100096.611648415
100096.611648423
100096.61164843
100096.611648436
100096.611648441
100096.611648446
100096.611648451
100096.611648455
100096.611648459
100096.611648463
100096.611648466
100096.61164847
100096.611648473
100096.611648477
100096.61164848
100096.611648483
100096.611648485
100096.611648488
100096.61164849
100096.611648491
100096.611648492
100096.611648492
100096.611648491
100096.611648489
100096.611648484
100096.611648478
100096.611648469
100096.611648457
100096.611648442
100096.611648425
100096.611648408
100096.611648395
100096.611648391
100096.611648419
100096.611648473
100096.611648603
100096.611648688
100096.609372658
100096.609372485
100096.609372293
100096.609372155
100096.609372065
100096.609372022
100096.609372003
100096.609372001
100096.609372007
100096.609372016
100096.609372026
100096.609372036
100096.609372045
100096.609372053
100096.60937206
100096.609372066
100096.609372072
100096.609372077
100096.609372082
100096.609372086
100096.60937209
100096.609372094
100096.609372098
100096.609372101
100096.609372105
100096.609372108
100096.609372111
100096.609372115
100096.609372118
100096.60937212
100096.609372123
100096.609372125
100096.609372127
100096.609372128
100096.609372128
100096.609372128
100096.609372127
100096.609372124
100096.60937212
100096.609372115
100096.609372109
100096.609372104
100096.609372102
100096.609372107
100096.609372129
100096.609372175
100096.609372268
100096.609372409
100096.609372606
100096.609372778
100096.607094814
100096.607094614
100096.607094408
100096.607094232
100096.60709411
100096.607094037
100096.607093997
100096.60709398
100096.607093974
100096.607093976
100096.607093981
100096.607093987
100096.607093993
100096.607094
100096.607094006
100096.607094011
100096.607094016
100096.607094021
100096.607094025
100096.607094029
100096.607094033
100096.607094037
100096.607094041
100096.607094044
100096.607094048
100096.607094051
100096.607094055
100096.607094058
100096.607094061
100096.607094064
100096.607094066
100096.607094068
100096.60709407
100096.607094072
100096.607094073
100096.607094073
100096.607094073
100096.607094072
100096.607094071
100096.607094069
100096.607094069
100096.607094071
100096.60709408
100096.607094102
100096.607094145
100096.60709422
100096.607094346
100096.607094528
100096.60709474
100096.607094943
100096.604815833
100096.604815643
100096.604815452
100096.604815269
100096.604815137
100096.604815051
100096.604814999
100096.604814971
100096.604814958
100096.604814953
100096.604814953
100096.604814956
100096.604814961
100096.604814965
100096.60481497
100096.604814975
100096.604814979
100096.604814984
100096.604814988
100096.604814992
100096.604814996
100096.604814999
100096.604815003
100096.604815007
100096.60481501
100096.604815013
100096.604815017
100096.60481502
100096.604815023
100096.604815026
100096.604815029
100096.604815031
100096.604815033
100096.604815035
100096.604815037
100096.604815038
100096.604815039
100096.604815039
100096.60481504
100096.604815042
100096.604815046
100096.604815055
100096.604815072
100096.604815104
100096.604815159
100096.604815249
100096.604815385
100096.604815574
100096.604815773
100096.604815967
100096.602536231
100096.602536071
100096.602535907
100096.602535736
100096.602535607
100096.602535518
100096.60253546
100096.602535425
100096.602535406
100096.602535397
100096.602535394
100096.602535394
100096.602535396
100096.602535399
100096.602535403
100096.602535407
100096.602535411
100096.602535415
100096.602535419
100096.602535422
100096.602535426
100096.60253543
100096.602535433
100096.602535437
100096.60253544
100096.602535444
100096.602535447
100096.60253545
100096.602535453
100096.602535456
100096.602535459
100096.602535462
100096.602535464
100096.602535467
100096.602535469
100096.602535471
100096.602535472
100096.602535475
100096.602535477
100096.602535482
100096.60253549
100096.602535503
100096.602535526
100096.602535564
100096.602535626
100096.602535719
100096.602535852
100096.602536029
100096.6025362
100096.602536366
100096.600256316
100096.60025619
100096.600256056
100096.600255906
100096.600255788
100096.6002557
100096.600255641
100096.600255603
100096.60025558
100096.600255568
100096.600255561
100096.600255559
100096.600255559
100096.600255561
100096.600255564
100096.600255567
100096.600255571
100096.600255574
100096.600255578
100096.600255581
100096.600255585
100096.600255588
100096.600255592
100096.600255595
100096.600255599
100096.600255602
100096.600255605
100096.600255609
100096.600255612
100096.600255615
100096.600255618
100096.600255621
100096.600255623
100096.600255626
100096.600255629
100096.600255631
100096.600255634
100096.600255638
100096.600255642
100096.600255649
100096.60025566
100096.600255677
100096.600255704
100096.600255746
100096.600255808
100096.6002559
100096.600256022
100096.600256178
100096.600256318
100096.60025645
100096.597976259
100096.597976164
100096.597976057
100096.597975929
100096.597975824
100096.597975743
100096.597975685
100096.597975645
100096.59797562
100096.597975605
100096.597975596
100096.597975592
100096.597975591
100096.597975591
100096.597975593
100096.597975595
100096.597975598
100096.597975601
100096.597975605
100096.597975608
100096.597975611
100096.597975615
100096.597975618
100096.597975622
100096.597975625
100096.597975628
100096.597975632
100096.597975635
100096.597975638
100096.597975641
100096.597975644
100096.597975647
100096.59797565
100096.597975653
100096.597975657
100096.59797566
100096.597975664
100096.597975669
100096.597975675
100096.597975684
100096.597975697
100096.597975716
100096.597975746
100096.597975789
100096.59797585
100096.597975936
100096.597976044
100096.597976177
100096.597976289
100096.597976388
100096.595696142
100096.595696072
100096.595695988
100096.595695882
100096.595695791
100096.595695716
100096.595695661
100096.595695622
100096.595695595
100096.595695578
100096.595695568
100096.595695562
100096.595695559
100096.595695559
100096.59569556
100096.595695561
100096.595695564
100096.595695567
100096.59569557
100096.595695573
100096.595695576
100096.595695579
100096.595695583
100096.595695586
100096.595695589
100096.595695593
100096.595695596
100096.595695599
100096.595695603
100096.595695606
100096.595695609
100096.595695612
100096.595695615
100096.595695619
100096.595695622
100096.595695626
100096.595695631
100096.595695637
100096.595695645
100096.595695655
100096.59569567
100096.595695691
100096.595695722
100096.595695765
100096.595695823
100096.595695901
100096.595695996
100096.595696106
100096.595696194
100096.595696266
100096.593416004
100096.593415954
100096.593415888
100096.593415801
100096.593415722
100096.593415655
100096.593415604
100096.593415566
100096.593415539
100096.593415521
100096.593415509
100096.593415502
100096.593415499
100096.593415497
100096.593415497
100096.593415499
100096.593415501
100096.593415503
100096.593415506
100096.593415509
100096.593415512
100096.593415515
100096.593415518
100096.593415521
100096.593415525
100096.593415528
100096.593415531
100096.593415535
100096.593415538
100096.593415541
100096.593415545
100096.593415548
100096.593415551
100096.593415555
100096.593415559
100096.593415564
100096.593415569
100096.593415576
100096.593415585
100096.593415596
100096.593415613
100096.593415635
100096.593415665
100096.593415707
100096.593415762
100096.593415832
100096.593415913
100096.593416004
100096.593416072
100096.593416124
100096.591135863
100096.591135827
100096.591135775
100096.591135703
100096.591135636
100096.591135576
100096.591135529
100096.591135493
100096.591135467
100096.591135448
100096.591135436
100096.591135428
100096.591135423
100096.591135421
100096.591135421
100096.591135421
100096.591135423
100096.591135425
100096.591135427
100096.59113543
100096.591135433
100096.591135436
100096.591135439
100096.591135442
100096.591135446
100096.591135449
100096.591135452
100096.591135456
100096.591135459
100096.591135462
100096.591135466
100096.591135469
100096.591135473
100096.591135477
100096.591135482
100096.591135487
100096.591135493
100096.5911355
100096.59113551
100096.591135522
100096.591135539
100096.591135562
100096.591135592
100096.591135632
100096.591135682
100096.591135745
100096.591135814
100096.591135889
100096.591135941
100096.591135978
100096.588855722
100096.588855696
100096.588855655
100096.588855596
100096.588855539
100096.588855487
100096.588855444
100096.58885541
100096.588855384
100096.588855366
100096.588855353
100096.588855345
100096.588855339
100096.588855337
100096.588855336
100096.588855336
100096.588855337
100096.588855339
100096.588855341
100096.588855344
100096.588855346
100096.588855349
100096.588855352
100096.588855356
100096.588855359
100096.588855362
100096.588855365
100096.588855369
100096.588855372
100096.588855376
100096.588855379
100096.588855383
100096.588855387
100096.588855391
100096.588855396
100096.588855401
100096.588855408
100096.588855416
100096.588855426
100096.588855439
100096.588855456
100096.588855479
100096.588855508
100096.588855546
100096.588855592
100096.588855647
100096.588855706
100096.588855767
100096.588855808
100096.588855834
100096.586575584
100096.586575564
100096.586575532
100096.586575483
100096.586575435
100096.586575389
100096.586575351
100096.586575319
100096.586575295
100096.586575277
100096.586575264
100096.586575255
100096.58657525
100096.586575247
100096.586575245
100096.586575245
100096.586575246
100096.586575247
100096.586575249
100096.586575252
100096.586575254
100096.586575257
100096.58657526
100096.586575263
100096.586575267
100096.58657527
100096.586575273
100096.586575276
100096.58657528
100096.586575283
100096.586575287
100096.586575291
100096.586575295
100096.586575299
100096.586575304
100096.58657531
100096.586575317
100096.586575325
100096.586575336
100096.586575349
100096.586575367
100096.586575389
100096.586575417
100096.586575452
100096.586575494
100096.586575542
100096.586575592
100096.586575642
100096.586575674
100096.586575693
100096.584295447
100096.584295433
100096.584295407
100096.584295367
100096.584295326
100096.584295286
100096.584295252
100096.584295223
100096.5842952
100096.584295183
100096.58429517
100096.584295161
100096.584295155
100096.584295152
100096.58429515
100096.58429515
100096.58429515
100096.584295152
100096.584295154
100096.584295156
100096.584295158
100096.584295161
100096.584295164
100096.584295167
100096.58429517
100096.584295173
100096.584295177
100096.58429518
100096.584295184
100096.584295187
100096.584295191
100096.584295195
100096.584295199
100096.584295204
100096.584295209
100096.584295215
100096.584295222
100096.584295231
100096.584295241
100096.584295255
100096.584295272
100096.584295293
100096.58429532
100096.584295352
100096.584295389
100096.584295432
100096.584295475
100096.584295515
100096.584295541
100096.584295554
100096.582015312
100096.582015301
100096.58201528
100096.582015248
100096.582015213
100096.582015178
100096.582015148
100096.582015121
100096.5820151
100096.582015084
100096.582015072
100096.582015063
100096.582015057
100096.582015054
100096.582015052
100096.582015051
100096.582015052
100096.582015053
100096.582015054
100096.582015057
100096.582015059
100096.582015062
100096.582015065
100096.582015068
100096.582015071
100096.582015074
100096.582015077
100096.582015081
100096.582015084
100096.582015088
100096.582015091
100096.582015095
100096.5820151
100096.582015104
100096.58201511
100096.582015116
100096.582015123
100096.582015132
100096.582015143
100096.582015156
100096.582015172
100096.582015193
100096.582015218
100096.582015247
100096.582015281
100096.582015318
100096.582015354
100096.582015387
100096.582015408
100096.582015418
100096.579735178
100096.57973517
100096.579735153
100096.579735126
100096.579735097
100096.579735067
100096.57973504
100096.579735016
100096.579734997
100096.579734982
100096.57973497
100096.579734962
100096.579734956
100096.579734952
100096.57973495
100096.57973495
100096.57973495
100096.579734951
100096.579734952
100096.579734955
100096.579734957
100096.57973496
100096.579734962
100096.579734965
100096.579734968
100096.579734972
100096.579734975
100096.579734978
100096.579734982
100096.579734985
100096.579734989
100096.579734993
100096.579734997
100096.579735002
100096.579735008
100096.579735014
100096.579735021
100096.57973503
100096.579735041
100096.579735053
100096.579735069
100096.579735089
100096.579735111
100096.579735138
100096.579735168
100096.579735201
100096.579735231
100096.579735259
100096.579735275
100096.579735282
100096.577455045
100096.577455039
100096.577455025
100096.577455003
100096.577454979
100096.577454953
100096.577454929
100096.577454908
100096.57745489
100096.577454876
100096.577454866
100096.577454858
100096.577454852
100096.577454848
100096.577454846
100096.577454846
100096.577454846
100096.577454847
100096.577454848
100096.57745485
100096.577454852
100096.577454855
100096.577454858
100096.577454861
100096.577454864
100096.577454867
100096.57745487
100096.577454873
100096.577454877
100096.577454881
100096.577454884
100096.577454888
100096.577454893
100096.577454898
100096.577454903
100096.577454909
100096.577454917
100096.577454925
100096.577454936
100096.577454948
100096.577454963
100096.577454981
100096.577455002
100096.577455026
100096.577455053
100096.577455081
100096.577455107
100096.57745513
100096.577455143
100096.577455148
100096.575174913
100096.575174908
100096.575174897
100096.575174879
100096.575174858
100096.575174836
100096.575174816
100096.575174797
100096.575174781
100096.575174768
100096.575174759
100096.575174751
100096.575174746
100096.575174742
100096.57517474
100096.57517474
100096.57517474
100096.575174741
100096.575174742
100096.575174744
100096.575174746
100096.575174749
100096.575174751
100096.575174754
100096.575174757
100096.57517476
100096.575174764
100096.575174767
100096.57517477
100096.575174774
100096.575174778
100096.575174782
100096.575174786
100096.575174791
100096.575174796
100096.575174803
100096.57517481
100096.575174818
100096.575174828
100096.57517484
100096.575174854
100096.575174871
100096.57517489
100096.575174912
100096.575174935
100096.575174959
100096.575174982
100096.575175
100096.575175011
100096.575175015
100096.57289478
100096.572894777
100096.572894768
100096.572894754
100096.572894736
100096.572894718
100096.5728947
100096.572894684
100096.57289467
100096.572894658
100096.572894649
100096.572894642
100096.572894638
100096.572894634
100096.572894632
100096.572894632
100096.572894632
100096.572894633
100096.572894634
100096.572894636
100096.572894638
100096.572894641
100096.572894643
100096.572894646
100096.572894649
100096.572894652
100096.572894656
100096.572894659
100096.572894662
100096.572894666
100096.57289467
100096.572894674
100096.572894678
100096.572894683
100096.572894688
100096.572894694
100096.572894701
100096.572894709
100096.572894719
100096.57289473
100096.572894743
100096.572894759
100096.572894776
100096.572894795
100096.572894816
100096.572894836
100096.572894855
100096.57289487
100096.572894879
100096.572894882
100096.570614649
100096.570614646
100096.57061464
100096.570614628
100096.570614614
100096.570614598
100096.570614583
100096.570614569
100096.570614557
100096.570614546
100096.570614538
100096.570614532
100096.570614528
100096.570614525
100096.570614523
100096.570614523
100096.570614523
100096.570614524
100096.570614525
100096.570614527
100096.570614529
100096.570614532
100096.570614534
100096.570614537
100096.57061454
100096.570614543
100096.570614546
100096.57061455
100096.570614553
100096.570614556
100096.57061456
100096.570614564
100096.570614568
100096.570614573
100096.570614578
100096.570614584
100096.570614591
100096.570614599
100096.570614608
100096.570614618
100096.570614631
100096.570614644
100096.57061466
100096.570614677
100096.570614695
100096.570614712
100096.570614728
100096.570614741
100096.570614747
100096.570614749
100096.568334517
100096.568334516
100096.568334511
100096.568334502
100096.56833449
100096.568334477
100096.568334465
100096.568334453
100096.568334442
100096.568334433
100096.568334426
100096.568334421
100096.568334417
100096.568334414
100096.568334413
100096.568334412
100096.568334413
100096.568334413
100096.568334415
100096.568334417
100096.568334419
100096.568334421
100096.568334424
100096.568334427
100096.56833443
100096.568334433
100096.568334436
100096.568334439
100096.568334443
100096.568334446
100096.56833445
100096.568334454
100096.568334458
100096.568334462
100096.568334467
100096.568334473
100096.56833448
100096.568334487
100096.568334495
100096.568334505
100096.568334516
100096.568334529
100096.568334543
100096.568334558
100096.568334573
100096.568334588
100096.568334601
100096.568334611
100096.568334616
100096.568334617
100096.566054386
100096.566054386
100096.566054382
100096.566054375
100096.566054366
100096.566054356
100096.566054345
100096.566054335
100096.566054326
100096.566054318
100096.566054312
100096.566054308
100096.566054304
100096.566054302
100096.566054301
100096.566054301
100096.566054301
100096.566054302
100096.566054304
100096.566054306
100096.566054308
100096.56605431
100096.566054313
100096.566054316
100096.566054319
100096.566054322
100096.566054325
100096.566054328
100096.566054331
100096.566054335
100096.566054338
100096.566054342
100096.566054346
100096.566054351
100096.566054355
100096.566054361
100096.566054367
100096.566054374
100096.566054382
100096.566054391
100096.566054401
100096.566054412
100096.566054424
100096.566054437
100096.56605445
100096.566054462
100096.566054473
100096.566054481
100096.566054484
100096.566054485
100096.563774255
100096.563774256
100096.563774253
100096.563774248
100096.563774241
100096.563774233
100096.563774225
100096.563774217
100096.563774209
100096.563774203
100096.563774198
100096.563774194
100096.563774191
100096.563774189
100096.563774189
100096.563774189
100096.563774189
100096.56377419
100096.563774192
100096.563774194
100096.563774196
100096.563774199
100096.563774201
100096.563774204
100096.563774207
100096.56377421
100096.563774213
100096.563774216
100096.563774219
100096.563774223
100096.563774226
100096.56377423
100096.563774234
100096.563774238
100096.563774243
100096.563774248
100096.563774253
100096.56377426
100096.563774267
100096.563774275
100096.563774284
100096.563774294
100096.563774305
100096.563774316
100096.563774327
100096.563774337
100096.563774345
100096.563774351
100096.563774353
100096.563774353
100096.561494125
100096.561494126
100096.561494125
100096.561494122
100096.561494117
100096.56149411
100096.561494104
100096.561494097
100096.561494091
100096.561494086
100096.561494082
100096.561494079
100096.561494077
100096.561494076
100096.561494075
100096.561494076
100096.561494076
100096.561494078
100096.561494079
100096.561494081
100096.561494084
100096.561494086
100096.561494089
100096.561494091
100096.561494094
100096.561494097
100096.5614941
100096.561494103
100096.561494106
100096.56149411
100096.561494113
100096.561494117
100096.561494121
100096.561494125
100096.561494129
100096.561494134
100096.561494139
100096.561494145
100096.561494152
100096.561494159
100096.561494167
100096.561494175
100096.561494184
100096.561494194
100096.561494203
100096.561494211
100096.561494217
100096.561494221
100096.561494222
100096.561494221
100096.559213994
100096.559213996
100096.559213996
100096.559213994
100096.559213991
100096.559213987
100096.559213982
100096.559213978
100096.559213973
100096.559213969
100096.559213966
100096.559213964
100096.559213962
100096.559213961
100096.559213961
100096.559213962
100096.559213963
100096.559213964
100096.559213966
100096.559213968
100096.559213971
100096.559213973
100096.559213976
100096.559213978
100096.559213981
100096.559213984
100096.559213987
100096.55921399
100096.559213993
100096.559213996
100096.559214
100096.559214003
100096.559214007
100096.559214011
100096.559214015
100096.559214019
100096.559214024
100096.55921403
100096.559214035
100096.559214042
100096.559214049
100096.559214056
100096.559214064
100096.559214071
100096.559214078
100096.559214084
100096.559214089
100096.559214091
100096.559214091
100096.559214089
100096.556933863
100096.556933866
100096.556933867
100096.556933867
100096.556933866
100096.556933864
100096.55693386
100096.556933857
100096.556933854
100096.556933851
100096.556933849
100096.556933848
100096.556933847
100096.556933846
100096.556933847
100096.556933848
100096.556933849
100096.55693385
100096.556933852
100096.556933855
100096.556933857
100096.556933859
100096.556933862
100096.556933865
100096.556933868
100096.556933871
100096.556933873
100096.556933876
100096.556933879
100096.556933883
100096.556933886
100096.556933889
100096.556933892
100096.556933896
100096.5569339
100096.556933904
100096.556933909
100096.556933913
100096.556933919
100096.556933924
100096.55693393
100096.556933936
100096.556933942
100096.556933948
100096.556933954
100096.556933958
100096.556933961
100096.556933961
100096.55693396
100096.556933958
100096.554653732
100096.554653736
100096.554653738
100096.55465374
100096.55465374
100096.55465374
100096.554653738
100096.554653736
100096.554653734
100096.554653733
100096.554653732
100096.554653731
100096.554653731
100096.554653731
100096.554653732
100096.554653733
100096.554653734
100096.554653736
100096.554653738
100096.55465374
100096.554653743
100096.554653745
100096.554653748
100096.554653751
100096.554653754
100096.554653756
100096.554653759
100096.554653762
100096.554653765
100096.554653768
100096.554653771
100096.554653774
100096.554653778
100096.554653781
100096.554653785
100096.554653788
100096.554653792
100096.554653797
100096.554653801
100096.554653806
100096.554653811
100096.554653816
100096.554653821
100096.554653825
100096.554653829
100096.554653831
100096.554653832
100096.554653831
100096.554653829
100096.554653826
100096.552373601
100096.552373606
100096.55237361
100096.552373613
100096.552373615
100096.552373616
100096.552373615
100096.552373615
100096.552373614
100096.552373614
100096.552373614
100096.552373614
100096.552373614
100096.552373615
100096.552373616
100096.552373618
100096.552373619
100096.552373621
100096.552373623
100096.552373626
100096.552373628
100096.552373631
100096.552373634
100096.552373636
100096.552373639
100096.552373642
100096.552373645
100096.552373648
100096.552373651
100096.552373653
100096.552373656
100096.552373659
100096.552373662
100096.552373666
100096.552373669
100096.552373672
100096.552373676
100096.552373679
100096.552373683
100096.552373687
100096.552373691
100096.552373695
100096.552373698
100096.552373701
100096.552373704
100096.552373705
100096.552373704
100096.552373702
100096.552373698
100096.552373694
100096.55009347
100096.550093476
100096.550093481
100096.550093486
100096.550093489
100096.550093491
100096.550093493
100096.550093494
100096.550093494
100096.550093495
100096.550093495
100096.550093496
100096.550093497
100096.550093498
100096.5500935
100096.550093502
100096.550093504
100096.550093506
100096.550093508
100096.550093511
100096.550093513
100096.550093516
100096.550093519
100096.550093522
100096.550093524
100096.550093527
100096.55009353
100096.550093533
100096.550093535
100096.550093538
100096.550093541
100096.550093544
100096.550093547
100096.55009355
100096.550093553
100096.550093556
100096.550093559
100096.550093562
100096.550093565
100096.550093568
100096.550093571
100096.550093574
100096.550093576
100096.550093578
100096.550093578
100096.550093578
100096.550093576
100096.550093572
100096.550093568
100096.550093562
100096.547813339
100096.547813346
100096.547813352
100096.547813358
100096.547813363
100096.547813367
100096.54781337
100096.547813372
100096.547813374
100096.547813375
100096.547813377
100096.547813378
100096.54781338
100096.547813382
100096.547813384
100096.547813386
100096.547813388
100096.54781339
100096.547813393
100096.547813395
100096.547813398
100096.547813401
100096.547813404
100096.547813406
100096.547813409
100096.547813412
100096.547813415
100096.547813417
100096.54781342
100096.547813423
100096.547813425
100096.547813428
100096.547813431
100096.547813433
100096.547813436
100096.547813438
100096.547813441
100096.547813444
100096.547813446
100096.547813448
100096.54781345
100096.547813452
100096.547813453
100096.547813454
100096.547813453
100096.547813451
100096.547813448
100096.547813442
100096.547813437
100096.54781343
100096.545533208
100096.545533215
100096.545533223
100096.545533231
100096.545533237
100096.545533243
100096.545533247
100096.54553325
100096.545533253
100096.545533255
100096.545533257
100096.54553326
100096.545533262
100096.545533264
100096.545533267
100096.545533269
100096.545533272
100096.545533274
100096.545533277
100096.54553328
100096.545533283
100096.545533285
100096.545533288
100096.545533291
100096.545533294
100096.545533296
100096.545533299
100096.545533302
100096.545533304
100096.545533307
100096.545533309
100096.545533312
100096.545533314
100096.545533317
100096.545533319
100096.545533321