/*--------------------------------*- C++ -*----------------------------------*\
  =========                 |
  \\      /  F ield         | OpenFOAM: The Open Source CFD Toolbox
   \\    /   O peration     | Website:  https://openfoam.org
    \\  /    A nd           | Version:  10
     \\/     M anipulation  |
\*---------------------------------------------------------------------------*/
FoamFile
{
    format      ascii;
    class       volScalarField;
    location    "7";
    object      p_rgh;
}
// * * * * * * * * * * * * * * * * * * * * * * * * * * * * * * * * * * * * * //

dimensions      [1 -1 -2 0 0 0 0];

internalField   nonuniform List<scalar> 
2500
(
96.736417957698
96.7364206032653
96.7364257887821
96.7364297885797
96.736432340942
96.736433892147
96.736434799328
96.7364353230223
96.7364356184698
96.7364357829647
96.7364358746854
96.7364359263593
96.7364359565545
96.7364359754429
96.7364359881612
96.736435997489
96.7364360046631
96.7364360106731
96.73643601597
96.7364360206702
96.7364360250212
96.7364360291103
96.7364360329666
96.7364360366628
96.7364360402426
96.7364360436914
96.7364360469655
96.7364360500796
96.73643605299
96.7364360556239
96.7364360579231
96.736436059713
96.7364360608481
96.7364360610227
96.7364360597858
96.7364360562642
96.7364360489737
96.7364360351203
96.7364360090723
96.7364359610365
96.7364358723426
96.7364357098559
96.7364354167221
96.7364348964184
96.7364339939377
96.7364324495575
96.7364298963657
96.7364258712041
96.736420641304
96.7364180728036
96.7367491631885
96.7367601031146
96.7367735017906
96.7367834179895
96.7367897721851
96.736793642267
96.7367959207622
96.7367972305365
96.7367979604169
96.7367983554432
96.7367985639285
96.7367986722529
96.7367987287726
96.7367987592879
96.7367987769539
96.7367987882753
96.7367987962789
96.7367988025799
96.7367988079641
96.7367988127226
96.7367988170881
96.7367988211772
96.7367988250626
96.7367988287733
96.7367988323531
96.7367988357873
96.7367988390615
96.7367988421756
96.736798845086
96.7367988477199
96.73679884999
96.7367988517508
96.7367988527258
96.736798852522
96.7367988503538
96.7367988445621
96.7367988318147
96.7367988054029
96.7367987517791
96.7367986450554
96.7367984369484
96.7367980416311
96.7367973129585
96.736796009005
96.7367937434319
96.7367898904486
96.7367835334735
96.7367735490698
96.7367600258731
96.7367493954662
96.7370957843523
96.7371148075326
96.7371338386729
96.7371473881649
96.7371559591847
96.7371611360577
96.7371641677018
96.7371659015189
96.7371668628912
96.7371673797752
96.737167649655
96.7371677876217
96.7371678577911
96.7371678942873
96.7371679144417
96.7371679267089
96.7371679350763
96.7371679415082
96.7371679468924
96.7371679516509
96.7371679560165
96.7371679601056
96.7371679639764
96.7371679677017
96.7371679712669
96.7371679747012
96.7371679779753
96.7371679810894
96.7371679839853
96.7371679866337
96.7371679889038
96.7371679906501
96.7371679915959
96.7371679912321
96.7371679886419
96.7371679818025
96.7371679664211
96.7371679337521
96.7371678660857
96.7371677291376
96.7371674588503
96.7371669410204
96.7371659805503
96.7371642532526
96.7371612363786
96.7371560757747
96.7371474864194
96.7371338134253
96.7371145426296
96.7370957675885
96.7374148502131
96.7374381745321
96.7374583844066
96.737472171415
96.737480637079
96.7374856182432
96.7374884691526
96.7374900685099
96.7374909416831
96.7374914055836
96.7374916457484
96.7374917679845
96.737491830223
96.7374918628338
96.7374918811402
96.7374918925198
96.7374919004797
96.7374919066933
96.7374919119611
96.7374919166614
96.7374919209833
96.7374919250433
96.7374919289141
96.7374919326248
96.7374919361901
96.7374919395952
96.7374919428839
96.737491945998
96.7374919489084
96.7374919515714
96.7374919538852
96.7374919556896
96.7374919567519
96.7374919566064
96.7374919545109
96.737491948661
96.7374919353751
96.7374919069989
96.7374918479618
96.7374917276757
96.7374914881948
96.7374910241924
96.7374901517906
96.7374885568133
96.7374857152608
96.7374807392334
96.7374722332024
96.7374582760676
96.7374377222295
96.7374143741035
96.737678016143
96.7377011641656
96.7377192446584
96.7377310678858
96.7377381004917
96.7377421244018
96.7377443725709
96.7377456101385
96.7377462765435
96.7377466277539
96.7377468092163
96.7377469021303
96.7377469502535
96.7377469762578
96.7377469915082
96.7377470014908
96.7377470087958
96.7377470147039
96.7377470197825
96.7377470243664
96.7377470286447
96.737747032661
96.7377470365172
96.7377470401989
96.7377470437496
96.7377470471693
96.7377470504434
96.7377470535721
96.7377470564825
96.73774705916
96.7377470615174
96.7377470634528
96.7377470646752
96.737747064908
96.7377470635402
96.7377470592182
96.7377470492502
96.7377470279753
96.7377469838684
96.7377468941122
96.7377467148035
96.7377463650046
96.7377457000694
96.7377444655867
96.7377422220598
96.7377381943952
96.7377311090968
96.7377190964326
96.7377006095485
96.7376771481504
96.7378750650532
96.7378947641264
96.7379089436436
96.7379178393894
96.7379229611688
96.7379258086439
96.737927360984
96.7379282000766
96.7379286466894
96.7379288811208
96.7379290028766
96.737929066323
96.7379291003163
96.7379291196703
96.7379291318211
96.7379291403195
96.737929146926
96.7379291524412
96.7379291573307
96.7379291617981
96.737929165989
96.7379291699617
96.7379291737743
96.7379291774414
96.7379291809775
96.7379291843827
96.7379291876714
96.7379291907855
96.7379291937395
96.7379291964608
96.7379291988764
96.7379292009136
96.7379292023688
96.73792920298
96.7379292023834
96.7379291996185
96.7379291929537
96.7379291786638
96.7379291492834
96.7379290898971
96.7379289715172
96.7379287398362
96.7379282957263
96.7379274595442
96.7379259098088
96.7379230555962
96.7379178824776
96.7379088092857
96.7378942234063
96.7378740275599
96.738010393572
96.7380252255243
96.7380351957981
96.7380411964114
96.7380445367016
96.7380463377485
96.7380472943187
96.7380478017294
96.7380480689899
96.7380482092703
96.7380482831359
96.738048322848
96.7380483453016
96.7380483591405
96.7380483685847
96.7380483757443
96.7380483816378
96.7380483867746
96.7380483914458
96.7380483957677
96.7380483998713
96.7380484037712
96.7380484075256
96.7380484111636
96.7380484146997
96.7380484181049
96.7380484213791
96.7380484245223
96.7380484275054
96.7380484302557
96.7380484327587
96.7380484349269
96.7380484366149
96.7380484376627
96.7380484377791
96.7380484364257
96.7380484325258
96.7380484239839
96.7380484064488
96.7380483712914
96.7380483015149
96.7380481648725
96.7380479009153
96.7380473968515
96.7380464428425
96.7380446366005
96.7380412559432
96.7380351117608
96.7380247891851
96.7380094155233
96.7380963608448
96.7381064377987
96.7381128155976
96.7381164894759
96.7381184602273
96.7381194852642
96.7381200126692
96.7381202858815
96.7381204279809
96.7381205027486
96.738120543072
96.7381205658894
96.7381205799174
96.7381205894926
96.7381205967686
96.7381206027349
96.7381206079735
96.7381206127029
96.7381206171267
96.7381206212885
96.7381206252758
96.7381206290884
96.7381206328282
96.7381206364225
96.7381206399295
96.7381206433201
96.7381206466089
96.7381206497666
96.7381206527643
96.738120655602
96.7381206581922
96.7381206605351
96.7381206624559
96.7381206639111
96.7381206646969
96.7381206645368
96.7381206628779
96.7381206586579
96.7381206496793
96.738120631635
96.7381205957208
96.7381205250422
96.7381203867262
96.738120117283
96.738119593123
96.7381185661798
96.738116569104
96.7381127930566
96.7381061451597
96.7380955873523
96.7381472355773
96.7381534969172
96.7381572438171
96.7381592956808
96.7381603469985
96.7381608666037
96.738161121044
96.7381612472673
96.7381613111356
96.7381613446341
96.7381613634352
96.7381613750476
96.7381613832113
96.7381613896287
96.7381613951147
96.7381614000769
96.7381614046753
96.7381614090118
96.7381614131591
96.7381614171463
96.738161420988
96.7381614247424
96.7381614283804
96.7381614319456
96.7381614354235
96.7381614388141
96.7381614421029
96.7381614453043
96.7381614483602
96.738161451256
96.7381614539481
96.7381614564511
96.7381614586484
96.7381614604965
96.7381614619226
96.7381614627811
96.7381614628976
96.7381614618644
96.7381614588085
96.7381614520273
96.7381614377373
96.7381614084588
96.7381613485777
96.7381612263707
96.7381609758013
96.7381604572438
96.7381593918253
96.7381572753802
96.7381533426233
96.7381467119558
96.7381754546368
96.7381790458603
96.7381810775114
96.7381821180024
96.7381826153869
96.7381828386278
96.7381829360675
96.7381829783117
96.7381829972146
96.7381830064987
96.7381830122031
96.7381830165978
96.7381830207014
96.7381830247468
96.7381830288068
96.7381830328377
96.7381830368249
96.7381830407539
96.7381830446102
96.7381830483937
96.7381830521044
96.738183055757
96.7381830593367
96.7381830628583
96.7381830663071
96.7381830696831
96.7381830729864
96.7381830762024
96.738183079302
96.7381830822706
96.7381830850936
96.7381830877857
96.7381830902596
96.738183092486
96.7381830945087
96.7381830962986
96.7381830978411
96.7381830991653
96.738183100184
96.738183100606
96.7381830994273
96.7381830944214
96.7381830795348
96.7381830413651
96.7381829480437
96.7381827277277
96.7381822247698
96.7381811479863
96.7381790002401
96.7381751558132
96.7381902009802
96.7381921134656
96.7381931289856
96.7381935963786
96.7381937903847
96.7381938555191
96.7381938705221
96.7381938685721
96.738193863348
96.7381938590697
96.7381938569451
96.7381938567123
96.7381938579347
96.7381938601466
96.7381938629842
96.7381938662002
96.7381938696053
96.7381938731269
96.7381938766775
96.7381938802573
96.7381938838225
96.7381938873586
96.7381938908657
96.7381938943436
96.7381938977633
96.7381939011248
96.738193904428
96.7381939076731
96.7381939108163
96.7381939138868
96.7381939168408
96.738193919693
96.7381939224288
96.7381939250772
96.7381939276529
96.7381939302577
96.7381939330226
96.7381939361512
96.738193940022
96.7381939450861
96.7381939517363
96.7381939602492
96.7381939694897
96.7381939754559
96.7381939645566
96.738193903162
96.7381937085447
96.7381932233111
96.7381921414344
96.7381900710607
96.7381974912278
96.7381984387466
96.738198900799
96.7381990712165
96.7381991140137
96.7381991027505
96.738199078507
96.7381990552094
96.7381990378053
96.7381990261492
96.738199019368
96.7381990160648
96.7381990152062
96.7381990159629
96.7381990177382
96.7381990201975
96.7381990230788
96.7381990261929
96.7381990294671
96.7381990328286
96.7381990362337
96.7381990396534
96.7381990430731
96.7381990464928
96.7381990498689
96.7381990532303
96.7381990565336
96.7381990597933
96.7381990630092
96.7381990661524
96.7381990692375
96.7381990722788
96.738199075291
96.7381990783033
96.7381990814029
96.7381990847352
96.7381990885333
96.7381990931171
96.7381990990834
96.7381991071888
96.7381991184811
96.7381991343573
96.7381991557486
96.7381991829461
96.7381992111477
96.7381992262963
96.738199185289
96.7381990076101
96.7381985106622
96.7381974723539
96.7382009109278
96.7382013458555
96.7382015292969
96.7382015598123
96.7382015352341
96.7382014916802
96.7382014512114
96.7382014187606
96.7382013956667
96.7382013801398
96.7382013705501
96.7382013651659
96.7382013627212
96.73820136227
96.7382013631577
96.7382013649476
96.738201367305
96.7382013700408
96.7382013730239
96.7382013761671
96.7382013794268
96.73820138273
96.7382013860624
96.7382013894239
96.7382013927709
96.7382013961032
96.7382013994211
96.7382014027098
96.7382014059694
96.7382014092
96.7382014124159
96.7382014156319
96.7382014188915
96.7382014222676
96.7382014258619
96.7382014298491
96.7382014345058
96.7382014402829
96.7382014477917
96.7382014579925
96.7382014720788
96.7382014918403
96.7382015188778
96.738201555112
96.7382015993353
96.7382016466145
96.7382016738411
96.7382016413758
96.7382014409814
96.738200957363
96.7382024344115
96.7382026162813
96.7382026704581
96.7382026428531
96.7382025933039
96.7382025393745
96.7382024940744
96.7382024587278
96.7382024333929
96.738202415916
96.7382024046528
96.7382023978134
96.73820239419
96.7382023927785
96.7382023929094
96.7382023940881
96.7382023959653
96.7382023983519
96.7382024010731
96.7382024040126
96.7382024070976
96.738202410299
96.7382024135441
96.7382024168328
96.7382024201506
96.7382024234685
96.7382024267717
96.7382024300896
96.7382024333929
96.7382024367107
96.7382024400431
96.7382024434337
96.7382024469407
96.7382024506369
96.7382024546678
96.7382024592371
96.7382024646358
96.7382024713443
96.7382024800318
96.7382024916587
96.7382025074185
96.7382025291008
96.7382025583647
96.7382025974221
96.7382026462437
96.7382027035783
96.7382027558924
96.7382027838466
96.738202722001
96.7382025154657
96.738203076864
96.738203142595
96.738203142464
96.7382030958252
96.7382030409353
96.7382029867294
96.7382029419532
96.7382029067085
96.7382028809516
96.7382028626889
96.7382028504508
96.7382028426364
96.7382028381253
96.7382028359425
96.7382028354186
96.7382028360735
96.7382028375578
96.7382028396096
96.7382028420689
96.7382028448192
96.7382028477587
96.7382028508291
96.7382028540014
96.738202857232
96.7382028605061
96.7382028638094
96.7382028671127
96.7382028704451
96.738202873792
96.7382028771826
96.7382028806314
96.7382028841821
96.7382028878928
96.7382028918801
96.7382028962893
96.7382029013388
96.7382029073779
96.7382029148284
96.738202924389
96.7382029369619
96.738202953682
96.7382029761357
96.7382030057925
96.7382030446461
96.7382030927838
96.7382031501329
96.7382032075548
96.738203255285
96.7382032520545
96.7382031742454
96.7382033296744
96.7382033462782
96.7382033267641
96.7382032780733
96.7382032260066
96.7382031756424
96.7382031336747
96.7382031000307
96.7382030748122
96.7382030564622
96.738203043773
96.7382030353619
96.738203030196
96.7382030274312
96.7382030263834
96.7382030266017
96.7382030277222
96.738203029483
96.7382030317094
96.7382030342706
96.7382030370791
96.7382030400477
96.7382030431327
96.738203046305
96.7382030495355
96.7382030528097
96.738203056113
96.7382030594599
96.7382030628505
96.7382030662993
96.73820306985
96.7382030735316
96.7382030774461
96.7382030816807
96.7382030864101
96.738203091867
96.7382030983863
96.7382031064044
96.7382031165762
96.7382031297166
96.7382031468733
96.7382031693996
96.7382031984598
96.7382032356691
96.7382032808528
96.7382033341128
96.7382033884205
96.7382034382608
96.7382034562033
96.7382034336188
96.7382034179464
96.7382034159964
96.7382033920294
96.7382033477043
96.7382033013128
96.7382032561873
96.7382032178721
96.738203186469
96.7382031623711
96.738203144414
96.7382031316374
96.7382031229063
96.7382031173183
96.7382031141169
96.7382031126763
96.7382031125308
96.7382031133457
96.7382031148591
96.7382031168963
96.7382031192974
96.7382031219604
96.7382031248271
96.7382031278394
96.7382031309535
96.7382031341403
96.7382031373854
96.7382031406887
96.7382031440502
96.7382031474699
96.7382031509769
96.7382031546003
96.7382031583984
96.7382031624729
96.7382031669113
96.7382031719026
96.7382031776797
96.7382031845627
96.7382031929737
96.7382032035384
96.7382032169844
96.7382032341993
96.7382032562891
96.7382032841997
96.7382033190661
96.7382033604808
96.7382034082984
96.7382034566981
96.7382035019982
96.7382035250193
96.7382035237824
96.7382034398906
96.7382034323091
96.738203409579
96.7382033714239
96.7382033312024
96.7382032914902
96.7382032570458
96.7382032281894
96.7382032055466
96.7382031882735
96.7382031757152
96.7382031668967
96.7382031610905
96.738203157598
96.7382031558373
96.7382031554298
96.7382031559973
96.738203157307
96.7382031591551
96.7382031614252
96.7382031639718
96.7382031667512
96.7382031696907
96.7382031727466
96.7382031758898
96.7382031791203
96.7382031824091
96.7382031857705
96.7382031892048
96.7382031927555
96.7382031964517
96.7382032003516
96.7382032045425
96.7382032091555
96.7382032143505
96.7382032203604
96.7382032274909
96.7382032361638
96.7382032469031
96.7382032603928
96.7382032773457
96.7382032987225
96.7382033251197
96.7382033573667
96.7382033948088
96.7382034370821
96.7382034791081
96.7382035180635
96.7382035400224
96.7382035455958
96.7382034362963
96.7382034280454
96.7382034083421
96.7382033762697
96.738203341898
96.7382033072936
96.7382032766327
96.7382032504102
96.7382032293972
96.7382032130554
96.7382032009191
96.7382031922316
96.7382031863672
96.7382031827001
96.7382031807647
96.7382031801535
96.7382031805319
96.7382031816815
96.738203183384
96.7382031855232
96.7382031879824
96.7382031906745
96.7382031935413
96.7382031965535
96.7382031996531
96.7382032028545
96.7382032061287
96.7382032094902
96.7382032129535
96.7382032165187
96.7382032202731
96.7382032242458
96.7382032285241
96.7382032332534
96.7382032385794
96.7382032447495
96.7382032520254
96.7382032608148
96.7382032715686
96.7382032848836
96.7382033013855
96.7382033217727
96.7382033464673
96.7382033760368
96.7382034095936
96.7382034466136
96.7382034826878
96.7382035154151
96.7382035344053
96.738203541172
96.7382034233888
96.7382034161419
96.7382033996982
96.7382033730537
96.7382033438771
96.7382033139584
96.7382032868773
96.738203263274
96.7382032439928
96.7382032287278
96.7382032172027
96.7382032088062
96.7382032030146
96.7382031993184
96.7382031972957
96.7382031965535
96.7382031968009
96.7382031978195
96.7382031994202
96.7382032014575
96.7382032038295
96.7382032064488
96.7382032092573
96.7382032122114
96.7382032152818
96.7382032184541
96.7382032217138
96.7382032250753
96.7382032285241
96.7382032321184
96.7382032359019
96.7382032399182
96.7382032442692
96.7382032490714
96.7382032544847
96.7382032607129
96.7382032680471
96.7382032768219
96.7382032874593
96.7382033004251
96.7382033162576
96.7382033355098
96.7382033584145
96.7382033852773
96.7382034151815
96.7382034474431
96.7382034782058
96.7382035054616
96.7382035212358
96.7382035272749
96.7382034073526
96.7382034014881
96.7382033880276
96.7382033660251
96.7382033414033
96.7382033156755
96.7382032919413
96.7382032708847
96.7382032533933
96.7382032393361
96.7382032285386
96.7382032205642
96.7382032149762
96.7382032113528
96.7382032093155
96.7382032085152
96.7382032086898
96.7382032096211
96.7382032111345
96.738203213099
96.7382032153982
96.7382032179594
96.7382032207097
96.7382032236346
96.7382032266614
96.7382032298046
96.7382032330497
96.7382032363821
96.7382032398455
96.7382032434398
96.7382032472378
96.7382032512687
96.7382032556488
96.7382032604801
96.7382032659079
96.7382032721507
96.7382032794558
96.7382032881142
96.7382032984751
96.7382033109898
96.7382033260219
96.7382033440081
96.7382033650792
96.7382033893082
96.7382034157927
96.738203443776
96.7382034699549
96.7382034925249
96.7382035054179
96.7382035102346
96.7382033904432
96.7382033859176
96.7382033750182
96.7382033569884
96.7382033363247
96.7382033143658
96.7382032937021
96.7382032751048
96.7382032593887
96.738203246583
96.7382032366295
96.7382032291789
96.7382032239111
96.7382032204478
96.7382032184687
96.7382032176683
96.7382032178284
96.7382032187015
96.7382032201713
96.7382032220776
96.7382032243331
96.738203226836
96.7382032295573
96.738203232424
96.7382032354362
96.7382032385503
96.7382032417663
96.7382032450842
96.7382032485184
96.7382032521127
96.7382032558962
96.7382032599417
96.7382032643072
96.7382032691239
96.7382032745372
96.7382032807218
96.7382032878959
96.7382032963505
96.7382033063623
96.7382033182803
96.7382033324247
96.7382033490867
96.7382033682807
96.7382033900067
96.7382034133334
96.7382034375041
96.7382034596958
96.7382034783077
96.7382034887269
96.7382034924085
96.7382033733884
96.7382033700706
96.7382033613976
96.7382033467293
96.7382033295144
96.738203310917
96.7382032931055
96.7382032768219
96.7382032628811
96.7382032513851
96.7382032423193
96.7382032354944
96.7382032306195
96.738203227389
96.7382032255409
96.7382032248133
96.7382032249734
96.7382032258611
96.7382032273017
96.7382032291789
96.7382032313908
96.7382032338646
96.7382032365422
96.7382032393798
96.7382032423484
96.7382032454334
96.7382032486203
96.738203251909
96.7382032553287
96.7382032589085
96.7382032626629
96.7382032666792
96.7382032710157
96.7382032757887
96.7382032811292
96.7382032871974
96.7382032941823
96.7382033023314
96.7382033119065
96.7382033231552
96.7382033363392
96.7382033516333
96.7382033690083
96.7382033883187
96.7382034087495
96.738203429486
96.7382034481852
96.7382034634793
96.7382034718321
96.738203474466
96.7382033564791
96.7382033541944
96.7382033474423
96.7382033356844
96.7382033214817
96.7382033059112
96.738203290719
96.7382032766473
96.7382032644236
96.7382032542373
96.7382032461319
96.7382032399764
96.7382032355526
96.7382032326423
96.7382032309833
96.7382032303576
96.7382032305904
96.7382032314927
96.7382032329333
96.7382032348105
96.7382032369933
96.7382032394526
96.738203242101
96.7382032449095
96.738203247849
96.7382032509049
96.7382032540627
96.7382032573223
96.7382032607129
96.738203264249
96.7382032679743
96.7382032719324
96.7382032762107
96.738203280911
96.7382032861206
96.7382032920286
96.7382032987662
96.738203306566
96.7382033156027
96.7382033261238
96.7382033382892
96.7382033522154
96.7382033678005
96.7382033848407
96.7382034025795
96.738203420231
96.7382034359034
96.7382034483308
96.7382034548937
96.7382034566836
96.7382033397153
96.7382033383619
96.7382033332979
96.7382033240719
96.7382033125614
96.7382032996829
96.7382032869064
96.738203274901
96.7382032643654
96.7382032554742
96.7382032483583
96.7382032429305
96.7382032390306
96.7382032364694
96.7382032350579
96.7382032345922
96.7382032349269
96.7382032358873
96.7382032373571
96.7382032392197
96.7382032414171
96.7382032438618
96.7382032464811
96.7382032492751
96.7382032521855
96.7382032552123
96.7382032583409
96.7382032615569
96.7382032649039
96.7382032683963
96.7382032720634
96.7382032759633
96.7382032801543
96.7382032847236
96.7382032897876
96.7382032954774
96.7382033019239
96.7382033093018
96.738203317771
96.7382033275208
96.7382033386384
96.7382033511822
96.7382033650356
96.7382033799222
96.7382033952017
96.7382034101029
96.7382034230686
96.7382034330076
96.7382034380134
96.7382034390175
96.7382033231115
96.7382033226168
96.7382033190224
96.7382033120375
96.7382033029135
96.7382032925088
96.7382032819442
96.7382032719033
96.7382032629685
96.7382032553869
96.7382032492751
96.7382032445894
96.7382032412424
96.7382032390888
96.7382032379683
96.7382032377063
96.7382032381574
96.7382032392197
96.7382032407331
96.7382032426394
96.7382032448368
96.7382032472669
96.7382032498863
96.7382032526511
96.738203255547
96.7382032585447
96.7382032616297
96.7382032648165
96.7382032681053
96.7382032715395
96.7382032751339
96.7382032789465
96.738203283021
96.7382032874593
96.7382032923342
96.7382032977621
96.7382033038739
96.738203310786
96.7382033186441
96.738203327579
96.7382033376489
96.7382033488393
96.7382033610047
96.7382033738832
96.7382033868635
96.7382033992617
96.7382034098264
96.7382034175534
96.738203421206
96.738203421497
96.7382033065805
96.7382033069007
96.7382033046597
96.7382032996829
96.7382032927271
96.7382032845489
96.7382032760506
96.7382032678579
96.7382032604801
96.73820325415
96.7382032490423
96.7382032451424
96.738203242392
96.7382032406749
96.7382032398746
96.7382032398455
96.7382032404712
96.7382032416208
96.7382032432215
96.7382032451715
96.7382032473834
96.7382032498281
96.7382032524474
96.7382032551977
96.7382032580645
96.738203261033
96.7382032640744
96.7382032672176
96.7382032704627
96.7382032738242
96.7382032773312
96.7382032810419
96.7382032849855
96.7382032892492
96.7382032939058
96.7382032990427
96.7382033047761
96.7382033111935
96.7382033184113
96.7382033265167
96.7382033355098
96.7382033453905
96.7382033559552
96.7382033669273
96.7382033777976
96.7382033879112
96.7382033962785
96.7382034020411
96.7382034044422
96.7382034040493
96.7382032901078
96.7382032911992
96.7382032902242
96.7382032871101
96.7382032821042
96.7382032759924
96.738203269415
96.7382032629539
96.7382032570604
96.7382032519818
96.7382032478781
96.738203244764
96.7382032426103
96.7382032413734
96.7382032409223
96.7382032411406
96.7382032419555
96.7382032432506
96.7382032449386
96.7382032469468
96.7382032492023
96.7382032516616
96.738203254281
96.7382032570313
96.7382032598689
96.7382032628084
96.7382032658206
96.7382032689056
96.738203272078
96.7382032753667
96.7382032787864
96.7382032823662
96.7382032861642
96.7382032902242
96.7382032946334
96.7382032994647
96.7382033047907
96.7382033106987
96.7382033172471
96.738203324494
96.7382033324538
96.7382033410249
96.7382033500617
96.7382033592439
96.7382033681497
96.7382033761533
96.7382033825415
96.7382033864706
96.7382033876929
96.7382033866306
96.7382032735768
96.7382032754394
96.7382032756577
96.7382032742607
96.7382032710884
96.7382032668829
96.7382032620953
96.7382032572787
96.7382032527967
96.7382032489259
96.7382032457972
96.7382032434834
96.73820324197
96.7382032412133
96.738203241126
96.7382032416353
96.7382032426685
96.7382032441092
96.7382032459136
96.7382032479945
96.7382032502937
96.7382032527821
96.738203255416
96.7382032581518
96.7382032609748
96.7382032638707
96.7382032668393
96.7382032698806
96.7382032729802
96.7382032761816
96.7382032794994
96.7382032829337
96.7382032865717
96.7382032904279
96.7382032945752
96.7382032990572
96.7382033039466
96.7382033093163
96.7382033151807
96.7382033215836
96.7382033285103
96.7382033358299
96.7382033433969
96.7382033508911
96.7382033579634
96.738203364017
96.7382033685717
96.7382033707981
96.7382033709146
96.7382033691538
96.7382032569585
96.7382032596361
96.7382032610039
96.7382032612513
96.738203259767
96.738203257366
96.7382032542519
96.7382032509777
96.738203247849
96.7382032451424
96.7382032429887
96.7382032414753
96.7382032405876
96.7382032403402
96.7382032406458
96.7382032414607
96.7382032427122
96.7382032443275
96.7382032462483
96.7382032484165
96.7382032507885
96.738203253306
96.7382032559544
96.7382032586756
96.7382032614987
96.7382032643654
96.7382032672904
96.7382032702735
96.7382032733003
96.7382032763999
96.7382032795867
96.7382032829046
96.7382032863388
96.7382032899768
96.7382032938331
96.7382032979658
96.7382033024187
96.7382033072208
96.7382033124013
96.7382033179601
96.7382033238537
96.7382033299655
96.7382033361355
96.7382033420436
96.7382033473987
96.7382033516333
96.7382033544709
96.7382033550821
96.7382033540925
96.7382033516187
96.7382032401656
96.7382032437017
96.7382032462192
96.7382032480527
96.7382032481837
96.7382032474561
96.7382032459282
96.7382032441237
96.7382032422902
96.7382032407186
96.7382032395108
96.7382032387832
96.7382032385358
96.7382032387977
96.7382032395108
96.7382032406458
96.7382032421301
96.7382032439345
96.7382032459864
96.7382032482565
96.7382032506866
96.7382032532478
96.7382032559108
96.7382032586611
96.7382032614551
96.7382032642927
96.738203267174
96.7382032700843
96.7382032730529
96.7382032760506
96.7382032791065
96.7382032822643
96.7382032855094
96.7382032889
96.7382032924652
96.7382032962196
96.7382033002214
96.738203304456
96.7382033089525
96.7382033136819
96.7382033185713
96.738203323519
96.7382033283502
96.7382033327449
96.7382033364993
96.7382033390313
96.7382033402391
96.7382033392641
96.7382033371978
96.7382033339236
96.7382032231544
96.7382032276073
96.7382032312744
96.7382032346795
96.738203236353
96.7382032372407
96.7382032371825
96.7382032367896
96.7382032361929
96.7382032356982
96.7382032354217
96.7382032354653
96.7382032358728
96.7382032366295
96.7382032377645
96.7382032392197
96.738203240966
96.7382032429596
96.7382032451715
96.7382032475434
96.7382032500464
96.7382032526657
96.7382032553433
96.7382032580936
96.738203260873
96.7382032636815
96.7382032665191
96.7382032693713
96.738203272238
96.7382032751484
96.7382032780733
96.7382032810565
96.7382032841124
96.7382032872556
96.7382032905007
96.7382032938767
96.7382032973983
96.7382033010799
96.7382033048925
96.7382033087924
96.7382033127215
96.7382033165341
96.7382033200847
96.7382033230679
96.7382033252943
96.7382033262111
96.7382033258764
96.7382033233444
96.7382033201575
96.7382033160393
96.7382032058667
96.7382032113383
96.7382032161986
96.7382032211899
96.7382032243622
96.7382032267633
96.7382032281312
96.7382032290479
96.7382032296446
96.7382032301975
96.7382032308233
96.7382032316091
96.7382032326423
96.7382032339374
96.7382032354799
96.7382032372698
96.7382032392779
96.7382032414753
96.7382032438472
96.7382032463211
96.7382032489113
96.7382032515743
96.7382032542955
96.7382032570458
96.7382032598252
96.7382032626047
96.7382032653986
96.738203268178
96.738203270972
96.7382032737514
96.7382032765454
96.7382032793685
96.7382032822061
96.7382032850874
96.7382032880269
96.73820329101
96.7382032940659
96.73820329718
96.7382033003087
96.7382033034082
96.7382033064059
96.7382033091271
96.73820331147
96.7382033130998
96.7382033138856
96.7382033132599
96.7382033114263
96.7382033073372
96.7382033030008
96.7382032979076
96.7382031882298
96.7382031948655
96.7382032009773
96.7382032075693
96.7382032122114
96.7382032160822
96.7382032187888
96.7382032209571
96.7382032226888
96.7382032242458
96.7382032257301
96.7382032272581
96.738203228917
96.7382032307214
96.7382032326859
96.7382032348105
96.7382032370951
96.7382032394962
96.7382032420282
96.738203244633
96.7382032473106
96.7382032500172
96.7382032527676
96.7382032555324
96.7382032582973
96.7382032610476
96.7382032637979
96.7382032665191
96.7382032692112
96.7382032718888
96.7382032745518
96.7382032771857
96.7382032798196
96.7382032824389
96.7382032850437
96.7382032876485
96.7382032902387
96.7382032927853
96.7382032952446
96.7382032975584
96.7382032996393
96.7382033013419
96.7382033025206
96.7382033028553
96.7382033023023
96.7382033001777
96.738203296889
96.7382032912137
96.738203285684
96.7382032794703
96.7382031702291
96.7382031782035
96.7382031856541
96.7382031938905
96.7382031999587
96.738203205241
96.7382032092282
96.7382032125897
96.7382032153837
96.7382032178866
96.7382032202149
96.7382032224705
96.7382032247406
96.7382032270398
96.7382032294263
96.7382032319001
96.7382032344467
96.738203237066
96.7382032397581
96.7382032424794
96.7382032452442
96.7382032480236
96.7382032508176
96.7382032535825
96.7382032563473
96.7382032590685
96.7382032617752
96.7382032644236
96.7382032670284
96.7382032695896
96.7382032721071
96.7382032745663
96.7382032769819
96.7382032793394
96.738203281624