/*--------------------------------*- C++ -*----------------------------------*\
  =========                 |
  \\      /  F ield         | OpenFOAM: The Open Source CFD Toolbox
   \\    /   O peration     | Website:  https://openfoam.org
    \\  /    A nd           | Version:  10
     \\/     M anipulation  |
\*---------------------------------------------------------------------------*/
FoamFile
{
    format      ascii;
    class       surfaceScalarField;
    location    "7";
    object      phi;
}
// * * * * * * * * * * * * * * * * * * * * * * * * * * * * * * * * * * * * * //

dimensions      [1 0 -1 0 0 0 0];

internalField   nonuniform List<scalar> 
4900
(
-5.65391193237933e-12
5.68407290216179e-12
-8.01117919346293e-12
2.403482633622e-12
-7.40413686730571e-12
-5.57753641548033e-13
-5.62196526252152e-12
-1.73374153529568e-12
-3.89966088464162e-12
-1.67468643383853e-12
-2.60340495373488e-12
-1.249000020388e-12
-1.7199305472106e-12
-8.36413456066171e-13
-1.13952492487946e-12
-5.33556804416558e-13
-7.6206800956167e-13
-3.30895155482548e-13
-5.15313446951279e-13
-2.0055474146196e-13
-3.51415504616459e-13
-1.1811362969712e-13
-2.39994096642341e-13
-6.60836692543854e-14
-1.6202175353762e-13
-3.30911935556165e-14
-1.05747102696565e-13
-1.18461425642437e-14
-6.38953096862212e-14
2.13897020503235e-15
-3.19385019904259e-14
1.16157689040229e-14
-7.00294305554518e-15
1.82422670038432e-14
1.28046303756159e-14
2.29991522774848e-14
2.87756774490748e-14
2.64902788621543e-14
4.18196943021623e-14
2.90953001187554e-14
5.26195614791681e-14
3.10424071955985e-14
6.17011311803159e-14
3.24869959901837e-14
6.94864607899148e-14
3.35336197914301e-14
7.63484707583104e-14
3.4229444672578e-14
8.26048376262691e-14
3.46304496127774e-14
8.85658490595248e-14
3.47423025001143e-14
9.45431159066597e-14
3.45641883062933e-14
1.00851551294494e-13
3.40910190280638e-14
1.07855630609947e-13
3.32734552005619e-14
1.15970391297592e-13
3.20596754169374e-14
1.25717888295769e-13
3.03439309056975e-14
1.37760411653124e-13
2.7985373050668e-14
1.52994244848965e-13
2.47517297052094e-14
1.72695370722358e-13
2.02638009698635e-14
1.98763759139848e-13
1.38995422774215e-14
2.34086938431709e-13
4.67091520702241e-15
2.83215983886871e-13
-9.0858732049841e-15
3.53436577941729e-13
-3.01087015732719e-14
4.56492574481091e-13
-6.28617089611628e-14
6.11437125632101e-13
-1.14663963812054e-13
8.48633190485946e-13
-1.96838067517745e-13
1.21597462059233e-12
-3.26928927090406e-13
1.78614212205501e-12
-5.29728710094174e-13
2.66110573629179e-12
-8.34502607574047e-13
3.95557168393252e-12
-1.25389261660216e-12
5.6921083868947e-12
-1.69555959318345e-12
7.50799127909321e-12
-1.77396669721732e-12
8.13298463168207e-12
-5.8148205790872e-13
5.71746411772567e-12
2.45926299711837e-12
5.7478280354673e-12
-8.6095869478283e-12
1.43355634141204e-11
-1.37991800710691e-11
7.65277693115749e-12
-1.33507996427996e-11
-9.43590215889451e-13
-1.05267657051317e-11
-4.49640765566558e-12
-7.54073454102873e-12
-4.60046425183713e-12
-5.20222669921477e-12
-3.52786643998143e-12
-3.55575574355503e-12
-2.42363942370261e-12
-2.44498703986956e-12
-1.58546285797791e-12
-1.70174294869141e-12
-1.01571413182029e-12
-1.20027877545281e-12
-6.44093988747147e-13
-8.55134790423336e-13
-4.05876740884245e-13
-6.11226917675862e-13
-2.53179249460126e-13
-4.33646392345759e-13
-1.54430974132485e-13
-3.00459102111419e-13
-8.93558404343909e-14
-1.978249094003e-13
-4.53596024125618e-14
-1.16883068687963e-13
-1.47084533761287e-14
-5.18312259786677e-14
7.32023960272518e-15
1.27777682368688e-15
2.3561129159339e-14
4.52219984331039e-14
3.57894840709021e-14
8.20422873740781e-14
4.51206246553558e-14
1.13300040530537e-13
5.22630173331401e-14
1.4024484708672e-13
5.76826799259108e-14
1.63917270700339e-13
6.16932300211561e-14
1.85217983769008e-13
6.44807081722756e-14
2.04965503782954e-13
6.61833138620574e-14
2.23945681450244e-13
6.68372337260173e-14
2.42936150703355e-13
6.6450026086057e-14
2.62746539156923e-13
6.49828244313141e-14
2.84271392399832e-13
6.23022294978442e-14
3.0852956910941e-13
5.82303230325085e-14
3.36751186781099e-13
5.24512097054997e-14
3.70469514357913e-13
4.45204614152065e-14
4.11691289930722e-13
3.37347729453743e-14
4.63173917392984e-13
1.89648450707327e-14
5.28861511181668e-13
-1.59656197318647e-15
6.14591972445615e-13
-3.08301141288231e-14
7.29242708910264e-13
-7.34410616317236e-14
8.86691079883619e-13
-1.37172017359065e-13
1.10889285235465e-12
-2.34571609612405e-13
1.4308046647857e-12
-3.85971868704684e-13
1.90757364026076e-12
-6.22900454620158e-13
2.62490097728243e-12
-9.93470236880088e-13
3.70961483284284e-12
-1.56359949039724e-12
5.33358110260613e-12
-2.40754509589827e-12
7.66287774423405e-12
-3.53201206953015e-12
1.0670144528333e-11
-4.65093239114649e-12
1.35531756353161e-11
-4.60363338645841e-12
1.40364732070972e-11
-1.00953993445896e-12
8.75047364079517e-12
7.7988020165728e-12
1.45330564572834e-11
-6.88855160926674e-12
2.12686135339783e-11
-1.268985103288e-11
1.35150355950172e-11
-1.29664449819352e-11
-6.04273748952909e-13
-1.07106310006045e-11
-6.6910393644095e-12
-8.01847549275636e-12
-7.23287225973413e-12
-5.7876559476433e-12
-5.6998593522182e-12
-4.14270467018038e-12
-4.01040570827393e-12
-2.98510450350095e-12
-2.68542763981055e-12
-2.17651517861968e-12
-1.76720688172541e-12
-1.6062788616575e-12
-1.15778627034922e-12
-1.19593273948262e-12
-7.60243391825295e-13
-8.93219345770295e-13
-5.00482695886892e-13
-6.63990023226389e-13
-3.28813566275485e-13
-4.86032368119254e-13
-2.13016223639834e-13
-3.44794791291896e-13
-1.32828482028937e-13
-2.30571762092182e-13
-7.5666662329753e-14
-1.36726272793651e-13
-3.37356282805265e-14
-5.85761558946273e-14
-2.24677368613555e-15
7.30086855469e-15
2.18374066703824e-14
6.35087754238701e-14
4.04495758406732e-14
1.12089493466904e-13
5.48612347816692e-14
1.54716919870498e-13
6.59042650943195e-14
1.92818162784108e-13
7.41405726066977e-14
2.27633517575043e-13
7.99406487953966e-14
2.6032250565708e-13
8.35244997901839e-14
2.91982373998767e-13
8.49878724595789e-14
3.23711805042252e-13
8.43377888237604e-14
3.56656133283531e-13
8.14870096280206e-14
3.92050441601798e-13
7.6212115789594e-14
4.31292886708298e-13
6.81712011695401e-14
4.76036337716367e-13
5.67943341181487e-14
5.28297732084993e-13
4.12736439708978e-14
5.90640682278722e-13
2.0360261262429e-14
6.66463078964491e-13
-7.9077751373508e-15
7.60447243805695e-13
-4.66212488376387e-14
8.7924578375589e-13
-1.00630557226439e-13
1.03257497162837e-12
-1.77705124480245e-13
1.23501397462027e-12
-2.90453516160472e-13
1.50881831336356e-12
-4.59108206594865e-13
1.888212399366e-12
-7.15977010831332e-13
2.42561632864131e-12
-1.11079429962383e-12
3.19990674787881e-12
-1.71813756771166e-12
4.3230891144787e-12
-2.63704512105155e-12
5.93744075936826e-12
-3.97198847371002e-12
8.15162338989974e-12
-5.69588685944956e-12
1.08593423322495e-11
-7.30738831038744e-12
1.31741889576777e-11
-6.86539881657356e-12
1.29467091235726e-11
-7.2706394617429e-13
7.06388528544764e-12
1.37342555392855e-11
2.1630347055969e-11
-3.83673561924906e-12
2.51505636935327e-11
-8.47790032474392e-12
1.82167568241705e-11
-9.46865581419506e-12
4.48016888115933e-13
-8.43507553770407e-12
-7.66498238916976e-12
-6.77539142640105e-12
-8.83466377165525e-12
-5.2290797467813e-12
-7.18947823081433e-12
-3.98551068364154e-12
-5.19813607971741e-12
-3.04250323012975e-12
-3.57328330892795e-12
-2.3372710506611e-12
-2.4179007756049e-12
-1.80779260493093e-12
-1.63330885862412e-12
-1.40492364373971e-12
-1.10972213431768e-12
-1.09313359604554e-12
-7.59438033584158e-13
-8.47475120216977e-13
-5.22178203922994e-13
-6.50564363768837e-13
-3.58158113932519e-13
-4.90225724542282e-13
-2.41901753646243e-13
-3.57831674921789e-13
-1.57276395145039e-13
-2.47120389071123e-13
-9.41165864790362e-14
-1.53474504880618e-13
-4.59903076635615e-14
-7.33702536592273e-14
-8.76375907322196e-15
-4.04364179635697e-15
2.025383261899e-14
5.67344533883041e-14
4.2870787396427e-14
1.10827042016345e-13
6.02830482479325e-14
1.59847488186149e-13
7.33032546763282e-14
2.05217950773463e-13
8.24911250036745e-14
2.48280930255845e-13
8.81478050236942e-14
2.90303643438212e-13
9.0441209872458e-14
3.32562194551534e-13
8.93703864085645e-14
3.7637865866173e-13
8.4799977600511e-14
4.23170217642692e-13
7.64116164906188e-14
4.74525353685636e-13
6.36915751222808e-14
5.32283471863037e-13
4.58194475475819e-14
5.98654230091745e-13
2.16172229573446e-14
6.76363879542897e-13
-1.0678940882713e-14
7.68910861929329e-13
-5.38020858566688e-14
8.80911516131636e-13
-1.11959543313539e-13
1.01859810685718e-12
-1.91617264887141e-13
1.19061129414116e-12
-3.0295351713474e-13
1.40911286008393e-12
-4.6210030518856e-13
1.69152006001891e-12
-6.94549853888396e-13
2.06284082146248e-12
-1.04020685923857e-12
2.55878618151237e-12
-1.55951545406545e-12
3.2289268351514e-12
-2.34091606364266e-12
4.13643202540157e-12
-3.49703430418701e-12
5.34719001517541e-12
-5.13499853999862e-12
6.87151147959222e-12
-7.17197332068594e-12
8.53587144716083e-12
-8.92241766665546e-12
9.61465562897677e-12
-7.89281508225162e-12
8.67944845347708e-12
2.61536650789325e-13
3.99466616562046e-12
1.84698611789545e-11
2.5656966462516e-11
-1.08383498694419e-12
2.62786591157432e-11
-3.93005218292015e-12
2.11212083402452e-11
-5.37718787922745e-12
1.95343366836544e-12
-5.53288464725012e-12
-7.45314782549373e-12
-4.99256734962049e-12
-9.3207864054539e-12
-4.24010027461406e-12
-7.88914247051299e-12
-3.49728394134325e-12
-5.88914604972971e-12
-2.84844012362391e-12
-4.17109180370671e-12
-2.30804803248098e-12
-2.90790749369583e-12
-1.86652929751542e-12
-2.02502788474369e-12
-1.50763799032875e-12
-1.41936368736688e-12
-1.21533109171673e-12
-1.00302270849487e-12
-9.75884206079887e-13
-7.134128318495e-13
-7.7820374397731e-13
-5.08119648708938e-13
-6.13556387819067e-13
-3.59304155393683e-13
-4.75159149848031e-13
-2.48881851532596e-13
-3.57718465848825e-13
-1.65195209937828e-13
-2.57092254359801e-13
-1.006598721194e-13
-1.69980603687095e-13
-5.0297700601583e-14
-9.37121133529794e-14
-1.0790731141931e-14
-2.60689505176134e-14
2.01248552764846e-14
3.48350168889619e-14
4.39755263198836e-14
9.06537850497837e-14
6.18069709598217e-14
1.42875479677258e-13
7.43427955039041e-14
1.92891982267797e-13
8.19810160987323e-14
2.42040663825928e-13
8.49427862228011e-14
2.91654963284826e-13
8.32302554821556e-14
3.43118825477728e-13
7.66567263314727e-14
3.97902074839807e-13
6.48173487941789e-14
4.57643935592006e-13
4.70288966614375e-14
5.24203064703366e-13
2.22516152610796e-14
5.99777254189783e-13
-1.10312495786558e-14
6.87005346537476e-13
-5.50237067508448e-14
7.89161651015569e-13
-1.13092537970678e-13
9.10360952912628e-13
-1.90285181940138e-13
1.05585124126129e-12
-2.94199360479476e-13
1.23240254312717e-12
-4.36536536282043e-13
1.44869400107804e-12
-6.35338960698466e-13
1.71580750233439e-12
-9.18504719986843e-13
2.04746382476334e-12
-1.32858158039361e-12
2.45979547315579e-12
-1.92843028490318e-12
2.96925975931945e-12
-2.80681864006442e-12
3.58603999095339e-12
-4.07008540304441e-12
4.29743522217731e-12
-5.80241774893275e-12
5.02449693991573e-12
-7.85455674596636e-12
5.55765201201968e-12
-9.40997128207923e-12
5.42764467351059e-12
-7.71510157522376e-12
4.03203017132676e-12
1.70687465381026e-12
1.18372806907144e-12
2.13653923355261e-11
2.68698375752537e-11
7.50342405130621e-13
2.55707526792099e-11
-4.69692866749417e-13
2.23961529171705e-11
-2.06827526252012e-12
3.60637024321138e-12
-3.0389788864625e-12
-6.43041453374769e-12
-3.35116800849089e-12
-8.95864578680986e-12
-3.24225360889159e-12
-7.94962362179451e-12
-2.9304796514866e-12
-6.15357522662849e-12
-2.55161197705786e-12
-4.5034349050944e-12
-2.17483606252082e-12
-3.23882276752113e-12
-1.83035810451777e-12
-2.32422123041082e-12
-1.5282267854047e-12
-1.67673581957e-12
-1.26868367844988e-12
-1.21830393078926e-12
-1.04782425685019e-12
-8.90487672002524e-13
-8.6035427096407e-13
-6.52266965522119e-13
-7.00950655619285e-13
-4.75829663831852e-13
-5.64789565139354e-13
-3.4259117792037e-13
-4.47735449489294e-13
-2.40202951210598e-13
-3.46307759123612e-13
-1.60424939358726e-13
-2.57602821949789e-13
-9.76997498602939e-14
-1.79176839905108e-13
-4.82493685351545e-14
-1.08946570432747e-13
-9.44809900031006e-15
-4.51054838556919e-14
2.05054978203933e-14
1.39441436796753e-14
4.28678406251552e-14
6.96743169739302e-14
5.84865697921102e-14
1.23449446013561e-13
6.78674005632158e-14
1.76599363745792e-13
7.1264413754591e-14
2.30441011426201e-13
6.86931899968415e-14
2.863410626409e-13
5.99151844974984e-14
3.4574059091115e-13
4.44516768837027e-14
4.10230489565817e-13
2.14680782937932e-14
4.81584780173615e-13
-1.02571216603495e-14
5.61863611183024e-13
-5.25272841590624e-14
6.53475969051385e-13
-1.07894325240282e-13
7.59298539874376e-13
-1.80191185185842e-13
8.82762568158214e-13
-2.75019467043362e-13
1.02795446302784e-12
-4.00631016179526e-13
1.19963263589188e-12
-5.69399925995091e-13
1.40304863179655e-12
-7.99862347870623e-13
1.64342422240541e-12
-1.11988921323907e-12
1.9245731917969e-12
-1.57062313425785e-12
2.246185290477e-12
-2.21080511238211e-12
2.59811344770748e-12
-3.11936762916871e-12
2.95011896734287e-12
-4.38254818006578e-12
3.23346813305183e-12
-6.04598729254254e-12
3.31526749771118e-12
-7.89609910685333e-12
2.98599477618004e-12
-9.03935614215095e-12
2.0221730738889e-12
-6.70787024207109e-12
4.63786860518804e-13
3.31068276800058e-12
-7.23427460872369e-13
2.25956280795602e-11
2.61727355674458e-11
1.66951524436998e-12
2.39404189291659e-11
1.54894923226759e-12
2.25663999058864e-11
3.62786635036697e-14
5.16741724738521e-12
-1.31760832406062e-12
-5.03049799567095e-12
-2.11936769145492e-12
-8.11292631891776e-12
-2.42149975056107e-12
-7.60507338762074e-12
-2.41082582948639e-12
-6.12293765267601e-12
-2.23672202145637e-12
-4.63704701059991e-12
-1.99471206716842e-12
-3.44098642595167e-12
-1.73746849295627e-12
-2.54216442973672e-12
-1.49156029335581e-12
-1.88383411120831e-12
-1.26833171264463e-12
-1.40318312524962e-12
-1.07108954252139e-12
-1.04982219749622e-12
-8.99107684457042e-13
-7.86769321487927e-13
-7.49939005485172e-13
-5.87933202562273e-13
-6.20560009076549e-13
-4.35304311457519e-13
-5.07966928140605e-13
-3.16510930422078e-13
-4.09390707625754e-13
-2.23077663435621e-13
-3.22384201097162e-13
-1.4912218598571e-13
-2.44801334643023e-13
-9.056546727436e-14
-1.74761766861859e-13
-4.45148053547692e-14
-1.10593624795241e-13
-8.96049324785338e-15
-5.07952755269683e-14
1.75247288236767e-14
6.02751571161349e-15
3.58948716410039e-14
6.11774184036404e-14
4.67475465508836e-14
1.15928260427616e-13
5.0364102687745e-14
1.71543624733368e-13
4.67700494126152e-14
2.29321331572209e-13
3.56918212147351e-14
2.90632964145984e-13
1.65760981295779e-14
3.56966142295762e-13
-1.15278880665772e-14
4.29957764843081e-13
-4.99908319716135e-14
5.11462933637982e-13
-1.0083474082511e-13
6.03595241608386e-13
-1.66868558812706e-13
7.08762639804848e-13
-2.52219002953339e-13
8.29669737749725e-13
-3.62783763777732e-13
9.69262157524335e-13
-5.07054874629656e-13
1.13047314108876e-12
-6.97394802398065e-13
1.31566090152013e-12
-9.51765194437474e-13
1.52541739033656e-12
-1.29627252669351e-12
1.7562734821016e-12
-1.76800210321121e-12
1.99666198162067e-12
-2.41759968622531e-12
2.21963832236351e-12
-3.30862503271483e-12
2.37196726025321e-12
-4.50101851261907e-12
2.35760312984446e-12
-5.99756657929581e-12
2.02829542404466e-12
-7.53232364356854e-12
1.20324945502245e-12
-8.17885858489793e-12
-1.57348065893723e-13
-5.30988266114946e-12
-1.64225907461529e-12
4.83483039030908e-12
-1.70579890164737e-12
2.26962525078573e-11
2.44890634393503e-11
1.93759614615706e-12
2.20380452453789e-11
2.37583456979807e-12
2.21718440074149e-11
1.08335102084891e-12
6.50192274986124e-12
-3.21539381396117e-13
-3.58588185717168e-12
-1.30780861154355e-12
-7.08892855809162e-12
-1.81373940072773e-12
-7.06291844595736e-12
-1.9803204098493e-12
-5.92121399001064e-12
-1.94323274575471e-12
-4.63978367773896e-12
-1.80144090519108e-12
-3.54903915751532e-12
-1.61532090243639e-12
-2.69505488886585e-12
-1.41921793245198e-12
-2.047160389394e-12
-1.23073583425519e-12
-1.55931294904353e-12
-1.05779961149068e-12
-1.19081400226926e-12
-9.02952038897211e-13
-9.10070191716531e-13
-7.65975353182762e-13
-6.93749395245443e-13
-6.45367698460673e-13
-5.25125787780908e-13
-5.39134608381265e-13
-3.92315972907848e-13
-4.45204343684146e-13
-2.86921608396129e-13
-3.61586311212691e-13
-2.02974539056268e-13
-2.86457450248169e-13
-1.36229848314457e-13
-2.18156718220205e-13
-8.36292899022566e-14
-1.55179529942792e-13
-4.30081597715496e-14
-9.61419211739092e-14
-1.28174204442984e-14
-3.97530722493363e-14
7.9891607911973e-15
1.52150437585966e-14
2.00716613270862e-14
6.995488037835e-14
2.3746277323617e-14
1.25656496876678e-13
1.90407744892385e-14
1.8353201833735e-13
5.65758324665468e-15
2.44860952473921e-13
-1.70231118279792e-14
3.11000391807826e-13
-5.00316306855779e-14
3.8343129673844e-13
-9.48615049173835e-14
4.63773087203661e-13
-1.53673938608137e-13
5.53822184636559e-13
-2.29453479738334e-13
6.55513837899588e-13
-3.26465777921266e-13
7.70865807167552e-13
-4.50689801011241e-13
9.01792604628159e-13
-6.10515217802166e-13
1.04970040729181e-12
-8.17795468990059e-13
1.21469109117025e-12
-1.08918911246243e-12
1.39406652276626e-12
-1.44800500589804e-12
1.5796808273674e-12
-1.92588345919525e-12
1.75360082470663e-12
-2.56368741969679e-12
1.88093086576452e-12
-3.40802010212588e-12
1.90043107111436e-12
-4.49247593579513e-12
1.71211450825242e-12
-5.78105719593767e-12
1.18050684983939e-12
-6.97219005985896e-12
1.68950579243769e-13
-7.13791846530914e-12
-1.24937941773607e-12
-3.86041662161538e-12
-2.52297545058924e-12
6.14128704439165e-12
-2.01445627524216e-12
2.22186265953743e-11
2.24928023574972e-11
1.83542959587405e-12
2.02325644866116e-11
2.4488385237509e-12
2.15944861023853e-11
1.4220007350506e-12
7.56274386753887e-12
1.57567506873865e-13
-2.28953428301408e-12
-8.17547024209232e-13
-6.08368293338439e-12
-1.38472596891062e-12
-6.46697805077547e-12
-1.63719235934278e-12
-5.64097844050352e-12
-1.68337671264629e-12
-4.56655306498861e-12
-1.61187071147224e-12
-3.59405319010753e-12
-1.48105375901181e-12
-2.79983857305734e-12
-1.32687713927135e-12
-2.17571240525168e-12
-1.16957106380214e-12
-1.69137941758743e-12
-1.01962884288305e-12
-1.31588958358898e-12
-8.81737688583793e-13
-1.02346120417785e-12
-7.57325515243422e-13
-7.94019845612786e-13
-6.46111896652528e-13
-6.12546549815665e-13
-5.46974191719201e-13
-4.67996860521981e-13
-4.58461796805112e-13
-3.52297685393111e-13
-3.79022298668959e-13
-2.59580479373031e-13
-3.07151526592549e-13
-1.8555037904129e-13
-2.41411803112831e-13
-1.27081826985352e-13
-1.80472919298493e-13
-8.19020964568081e-14
-1.23075633083135e-13
-4.83910980200473e-14
-6.80385536562635e-14
-2.54245600152661e-14
-1.42238439906383e-14
-1.22995226058327e-14
3.94754067478378e-14
-8.67014967263508e-15
9.41661018352095e-14
-1.45080144238712e-14
1.50969895461912e-13
-3.01275022805351e-14
2.11058409824801e-13
-5.6198641124519e-14
2.75656290309545e-13
-9.38051022027294e-14
3.46079163993258e-13
-1.44531418297116e-13
4.23712447077138e-13
-2.10609071209279e-13
5.10039034475969e-13
-2.95119127771405e-13
6.06546309851296e-13
-4.02332049840109e-13
7.14630072637607e-13
-5.38134438370919e-13
8.35325807880748e-13
-7.10556021618173e-13
9.68819954077364e-13
-9.3060133122374e-13
1.11355619965904e-12
-1.21318824869247e-12
1.26467917593858e-12
-1.5783281719306e-12
1.41144731861478e-12
-2.05177942529323e-12
1.53325840010301e-12
-2.66455038086925e-12
1.59355277497531e-12
-3.44729446873618e-12
1.5330132974291e-12
-4.41085144313202e-12
1.26192925128338e-12
-5.48880156772095e-12
6.71821271189739e-13
-6.36067611984492e-12
-3.27064757659931e-13
-6.11692754942624e-12
-1.60566790396889e-12
-2.55819104042709e-12
-2.61745590296953e-12
7.17814398234723e-12
-1.92954176801397e-12
2.1554156846317e-11
2.05764669032402e-11
1.56840673466221e-12
1.86885142923803e-11
2.15243522057339e-12
2.1038755338278e-11
1.37938650605379e-12
8.3620238384111e-12
3.31247257942934e-13
-1.216963960243e-12
-5.3542400320833e-13
-5.19412072797659e-12
-1.08334560126883e-12
-5.89736841560192e-12
-1.3642825853578e-12
-5.33923295849049e-12
-1.45668294860315e-12
-4.45398569838518e-12
-1.4328709148945e-12
-3.59818938907926e-12
-1.34421890763446e-12
-2.86922358098729e-12
-1.22462231061316e-12
-2.27640827459835e-12
-1.09456494889864e-12
-1.80288519965346e-12
-9.65652131991779e-13
-1.42659221292575e-12
-8.43847992264832e-13
-1.12739353315322e-12
-7.3173972650192e-13
-8.8858984617097e-13
-6.29980620807651e-13
-6.97093844031106e-13
-5.38179646644159e-13
-5.42901236827664e-13
-4.55424930741457e-13
-4.1845776646534e-13
-3.80568226391001e-13
-3.18128106387205e-13
-3.123990710328e-13
-2.37678356855088e-13
-2.49702772070784e-13
-1.73985257184357e-13
-1.91313841267073e-13
-1.24727431071363e-13
-1.36110988772281e-13
-8.8239222106416e-14
-8.30167242319966e-14
-6.33536354996012e-14
-3.09891222302488e-14
-4.93319086354567e-14
2.09896239974596e-14
-4.58051328447905e-14
7.39384600252445e-14
-5.27464893317108e-14
1.28890573059653e-13
-7.04856186919961e-14
1.86902340719818e-13
-9.97159471319879e-14
2.49071281510887e-13
-1.41563293705084e-13
3.16539000957593e-13
-1.97655790779619e-13
3.9047243134356e-13
-2.70251149507964e-13
4.72054688303606e-13
-3.62446213440027e-13
5.62374527058021e-13
-4.78417136086189e-13
6.6228272820214e-13
-6.23812077281065e-13
7.72085900791399e-13
-8.06117257204596e-13
8.91032706137576e-13
-1.03528025749789e-12
1.01641372581685e-12
-1.32426247687426e-12
1.1420920085891e-12
-1.6896504265821e-12
1.25621700568558e-12
-2.1514932230326e-12
1.33793445102703e-12
-2.73180394405632e-12
1.35277535814502e-12
-3.44763037064083e-12
1.24852862299031e-12
-4.29207653675912e-12
9.51917312617053e-13
-5.17763461897213e-12
3.84577942147567e-13
-5.7786390005277e-12
-5.02130670203745e-13
-5.21498035280566e-12
-1.56135222500988e-12
-1.48247489866747e-12
-2.31922848319274e-12
7.95377398689797e-12
-1.66277281686718e-12
2.09140753673486e-11
1.89225805290171e-11
1.25963207525398e-12
1.74468833642892e-11
1.73847351356652e-12
2.05796479910602e-11
1.1791842155138e-12
8.93897241334516e-12
3.52080711971356e-13
-3.73593930629301e-13
-3.74379853782535e-13
-4.45259207780511e-12
-8.6623524403482e-13
-5.39141818143579e-12
-1.14371307750331e-12
-5.04838674270706e-12
-1.25871831863361e-12
-4.32614786858081e-12
-1.26656631363442e-12
-3.57792436030792e-12
-1.20983947330924e-12
-2.91388440551723e-12
-1.1185696722474e-12
-2.35593363692857e-12
-1.01211009414339e-12
-1.89791279376502e-12
-9.02197955264876e-13
-1.5253824422947e-12
-7.95439412797572e-13
-1.22334102215347e-12
-6.95175467527667e-13
-9.78351196160726e-13
-6.0275618061914e-13
-7.79314627300303e-13
-5.18374602028714e-13
-6.17378690322913e-13
-4.41575353145128e-13
-4.85636097688574e-13
-3.71570448865931e-13
-3.78779594638764e-13
-3.07415212775883e-13
-2.92731983607048e-13
-2.48109826522939e-13
-2.2442243471829e-13
-1.92646738294268e-13
-1.71537867998945e-13
-1.40038463049701e-13
-1.32390727274698e-13
-8.93143567967606e-14
-1.05799196315413e-13
-3.95313201655847e-14
-9.09958341897879e-14
1.02430541454896e-14
-8.76025577736661e-14
6.09373577491157e-14
-9.55886007209537e-14
1.13485786760589e-13
-1.15290609312943e-13
1.68838114942158e-13
-1.47418152213908e-13
2.279640560729e-13
-1.93117345540239e-13
2.91838536498285e-13
-2.54021842156983e-13
3.61423429505169e-13
-3.3237676775593e-13
4.37625939258293e-13
-4.31223956176899e-13
5.2118309370214e-13
-5.54570080643494e-13
6.12482243033412e-13
-7.07713201555324e-13
7.11253318056221e-13
-8.97483304886569e-13
8.16053257956319e-13
-1.13265586794424e-12
9.23420998505935e-13
-1.42417707184312e-12
1.02659021174768e-12
-1.78533082627673e-12
1.11359408005661e-12
-2.23097219042955e-12
1.16475396960901e-12
-2.77541093204222e-12
1.14954652374337e-12
-3.4248627009795e-12
1.02473355273313e-12
-4.15972553498648e-12
7.34343571133423e-13
-4.87974259453366e-12
2.26836113478385e-13
-5.26358599352383e-12
-5.14997817319545e-13
-4.46523214024995e-12
-1.34846290906497e-12
-6.4012350702217e-13
-1.8904492782704e-12
8.50556933302124e-12
-1.34481095339867e-12
2.03772485360757e-11
1.75817813382956e-11
9.71554683630486e-13
1.6487323399376e-11
1.33788021003797e-12
2.02252654584499e-11
9.44600083904665e-13
9.34243659106931e-12
3.10168021710677e-13
2.70015916862951e-13
-2.79153566267841e-13
-3.85497228561424e-12
-7.03508641691282e-13
-4.95951358299957e-12
-9.61703132110634e-13
-4.78322072933731e-12
-1.0848662392869e-12
-4.19644876433081e-12
-1.11318340019876e-12
-3.54341622683628e-12
-1.08050764442265e-12
-2.94066880700149e-12
-1.01237708415098e-12
-2.41845515173238e-12
-9.26275641282941e-13
-1.97868548609444e-12
-8.33452360720928e-13
-1.61316006668436e-12
-7.40692210914884e-13
-1.31134208802602e-12
-6.51768926113895e-13
-1.06280204608006e-12
-5.68519894052872e-13
-8.58374796712488e-13
-4.91586280083847e-13
-6.90399675188014e-13
-4.20890673634889e-13
-5.52684615352161e-13
-3.55956602512857e-13
-4.403180320124e-13
-2.96079911455168e-13
-3.49449934565272e-13
-2.40453885901098e-13
-2.7710908040228e-13
-1.88227610141515e-13
-2.21027408373023e-13
-1.38538610993465e-13
-1.7952765070887e-13
-9.05263574909144e-14
-1.51426503050961e-13
-4.33422370700407e-14
-1.35944920397368e-13
3.85184613086157e-15
-1.32694715472359e-13
5.18983691374396e-14
-1.41650336982365e-13
1.01633097118455e-13
-1.63142489485626e-13
1.53902343690091e-13
-1.97891652405691e-13
2.09543688065565e-13
-2.47036269160022e-13
2.69378871141979e-13
-3.12194211845684e-13
3.34181398369352e-13
-3.95562272193599e-13
4.04607662239546e-13
-5.00066530578988e-13
4.81095330819908e-13
-6.29494617790701e-13
5.63650660569512e-13
-7.88713207976616e-13
6.5156212703999e-13
-9.83835972140679e-13
7.4290178880713e-13
-1.22242328280466e-12
8.33788288600415e-13
-1.5134707822617e-12
9.17294246221729e-13
-1.86722049847715e-12
9.81967688432782e-13
-2.29400948307699e-12
1.01005840974433e-12
-2.80185943232437e-12
9.75646905048066e-13
-3.38883042246678e-12
8.44428877262531e-13
-4.02694625156836e-12
5.75879396350995e-13
-4.60971908447153e-12
1.39501235518517e-13
-4.82577305782614e-12
-4.60545266007964e-13
-3.86354079268649e-12
-1.09657837534628e-12
-1.76451451230946e-15
-1.47010228729461e-12
8.88211919678127e-12
-1.0440690975073e-12
1.99534910535904e-11
1.65378707307017e-11
7.29447099366863e-13
1.57638407583062e-11
1.0020842238669e-12
1.99569065651484e-11
7.30676583607563e-13
9.61663561963999e-12
2.51184131173759e-13
7.51749391105614e-13
-2.18423532213656e-13
-3.38364274969989e-12
-5.76401454987974e-13
-4.60031712249301e-12
-8.08624702481644e-13
-4.55019418730791e-12
-9.31287046922804e-13
-4.07331091631103e-12
-9.7223093923261e-13
-3.5022689916625e-12
-9.57518411698607e-13
-2.95542582552171e-12
-9.08215840912315e-13
-2.46804572962221e-12
-8.39620546324985e-13
-2.04781833699798e-12
-7.62114795894277e-13
-1.69145969687766e-12
-6.82329897304892e-13
-1.39218397664934e-12
-6.04221067923147e-13
-1.14223263817513e-12
-5.2993695514218e-13
-9.34244013752421e-13
-4.60444232379887e-13
-7.61733975986267e-13
-3.95968833574973e-13
-6.19249238355238e-13
-3.36287813369775e-13
-5.02323031219303e-13
-2.80913736071241e-13
-4.07369174695091e-13
-2.29217253857294e-13
-3.31555658622466e-13
-1.80494445798284e-13
-2.72689411253878e-13
-1.33998843719853e-13
-2.29134591866551e-13
-8.89841153976376e-14
-1.99708369543863e-13
-4.46922805413864e-14
-1.83643336699733e-13
-3.76414150797465e-16
-1.80541326160086e-13
4.47132319291555e-14
-1.9037921544593e-13
9.1317656813107e-14
-2.13480900399491e-13
1.40178661143102e-13
-2.50567283010865e-13
1.92011658883575e-13
-3.0275149938717e-13
2.47491596761663e-13
-3.71611513896086e-13
3.07217765053386e-13
-4.59268802116474e-13
3.71634711514714e-13
-5.6849476910209e-13
4.40923827654588e-13
-7.02814822486707e-13
5.14790619644472e-13
-8.66620054373494e-13
5.92203772636681e-13
-1.0652882174925e-12
6.70931955290713e-13
-1.30518222781896e-12
7.46926823372139e-13
-1.5934834079786e-12
8.13433434904432e-13
-1.93773235143107e-12
8.59900205661314e-13
-2.3444768798866e-12
8.70827084685734e-13
-2.81680143540029e-12
8.24877976923424e-13
-3.34694449872869e-12
6.95728443521299e-13
-3.90195482381552e-12
4.55467051096987e-13
-4.37375182498231e-12
8.87241463252694e-14
-4.46344545892677e-12
-3.87501558740202e-13
-3.39168216139791e-12
-8.64603427536353e-13
4.71356033027992e-13
-1.11444675205231e-12
9.12832321844116e-12
-7.89269487497454e-13
1.96242640926435e-11
1.57447993141967e-11
5.38284197776382e-13
1.52264316227023e-11
7.40477926958495e-13
1.97527717617249e-11
5.55269527277222e-13
9.79887855296945e-12
1.95253974028827e-13
1.10862484959497e-12
-1.7541339593108e-13
-3.01634093083709e-12
-4.7333801832352e-13
-4.30605268731257e-12
-6.77761776130806e-13
-4.34970865672536e-12
-7.94832991303301e-13
-3.96041575524332e-12
-8.4286931803745e-13
-3.45862011062304e-12
-8.4138146839173e-13
-2.96150700571338e-12
-8.07314807269281e-13
-2.50691779896574e-12
-7.53715607009946e-13
-2.10644637790631e-12
-6.89888348312059e-13
-1.76055008529444e-12
-6.22086542168752e-13
-1.46549141236434e-12
-5.5424913313825e-13
-1.21582107339779e-12
-4.88685051658101e-13
-1.00580440518627e-12
-4.26579586716526e-13
-8.30074870035892e-13
-3.68391730696488e-13
-6.83903794337756e-13
-3.14106942753404e-13
-5.63294014686896e-13
-2.63423583458644e-13
-4.64945293876014e-13
-2.1586830820877e-13
-3.86195156208695e-13
-1.7087061384062e-13
-3.24947788863259e-13
-1.27804291652329e-13
-2.79622336552216e-13
-8.602425047321e-14
-2.49055244644216e-13
-4.48682456730419e-14
-2.3249578400503e-13
-3.6776009335516e-15
-2.29543718081147e-13
3.82047368451368e-14
-2.40173997717634e-13
8.1429880860113e-14
-2.64706134070435e-13
1.26631589970428e-13
-3.03843860036067e-13
1.74411567191389e-13
-3.58668875286951e-13
2.25313525066444e-13
-4.30702042361415e-13
2.79775913821102e-13
-5.21959535926339e-13
3.3806492315499e-13
-6.35040942431813e-13
4.00146013271452e-13
-7.73171564505666e-13
4.65510376579636e-13
-9.40269196656654e-13
5.32901984359101e-13
-1.14096584261196e-12
5.99941960560588e-13
-1.38050325740219e-12
6.62609512097114e-13
-1.66442480304009e-12
7.14551205572398e-13
-1.99794370536743e-12