/*--------------------------------*- C++ -*----------------------------------*\
  =========                 |
  \\      /  F ield         | OpenFOAM: The Open Source CFD Toolbox
   \\    /   O peration     | Website:  https://openfoam.org
    \\  /    A nd           | Version:  10
     \\/     M anipulation  |
\*---------------------------------------------------------------------------*/
FoamFile
{
    format      ascii;
    class       volScalarField;
    location    "7";
    object      rho;
}
// * * * * * * * * * * * * * * * * * * * * * * * * * * * * * * * * * * * * * //

dimensions      [1 -3 0 0 0 0 0];

internalField   nonuniform List<scalar> 
2500
(
1.14511215311233
1.14513012378504
1.14517302053
1.14520499516126
1.14522491446149
1.14523655059014
1.14524311964247
1.14524671909069
1.14524862276831
1.14524958635206
1.14525005840692
1.14525027899161
1.14525037794396
1.14525042279864
1.14525044336888
1.1452504541809
1.1452504589855
1.1452504626529
1.14525046603026
1.14525046829541
1.1452504701573
1.14525047172937
1.14525047300442
1.14525047379608
1.14525047459495
1.14525047524129
1.14525047546634
1.14525047550987
1.14525047532561
1.14525047487383
1.14525047408916
1.14525047262027
1.14525047074367
1.14525046786517
1.14525046292732
1.14525045313612
1.14525043197736
1.14525038536254
1.14525027889714
1.14525004908648
1.14524956550794
1.14524858496256
1.14524667276624
1.14524308221511
1.145236545855
1.14522497934438
1.14520508754547
1.14517294507804
1.14512974764775
1.14511255050109
1.14841494014657
1.1485167081697
1.14864185214039
1.14873292611154
1.14879075897463
1.14882547800825
1.14884568156177
1.14885709483153
1.14886331798088
1.14886657495262
1.14886820936266
1.14886899376969
1.14886935412032
1.14886951385392
1.14886958251951
1.14886961180903
1.14886962382801
1.14886962949189
1.14886963282693
1.14886963483359
1.1488696363227
1.14886963756419
1.14886963857705
1.14886963926842
1.14886963988441
1.14886964038892
1.14886964063756
1.14886964075814
1.14886964074383
1.14886964051283
1.14886963993546
1.14886963860258
1.14886963586276
1.14886962998182
1.14886961669713
1.14886958521532
1.14886951091011
1.14886934015179
1.14886895943445
1.14886814563483
1.1488664736085
1.14886317665905
1.14885693439446
1.14884555463049
1.14882546564079
1.14879091870291
1.14873309264186
1.14864141989058
1.14851517064602
1.14841645083699
1.15181276915809
1.15199287963943
1.15217298078451
1.15229956481428
1.1523791305193
1.15242667966176
1.1524542910446
1.1524698844095
1.15247839778655
1.15248286606011
1.15248511461603
1.15248619759918
1.15248669683003
1.15248691779454
1.15248701198908
1.15248705097344
1.15248706653974
1.15248707298981
1.15248707602757
1.15248707761535
1.15248707867817
1.15248707955415
1.15248708028215
1.15248708079727
1.15248708122183
1.15248708157488
1.15248708178498
1.15248708192825
1.15248708201841
1.15248708196445
1.15248708159828
1.15248708046185
1.15248707743145
1.15248707016568
1.15248705277674
1.15248701028491
1.15248690860239
1.15248667357363
1.15248615020349
1.15248503188158
1.15248273808777
1.15247822351869
1.15246968795972
1.15245413422597
1.15242665372944
1.15237926617544
1.15229955248799
1.15217183090035
1.15198950439827
1.15181183187682
1.15488368849799
1.15510345949328
1.15529399039894
1.15542264871478
1.1555012584178
1.15554706255822
1.15557306036088
1.1555874571974
1.15559519015318
1.15559919487205
1.15560118750284
1.15560213814904
1.15560257276132
1.15560276347831
1.15560284395793
1.15560287672148
1.15560288954188
1.15560289456654
1.15560289669022
1.15560289769317
1.1556028983242
1.15560289886132
1.15560289933147
1.15560289967066
1.15560289993214
1.15560290015338
1.15560290030459
1.15560290043527
1.15560290055818
1.15560290061516
1.15560290051654
1.15560289986176
1.15560289754822
1.15560289172225
1.15560287754089
1.15560284219881
1.15560275634827
1.15560255547385
1.15560210336864
1.15560112635622
1.15559909861435
1.15559505569962
1.15558729879194
1.15557291979249
1.15554699778258
1.15550124333672
1.15542226937217
1.15529203089569
1.15509828722771
1.15487834980379
1.15737082012344
1.15758675896976
1.15775581294747
1.15786556465025
1.15793062732626
1.1579675234004
1.15798796635122
1.15799906169042
1.15800492684241
1.15800792691366
1.15800940540416
1.15801010556161
1.15801042378507
1.15801056267679
1.15801062092279
1.15801064438629
1.15801065341327
1.15801065680068
1.15801065810446
1.15801065864559
1.15801065895489
1.15801065923531
1.15801065950558
1.15801065970344
1.15801065984389
1.15801065996551
1.15801066006084
1.15801066016181
1.15801066027938
1.15801066036765
1.15801066041646
1.15801066017223
1.15801065866623
1.15801065464304
1.15801064479977
1.15801061988546
1.15801055867795
1.15801041415595
1.15801008613642
1.15800937085592
1.15800787146498
1.15800484728219
1.15799896418087
1.15798787232435
1.15796745635553
1.15793051876766
1.15786496778208
1.15775345937196
1.15758062763552
1.15736182063848
1.15920034449819
1.1593820702413
1.15951346323906
1.15959564680382
1.15964292670885
1.15966902368222
1.15968314239236
1.15969065712772
1.15969457055738
1.15969655050403
1.15969751866349
1.15969797466644
1.15969818113884
1.15969827097772
1.15969830851077
1.15969832351666
1.15969832920126
1.15969833124873
1.15969833196357
1.15969833220952
1.1596983323203
1.15969833243341
1.15969833256863
1.15969833266957
1.1596983327319
1.15969833278872
1.15969833284217
1.15969833291114
1.15969833300439
1.1596983330945
1.15969833317742
1.15969833315747
1.15969833231225
1.15969832983206
1.15969832373139
1.15969830806597
1.15969826924065
1.15969817695696
1.1596979661842
1.15969750340852
1.15969652555184
1.15969453386133
1.15969061095608
1.15968309592774
1.15966898047236
1.15964280656613
1.15959504343049
1.1595112191183
1.15937607792315
1.15918982932463
1.16043531509813
1.16057067155926
1.16066234034565
1.16071771546307
1.16074866221728
1.16076530157768
1.16077409756914
1.16077869230445
1.16078105196128
1.16078223430607
1.16078280881801
1.16078307838518
1.16078320018109
1.16078325310088
1.16078327516229
1.16078328393214
1.16078328720713
1.16078328833526
1.16078328868977
1.16078328878592
1.1607832887954
1.16078328881144
1.16078328886589
1.16078328890877
1.16078328892714
1.16078328894787
1.16078328897468
1.16078328901722
1.16078328908223
1.16078328915664
1.16078328924155
1.16078328930026
1.16078328887244
1.16078328749144
1.1607832840327
1.1607832750237
1.16078325254303
1.16078319886199
1.16078307571399
1.16078280398169
1.16078222624804
1.16078103990213
1.16077867739696
1.16077408389897
1.16076528631195
1.16074857737491
1.16071724108968
1.16066053791635
1.16056564492711
1.16042540731278
1.16120681900501
1.1612979144029
1.16135627095302
1.16139039819994
1.16140895007338
1.16141867694603
1.16142370521113
1.16142628490372
1.16142759248888
1.16142824205016
1.16142855607706
1.16142870305271
1.16142876940257
1.16142879822563
1.16142881022889
1.1614288149786
1.16142881672815
1.16142881730409
1.16142881744647
1.1614288174564
1.16142881744988
1.16142881744312
1.16142881745435
1.16142881746733
1.16142881746418
1.16142881746758
1.16142881747932
1.16142881750339
1.16142881754452
1.16142881759758
1.16142881766486
1.16142881773041
1.16142881754071
1.1614288168371
1.16142881501344
1.16142881020091
1.16142879813073
1.16142876922519
1.16142870272897
1.16142855551727
1.16142824110192
1.16142759116517
1.16142628426213
1.161423707883
1.16141868065203
1.16140890834159
1.16139008837717
1.16135500868709
1.16129419551066
1.16119881321628
1.16165610699767
1.16171230990629
1.1617466206808
1.16176608928038
1.16177639855427
1.16178167533207
1.16178434505289
1.16178569110721
1.16178636496477
1.16178669711288
1.16178685702929
1.16178693176564
1.16178696550933
1.16178698017831
1.16178698628533
1.16178698869243
1.16178698956625
1.16178698983237
1.1617869898777
1.16178698986752
1.16178698985365
1.16178698984165
1.16178698983945
1.16178698983845
1.16178698983229
1.16178698983145
1.1617869898361
1.16178698984865
1.16178698987275
1.16178698990659
1.1617869899517
1.16178698999952
1.16178698992896
1.16178698959843
1.1617869886939
1.16178698628042
1.161786980205
1.16178696563477
1.16178693207166
1.16178685763529
1.16178669816566
1.16178636678173
1.16178569473611
1.16178435275659
1.16178168698656
1.161776387515
1.1617659164834
1.16174583249597
1.16170983555282
1.16165037191295
1.16190153985073
1.16193367528367
1.16195248316748
1.16196285938369
1.16196821931081
1.16197090061696
1.16197222934356
1.16197288807092
1.16197321393128
1.16197337340255
1.16197344992544
1.16197348566497
1.16197350181668
1.16197350884778
1.16197351177553
1.16197351292524
1.16197351333564
1.16197351344791
1.16197351345705
1.16197351344611
1.16197351343357
1.16197351342342
1.16197351341816
1.16197351341388
1.16197351340875
1.16197351340674
1.1619735134083
1.16197351341498
1.16197351342822
1.16197351344796
1.16197351347481
1.16197351350286
1.16197351348254
1.1619735133388
1.16197351291405
1.16197351176893
1.16197350887857
1.16197350194524
1.16197348597354
1.16197345053657
1.16197337448852
1.16197321582573
1.16197289166346
1.16197223656015
1.16197091275411
1.16196822344744
1.1619627766216
1.16195203752489
1.16193217299545
1.16189782011599
1.16202799039971
1.16204516460227
1.16205485002174
1.16206005538104
1.16206268200138
1.16206396761059
1.16206459208191
1.16206489662098
1.16206504553809
1.16206511792917
1.162065152571
1.16206516875036
1.16206517607369
1.16206517926758
1.16206518059818
1.16206518111869
1.16206518130037
1.16206518134479
1.16206518134401
1.16206518133543
1.16206518132668
1.16206518131977
1.16206518131534
1.16206518131162
1.16206518130823
1.16206518130651
1.16206518130702
1.1620651813105
1.16206518131735
1.16206518132803
1.16206518134269
1.16206518135734
1.1620651813538
1.16206518129522
1.16206518110593
1.16206518058878
1.16206517928068
1.16206517614516
1.16206516893037
1.16206515293601
1.16206511859698
1.16206504675277
1.16206489902732
1.16206459713769
1.16206397698539
1.16206269052486
1.16206002201495
1.16205461935572
1.1620443228322
1.16202577384376
1.16208972621779
1.16209836473699
1.16210307978567
1.16210555286614
1.16210677350676
1.16210735867875
1.16210763748965
1.16210777129089
1.16210783598213
1.16210786722996
1.16210788214902
1.16210788912057
1.16210789228256
1.16210789366463
1.1621078942408
1.16210789446529
1.16210789454152
1.16210789455795
1.16210789455561
1.16210789455014
1.16210789454487
1.16210789454076
1.16210789453789
1.16210789453547
1.16210789453351
1.16210789453242
1.1621078945326
1.16210789453433
1.1621078945377
1.16210789454312
1.16210789455059
1.16210789455806
1.16210789455851
1.16210789453561
1.16210789445532
1.16210789423187
1.16210789366572
1.1621078923107
1.1621078891996
1.16210788231624
1.16210786754896
1.16210783660086
1.16210777261984
1.16210764050535
1.1621073648008
1.16210678120848
1.16210554244384
1.16210296963935
1.16209792551305
1.16208849944218
1.16211840382569
1.16212251690063
1.16212469823398
1.1621258167461
1.16212635743543
1.16212661157496
1.16212673043152
1.16212678658005
1.16212681342623
1.16212682631438
1.16212683245579
1.16212683532827
1.16212683663424
1.16212683720646
1.16212683744519
1.16212683753782
1.16212683756835
1.16212683757399
1.16212683757215
1.16212683756909
1.16212683756623
1.16212683756401
1.16212683756239
1.16212683756103
1.16212683756001
1.16212683755941
1.16212683755949
1.16212683756031
1.16212683756189
1.16212683756449
1.16212683756807
1.16212683757169
1.16212683757256
1.162126837564
1.16212683753134
1.16212683743857
1.16212683720321
1.16212683664107
1.16212683535438
1.16212683251607
1.16212682643796
1.16212681369211
1.1621267872235
1.16212673204081
1.16212661513178
1.16212636280085
1.16212581514691
1.16212464946556
1.16212230191725
1.16211776784092
1.16213112095399
1.16213298376579
1.16213394706085
1.16213443074391
1.16213466002231
1.16213476578932
1.16213481437734
1.16213483697964
1.16213484766803
1.16213485276861
1.16213485519503
1.16213485633131
1.1621348568493
1.16213485707684
1.16213485717184
1.16213485720853
1.16213485722022
1.16213485722199
1.16213485722092
1.16213485721937
1.16213485721794
1.16213485721683
1.16213485721599
1.1621348572153
1.1621348572148
1.16213485721451
1.16213485721454
1.16213485721491
1.16213485721562
1.16213485721681
1.16213485721843
1.1621348572201
1.16213485722069
1.16213485721763
1.16213485720481
1.16213485716766
1.16213485707334
1.1621348568486
1.16213485633615
1.16213485521012
1.16213485280554
1.16213484776506
1.16213483726049
1.16213481516594
1.16213476767807
1.16213466324239
1.16213443166407
1.16213392698998
1.16213288445953
1.16213081001174
1.16213651713234
1.16213732298982
1.1621377306091
1.16213793134769
1.16213802477067
1.16213806710874
1.16213808622704
1.16213809498763
1.16213809908549
1.16213810102955
1.16213810195295
1.162138102386
1.16213810258397
1.16213810267116
1.16213810270758
1.16213810272157
1.16213810272587
1.16213810272636
1.16213810272581
1.16213810272507
1.1621381027244
1.16213810272388
1.16213810272348
1.16213810272315
1.16213810272292
1.16213810272279
1.16213810272279
1.16213810272295
1.16213810272326
1.16213810272377
1.16213810272448
1.1621381027252
1.16213810272552
1.16213810272446
1.16213810271959
1.16213810270522
1.16213810266866
1.1621381025818
1.1621381023846
1.16213810195327
1.16213810103553
1.16213809911432
1.1621380950998
1.16213808658781
1.16213806804107
1.16213802651146
1.16213793250031
1.16213772293498
1.16213727947815
1.16213637295296
1.16213870882301
1.16213904302425
1.16213920884529
1.1621392890611
1.1621393257572
1.16213934211074
1.16213934937499
1.16213935265521
1.1621393541731
1.162139354889
1.16213935522855
1.16213935538803
1.16213935546114
1.16213935549341
1.16213935550689
1.16213935551203
1.16213935551355
1.16213935551366
1.1621393555134
1.16213935551306
1.16213935551276
1.16213935551253
1.16213935551234
1.16213935551219
1.16213935551209
1.16213935551203
1.16213935551203
1.1621393555121
1.16213935551222
1.16213935551244
1.16213935551273
1.16213935551303
1.16213935551318
1.16213935551283
1.16213935551104
1.16213935550565
1.16213935549193
1.1621393554594
1.16213935538587
1.16213935522587
1.1621393548869
1.16213935417881
1.16213935269654
1.16213934953089
1.16213934254356
1.16213932662523
1.16213928986731
1.16213920613232
1.16213902486221
1.16213864511869
1.16213955692892
1.16213969021903
1.16213975525594
1.16213978620668
1.16213980014071
1.16213980625299
1.16213980892583
1.16213981011568
1.16213981066041
1.16213981091582
1.16213981103677
1.16213981109366
1.16213981111979
1.16213981113135
1.16213981113616
1.16213981113798
1.16213981113849
1.16213981113849
1.16213981113837
1.16213981113822
1.16213981113809
1.16213981113799
1.1621398111379
1.16213981113784
1.16213981113779
1.16213981113776
1.16213981113776
1.16213981113778
1.16213981113783
1.16213981113792
1.16213981113803
1.16213981113815
1.16213981113822
1.16213981113811
1.16213981113748
1.16213981113553
1.16213981113053
1.16213981111872
1.16213981109211
1.16213981103451
1.16213981091305
1.16213981066001
1.16213981012978
1.16213980899004
1.16213980644358
1.16213980054585
1.16213978666453
1.16213975438001
1.16213968297034
1.16213952999927
1.16213986363356
1.16213991490156
1.16213993955664
1.16213995111586
1.16213995624303
1.16213995845892
1.16213995941355
1.16213995983266
1.16213996002249
1.16213996011095
1.16213996015275
1.16213996017242
1.16213996018146
1.16213996018545
1.1621399601871
1.16213996018771
1.16213996018786
1.16213996018785
1.16213996018778
1.16213996018772
1.16213996018766
1.16213996018761
1.16213996018757
1.16213996018754
1.16213996018752
1.1621399601875
1.1621399601875
1.1621399601875
1.16213996018752
1.16213996018755
1.1621399601876
1.16213996018765
1.16213996018768
1.16213996018765
1.16213996018744
1.16213996018676
1.16213996018501
1.16213996018086
1.16213996017152
1.16213996015138
1.16213996010909
1.16213996002125
1.16213995983708
1.16213995943891
1.16213995853904
1.16213995642178
1.16213995134627
1.16213993930566
1.16213991212643
1.1621398527039
1.1621399600666
1.16213997913156
1.16213998818551
1.16213999237304
1.16213999420505
1.16213999498583
1.16213999531742
1.16213999546102
1.16213999552534
1.1621399955551
1.16213999556911
1.16213999557568
1.16213999557869
1.16213999558001
1.16213999558054
1.16213999558072
1.16213999558075
1.16213999558073
1.16213999558069
1.16213999558065
1.16213999558062
1.1621399955806
1.16213999558058
1.16213999558056
1.16213999558055
1.16213999558054
1.16213999558053
1.16213999558053
1.16213999558054
1.16213999558055
1.16213999558057
1.16213999558059
1.16213999558061
1.1621399955806
1.16213999558054
1.16213999558033
1.16213999557975
1.16213999557835
1.16213999557519
1.16213999556836
1.16213999555407
1.16213999552444
1.16213999546225
1.16213999532705
1.16213999501811
1.16213999428012
1.16213999247954
1.16213998812641
1.16213997810954
1.16213995579463
1.16213997758354
1.16213998445316
1.16213998768013
1.1621399891543
1.16213998979107
1.16213999005887
1.16213999017102
1.16213999021891
1.16213999024008
1.16213999024978
1.1621399902543
1.16213999025639
1.16213999025733
1.16213999025773
1.16213999025787
1.1621399902579
1.1621399902579
1.16213999025787
1.16213999025785
1.16213999025782
1.16213999025781
1.16213999025779
1.16213999025778
1.16213999025777
1.16213999025776
1.16213999025775
1.16213999025774
1.16213999025774
1.16213999025774
1.16213999025774
1.16213999025775
1.16213999025776
1.16213999025777
1.16213999025778
1.16213999025777
1.16213999025772
1.16213999025755
1.16213999025712
1.1621399902561
1.16213999025389
1.16213999024923
1.16213999023955
1.16213999021916
1.16213999017452
1.16213999007135
1.16213998982121
1.16213998920035
1.16213998767188
1.16213998409016
1.16213997597113
1.16213996641446
1.1621399688177
1.16213996993583
1.16213997044087
1.16213997065643
1.16213997074592
1.16213997078285
1.16213997079835
1.16213997080508
1.1621399708081
1.16213997080947
1.16213997081007
1.16213997081032
1.16213997081041
1.16213997081042
1.16213997081041
1.16213997081039
1.16213997081037
1.16213997081034
1.16213997081033
1.16213997081031
1.1621399708103
1.16213997081029
1.16213997081028
1.16213997081027
1.16213997081027
1.16213997081026
1.16213997081026
1.16213997081026
1.16213997081026
1.16213997081026
1.16213997081027
1.16213997081027
1.16213997081029
1.1621399708103
1.1621399708103
1.16213997081027
1.16213997081016
1.16213997080988
1.16213997080922
1.16213997080779
1.16213997080477
1.16213997079832
1.16213997078402
1.16213997075053
1.16213997066801
1.16213997045967
1.16213996993768
1.16213996869304
1.16213996582531
1.16213994512519
1.16213994594287
1.16213994631997
1.16213994648849
1.16213994655959
1.16213994658869
1.16213994660048
1.16213994660531
1.16213994660733
1.16213994660818
1.16213994660853
1.16213994660866
1.16213994660868
1.16213994660867
1.16213994660864
1.16213994660862
1.16213994660859
1.16213994660857
1.16213994660855
1.16213994660853
1.16213994660852
1.16213994660851
1.1621399466085
1.16213994660849
1.16213994660848
1.16213994660848
1.16213994660847
1.16213994660847
1.16213994660847
1.16213994660846
1.16213994660847
1.16213994660847
1.16213994660848
1.16213994660849
1.16213994660851
1.16213994660853
1.16213994660855
1.16213994660855
1.1621399466085
1.16213994660835
1.16213994660797
1.16213994660711
1.16213994660519
1.16213994660081
1.16213994659028
1.16213994656382
1.16213994649575
1.16213994632221
1.16213994590134
1.16213994491629
1.16213992036433
1.1621399206353
1.16213992075913
1.16213992081386
1.16213992083665
1.16213992084582
1.16213992084942
1.16213992085081
1.16213992085134
1.16213992085151
1.16213992085155
1.16213992085153
1.16213992085149
1.16213992085145
1.16213992085141
1.16213992085137
1.16213992085135
1.16213992085133
1.16213992085131
1.16213992085129
1.16213992085128
1.16213992085127
1.16213992085126
1.16213992085125
1.16213992085125
1.16213992085124
1.16213992085124
1.16213992085123
1.16213992085123
1.16213992085123
1.16213992085123
1.16213992085123
1.16213992085124
1.16213992085125
1.16213992085127
1.1621399208513
1.16213992085133
1.16213992085136
1.16213992085139
1.1621399208514
1.16213992085135
1.16213992085117
1.16213992085068
1.16213992084944
1.16213992084628
1.16213992083808
1.16213992081648
1.16213992076034
1.16213992062179
1.16213992029226
1.16213989444359
1.16213989453112
1.16213989457063
1.16213989458784
1.16213989459488
1.16213989459762
1.16213989459862
1.16213989459895
1.16213989459902
1.16213989459899
1.16213989459894
1.16213989459888
1.16213989459882
1.16213989459877
1.16213989459873
1.1621398945987
1.16213989459868
1.16213989459865
1.16213989459864
1.16213989459862
1.16213989459861
1.1621398945986
1.16213989459859
1.16213989459859
1.16213989459858
1.16213989459857
1.16213989459857
1.16213989459856
1.16213989459856
1.16213989459856
1.16213989459856
1.16213989459856
1.16213989459857
1.16213989459858
1.1621398945986
1.16213989459862
1.16213989459866
1.1621398945987
1.16213989459874
1.1621398945988
1.16213989459885
1.16213989459887
1.16213989459881
1.16213989459853
1.16213989459768
1.16213989459527
1.16213989458867
1.16213989457108
1.16213989452676
1.16213989441929
1.16213986814482
1.16213986817237
1.16213986818449
1.16213986818963
1.16213986819166
1.16213986819239
1.1621398681926
1.16213986819261
1.16213986819256
1.16213986819248
1.1621398681924
1.16213986819234
1.16213986819228
1.16213986819224
1.1621398681922
1.16213986819217
1.16213986819214
1.16213986819213
1.16213986819211
1.1621398681921
1.16213986819209
1.16213986819208
1.16213986819207
1.16213986819206
1.16213986819205
1.16213986819205
1.16213986819204
1.16213986819204
1.16213986819203
1.16213986819203
1.16213986819203
1.16213986819204
1.16213986819204
1.16213986819205
1.16213986819207
1.16213986819209
1.16213986819212
1.16213986819216
1.16213986819221
1.16213986819227
1.16213986819234
1.16213986819241
1.16213986819247
1.16213986819247
1.16213986819231
1.16213986819169
1.1621398681898
1.16213986818456
1.1621398681709
1.16213986813675
1.16213984172571
1.16213984173412
1.16213984173756
1.16213984173891
1.16213984173939
1.16213984173952
1.1621398417395
1.16213984173943
1.16213984173935
1.16213984173927
1.1621398417392
1.16213984173914
1.16213984173909
1.16213984173905
1.16213984173901
1.16213984173898
1.16213984173896
1.16213984173894
1.16213984173893
1.16213984173892
1.16213984173891
1.1621398417389
1.16213984173889
1.16213984173888
1.16213984173888
1.16213984173887
1.16213984173887
1.16213984173886
1.16213984173886
1.16213984173886
1.16213984173885
1.16213984173886
1.16213984173886
1.16213984173887
1.16213984173888
1.1621398417389
1.16213984173893
1.16213984173897
1.16213984173901
1.16213984173907
1.16213984173914
1.16213984173921
1.16213984173929
1.16213984173936
1.16213984173939
1.16213984173929
1.16213984173884
1.16213984173746
1.16213984173354
1.162139841723
1.16213981526913
1.16213981527157
1.16213981527232
1.16213981527252
1.16213981527255
1.16213981527251
1.16213981527245
1.16213981527237
1.16213981527229
1.16213981527222
1.16213981527216
1.1621398152721
1.16213981527206
1.16213981527202
1.16213981527199
1.16213981527197
1.16213981527195
1.16213981527194
1.16213981527192
1.16213981527191
1.1621398152719
1.16213981527189
1.16213981527189
1.16213981527188
1.16213981527187
1.16213981527187
1.16213981527186
1.16213981527186
1.16213981527185
1.16213981527185
1.16213981527185
1.16213981527185
1.16213981527185
1.16213981527186
1.16213981527187
1.16213981527189
1.16213981527191
1.16213981527194
1.16213981527198
1.16213981527203
1.16213981527208
1.16213981527215
1.16213981527223
1.1621398152723
1.16213981527237
1.16213981527241
1.16213981527238
1.16213981527216
1.16213981527126
1.16213981526815
1.16213978880113
1.16213978880175
1.1621397888017
1.16213978880156
1.16213978880147
1.1621397888014
1.16213978880134
1.16213978880127
1.16213978880121
1.16213978880115
1.1621397888011
1.16213978880106
1.16213978880102
1.16213978880099
1.16213978880096
1.16213978880094
1.16213978880093
1.16213978880091
1.1621397888009
1.16213978880089
1.16213978880088
1.16213978880087
1.16213978880087
1.16213978880086
1.16213978880085
1.16213978880085
1.16213978880084
1.16213978880084
1.16213978880083
1.16213978880083
1.16213978880083
1.16213978880083
1.16213978880083
1.16213978880083
1.16213978880084
1.16213978880085
1.16213978880087
1.1621397888009
1.16213978880093
1.16213978880097
1.16213978880101
1.16213978880107
1.16213978880113
1.16213978880119
1.16213978880125
1.16213978880131
1.16213978880139
1.16213978880151
1.16213978880152
1.1621397888007
1.16213976232971
1.1621397623298
1.16213976232951
1.1621397623293
1.16213976232919
1.16213976232913
1.16213976232907
1.16213976232903
1.16213976232898
1.16213976232894
1.1621397623289
1.16213976232886
1.16213976232883
1.16213976232881
1.16213976232879
1.16213976232877
1.16213976232876
1.16213976232875
1.16213976232874
1.16213976232873
1.16213976232872
1.16213976232871
1.16213976232871
1.1621397623287
1.1621397623287
1.16213976232869
1.16213976232868
1.16213976232868
1.16213976232867
1.16213976232867
1.16213976232867
1.16213976232866
1.16213976232866
1.16213976232867
1.16213976232867
1.16213976232868
1.16213976232869
1.16213976232871
1.16213976232873
1.16213976232876
1.1621397623288
1.16213976232884
1.16213976232888
1.16213976232893
1.16213976232897
1.16213976232902
1.16213976232911
1.16213976232931
1.16213976232959
1.16213976232945
1.1621397358573
1.16213973585723
1.16213973585689
1.16213973585667
1.16213973585657
1.16213973585652
1.16213973585649
1.16213973585646
1.16213973585643
1.1621397358564
1.16213973585637
1.16213973585635
1.16213973585633
1.16213973585631
1.1621397358563
1.16213973585628
1.16213973585627
1.16213973585626
1.16213973585626
1.16213973585625
1.16213973585624
1.16213973585624
1.16213973585623
1.16213973585622
1.16213973585622
1.16213973585621
1.16213973585621
1.1621397358562
1.16213973585619
1.16213973585619
1.16213973585618
1.16213973585618
1.16213973585618
1.16213973585618
1.16213973585618
1.16213973585619
1.16213973585619
1.16213973585621
1.16213973585622
1.16213973585624
1.16213973585626
1.16213973585629
1.16213973585632
1.16213973585634
1.16213973585637
1.1621397358564
1.16213973585648
1.16213973585669
1.16213973585702
1.16213973585709
1.16213970938459
1.16213970938449
1.16213970938415
1.16213970938394
1.16213970938385
1.16213970938383
1.16213970938382
1.16213970938381
1.16213970938379
1.16213970938378
1.16213970938376
1.16213970938375
1.16213970938374
1.16213970938372
1.16213970938371
1.1621397093837
1.1621397093837
1.16213970938369
1.16213970938369
1.16213970938368
1.16213970938367
1.16213970938367
1.16213970938366
1.16213970938366
1.16213970938365
1.16213970938365
1.16213970938364
1.16213970938363
1.16213970938363
1.16213970938362
1.16213970938361
1.16213970938361
1.16213970938361
1.1621397093836
1.1621397093836
1.1621397093836
1.16213970938361
1.16213970938361
1.16213970938362
1.16213970938363
1.16213970938364
1.16213970938365
1.16213970938366
1.16213970938367
1.16213970938367
1.16213970938368
1.16213970938375
1.16213970938394
1.16213970938429
1.1621397093844
1.1621396829118
1.1621396829117
1.16213968291137
1.16213968291118
1.16213968291112
1.16213968291112
1.16213968291112
1.16213968291113
1.16213968291113
1.16213968291113
1.16213968291113
1.16213968291112
1.16213968291112
1.16213968291111
1.16213968291111
1.1621396829111
1.1621396829111
1.16213968291109
1.16213968291109
1.16213968291109
1.16213968291108
1.16213968291108
1.16213968291107
1.16213968291107
1.16213968291106
1.16213968291106
1.16213968291105
1.16213968291104
1.16213968291104
1.16213968291103
1.16213968291102
1.16213968291101
1.16213968291101
1.162139682911
1.162139682911
1.16213968291099
1.16213968291099
1.16213968291099
1.16213968291099
1.16213968291099
1.16213968291099
1.16213968291099
1.16213968291098
1.16213968291097
1.16213968291096
1.16213968291095
1.16213968291099
1.16213968291116
1.1621396829115
1.16213968291162
1.16213965643899
1.1621396564389
1.16213965643858
1.16213965643842
1.16213965643838
1.1621396564384
1.16213965643842
1.16213965643845
1.16213965643847
1.16213965643848
1.16213965643849
1.16213965643849
1.16213965643849
1.16213965643849
1.16213965643849
1.16213965643849
1.16213965643849
1.16213965643849
1.16213965643849
1.16213965643849
1.16213965643848
1.16213965643848
1.16213965643848
1.16213965643847
1.16213965643847
1.16213965643846
1.16213965643845
1.16213965643844
1.16213965643844
1.16213965643843
1.16213965643842
1.16213965643841
1.1621396564384
1.1621396564384
1.16213965643839
1.16213965643838
1.16213965643837
1.16213965643836
1.16213965643836
1.16213965643835
1.16213965643834
1.16213965643832
1.1621396564383
1.16213965643827
1.16213965643824
1.16213965643821
1.16213965643823
1.16213965643838
1.1621396564387
1.16213965643881
1.16213962996617
1.16213962996609
1.16213962996579
1.16213962996566
1.16213962996564
1.16213962996568
1.16213962996573
1.16213962996577
1.1621396299658
1.16213962996582
1.16213962996584
1.16213962996586
1.16213962996587
1.16213962996587
1.16213962996588
1.16213962996588
1.16213962996588
1.16213962996589
1.16213962996589
1.16213962996589
1.16213962996588
1.16213962996588
1.16213962996588
1.16213962996587
1.16213962996587
1.16213962996586
1.16213962996585
1.16213962996585
1.16213962996584
1.16213962996583
1.16213962996582
1.16213962996581
1.1621396299658
1.16213962996579
1.16213962996577
1.16213962996576
1.16213962996575
1.16213962996574
1.16213962996572
1.1621396299657
1.16213962996568
1.16213962996565
1.16213962996562
1.16213962996557
1.16213962996552
1.16213962996547
1.16213962996546
1.16213962996559
1.16213962996589
1.16213962996599
1.16213960349335
1.16213960349328
1.16213960349301
1.1621396034929
1.1621396034929
1.16213960349297
1.16213960349303
1.16213960349309
1.16213960349313
1.16213960349317
1.1621396034932
1.16213960349322
1.16213960349324
1.16213960349325
1.16213960349326
1.16213960349327
1.16213960349328
1.16213960349328
1.16213960349328
1.16213960349328
1.16213960349328
1.16213960349328
1.16213960349328
1.16213960349327
1.16213960349327
1.16213960349326
1.16213960349325
1.16213960349325
1.16213960349324
1.16213960349323
1.16213960349322
1.1621396034932
1.16213960349319
1.16213960349318
1.16213960349316