/*--------------------------------*- C++ -*----------------------------------*\
  =========                 |
  \\      /  F ield         | OpenFOAM: The Open Source CFD Toolbox
   \\    /   O peration     | Website:  https://openfoam.org
    \\  /    A nd           | Version:  10
     \\/     M anipulation  |
\*---------------------------------------------------------------------------*/
FoamFile
{
    format      ascii;
    class       volScalarField;
    location    "7";
    object      T;
}
// * * * * * * * * * * * * * * * * * * * * * * * * * * * * * * * * * * * * * //

dimensions      [0 0 0 1 0 0 0];

internalField   nonuniform List<scalar> 
2500
(
304.461139272875
304.456361328212
304.444956777672
304.43645654202
304.431161373263
304.428068214216
304.426322032107
304.425365237199
304.424859209603
304.424603074493
304.424477595366
304.424418960765
304.42439265782
304.424380734815
304.424375266959
304.424372392977
304.424371115849
304.424370141001
304.424369243251
304.424368641138
304.424368146221
304.424367728338
304.424367389408
304.42436717897
304.424366966618
304.424366794808
304.424366734985
304.42436672341
304.424366772387
304.424366892474
304.424367101047
304.424367491497
304.424367990321
304.42436875546
304.424370068003
304.424372670634
304.424378294923
304.424390685794
304.424418985815
304.424480072813
304.424608615104
304.424869258885
304.42537755092
304.426331980893
304.428069472827
304.431144125576
304.43643198288
304.444976836481
304.456461331876
304.461033615441
303.585516619694
303.558616448991
303.525543887792
303.501479744153
303.486200758286
303.477029002807
303.471692068789
303.468677243198
303.467033417914
303.466173106222
303.465741387401
303.46553419182
303.465439007851
303.465396815424
303.465378677932
303.465370941334
303.465367766616
303.465366270546
303.465365389621
303.465364859576
303.465364466237
303.465364138304
303.465363870762
303.465363688139
303.465363525428
303.465363392163
303.465363326484
303.465363294633
303.46536329841
303.465363359423
303.465363511928
303.465363863996
303.465364587692
303.465366141093
303.465369650136
303.465377965808
303.465397592957
303.46544269748
303.465543261168
303.465758220612
303.466199875595
303.467070747366
303.468719622311
303.47172559806
303.477032269741
303.486158561365
303.50143574583
303.525658108553
303.559022824426
303.585117266357
302.68993743934
302.64261281642
302.595305441255
302.562064318415
302.541174003725
302.528691151069
302.521442937453
302.517349705261
302.515115004815
302.513942128275
302.513351908592
302.513067638993
302.5129365973
302.512878596995
302.512853872167
302.512843639289
302.512839553345
302.512837860287
302.512837062915
302.512836646144
302.512836367167
302.51283613723
302.512835946138
302.512835810922
302.512835699478
302.512835606807
302.512835551654
302.512835514045
302.512835490378
302.512835504538
302.512835600651
302.512835898945
302.51283669438
302.512838601544
302.512843165902
302.512854319442
302.512881009763
302.51294270175
302.513080079703
302.513373625319
302.51397571953
302.515160748483
302.517401272241
302.521484102567
302.528697958594
302.541138388993
302.562067554848
302.595607435613
302.643499535963
302.690183751621
301.88505615533
301.82761924108
301.777841877546
301.744238392293
301.723710483666
301.711750611953
301.704962774452
301.701203996427
301.699185087126
301.698139551364
301.697619326117
301.697371137206
301.697257671432
301.697207880303
301.697186869228
301.697178315544
301.697174968483
301.697173656682
301.697173102246
301.697172840402
301.697172675656
301.697172535424
301.69717241268
301.697172324122
301.697172255855
301.697172198093
301.697172158613
301.697172124496
301.697172092403
301.697172077525
301.697172103268
301.697172274212
301.697172878209
301.697174399209
301.697178101577
301.697187328441
301.697209741717
301.69726218468
301.6973802174
301.697635289861
301.698164681786
301.69922018978
301.701245352916
301.704999474943
301.7117675247
301.723714421535
301.744337459386
301.77835372607
301.828970755881
301.886451689157
301.236313539726
301.180120238161
301.13614231398
301.107598236738
301.090679376995
301.081085788616
301.075770547169
301.072885797302
301.071360900406
301.070580909679
301.070196517353
301.070014483972
301.06993174939
301.069895639098
301.069880495799
301.069874395556
301.069872048647
301.069871167961
301.069870828992
301.069870688303
301.069870607889
301.069870534981
301.069870464712
301.069870413268
301.069870376748
301.069870345126
301.06987032034
301.069870294086
301.069870263517
301.069870240565
301.069870227872
301.069870291366
301.069870682904
301.069871728882
301.069874288016
301.069880765445
301.069896678703
301.069934252801
301.070019534255
301.070205499471
301.070595325724
301.071381585317
301.072911149138
301.075794993995
301.081103220755
301.090707604842
301.107753454693
301.136754487948
301.181715492785
301.238655911371
300.760876227848
300.713733878939
300.679657793843
300.658347842904
300.646089674531
300.639323991537
300.635663819821
300.633715716348
300.632701217469
300.63218794815
300.631936969035
300.63181875807
300.63176523367
300.631741944504
300.631732214721
300.631728324709
300.631726851078
300.631726320309
300.631726135
300.63172607124
300.631726042521
300.631726013195
300.631725978142
300.631725951971
300.631725935811
300.631725921079
300.631725907222
300.631725889339
300.631725865164
300.631725841803
300.631725820304
300.631725825473
300.631726044576
300.631726687516
300.631728269003
300.631732329983
300.631742394761
300.631766317697
300.631820956889
300.63194092357
300.632194416532
300.632710730283
300.633727685638
300.635675865216
300.639335193436
300.646120822353
300.658504284702
300.680239729881
300.715288139287
300.763604471849
300.440790512807
300.40575033489
300.382024372317
300.367693850651
300.359685738449
300.355380136606
300.353104135237
300.351915241055
300.351304680226
300.350998749648
300.350850095469
300.350780345392
300.350748830911
300.350735138014
300.350729429667
300.350727160487
300.350726313092
300.350726021191
300.35072592946
300.35072590458
300.350725902125
300.350725897974
300.350725883882
300.350725872785
300.350725868031
300.350725862663
300.350725855725
300.350725844715
300.350725827893
300.350725808636
300.350725786664
300.350725771469
300.350725882163
300.35072623949
300.350727134428
300.350729465484
300.350735282308
300.350749172176
300.350781036504
300.350851346803
300.351000834593
300.351307800461
300.351919098308
300.353107672357
300.35538408664
300.35970769251
300.367816607815
300.382490845731
300.407051449692
300.443355695172
300.241171311267
300.217619568564
300.202534046808
300.19371264907
300.188917476623
300.186403396484
300.185103770036
300.184437016261
300.18409905568
300.183931169307
300.183850005617
300.183812018172
300.18379486934
300.183787419715
300.183784317348
300.183783089736
300.183782637547
300.18378248869
300.183782451888
300.183782449321
300.183782451006
300.183782452748
300.183782449845
300.183782446487
300.1837824473
300.183782446419
300.183782443382
300.183782437158
300.183782426526
300.183782412811
300.183782395418
300.183782378475
300.1837824275
300.183782609353
300.183783080693
300.183784324537
300.183787444196
300.183794915136
300.183812101793
300.183850150247
300.18393141433
300.184099397746
300.184437182024
300.18510307939
300.186402438543
300.188928262957
300.193792731358
300.202860334089
300.218580976047
300.24324129904
300.125041683461
300.110521822718
300.101658422618
300.096629389912
300.093966417233
300.092603399103
300.091913801537
300.091566112522
300.091392053817
300.091306259397
300.091264952737
300.091245648226
300.091236932182
300.091233143163
300.091231565714
300.091230943956
300.091230718247
300.091230649508
300.091230637798
300.091230640424
300.091230644004
300.091230647101
300.091230647667
300.091230647924
300.091230649513
300.091230649728
300.091230648523
300.09123064528
300.091230639054
300.091230630311
300.091230618658
300.091230606304
300.091230624527
300.091230709901
300.091230943539
300.09123156694
300.091233136224
300.091236899733
300.091245569128
300.091264796152
300.091305987406
300.091391584435
300.091565175105
300.091911811588
300.092600388642
300.093969268682
300.096674025172
300.101862026123
300.111161035243
300.126523405123
300.061638302932
300.053339540769
300.048482742407
300.045803337897
300.0444192862
300.043726918377
300.043383815266
300.04321371929
300.043129575987
300.043088397502
300.043068637854
300.043059409233
300.043055238557
300.043053422995
300.043052666992
300.043052370116
300.043052264139
300.043052235147
300.043052232784
300.043052235607
300.043052238842
300.043052241461
300.043052242818
300.043052243919
300.043052245243
300.043052245759
300.043052245354
300.043052243627
300.043052240207
300.043052235108
300.043052228173
300.043052220928
300.043052226173
300.043052263289
300.043052372967
300.043052668655
300.043053414998
300.043055205313
300.043059329504
300.043068479993
300.043088117028
300.043129086745
300.043212791569
300.043381951744
300.043723784265
300.044418217976
300.04582470894
300.048597819733
300.053727486449
300.062598929302
300.028979106744
300.024544891053
300.022044265515
300.020700339224
300.020022199487
300.019690282466
300.019529057434
300.01945043204
300.019411984867
300.019393295049
300.019384351269
300.0193801741
300.01937828337
300.019377458771
300.019377115235
300.019376980848
300.019376933938
300.019376922466
300.019376922666
300.019376924876
300.019376927134
300.019376928916
300.019376930055
300.019376931014
300.019376931887
300.019376932329
300.019376932195
300.019376931295
300.019376929525
300.019376926765
300.01937692298
300.019376919196
300.019376920109
300.019376935233
300.019376984104
300.019377117622
300.019377455345
300.019378264871
300.019380127576
300.019384256981
300.01939312258
300.019411671206
300.01944981072
300.019527752083
300.019687862036
300.020019998847
300.020708953633
300.022103819381
300.024762224974
300.029551409884
300.013033284551
300.010803121635
300.00958587513
300.008947423408
300.008632303078
300.008481235336
300.008409257631
300.008374715531
300.008358014837
300.00834994788
300.008346096357
300.008344296568
300.008343480257
300.008343123452
300.008342974701
300.008342916742
300.008342897058
300.008342892812
300.008342893413
300.00834289482
300.008342896177
300.008342897237
300.008342897974
300.008342898597
300.008342899099
300.00834289938
300.00834289933
300.008342898882
300.008342898012
300.00834289661
300.008342894681
300.008342892755
300.008342892637
300.008342898549
300.008342919279
300.008342976967
300.008343123126
300.008343472945
300.008344276115
300.008346053136
300.008349865474
300.008357855049
300.008374372394
300.008408479042
300.008479654815
300.008630314753
300.008950113977
300.009614310565
300.010916513015
300.013349997647
300.005623025875
300.004561222291
300.003998106949
300.003709361555
300.003569781965
300.003504175492
300.003473492454
300.003458997566
300.003452067129
300.003448739988
300.00344715454
300.003446412979
300.003446075825
300.003445928092
300.003445866454
300.003445842535
300.003445834647
300.003445833186
300.003445833657
300.003445834443
300.003445835176
300.003445835748
300.003445836162
300.00344583651
300.003445836772
300.003445836923
300.003445836903
300.00344583669
300.003445836281
300.003445835608
300.003445834683
300.003445833749
300.003445833526
300.003445835737
300.003445844171
300.003445868124
300.003445928888
300.003446074015
300.003446406191
300.003447138928
300.003448708032
300.003451998436
300.003458831402
300.003473076957
300.003503257241
300.003568396824
300.003709774337
300.004010696537
300.00461672071
300.005787208005
300.002333249156
300.001852367819
300.001603695511
300.001478833881
300.001419646133
300.001392342512
300.001379799512
300.00137396468
300.001371205422
300.001369888659
300.001369262244
300.001368968885
300.001368835147
300.00136877639
300.001368751854
300.001368742373
300.00136873935
300.001368738887
300.001368739156
300.001368739554
300.001368739918
300.001368740203
300.001368740415
300.00136874059
300.001368740717
300.001368740789
300.001368740781
300.001368740684
300.001368740499
300.001368740193
300.001368739773
300.001368739344
300.001368739191
300.001368739986
300.001368743299
300.001368752894
300.001368777253
300.001368835282
300.001368967587
300.001369258298
300.001369879076
300.001371180319
300.001373892126
300.001379595883
300.001391854881
300.001418814828
300.001478596294
300.001608876701
300.001878003451
300.002413518394
300.000933406724
300.000725377845
300.000620152571
300.000568332601
300.000544215687
300.00053328613
300.000528350685
300.000526089065
300.000525031136
300.000524529225
300.000524290805
300.000524178982
300.000524127853
300.000524105328
300.000524095913
300.00052409229
300.000524091172
300.000524091037
300.000524091174
300.000524091361
300.000524091529
300.000524091661
300.000524091761
300.000524091843
300.0005240919
300.000524091932
300.000524091929
300.000524091887
300.000524091806
300.000524091674
300.000524091493
300.000524091306
300.000524091226
300.000524091503
300.000524092765
300.000524096483
300.00052410593
300.000524128369
300.000524179297
300.000524290676
300.000524527629
300.000525023642
300.000526060057
300.000528257501
300.0005330454
300.000543766258
300.000568035006
300.00062213356
300.000736610146
300.000970626015
300.000360797664
300.000274525211
300.000231719236
300.000211011763
300.000201538683
300.000197316943
300.000195441582
300.000194594702
300.000194202785
300.000194017916
300.000193930215
300.00019388901
300.000193870112
300.000193861761
300.000193858266
300.000193856927
300.000193856528
300.000193856492
300.000193856553
300.000193856634
300.000193856707
300.000193856765
300.000193856809
300.000193856844
300.000193856868
300.000193856881
300.00019385688
300.000193856862
300.000193856829
300.000193856774
300.0001938567
300.000193856623
300.000193856586
300.000193856681
300.00019385715
300.000193858549
300.000193862104
300.000193870519
300.000193889522
300.00019393086
300.000194018409
300.000194201259
300.000194583981
300.000195401284
300.000197205159
300.000201314554
300.00021080359
300.000232419523
300.000279213597
300.000377242568
300.000135029622
300.000100621434
300.000083832407
300.000075842493
300.000072245354
300.000070667362
300.000069977261
300.000069670008
300.00006952931
300.000069463316
300.000069432045
300.000069417325
300.000069410551
300.000069407547
300.000069406288
300.000069405807
300.000069405666
300.000069405657
300.000069405682
300.000069405715
300.000069405744
300.000069405767
300.000069405785
300.000069405799
300.000069405809
300.000069405814
300.000069405813
300.000069405806
300.000069405793
300.000069405772
300.000069405743
300.000069405713
300.000069405698
300.000069405731
300.000069405902
300.000069406415
300.000069407717
300.000069410786
300.000069417678
300.000069432582
300.000069463983
300.000069529362
300.000069666318
300.000069960636
300.000070618108
300.000072140718
300.000075724252
300.000084058472
300.000102492589
300.000141981311
300.000049021628
300.00003578703
300.000029422376
300.000026438305
300.00002511463
300.000024542486
300.000024295946
300.000024187663
300.000024138585
300.000024115691
300.000024104853
300.00002409974
300.000024097378
300.000024096326
300.000024095883
300.000024095714
300.000024095664
300.00002409566
300.000024095669
300.000024095681
300.000024095692
300.0000240957
300.000024095706
300.000024095711
300.000024095715
300.000024095716
300.000024095716
300.000024095714
300.000024095709
300.000024095701
300.000024095691
300.00002409568
300.000024095675
300.000024095688
300.00002409575
300.000024095934
300.0000240964
300.000024097492
300.000024099928
300.000024105161
300.000024116122
300.000024138855
300.000024186471
300.000024289349
300.000024521753
300.000025068435
300.000026378774
300.000029487111
300.000036503357
300.000051843002
300.000017294131
300.000012372581
300.000010035289
300.000008954202
300.000008481172
300.000008279511
300.000008193815
300.000008156661
300.000008139987
300.000008132249
300.000008128588
300.000008126856
300.000008126051
300.00000812569
300.000008125536
300.000008125477
300.000008125457
300.000008125455
300.000008125457
300.00000812546
300.000008125463
300.000008125465
300.000008125467
300.000008125468
300.000008125469
300.000008125469
300.000008125469
300.000008125468
300.000008125467
300.000008125465
300.000008125462
300.000008125459
300.000008125458
300.000008125464
300.000008125487
300.000008125553
300.000008125717
300.000008126098
300.00000812694
300.000008128734
300.000008132467
300.000008140172
300.000008156294
300.000008191279
300.000008271126
300.000008461741
300.000008926657
300.000010050492
300.000012636353
300.000018396856
300.000005938397
300.000004165016
300.000003331939
300.000002951306
300.000002786839
300.000002717614
300.000002688575
300.000002676137
300.000002670607
300.000002668051
300.000002666841
300.000002666266
300.000002665996
300.000002665873
300.000002665819
300.000002665796
300.000002665788
300.000002665785
300.000002665784
300.000002665784
300.000002665783
300.000002665783
300.000002665783
300.000002665783
300.000002665783
300.000002665783
300.000002665783
300.000002665783
300.000002665782
300.000002665782
300.000002665782
300.000002665782
300.000002665783
300.000002665786
300.000002665796
300.000002665821
300.000002665879
300.00000266601
300.000002666297
300.0000026669
300.000002668144
300.000002670696
300.000002676024
300.000002687623
300.000002714339
300.000002779006
300.000002939368
300.000003334014
300.000004258665
300.000006354572
300.000001987805
300.000001367401
300.00000107872
300.000000948276
300.000000892554
300.000000869373
300.000000859764
300.000000855692
300.000000853896
300.000000853068
300.000000852674
300.000000852484
300.000000852393
300.00000085235
300.000000852329
300.000000852319
300.000000852314
300.000000852311
300.000000852309
300.000000852307
300.000000852306
300.000000852305
300.000000852304
300.000000852304
300.000000852303
300.000000852303
300.000000852303
300.000000852303
300.000000852303
300.000000852304
300.000000852304
300.000000852306
300.000000852307
300.00000085231
300.000000852315
300.000000852325
300.000000852347
300.000000852394
300.000000852491
300.000000852692
300.0000008531
300.00000085393
300.000000855653
300.00000085941
300.000000868131
300.000000889513
300.000000943372
300.000001078187
300.000001399526
300.000002139832
300.000000649689
300.000000438592
300.00000034121
300.000000297651
300.000000279234
300.000000271652
300.00000026854
300.000000267233
300.000000266659
300.000000266393
300.000000266264
300.0000002662
300.000000266167
300.00000026615
300.00000026614
300.000000266135
300.000000266131
300.000000266128
300.000000266125
300.000000266123
300.000000266121
300.00000026612
300.000000266119
300.000000266118
300.000000266117
300.000000266117
300.000000266117
300.000000266117
300.000000266118
300.000000266118
300.00000026612
300.000000266121
300.000000266123
300.000000266125
300.000000266129
300.000000266135
300.000000266144
300.000000266162
300.000000266197
300.000000266265
300.000000266399
300.000000266665
300.000000267214
300.000000268407
300.00000027119
300.00000027809
300.000000295725
300.000000340578
300.000000449258
300.000000703555
300.000000207746
300.000000137784
300.000000105789
300.000000091615
300.000000085676
300.000000083251
300.000000082263
300.000000081849
300.000000081665
300.000000081578
300.000000081534
300.00000008151
300.000000081496
300.000000081487
300.000000081481
300.000000081476
300.000000081473
300.00000008147
300.000000081467
300.000000081465
300.000000081463
300.000000081461
300.00000008146
300.000000081459
300.000000081459
300.000000081458
300.000000081458
300.000000081459
300.000000081459
300.00000008146
300.000000081461
300.000000081463
300.000000081465
300.000000081467
300.00000008147
300.000000081474
300.00000008148
300.000000081489
300.000000081503
300.000000081528
300.000000081574
300.000000081661
300.000000081835
300.000000082208
300.00000008308
300.000000085256
300.000000090887
300.000000105423
300.000000141216
300.000000226292
300.000000065223
300.000000042618
300.000000032398
300.000000027918
300.000000026054
300.000000025295
300.000000024986
300.000000024854
300.000000024793
300.000000024762
300.000000024744
300.000000024732
300.000000024724
300.000000024718
300.000000024713
300.000000024709
300.000000024705
300.000000024702
300.000000024699
300.000000024697
300.000000024695
300.000000024694
300.000000024692
300.000000024691
300.000000024691
300.00000002469
300.00000002469
300.000000024691
300.000000024691
300.000000024692
300.000000024693
300.000000024695
300.000000024697
300.000000024699
300.000000024702
300.000000024706
300.00000002471
300.000000024716
300.000000024724
300.000000024735
300.000000024753
300.000000024784
300.000000024841
300.000000024959
300.000000025229
300.0000000259
300.00000002765
300.000000032226
300.000000043689
300.000000071438
300.000000020287
300.00000001317
300.000000010024
300.000000008668
300.000000008105
300.000000007874
300.000000007776
300.000000007732
300.000000007709
300.000000007694
300.000000007685
300.000000007677
300.000000007671
300.000000007665
300.000000007661
300.000000007657
300.000000007653
300.00000000765
300.000000007647
300.000000007645
300.000000007643
300.000000007642
300.00000000764
300.000000007639
300.000000007639
300.000000007638
300.000000007638
300.000000007639
300.000000007639
300.00000000764
300.000000007641
300.000000007643
300.000000007645
300.000000007647
300.00000000765
300.000000007654
300.000000007658
300.000000007662
300.000000007668
300.000000007675
300.000000007685
300.000000007698
300.00000000772
300.00000000776
300.000000007844
300.000000008047
300.000000008571
300.000000009952
300.000000013494
300.000000022316
300.00000000642
300.000000004247
300.000000003347
300.000000002975
300.000000002819
300.00000000275
300.000000002718
300.0000000027
300.000000002688
300.000000002679
300.000000002672
300.000000002665
300.000000002659
300.000000002654
300.00000000265
300.000000002646
300.000000002642
300.000000002639
300.000000002637
300.000000002634
300.000000002632
300.000000002631
300.00000000263
300.000000002629
300.000000002628
300.000000002628
300.000000002628
300.000000002628
300.000000002629
300.00000000263
300.000000002631
300.000000002632
300.000000002634
300.000000002637
300.00000000264
300.000000002643
300.000000002647
300.000000002651
300.000000002656
300.000000002662
300.000000002669
300.000000002678
300.000000002689
300.000000002705
300.000000002733
300.000000002794
300.000000002939
300.000000003319
300.000000004342
300.000000007064
300.000000002227
300.000000001597
300.000000001395
300.000000001325
300.000000001294
300.000000001275
300.000000001262
300.000000001252
300.000000001243
300.000000001236
300.000000001229
300.000000001223
300.000000001217
300.000000001212
300.000000001208
300.000000001204
300.0000000012
300.000000001197
300.000000001195
300.000000001192
300.000000001191
300.000000001189
300.000000001188
300.000000001187
300.000000001186
300.000000001186
300.000000001186
300.000000001186
300.000000001187
300.000000001188
300.000000001189
300.00000000119
300.000000001192
300.000000001195
300.000000001198
300.000000001201
300.000000001205
300.000000001209
300.000000001214
300.00000000122
300.000000001226
300.000000001233
300.000000001241
300.00000000125
300.000000001262
300.00000000128
300.000000001311
300.000000001384
300.000000001623
300.000000002425
300.000000000985
300.000000000826
300.000000000835
300.000000000857
300.000000000863
300.000000000858
300.000000000851
300.000000000843
300.000000000835
300.000000000828
300.000000000822
300.000000000816
300.00000000081
300.000000000805
300.000000000801
300.000000000797
300.000000000793
300.00000000079
300.000000000788
300.000000000786
300.000000000784
300.000000000782
300.000000000781
300.00000000078
300.000000000779
300.000000000779
300.000000000779
300.000000000779
300.00000000078
300.000000000781
300.000000000782
300.000000000784
300.000000000786
300.000000000788
300.000000000791
300.000000000794
300.000000000798
300.000000000802
300.000000000807
300.000000000812
300.000000000818
300.000000000825
300.000000000832
300.00000000084
300.000000000847
300.000000000853
300.00000000085
300.000000000831
300.000000000833
300.000000001042
300.000000000624
300.000000000607
300.000000000679
300.000000000728
300.000000000743
300.000000000743
300.000000000737
300.00000000073
300.000000000722
300.000000000715
300.000000000708
300.000000000702
300.000000000697
300.000000000692
300.000000000688
300.000000000684
300.00000000068
300.000000000677
300.000000000675
300.000000000673
300.000000000671
300.000000000669
300.000000000668
300.000000000667
300.000000000667
300.000000000666
300.000000000666
300.000000000666
300.000000000667
300.000000000668
300.000000000669
300.000000000671
300.000000000673
300.000000000675
300.000000000678
300.000000000681
300.000000000685
300.000000000689
300.000000000694
300.000000000699
300.000000000705
300.000000000712
300.000000000719
300.000000000726
300.000000000732
300.000000000735
300.000000000723
300.000000000678
300.000000000608
300.000000000638
300.000000000523
300.000000000547
300.000000000637
300.000000000693
300.000000000711
300.000000000712
300.000000000706
300.000000000698
300.000000000691
300.000000000683
300.000000000677
300.000000000671
300.000000000665
300.000000000661
300.000000000656
300.000000000652
300.000000000649
300.000000000646
300.000000000644
300.000000000641
300.00000000064
300.000000000638
300.000000000637
300.000000000636
300.000000000636
300.000000000635
300.000000000635
300.000000000635
300.000000000636
300.000000000637
300.000000000638
300.00000000064
300.000000000642
300.000000000644
300.000000000647
300.00000000065
300.000000000654
300.000000000658
300.000000000663
300.000000000668
300.000000000674
300.000000000681
300.000000000688
300.000000000695
300.000000000701
300.000000000703
300.000000000689
300.000000000637
300.000000000547
300.000000000524
300.000000000497
300.000000000533
300.000000000628
300.000000000685
300.000000000703
300.000000000703
300.000000000697
300.000000000689
300.000000000682
300.000000000674
300.000000000668
300.000000000662
300.000000000656
300.000000000651
300.000000000647
300.000000000643
300.00000000064
300.000000000637
300.000000000635
300.000000000633
300.000000000631
300.000000000629
300.000000000628
300.000000000627
300.000000000627
300.000000000626
300.000000000626
300.000000000627
300.000000000627
300.000000000628
300.000000000629
300.000000000631
300.000000000633
300.000000000635
300.000000000638
300.000000000641
300.000000000645
300.000000000649
300.000000000654
300.000000000659
300.000000000665
300.000000000672
300.000000000679
300.000000000687
300.000000000693
300.000000000696
300.000000000682
300.000000000628
300.000000000533
300.000000000495
300.000000000492
300.000000000532
300.000000000627
300.000000000684
300.000000000702
300.000000000701
300.000000000694
300.000000000686
300.000000000678
300.000000000671
300.000000000664
300.000000000658
300.000000000653
300.000000000648
300.000000000644
300.00000000064
300.000000000637
300.000000000634
300.000000000632
300.00000000063
300.000000000628
300.000000000626
300.000000000625
300.000000000624
300.000000000624
300.000000000624
300.000000000624
300.000000000624
300.000000000624
300.000000000625
300.000000000626
300.000000000628
300.00000000063
300.000000000632
300.000000000635
300.000000000638
300.000000000641
300.000000000646
300.00000000065
300.000000000656
300.000000000662
300.000000000669
300.000000000676
300.000000000684
300.000000000692
300.000000000694
300.000000000681
300.000000000628
300.000000000532
300.000000000489
300.000000000495
300.000000000535
300.00000000063
300.000000000685
300.000000000702
300.0000000007
300.000000000693
300.000000000685
300.000000000676
300.000000000669
300.000000000662
300.000000000656
300.000000000651
300.000000000646
300.000000000642
300.000000000638
300.000000000635
300.000000000632
300.00000000063
300.000000000628
300.000000000626
300.000000000625
300.000000000624
300.000000000623
300.000000000622
300.000000000622
300.000000000622
300.000000000622
300.000000000623
300.000000000624
300.000000000625
300.000000000626
300.000000000628
300.00000000063
300.000000000633
300.000000000636
300.00000000064
300.000000000644
300.000000000649
300.000000000654
300.00000000066
300.000000000667
300.000000000675
300.000000000683
300.000000000691
300.000000000695
300.000000000683
300.000000000631
300.000000000535
300.000000000491
300.000000000499
300.00000000054
300.000000000633
300.000000000687
300.000000000702
300.0000000007
300.000000000692
300.000000000683
300.000000000674
300.000000000667
300.00000000066
300.000000000654
300.000000000649
300.000000000644
300.00000000064
300.000000000636
300.000000000633
300.000000000631
300.000000000629
300.000000000627
300.000000000625
300.000000000624
300.000000000623
300.000000000622
300.000000000621
300.000000000621
300.000000000621
300.000000000621
300.000000000622
300.000000000623
300.000000000624
300.000000000625
300.000000000627
300.000000000629
300.000000000632
300.000000000635
300.000000000638
300.000000000642
300.000000000647
300.000000000652
300.000000000659
300.000000000666
300.000000000674
300.000000000683
300.000000000691
300.000000000696
300.000000000685
300.000000000635
300.00000000054
300.000000000496
300.000000000506
300.000000000547
300.000000000638
300.00000000069
300.000000000703
300.000000000699
300.000000000691
300.000000000681
300.000000000673
300.000000000665
300.000000000658
300.000000000652
300.000000000647
300.000000000642
300.000000000638
300.000000000635
300.000000000632
300.000000000629
300.000000000627
300.000000000625
300.000000000624
300.000000000622
300.000000000621
300.000000000621
300.00000000062
300.00000000062
300.00000000062
300.00000000062
300.000000000621
300.000000000622
300.000000000623
300.000000000624
300.000000000626
300.000000000628
300.00000000063
300.000000000633
300.000000000636