/*--------------------------------*- C++ -*----------------------------------*\
  =========                 |
  \\      /  F ield         | OpenFOAM: The Open Source CFD Toolbox
   \\    /   O peration     | Website:  https://openfoam.org
    \\  /    A nd           | Version:  10
     \\/     M anipulation  |
\*---------------------------------------------------------------------------*/
FoamFile
{
    format      ascii;
    class       volVectorField;
    location    "7";
    object      U;
}
// * * * * * * * * * * * * * * * * * * * * * * * * * * * * * * * * * * * * * //

dimensions      [0 1 -1 0 0 0 0];

internalField   nonuniform List<vector> 
2500
(
(-1.38723074029678e-06 -2.13915903207386e-06 3.62717080710662e-25)
(-3.45931257538336e-06 -2.91734824373848e-06 3.33024922345864e-24)
(-3.56351136352781e-06 -3.16804359517804e-06 5.10542149215035e-25)
(-2.89450625375346e-06 -3.27096865078427e-06 1.54523655759974e-25)
(-2.03491563853788e-06 -3.2747100191489e-06 -3.52064114908506e-25)
(-1.37379391192208e-06 -3.25239393191163e-06 -7.61995798291906e-25)
(-9.03919593527614e-07 -3.22630877869903e-06 -1.93848467118048e-25)
(-5.97236117806509e-07 -3.2058012312215e-06 -1.77844815774123e-25)
(-3.96841135517845e-07 -3.19091204400264e-06 -3.89628744032625e-25)
(-2.66937596838598e-07 -3.18094624204665e-06 4.376595641107e-24)
(-1.81367857412306e-07 -3.17457972890255e-06 2.23143708539965e-24)
(-1.23808041838787e-07 -3.17067944799383e-06 4.61546257988883e-24)
(-8.40411673975737e-08 -3.168372220391e-06 4.55340988195125e-24)
(-5.56864951089734e-08 -3.16703558004251e-06 1.71465643793598e-24)
(-3.48525626619148e-08 -3.16626820188113e-06 4.39760327211663e-24)
(-1.91014037959291e-08 -3.16581669404113e-06 1.22175067327835e-24)
(-6.91259659104003e-09 -3.16555399231517e-06 4.50118663077946e-24)
(2.69302213193732e-09 -3.16539284028359e-06 4.73484691003787e-24)
(1.03887822357593e-08 -3.16529640317514e-06 1.02728511708286e-24)
(1.66331609713727e-08 -3.1652373998341e-06 3.3423298522921e-24)
(2.17630623460309e-08 -3.16519718475162e-06 2.71995820061682e-25)
(2.60369143810963e-08 -3.1651770201396e-06 -2.13904479023795e-25)
(2.96610629288816e-08 -3.16516428473549e-06 4.6334321909159e-24)
(3.27989242228417e-08 -3.16516874626371e-06 5.51095646937964e-25)
(3.56011779245988e-08 -3.1651724468795e-06 -7.41909646321157e-26)
(3.82109509763177e-08 -3.16518624150912e-06 3.85493837500569e-24)
(4.0752830981796e-08 -3.16521046711946e-06 1.42604217100423e-25)
(4.33650606556369e-08 -3.16523625783176e-06 1.24268918461977e-24)
(4.61988233074998e-08 -3.16527276657751e-06 4.38009782906952e-24)
(4.94156485335575e-08 -3.16532253064095e-06 -1.7526092645354e-25)
(5.32158758736585e-08 -3.16538697693973e-06 3.62877116877715e-25)
(5.78558010251254e-08 -3.16547564521464e-06 -5.51082523085673e-25)
(6.36626285840395e-08 -3.1656001812627e-06 9.28003587066589e-25)
(7.10895704780613e-08 -3.16578842144619e-06 9.49967010104161e-25)
(8.07978755552031e-08 -3.16608798313109e-06 -9.47470514232931e-26)
(9.37840033754112e-08 -3.16656533265537e-06 3.51230873917211e-24)
(1.11576741986933e-07 -3.16737620563198e-06 -3.10198897404364e-24)
(1.36614130183047e-07 -3.16875282357835e-06 -4.12314363947203e-25)
(1.72794113496972e-07 -3.17109017827001e-06 -2.66643046043956e-26)
(2.26509760937795e-07 -3.17500785011329e-06 -2.46019751890131e-24)
(3.07969207956368e-07 -3.18135171121617e-06 -6.203958444124e-24)
(4.33509405487734e-07 -3.19125164855552e-06 -5.66918431671125e-24)
(6.29272876852664e-07 -3.2060231531835e-06 -3.26011881041381e-24)
(9.31499400030657e-07 -3.22649997970807e-06 -5.25342310067009e-24)
(1.39814236996535e-06 -3.25287907804312e-06 -6.04818375637373e-24)
(2.06078450256846e-06 -3.27622345807394e-06 -3.48746975408785e-24)
(2.93074740701334e-06 -3.27384803486067e-06 -5.42949104653597e-24)
(3.61861239299072e-06 -3.169810669836e-06 -5.69900348877974e-24)
(3.50722607906301e-06 -2.91181708156769e-06 -2.89355894652219e-24)
(1.39732861725818e-06 -2.1353359270081e-06 -3.58128484696663e-24)
(-1.7896534112238e-06 -2.63568103705105e-06 1.14510409320792e-25)
(-5.88052167404445e-06 -4.48964315201913e-06 2.0566668348312e-26)
(-6.3414731767238e-06 -5.82259969083714e-06 3.71802706094863e-25)
(-5.33676302419484e-06 -6.34659560566379e-06 3.66260826988851e-26)
(-3.87131755729558e-06 -6.33664449840853e-06 -1.95446523540355e-24)
(-2.69327663819181e-06 -6.15548663619782e-06 -2.61458167155245e-24)
(-1.83099362137249e-06 -5.97409741655229e-06 -6.81774125373562e-25)
(-1.2526125644938e-06 -5.83681468370929e-06 -7.02116513461501e-25)
(-8.65449457694536e-07 -5.7431469475528e-06 -2.69264748677048e-24)
(-6.0704250051471e-07 -5.68211970006549e-06 4.99104063456109e-25)
(-4.31135544415329e-07 -5.64340940679892e-06 4.43233123982104e-24)
(-3.08278864638185e-07 -5.61913325744093e-06 4.06774912122635e-24)
(-2.19921076241911e-07 -5.60393881262052e-06 1.93164963470856e-24)
(-1.54353875028228e-07 -5.59432757096839e-06 2.89438677081441e-24)
(-1.04309755606274e-07 -5.58810884491031e-06 6.90875642561744e-25)
(-6.51585945939964e-08 -5.58394588617897e-06 1.34996703594812e-24)
(-3.39074031410256e-08 -5.58107025804583e-06 3.17954864853788e-24)
(-8.55290690721928e-09 -5.57901446080088e-06 1.49372525425926e-24)
(1.23069518645648e-08 -5.5775031614462e-06 7.662801157978e-25)
(2.96841876603351e-08 -5.57637113987911e-06 4.59431380122422e-26)
(4.43330054340481e-08 -5.57551912673312e-06 -4.47182494772478e-25)
(5.68553158576864e-08 -5.574881641286e-06 -2.13622683978917e-24)
(6.77415937685125e-08 -5.57441132174152e-06 2.1452514103712e-24)
(7.7404285998229e-08 -5.57410192576377e-06 3.40199723829554e-25)
(8.6216349193282e-08 -5.573909634541e-06 -1.50409219596312e-24)
(9.45215264151242e-08 -5.57384706003812e-06 1.57733711488009e-24)
(1.02658090697856e-07 -5.57391205599618e-06 -8.31098104653123e-25)
(1.10966388919625e-07 -5.5741015441455e-06 2.88176388683143e-24)
(1.19814552829569e-07 -5.57443462857206e-06 2.20020776789876e-24)
(1.29611036245722e-07 -5.57494280264555e-06 -1.6020624373929e-24)
(1.40833112870535e-07 -5.57566311023816e-06 1.0597929163922e-24)
(1.5407540217787e-07 -5.57665990142462e-06 -1.6898622146124e-24)
(1.70080553419719e-07 -5.57802989092584e-06 2.9552210668384e-24)
(1.89837829525175e-07 -5.57994279164175e-06 2.82181821432667e-24)
(2.14747892926754e-07 -5.58268024393274e-06 -1.35056844576684e-24)
(2.46824078689082e-07 -5.58671369822014e-06 1.29549715356615e-24)
(2.89069612954627e-07 -5.59282203070756e-06 -1.71645015344651e-24)
(3.46135867459723e-07 -5.60233610494981e-06 -3.09327277851864e-25)
(4.25296402915583e-07 -5.61741557438164e-06 7.10885163441377e-25)
(5.3830395227634e-07 -5.64157102354917e-06 -5.43544346126462e-24)
(7.03698010982933e-07 -5.68010749142723e-06 -5.89076216800145e-24)
(9.51021610329635e-07 -5.74089894654303e-06 -5.87670518612164e-24)
(1.32656001462014e-06 -5.83442754497073e-06 -6.98983811522711e-24)
(1.89366431432164e-06 -5.9722833379503e-06 -5.57213886043603e-24)
(2.74708683011432e-06 -6.15638273600225e-06 -6.15610977970281e-24)
(3.92524821148418e-06 -6.34422924767018e-06 -7.48815535637361e-24)
(5.40792742794496e-06 -6.36239957571907e-06 -5.88664420828198e-24)
(6.44791047783733e-06 -5.83106385049444e-06 -5.90666395245649e-24)
(5.98040900635367e-06 -4.46316884065921e-06 -5.90422129827702e-24)
(1.81444535247612e-06 -2.60288801481744e-06 -2.96799841981945e-24)
(-9.8393832156868e-07 5.95261272859724e-07 -3.44111266975281e-25)
(-5.3120405672492e-06 -1.46071308489101e-06 -3.78733389968421e-24)
(-6.00517969305571e-06 -3.90308472320177e-06 -9.43880418917181e-26)
(-5.30506476352799e-06 -4.87992666328741e-06 -2.82264106257994e-25)
(-4.01669773642423e-06 -4.87068054721642e-06 -4.69481279655858e-24)
(-2.92184766265619e-06 -4.52329729203435e-06 -4.65500710494651e-24)
(-2.08006176785819e-06 -4.17512823192658e-06 -9.55097473300005e-25)
(-1.49150624750295e-06 -3.91180062886005e-06 -1.06366221515567e-24)
(-1.08067289220558e-06 -3.73328542949573e-06 -5.69999458515355e-24)
(-7.94109685253918e-07 -3.61721064503224e-06 -3.6905052078953e-24)
(-5.90056114324166e-07 -3.54311698945717e-06 5.6909752723393e-24)
(-4.41036476308924e-07 -3.4958384011057e-06 2.3252103425002e-24)
(-3.29299299567426e-07 -3.46537460643697e-06 -2.44214352694054e-24)
(-2.43256380895615e-07 -3.44534138719983e-06 3.67819363680983e-24)
(-1.75461181505421e-07 -3.43178515214491e-06 -3.30037398114723e-24)
(-1.20976427946124e-07 -3.4223268560027e-06 4.98753326023278e-25)
(-7.64672069493374e-08 -3.41550158639534e-06 9.01131927589554e-25)
(-3.9598428684535e-08 -3.41044695485402e-06 -2.26151859600622e-24)
(-8.67930212496433e-09 -3.40662238815582e-06 -2.61002283040759e-25)
(1.7546376412325e-08 -3.40368401267613e-06 -4.01000602402459e-24)
(4.00626547986135e-08 -3.40143198397128e-06 -1.33151630756385e-24)
(5.96663649174546e-08 -3.39971402604329e-06 -4.63627240797336e-24)
(7.7009451501795e-08 -3.39843884374443e-06 -1.88686781469118e-25)
(9.266740737562e-08 -3.39754388289567e-06 -1.82114624075181e-25)
(1.07158796195272e-07 -3.3969920119146e-06 -4.04790396977791e-24)
(1.20961532129856e-07 -3.39677103738693e-06 -6.04872570501907e-25)
(1.3455345168339e-07 -3.3968819587965e-06 -2.81227551292615e-24)
(1.48414989527054e-07 -3.39733155396071e-06 4.79889581010409e-24)
(1.63055315697863e-07 -3.39816053994708e-06 4.99614919727625e-25)
(1.79036540069303e-07 -3.39943219359553e-06 -3.78827270979384e-24)
(1.97009766800849e-07 -3.40122859070134e-06 2.80588915398034e-24)
(2.17760936762221e-07 -3.40369193889869e-06 -3.23347314621117e-24)
(2.4225345842725e-07 -3.40703917388124e-06 5.07940108741224e-24)
(2.71731500813137e-07 -3.41161033541527e-06 4.73269641478514e-24)
(3.07873216244962e-07 -3.41794379190772e-06 -3.24790270696826e-24)
(3.53023133936357e-07 -3.42694336349842e-06 -6.42207727289756e-25)
(4.10524111978839e-07 -3.44003794015134e-06 -2.9400751429295e-25)
(4.85329596659485e-07 -3.45964621329057e-06 2.19282522408016e-25)
(5.84894469053163e-07 -3.48970169231372e-06 3.30744941307911e-24)
(7.20857706280148e-07 -3.53659912791584e-06 -6.90169729622709e-24)
(9.10988757541314e-07 -3.6103424674256e-06 -3.97940629336856e-24)
(1.18292038285947e-06 -3.72614598500393e-06 -3.98699843238285e-24)
(1.57850964646107e-06 -3.90479829232483e-06 -8.99364766834999e-24)
(2.15224123562741e-06 -4.1697571230707e-06 -4.05297793770129e-24)
(2.98171325395564e-06 -4.52368788494205e-06 -4.35872502190531e-24)
(4.07352063586659e-06 -4.88437620208403e-06 -9.29740441105573e-24)
(5.37725344971188e-06 -4.91015196829594e-06 -4.27896379378052e-24)
(6.11537778851113e-06 -3.92153803796436e-06 -4.11573265386784e-24)
(5.43081682514354e-06 -1.41569167330537e-06 -7.67498095524615e-24)
(1.02388190446011e-06 6.69838864746761e-07 -1.85194145286873e-24)
(-2.31392926883422e-07 3.67179851320595e-06 -3.27203909669697e-25)
(-3.39822019180649e-06 2.01176673061422e-06 -4.24386228176322e-24)
(-4.17557321972727e-06 -1.37181708412204e-06 -2.34686155926023e-26)
(-4.01147928269862e-06 -2.82428408064849e-06 -1.63289217640891e-26)
(-3.26411689832325e-06 -2.92934828382562e-06 -1.93290912414328e-24)
(-2.54785906372369e-06 -2.52440391656059e-06 -2.59791586274344e-24)
(-1.93835240899791e-06 -2.08712186625953e-06 -5.21629261487931e-25)
(-1.47798755051576e-06 -1.74544604917771e-06 -5.68990668512734e-25)
(-1.13239364646116e-06 -1.50911435592601e-06 -3.19557975299151e-24)
(-8.74597541908378e-07 -1.35229446531883e-06 -3.86054246084166e-24)
(-6.79580382040391e-07 -1.2497999306096e-06 3.28043509252649e-24)
(-5.29453195455826e-07 -1.18252555192648e-06 -2.27355760476174e-25)
(-4.11850187652214e-07 -1.13775276740215e-06 -3.19609612418162e-24)
(-3.18037205745325e-07 -1.10728600163907e-06 1.58284865823723e-24)
(-2.4202874703027e-07 -1.08598771936728e-06 -3.59190095420073e-24)
(-1.79562076270279e-07 -1.07066469259049e-06 1.72348432696755e-25)
(-1.27571128731927e-07 -1.05933047191788e-06 -1.1954580756637e-24)
(-8.38069974556961e-08 -1.05076267597822e-06 -2.57917318982297e-24)
(-4.65567498649045e-08 -1.04417226072995e-06 -2.16536120358619e-25)
(-1.45040222985117e-08 -1.03905708136781e-06 -3.90141408218844e-24)
(1.34068581218883e-08 -1.03508264717658e-06 -8.7561949935428e-25)
(3.80551755278652e-08 -1.03202866816954e-06 -2.57039148101261e-24)
(6.01768526560745e-08 -1.02975243601043e-06 -1.7945340203405e-24)
(8.04226253229261e-08 -1.0281427462112e-06 -9.78744380257697e-26)
(9.93845691224854e-08 -1.02714842638244e-06 -1.87221555738298e-24)
(1.17616819239056e-07 -1.02674236241279e-06 -1.96923471889593e-24)
(1.3567539388662e-07 -1.02691619016375e-06 -1.34238276597723e-24)
(1.5411216378007e-07 -1.02770447958503e-06 2.24969533884402e-24)
(1.73508926440676e-07 -1.0291625669214e-06 -1.46308931105325e-24)
(1.9451614617705e-07 -1.03137979424768e-06 -2.19061980900194e-24)
(2.17862612971432e-07 -1.03451199440904e-06 8.67894701473638e-25)
(2.44406098002894e-07 -1.03876412781234e-06 -1.88490313603739e-24)
(2.75190419296768e-07 -1.04447519063884e-06 2.79743618771199e-24)
(3.11530692619498e-07 -1.05215321563913e-06 2.67148475274164e-24)
(3.55116539566385e-07 -1.06259307205906e-06 -1.92068458617892e-24)
(4.08202417428821e-07 -1.07703238793031e-06 -2.18762531012432e-24)
(4.73847515457209e-07 -1.09746435603546e-06 1.62389379083778e-24)
(5.56311021774505e-07 -1.12707819003635e-06 3.23697423383229e-25)
(6.61593319983353e-07 -1.17102848616707e-06 1.08831277132676e-24)
(7.98463992691943e-07 -1.2375315937048e-06 -4.28672672907854e-24)
(9.79288996727132e-07 -1.33934991619959e-06 -5.62623939713067e-25)
(1.22216049343752e-06 -1.49573148963306e-06 -3.85637183920306e-25)
(1.5521929319983e-06 -1.7323707422672e-06 -5.06649622548951e-24)
(1.99724444015563e-06 -2.07668975216788e-06 -7.35127936384722e-25)
(2.59319687189074e-06 -2.52273990079798e-06 -8.48859222167738e-25)
(3.30313264431123e-06 -2.94761483127427e-06 -5.69416163416585e-24)
(4.05981828342014e-06 -2.86845397314434e-06 -7.68680427818005e-25)
(4.25568539088708e-06 -1.40518378057718e-06 -4.65435068315005e-25)
(3.50245887694492e-06 2.06434787407149e-06 -4.97684530486359e-24)
(2.77050850521045e-07 3.77540313068988e-06 5.04062990868044e-25)
(2.34212464399919e-07 5.78546473982273e-06 2.03621544538515e-25)
(-1.36557931194799e-06 4.68462742471508e-06 -1.14995644452728e-24)
(-2.12340442482204e-06 7.2826082625868e-07 6.1296215104612e-25)
(-2.44185067847873e-06 -1.13556783088224e-06 4.4321549969248e-25)
(-2.26671000430287e-06 -1.43961473825793e-06 7.90020052871711e-25)
(-1.97308641952006e-06 -1.08970832239151e-06 -8.08599125338196e-25)
(-1.64051973595376e-06 -6.49455579237418e-07 5.97126202094618e-26)
(-1.34463491927562e-06 -2.84729161012067e-07 6.57372152812363e-26)
(-1.09278064361291e-06 -2.27083986105569e-08 -9.97764857792302e-25)
(-8.85734290769637e-07 1.57143579224248e-07 -1.17133215720677e-24)
(-7.16853520675067e-07 2.78675423244162e-07 2.10333458630572e-24)
(-5.79050404185642e-07 3.61147425801267e-07 8.29854440739809e-25)
(-4.66260633150509e-07 4.17875477692779e-07 -4.64895895165577e-25)
(-3.7327353672269e-07 4.57692433429769e-07 1.12905036060289e-24)
(-2.96030399319969e-07 4.86296385445475e-07 -8.96739585126419e-25)
(-2.3130965514119e-07 5.07362285687211e-07 7.01165160948844e-25)
(-1.76603599836647e-07 5.23223198416002e-07 3.60353673364273e-25)
(-1.29932117975364e-07 5.35399012252748e-07 -9.56323653169704e-26)
(-8.97234647065854e-08 5.44863337730158e-07 6.68726185522342e-25)
(-5.4722626961895e-08 5.52258574175834e-07 -8.60204341856373e-25)
(-2.38861341993053e-08 5.58038561801509e-07 1.68802919131783e-25)
(3.65920382376636e-09 5.62497810764957e-07 -6.0910967685006e-25)
(2.86660693310802e-08 5.65829493947054e-07 -1.07659786964167e-25)
(5.18109920838342e-08 5.68178459639204e-07 4.60388722093473e-25)
(7.37080380747525e-08 5.69616105144577e-07 -3.0818609272659e-25)
(9.49406893017544e-08 5.7018876148914e-07 -1.89601338846603e-25)
(1.16082238797962e-07 5.69902891397884e-07 -2.56132558317393e-25)
(1.37711440226305e-07 5.68707993069132e-07 1.14010341927704e-24)
(1.6044403504951e-07 5.66532061764021e-07 -3.31830858201462e-25)
(1.84938350104245e-07 5.63256524554492e-07 -8.83488183048061e-25)
(2.11945506141833e-07 5.58663022163025e-07 2.53077621559702e-25)
(2.42329288295142e-07 5.52466336241189e-07 -1.09470218453552e-24)
(2.7710922134843e-07 5.4424151058006e-07 1.05715836092526e-24)
(3.17543503600546e-07 5.33326770389339e-07 1.14742603195274e-24)
(3.65182224770374e-07 5.18716132115265e-07 -8.20938537674013e-25)
(4.21988000591615e-07 4.98908630129831e-07 -6.69485199314367e-25)
(4.90462298517843e-07 4.71549986374526e-07 4.97717380845657e-25)
(5.73813574706546e-07 4.32989065525826e-07 3.72080233418306e-26)
(6.76079207662167e-07 3.77501545519548e-07 2.39035498435186e-25)
(8.02487044032888e-07 2.96208066663142e-07 -2.90005798119593e-24)
(9.59072261288738e-07 1.75744415977545e-07 -7.77202106675834e-25)
(1.15307238871014e-06 -3.36240871596447e-09 -6.44599230106147e-25)
(1.39110772664414e-06 -2.65631499028674e-07 -3.26888276162259e-24)
(1.67296079607228e-06 -6.33586530888647e-07 -7.57464992841671e-25)
(1.99201803265226e-06 -1.084771382482e-06 -8.764579425078e-25)
(2.27644205937219e-06 -1.45989512814411e-06 -3.63191056130228e-24)
(2.45360516842732e-06 -1.19023311896801e-06 -8.26186514724815e-25)
(2.15639509078102e-06 6.7918041007505e-07 -8.07324269121201e-25)
(1.4306966370805e-06 4.73544332695585e-06 -4.01365954465771e-24)
(-1.96684111564586e-07 5.90415480257879e-06 -7.3813799693002e-26)
(4.33622109624756e-07 6.7842840130263e-06 5.97657917263885e-25)
(1.5499260965311e-07 6.18324265796974e-06 3.82146456741448e-25)
(-5.24350736223667e-07 2.05897865163861e-06 1.0535049289905e-24)
(-1.140556385668e-06 -7.52321032255275e-08 5.81521033260781e-25)
(-1.38961743705179e-06 -5.82069002568774e-07 2.50515135311419e-25)
(-1.42594866485138e-06 -3.42585477808067e-07 -5.21592154555317e-26)
(-1.32347066152219e-06 4.92748628376123e-08 4.07524406635372e-25)
(-1.1722429465511e-06 4.00199029279348e-07 4.56986487888198e-25)
(-1.00890405283835e-06 6.64556498189021e-07 1.38371852242431e-25)
(-8.5436780716464e-07 8.53284951798504e-07 2.41217314185803e-25)
(-7.16334152435642e-07 9.85494288844933e-07 1.68409166270838e-24)
(-5.96436952578271e-07 1.07829077756632e-06 1.35381005934991e-24)
(-4.93928258647215e-07 1.1441492317904e-06 7.50160225264271e-25)
(-4.06732255712087e-07 1.19168364511901e-06 1.25963215663628e-24)
(-3.32621843151617e-07 1.22666712071495e-06 5.31316250078039e-25)
(-2.69434838815398e-07 1.2529361851414e-06 1.12836488542705e-24)
(-2.1526977226296e-07 1.2730239560608e-06 1.3031143326857e-24)
(-1.68516869005982e-07 1.28861327091728e-06 1.06682719900615e-24)
(-1.27824239571181e-07 1.30083181102263e-06 1.29758251572771e-24)
(-9.20468957198425e-08 1.31044167445272e-06 6.43908759193089e-25)
(-6.02185006225261e-08 1.31797110015612e-06 8.75681957786053e-25)
(-3.15159112189583e-08 1.32378466189187e-06 4.11386377612591e-25)
(-5.20989403028048e-09 1.32812826934101e-06 8.84769174765003e-25)
(1.9356590627306e-08 1.33117093924995e-06 8.51061428393541e-25)
(4.27901614068006e-08 1.33301352045222e-06 4.53725576629011e-25)
(6.56688513624865e-08 1.33370672087765e-06 8.1738427406011e-25)
(8.85560337721303e-08 1.33325079686075e-06 2.07710561768549e-25)
(1.12023746538096e-07 1.33160086363004e-06 7.20839710566077e-25)
(1.36679962396281e-07 1.32865881495446e-06 3.41363792379076e-25)
(1.63168334536176e-07 1.32426406767898e-06 -2.3821841141463e-25)
(1.92204519786519e-07 1.31817445004463e-06 1.69416418694495e-25)
(2.24611825524414e-07 1.31001906489187e-06 -7.74485140982334e-25)
(2.61336132419444e-07 1.29929534750495e-06 2.43119639527938e-25)
(3.03504586073094e-07 1.28522478653881e-06 3.34722902839414e-25)
(3.52456298030504e-07 1.26666701075891e-06 -2.93937860117482e-25)
(4.09786015204377e-07 1.24194439266015e-06 9.36439070938445e-26)
(4.7736731934753e-07 1.20851169526821e-06 -8.99477402143843e-26)
(5.57332237300896e-07 1.16254443944013e-06 -2.03220133332836e-25)
(6.51867446638003e-07 1.0982587162522e-06 5.56521370554487e-26)
(7.63043187523531e-07 1.00699953570747e-06 -1.17014434517285e-24)
(8.91521413316487e-07 8.76212853063057e-07 -7.14186662528534e-25)
(1.03573054617764e-06 6.88582827823075e-07 -6.6709725154135e-25)
(1.18778099598165e-06 4.24240683550898e-07 -1.29251574568477e-24)
(1.32694652121867e-06 7.00906028380289e-08 -6.41703851644675e-25)
(1.41658963609888e-06 -3.33614125769886e-07 -7.35387659792369e-25)
(1.36896445689434e-06 -6.01459908056085e-07 -1.57402037954885e-24)
(1.11540752448153e-06 -1.35186522715622e-07 -7.26876479958957e-25)
(5.09575306239512e-07 1.9976546502101e-06 -6.74831967726057e-25)
(-1.38027958933651e-07 6.22656769695096e-06 -1.49501068166478e-24)
(-4.12990155914188e-07 6.90617962642638e-06 -1.11276788032426e-25)
(4.69587075270209e-07 6.84068012395391e-06 7.42807862109759e-25)
(1.01009003450756e-06 6.60998568164044e-06 1.65745497578276e-24)
(4.36017735963237e-07 2.62979362948879e-06 1.16009435784046e-24)
(-2.84043257020421e-07 3.7076363913957e-07 5.50031004484799e-25)
(-7.63989519236753e-07 -2.98566529109334e-07 3.48393575562151e-25)
(-9.98558999629657e-07 -1.81005341839752e-07 5.5558470798296e-25)
(-1.049504755128e-06 1.41309457625416e-07 5.02087964835923e-25)
(-1.00293226077826e-06 4.59426632752066e-07 5.66038207659112e-25)
(-9.0932659001253e-07 7.12405913380743e-07 8.42357900699049e-25)
(-7.99897208538262e-07 9.00727869284578e-07 1.14820768792807e-24)
(-6.90998189355685e-07 1.03755549090427e-06 1.03428289895622e-24)
(-5.89912861689269e-07 1.13677291263654e-06 1.45203070347446e-24)
(-4.99647537490524e-07 1.20926056551938e-06 1.39685464318429e-24)
(-4.20495228430467e-07 1.26289805599708e-06 9.52313722095346e-25)
(-3.51716090930981e-07 1.30322085278727e-06 1.24773558410606e-24)
(-2.92083080608986e-07 1.33401210600601e-06 1.20464767078046e-24)
(-2.40293744610513e-07 1.3578714928506e-06 1.59031126572555e-24)
(-1.95099366446126e-07 1.37656455510986e-06 1.79513799351214e-24)
(-1.55380474697177e-07 1.39131617450677e-06 1.45716536038138e-24)
(-1.2015907954369e-07 1.40297849309276e-06 1.54122932763957e-24)
(-8.85659128109996e-08 1.41213855466858e-06 1.0966268417708e-24)
(-5.9846553563542e-08 1.4192055199123e-06 9.88981803285506e-25)
(-3.33253571930501e-08 1.42447896581479e-06 1.26471572770134e-24)
(-8.37688665778913e-09 1.42814845168405e-06 9.28445724599066e-25)
(1.55750108028569e-08 1.43033401601791e-06 1.00563790117003e-24)
(3.90798307310393e-08 1.4310918209407e-06 1.23015782889366e-24)
(6.26788592288876e-08 1.43042734658058e-06 6.49437146168507e-25)
(8.69201899316567e-08 1.42828979246101e-06 3.44048798426517e-25)
(1.12379931348557e-07 1.42456321657773e-06 6.70495458730583e-25)
(1.3966561232066e-07 1.41904869662725e-06 2.79697863563467e-25)
(1.69443864831715e-07 1.41147839308851e-06 -1.26243542869054e-25)
(2.02464273027838e-07 1.40143014789029e-06 -3.19066738925557e-25)
(2.39571115130678e-07 1.38832790625879e-06 -3.42129667995871e-25)
(2.81735704627177e-07 1.37131295011872e-06 -1.92002727020218e-25)
(3.30057536570792e-07 1.34916980330817e-06 2.04133391844006e-25)
(3.85747592952661e-07 1.32011331090911e-06 4.56263686236917e-25)
(4.50084536023193e-07 1.28155208052604e-06 -3.85774126000217e-25)
(5.24263325213017e-07 1.22970458543493e-06 -3.13068692072224e-25)
(6.08962620083729e-07 1.15903994617808e-06 -1.17995412157605e-25)
(7.03847162830778e-07 1.06164301562829e-06 -1.74125873446838e-26)
(8.05792694475437e-07 9.26556019826818e-07 -6.2611012703992e-25)
(9.07481159242502e-07 7.39716527272139e-07 -6.52019062835751e-25)
(9.92217483277716e-07 4.87205225392527e-07 -6.06821153577072e-26)
(1.02869178307811e-06 1.66339098895149e-07 -5.69980167781557e-25)
(9.65904006445415e-07 -1.67742409588046e-07 -6.20918577862957e-25)
(7.19067065825385e-07 -3.15050779148419e-07 -1.41403555275486e-25)
(2.30220945355534e-07 3.09676957697933e-07 -6.25490942897802e-25)
(-4.87678751277386e-07 2.56023717409122e-06 -5.03807641813755e-25)
(-1.03524497338582e-06 6.64203851256996e-06 2.35860567828765e-25)
(-4.66421943221142e-07 6.95632687713127e-06 1.86952283536774e-26)
(4.35141379432258e-07 6.32792418855696e-06 6.51756710259557e-25)
(1.31940503386348e-06 6.36649952339246e-06 1.81038162500482e-24)
(8.57719314279561e-07 2.70675951649862e-06 9.76027781046339e-25)
(1.72520017026385e-07 4.34010801191949e-07 4.19249158954556e-25)
(-3.7957660615508e-07 -3.45207515359779e-07 2.02384642596015e-25)
(-6.99697896461932e-07 -3.36668045640936e-07 7.16558779286984e-25)
(-8.34237845308599e-07 -8.60968884102996e-08 4.44918105371354e-25)
(-8.53413406897101e-07 1.92066563725834e-07 4.99539920672388e-25)
(-8.09230722198745e-07 4.26519030243464e-07 9.70533199389149e-25)
(-7.3512392488659e-07 6.0858488779769e-07 1.12196427562221e-24)
(-6.51153540158585e-07 7.45673526130056e-07 5.02699715731712e-25)
(-5.67512003568614e-07 8.48187536145754e-07 1.03073836394842e-24)
(-4.89472307504465e-07 9.25117419581023e-07 1.2833446826767e-24)
(-4.18934449035121e-07 9.83356783153584e-07 5.88210104524882e-25)
(-3.56281473917164e-07 1.02797777219736e-06 1.17541872782959e-24)
(-3.01054910795818e-07 1.06257401808986e-06 9.56320953854468e-25)
(-2.52455458448919e-07 1.08969492976072e-06 1.26089840224478e-24)
(-2.09594543075971e-07 1.1111381241554e-06 1.56759475792747e-24)
(-1.71588034772015e-07 1.12816937377865e-06 1.20640952894531e-24)
(-1.37612017081392e-07 1.14168331387626e-06 1.46683845361705e-24)
(-1.06920782880883e-07 1.15232619278939e-06 9.51510361494114e-25)
(-7.88339047100578e-08 1.16053768964229e-06 1.02604504898812e-24)
(-5.2731420786414e-08 1.16664661326752e-06 1.00076740982847e-24)
(-2.80444087434418e-08 1.17086835297572e-06 7.49718706614986e-25)
(-4.23121009931695e-09 1.17334025668049e-06 1.01807804385205e-24)
(1.92277255817571e-08 1.17412181426294e-06 1.01778057597467e-24)
(4.28410452880825e-08 1.17322174414822e-06 6.5272687836828e-25)
(6.71207001913745e-08 1.17058317039998e-06 5.58475201078851e-26)
(9.26007982042867e-08 1.16607361695682e-06 4.9757960018386e-25)
(1.19850171007619e-07 1.15948108656399e-06 4.35324683850313e-25)
(1.4947247559848e-07 1.15049677721335e-06 -2.26049629411837e-25)
(1.8213239437788e-07 1.13866465983084e-06 -6.03062574842283e-26)
(2.18560981265467e-07 1.12336575595611e-06 -5.39624344589741e-25)
(2.595698284591e-07 1.10369417113832e-06 -4.36431117440058e-25)
(3.06016264304949e-07 1.07837994350727e-06 3.84191624279913e-25)
(3.58758200368777e-07 1.04563222444112e-06 3.89443868627026e-25)
(4.18561596012281e-07 1.00290951836248e-06 -2.66509891765804e-25)
(4.85840201180372e-07 9.46618522696958e-07 -2.82162437087232e-25)
(5.60147653033853e-07 8.71701645517147e-07 -2.27468118025664e-25)
(6.39523289415396e-07 7.7123438174455e-07 5.35127127555568e-25)
(7.18545722315556e-07 6.36186245122245e-07 -2.94007378316021e-25)
(7.86923956265992e-07 4.5599085669941e-07 -2.94727836611729e-25)
(8.2416655488622e-07 2.2257383612004e-07 6.64689492417563e-25)
(7.96576753640122e-07 -5.75928175762332e-08 -2.39579017940447e-25)
(6.51387937002669e-07 -3.19276309949966e-07 -2.37604799374375e-25)
(3.1920039867227e-07 -3.57915562072244e-07 7.80742337923735e-25)
(-2.43658011964889e-07 3.7398545308394e-07 -2.78777931961771e-25)
(-9.31017955481797e-07 2.63155203066432e-06 -1.4178397174744e-25)
(-1.37223223282118e-06 6.3841763948485e-06 1.33144031759058e-24)
(-4.44526544437216e-07 6.42990389209763e-06 1.31636368271877e-25)
(3.79402579735455e-07 5.60139443032211e-06 5.03567146040106e-25)
(1.28865020287873e-06 5.85467601747456e-06 1.86941042674455e-24)
(9.34495448470125e-07 2.56857434434857e-06 7.32733143973486e-25)
(3.55129959688376e-07 3.46461357003751e-07 3.45800181224292e-25)
(-1.70589158757443e-07 -4.97782295638018e-07 7.38682918189786e-25)
(-5.0233929813952e-07 -5.77075924389945e-07 1.01545139809186e-24)
(-6.71029480658455e-07 -3.91523814930001e-07 3.66683917115125e-25)
(-7.26549002200741e-07 -1.53958537961045e-07 3.97461045474866e-25)
(-7.15125980449038e-07 5.87767487607677e-08 1.05230046215923e-24)
(-6.67426934644224e-07 2.30997882333161e-07 1.05016483212595e-24)
(-6.03841505744917e-07 3.65200192387022e-07 -3.05466544361805e-26)
(-5.35496812624829e-07 4.68526858848065e-07 6.00548893131603e-25)
(-4.68795266528093e-07 5.48034421782868e-07 1.10965802572051e-24)
(-4.06632644656584e-07 6.09528027012603e-07 1.19843593863561e-25)
(-3.50179778499863e-07 6.57464103403044e-07 1.0733075564833e-24)
(-2.99577416777459e-07 6.95171817040688e-07 6.53155761785559e-25)
(-2.54464018551164e-07 7.2506398579779e-07 8.34401776377113e-25)
(-2.14251038182542e-07 7.48894480098035e-07 1.35580086635315e-24)
(-1.78279223033067e-07 7.67939457655777e-07 8.77950362008661e-25)
(-1.45885619591229e-07 7.83109883283741e-07 1.39850424079928e-24)
(-1.16433164756587e-07 7.95076285788519e-07 7.27959802306186e-25)
(-8.93300246298885e-08 8.04320962536772e-07 1.03014271849979e-24)
(-6.40169734787641e-08 8.11180903384749e-07 6.68409807083544e-25)
(-3.99685825656232e-08 8.15890322136631e-07 5.29799884655435e-25)
(-1.66904591228973e-08 8.18600517268696e-07 1.03463376577972e-24)
(6.29713342477809e-09 8.19385610915633e-07 7.26626175765083e-25)
(2.94718844725723e-08 8.18241711049711e-07 6.60731740216919e-25)
(5.33072538036426e-08 8.15107994747713e-07 -2.67040510386108e-25)
(7.82974528375578e-08 8.09847679624741e-07 2.88861426164977e-25)
(1.04957700861317e-07 8.02234519473257e-07 5.81714607689751e-25)
(1.33826727096409e-07 7.91925794535214e-07 -4.07348304973459e-25)
(1.6549119953524e-07 7.78453893623472e-07 2.63864469308698e-25)
(2.00568439093803e-07 7.6116173425812e-07 -7.8008531301911e-25)
(2.39702700803699e-07 7.39139047080173e-07 -7.26595230177985e-25)
(2.83537177526022e-07 7.11103587815921e-07 6.12576779661684e-25)
(3.3261947927481e-07 6.75317419104494e-07 2.93552804573969e-25)
(3.87271685535692e-07 6.29358855966927e-07 -1.42467299724937e-25)
(4.47316910531154e-07 5.69930410635583e-07 -2.26594477035684e-25)
(5.11511629586153e-07 4.92580000655843e-07 -5.2288723939868e-25)
(5.76888215970363e-07 3.91501743981693e-07 6.97961557769073e-25)
(6.36886388779805e-07 2.5960933146443e-07 -6.14157655409319e-26)
(6.80251348747174e-07 8.96590346007004e-08 -4.82550899559302e-26)
(6.86143167463265e-07 -1.2145970990973e-07 7.99152415882659e-25)
(6.23596559828205e-07 -3.60205419686703e-07 -2.01077075742673e-26)