/*--------------------------------*- C++ -*----------------------------------*\
  =========                 |
  \\      /  F ield         | OpenFOAM: The Open Source CFD Toolbox
   \\    /   O peration     | Website:  https://openfoam.org
    \\  /    A nd           | Version:  10
     \\/     M anipulation  |
\*---------------------------------------------------------------------------*/
FoamFile
{
    format      ascii;
    class       volScalarField;
    location    "7";
    object      wallHeatFlux;
}
// * * * * * * * * * * * * * * * * * * * * * * * * * * * * * * * * * * * * * //

dimensions      [1 0 -3 0 0 0 0];

internalField   uniform 0;

boundaryField
{
    back
    {
        type            calculated;
        value           uniform 0;
    }
    bottom
    {
        type            calculated;
        value           nonuniform List<scalar> 
50
(
85.883649774637
87.1295487118826
90.1035093254873
92.3194890012766
93.6993652891091
94.5049652210854
94.9597149471719
95.208325351003
95.3393205632292
95.4057141093021
95.4377160943263
95.4525467521542
95.4591312183417
95.4618691397316
95.4629679175338
95.4633398905737
95.4635063275891
95.4635358269568
95.4635133916214
95.4635077123419
95.4634979059885
95.463490695877
95.4634847047534
95.4634884452781
95.4634844645355
95.463482034875
95.4634876153235
95.463492640734
95.4635025323519
95.4635149467094
95.4635259683045
95.4635465903454
95.4635363529487
95.4634824288191
95.4633136000005
95.4628390038066
95.4616108383115
95.4585595831534
95.4515987373468
95.4360412055224
95.4029494653143
95.335486666466
95.2035488344804
94.9550833953407
94.5029955857417
93.7015539814318
92.3231600179276
90.0957348690407
87.1006258480478
85.9086346966498
)
;
    }
    left
    {
        type            calculated;
        value           uniform 0;
    }
    front
    {
        type            calculated;
        value           uniform 0;
    }
    right
    {
        type            calculated;
        value           uniform 0;
    }
    top
    {
        type            calculated;
        value           uniform 0;
    }
}


// ************************************************************************* //
