/*--------------------------------*- C++ -*----------------------------------*\
  =========                 |
  \\      /  F ield         | OpenFOAM: The Open Source CFD Toolbox
   \\    /   O peration     | Website:  https://openfoam.org
    \\  /    A nd           | Version:  10
     \\/     M anipulation  |
\*---------------------------------------------------------------------------*/
FoamFile
{
    format      ascii;
    class       volScalarField;
    location    "8.6";
    object      alphat;
}
// * * * * * * * * * * * * * * * * * * * * * * * * * * * * * * * * * * * * * //

dimensions      [1 -1 -1 0 0 0 0];

internalField   nonuniform List<scalar> 
2500
(
5.62119174833083e-15
1.10738469092378e-13
4.75124523613572e-13
8.30053048849613e-13
1.14492550609654e-12
1.40859277580444e-12
1.61752276015377e-12
1.77433003789581e-12
1.88590885071862e-12
1.96126993329973e-12
2.00964525127422e-12
2.03919943093655e-12
2.05640903341951e-12
2.06597512958425e-12
2.07105867904095e-12
2.0736451717003e-12
2.07490691817211e-12
2.07549779358759e-12
2.075763670828e-12
2.07587865234915e-12
2.07592639310529e-12
2.07594534786123e-12
2.07595246270686e-12
2.07595489302574e-12
2.07595549409678e-12
2.07595519057301e-12
2.07595384877964e-12
2.0759502285916e-12
2.07594086444292e-12
2.07591741647216e-12
2.07586071260172e-12
2.07572836231024e-12
2.07543029401653e-12
2.07478293445071e-12
2.07342833688843e-12
2.07070060758288e-12
2.06542193754733e-12
2.0556192743756e-12
2.03817733847754e-12
2.00848851619164e-12
1.96022129135191e-12
1.88538807634265e-12
1.77491278068958e-12
1.61983362980178e-12
1.4130989588326e-12
1.15164813551723e-12
8.38230500866487e-13
4.82787036770559e-13
1.13767885520744e-13
5.86191596461868e-15
5.58573860582399e-13
2.88628473918452e-11
1.2640763915199e-10
2.209726380003e-10
3.04949504708667e-10
3.75394441218428e-10
4.31340604565942e-10
4.73442674415397e-10
5.03494046186351e-10
5.23861471472177e-10
5.36985353028705e-10
5.45036019367151e-10
5.49744331191567e-10
5.52373390750943e-10
5.53777104749151e-10
5.54494782299788e-10
5.54846625081584e-10
5.55012228115403e-10
5.55087129486948e-10
5.55119694494756e-10
5.55133291804033e-10
5.55138724388801e-10
5.55140779490344e-10
5.55141489748252e-10
5.55141670202098e-10
5.55141586461913e-10
5.55141201056243e-10
5.55140160097718e-10
5.55137479027164e-10
5.55130798823307e-10
5.55114723104481e-10
5.55077380582873e-10
5.54993674695664e-10
5.54812719367914e-10
5.54435803726771e-10
5.53680255199333e-10
5.52224640313869e-10
5.49533284073e-10
5.44764765628207e-10
5.36680974643881e-10
5.23589297123042e-10
5.03365474082525e-10
4.73608885045375e-10
4.31963955854365e-10
3.76594295698827e-10
3.06727188376329e-10
2.23124476168888e-10
1.28415748292844e-10
2.96376235816729e-11
5.8164103503128e-13
1.98733438330861e-12
5.20190563656086e-10
1.79218339005454e-07
3.12883255549695e-07
4.3093321745741e-07
5.29668188774666e-07
6.07944663508558e-07
6.66813304982258e-07
7.08847166588862e-07
7.37370396069882e-07
7.55784812335239e-07
7.67108868364463e-07
7.73750828246302e-07
7.77471613309077e-07
7.79465154106868e-07
7.80488149306851e-07
7.80991604649247e-07
7.81229513811277e-07
7.81337564662622e-07
7.8138474611087e-07
7.81404538457479e-07
7.81412488281789e-07
7.8141551589974e-07
7.81416572965828e-07
7.81416848266744e-07
7.81416731527009e-07
7.81416171163386e-07
7.81414654723465e-07
7.81410760003296e-07
7.81401088489801e-07
7.81377890266e-07
7.81324172185402e-07
7.81204128436488e-07
7.80945403022752e-07
7.80408110914138e-07
7.79334254798283e-07
7.77271371658114e-07
7.73467846339174e-07
7.66746577606538e-07
7.55379890317863e-07
7.3700998291979e-07
7.08678812646945e-07
6.67036452527138e-07
6.08773090093497e-07
5.31258937122334e-07
4.33287263862854e-07
3.15728614983711e-07
1.81863652652961e-07
5.32964283431828e-10
2.05739543492412e-12
3.52731978397204e-12
9.29803930277067e-10
3.21668338172525e-07
5.59917288878003e-07
7.69230182990858e-07
9.43578257709704e-07
1.08136758084123e-06
1.18476177459948e-06
1.25848167210243e-06
1.30846760690243e-06
1.34073054144931e-06
1.36057437537906e-06
1.37221926149114e-06
1.37874746950133e-06
1.38224842681687e-06
1.38404690123489e-06
1.38493307448541e-06
1.38535239866707e-06
1.38554312207658e-06
1.38562653856615e-06
1.38566159584563e-06
1.38567570825394e-06
1.38568109882579e-06
1.38568299025333e-06
1.38568349076286e-06
1.38568329538388e-06
1.38568232407598e-06
1.38567968371499e-06
1.38567289503576e-06
1.38565602522498e-06
1.38561553431161e-06
1.38552171427341e-06
1.38531193318031e-06
1.38485956754742e-06
1.38391972638852e-06
1.38204060805183e-06
1.37842965900174e-06
1.37176994938193e-06
1.35999819331613e-06
1.34008378725961e-06
1.30788495739498e-06
1.25819158716614e-06
1.1850732805473e-06
1.08261193818709e-06
9.4599792490279e-07
7.72821962274843e-07
5.64246288533364e-07
3.25646533047337e-07
9.48546457578662e-10
3.62814258636367e-12
5.05436398014567e-12
1.33306327523514e-09
4.60386692896802e-07
7.99130858145626e-07
1.09539527493414e-06
1.34129312871069e-06
1.5351065689644e-06
1.68026273799819e-06
1.78363172525891e-06
1.85367471083843e-06
1.89887363188845e-06
1.92667780770691e-06
1.94300072967647e-06
1.95215717180241e-06
1.95707149288422e-06
1.95959838824671e-06
1.96084480757715e-06
1.96143529774559e-06
1.96170423001724e-06
1.96182202862443e-06
1.9618716217701e-06
1.96189162869706e-06
1.96189929361725e-06
1.96190199658178e-06
1.96190272246616e-06
1.9619024626254e-06
1.96190111895905e-06
1.9618974472262e-06
1.96188799591876e-06
1.96186449227725e-06
1.961808038059e-06
1.96167713592339e-06
1.96138423836008e-06
1.96075224271053e-06
1.95943845226111e-06
1.95681034020336e-06
1.95175788500152e-06
1.94243591957202e-06
1.92595216625642e-06
1.89805530391587e-06
1.85292801751594e-06
1.78323589021795e-06
1.68059543961713e-06
1.53657210796735e-06
1.34418561917149e-06
1.09970487615765e-06
8.04315433343311e-07
4.65117821893072e-07
1.35529972035919e-09
5.17495922823369e-12
6.5285448458655e-12
1.72202789418029e-09
5.93271347588231e-07
1.02709715771795e-06
1.40499789926733e-06
1.71766979959113e-06
1.96353743761067e-06
2.14737880595079e-06
2.2781612925943e-06
2.36673202034827e-06
2.42387869233336e-06
2.4590382938774e-06
2.47968767150617e-06
2.49127793276225e-06
2.49750315388994e-06
2.50070692529972e-06
2.50228881189452e-06
2.50303907714728e-06
2.50338121135737e-06
2.50353129136723e-06
2.50359458350286e-06
2.50362017263436e-06
2.50363000656859e-06
2.50363349267205e-06
2.50363444218086e-06
2.50363413175378e-06
2.50363245321678e-06
2.50362784115021e-06
2.50361595763174e-06
2.50358638903996e-06
2.50351532497219e-06
2.50335044292161e-06
2.50298128544276e-06
2.5021842763361e-06
2.50052657812968e-06
2.49720895108416e-06
2.49082829107476e-06
2.47905141511991e-06
2.45821956027283e-06
2.42295146290191e-06
2.3658759631734e-06
2.27768200142211e-06
2.14768925841631e-06
1.96507867855105e-06
1.72076051502588e-06
1.40962215989659e-06
1.03265802778502e-06
5.98334704794852e-07
1.7460666939742e-09
6.6613665103271e-12
7.92543488410671e-12
2.09063947941628e-09
7.18551641486766e-07
1.24100661212227e-06
1.69448070613888e-06
2.06864585858313e-06
2.36227203039009e-06
2.5815179858523e-06
2.7373527776576e-06
2.842844927494e-06
2.91090398733332e-06
2.95278542911181e-06
2.9773924833689e-06
2.99121206040951e-06
2.99863997151676e-06
3.00246591056474e-06
3.00435680722614e-06
3.00525460005048e-06
3.00566450927392e-06
3.00584457247761e-06
3.00592063795497e-06
3.00595145908736e-06
3.0059633415949e-06
3.00596757711989e-06
3.00596874698703e-06
3.00596839907693e-06
3.00596642160157e-06
3.00596095897603e-06
3.00594687292379e-06
3.00591181070922e-06
3.00582750503065e-06
3.00563179716771e-06
3.00519338618833e-06
3.00424636735806e-06
3.00227572487731e-06
2.9983301136589e-06
2.99073885343951e-06
2.97672296107145e-06
2.95192306863884e-06
2.90992422402173e-06
2.84193176362477e-06
2.73681903152587e-06
2.58178550846845e-06
2.36378971875658e-06
2.07173553963708e-06
1.69912163249994e-06
1.24659041122875e-06
7.23643014804124e-07
2.11527232505036e-09
8.06492931550511e-12
9.22745023380737e-12
2.43438199088061e-09
8.34887301277498e-07
1.43880830193527e-06
1.96132709292314e-06
2.39142211102494e-06
2.72835030300229e-06
2.97963265908727e-06
3.15811153111067e-06
3.278892867687e-06
3.35681382869241e-06
3.40477414980236e-06
3.43296408453299e-06
3.44880460860617e-06
3.45732457677016e-06
3.46171651434802e-06
3.46388912231207e-06
3.46492173278752e-06
3.46539374778264e-06
3.46560137477406e-06
3.46568923004044e-06
3.46572490654978e-06
3.46573870573962e-06
3.46574365264616e-06
3.46574503835032e-06
3.46574466451162e-06
3.4657424217655e-06
3.46573619573131e-06
3.46572013223286e-06
3.46568013939158e-06
3.46558394658675e-06
3.46536054813015e-06
3.46485987365686e-06
3.46377786312103e-06
3.46152536120869e-06
3.45701370140193e-06
3.44833049979896e-06
3.43229389174545e-06
3.40391106327676e-06
3.35583188374082e-06
3.27797246957486e-06
3.15755850128167e-06
2.97985779474759e-06
2.72978835137844e-06
2.39438154479858e-06
1.96578295104807e-06
1.44417251112291e-06
8.39797261487501e-07
2.45875627487486e-09
9.36948300139814e-12
1.04226588462634e-11
2.75016489703429e-09
9.41387792394748e-07
1.61921753543586e-06
2.20404681157255e-06
2.68442535392338e-06
3.06018373654723e-06
3.34014849287872e-06
3.53888480108091e-06
3.67334186721991e-06
3.76008723235047e-06
3.81349114513126e-06
3.84489309658614e-06
3.86254791371455e-06
3.87204988836417e-06
3.87695174823637e-06
3.879378697958e-06
3.8805333205943e-06
3.88106169703446e-06
3.88129441994633e-06
3.88139305341879e-06
3.88143319358689e-06
3.88144876980609e-06
3.88145438612171e-06
3.88145598145187e-06
3.88145559221893e-06
3.88145311528747e-06
3.88144620912769e-06
3.88142838483291e-06
3.88138400555004e-06
3.88127723915857e-06
3.88102919967589e-06
3.88047307993343e-06
3.87927076444552e-06
3.87676687313634e-06
3.87175000121843e-06
3.86209162521528e-06
3.84424947501118e-06
3.81266388220612e-06
3.7591474808712e-06
3.67246129158307e-06
3.53835247140609e-06
3.34035012056959e-06
3.06152412238657e-06
2.68718736599775e-06
2.20820058064306e-06
1.6242152827526e-06
9.4598594724381e-07
2.77371413151426e-09
1.0564253159636e-11
1.15041199924763e-11
3.03618004958092e-09
1.03757480373864e-06
1.78163285006148e-06
2.42204646251377e-06
2.94713859169906e-06
3.35735391991086e-06
3.66273987621747e-06
3.87942116156638e-06
4.02599342951917e-06
4.12056017106471e-06
4.17879311751597e-06
4.21304780585001e-06
4.23231629201006e-06
4.24269314427021e-06
4.24805016149247e-06
4.25070462215034e-06
4.25196864860073e-06
4.2525477018451e-06
4.25280306359701e-06
4.25291146041416e-06
4.25295566706119e-06
4.25297287608638e-06
4.25297911631096e-06
4.25298091354087e-06
4.2529805183551e-06
4.25297783581075e-06
4.25297032818305e-06
4.2529509486485e-06
4.25290270053655e-06
4.2527866127384e-06
4.25251684586475e-06
4.25191180944724e-06
4.25060328104242e-06
4.24787729198014e-06
4.24241379038706e-06
4.23189284722316e-06
4.21245293358747e-06
4.17803212089371e-06
4.11970099431021e-06
4.02519624819784e-06
3.87895240684321e-06
3.66295125490149e-06
3.3586098507603e-06
2.94968766120981e-06
2.42585180500747e-06
1.7861965525774e-06
1.04179566551967e-06
3.05857387511299e-09
1.16432820236525e-11
1.24691937372101e-11
3.2917230617752e-09
1.12332119557979e-06
1.92602087418808e-06
2.61546499527874e-06
3.17989606284801e-06
3.62037671613026e-06
3.94807183242289e-06
4.18049711574434e-06
4.33770105238155e-06
4.43913572142057e-06
4.50161307385653e-06
4.53837821954527e-06
4.55906885565964e-06
4.57021805912964e-06
4.57597766377398e-06
4.57883379001118e-06
4.58019502609234e-06
4.58081923239102e-06
4.58109483195103e-06
4.58121199317411e-06
4.58125987123672e-06
4.58127856709279e-06
4.58128538320244e-06
4.5812873727607e-06
4.58128697929013e-06
4.58128411799237e-06
4.58127608256197e-06
4.58125534062305e-06
4.58120370972544e-06
4.58107947784254e-06
4.58079072733441e-06
4.58014293266622e-06
4.57874150681381e-06
4.57582114088777e-06
4.56996652828752e-06
4.55868986620276e-06
4.53784954924518e-06
4.5009429577083e-06
4.43838947605587e-06
4.33702656477629e-06
4.18013547853778e-06
3.94833606991153e-06
3.62158488265222e-06
3.18225674466287e-06
2.61893108949618e-06
1.93014547910412e-06
1.12715074688787e-06
3.3128233335801e-09
1.26047595257239e-11
1.33188278159934e-11
3.51701108475244e-09
1.19878810608194e-06
2.05280464245617e-06
2.78502025345822e-06
3.38369677971891e-06
3.8504912226606e-06
4.19757152015683e-06
4.44367669692106e-06
4.61012202941635e-06
4.71753095054233e-06
4.78370423832878e-06
4.8226582527302e-06
4.84459073999329e-06
4.85641554045746e-06
4.86252798074574e-06
4.865561232218e-06
4.86700805557824e-06
4.86767212686174e-06
4.86796565328643e-06
4.86809061073884e-06
4.86814177344545e-06
4.86816181082283e-06
4.86816915334788e-06
4.86817132386509e-06
4.86817093835024e-06
4.86816792315715e-06
4.86815942840662e-06
4.86813750326008e-06
4.86808294102823e-06
4.86795165910772e-06
4.86764647729284e-06
4.86696166057568e-06
4.86547975680653e-06
4.86239090342375e-06
4.85619709120261e-06
4.84426471714743e-06
4.82220887831583e-06
4.78314409401167e-06
4.71692395398199e-06
4.60960446531597e-06
4.44346411279682e-06
4.19793693793173e-06
3.8517039085008e-06
3.3859220163442e-06
2.78819671544116e-06
2.0565313497566e-06
1.20225105382645e-06
3.53683009277536e-09
1.34503123917571e-11
1.40568808768799e-11
3.71301309636961e-09
1.26436798503504e-06
2.16276639409657e-06
2.93187901265468e-06
3.56004953356468e-06
4.04948657551721e-06
4.41324233372097e-06
4.6711170185234e-06
4.84551744439896e-06
4.95807342890249e-06
5.02743446488075e-06
5.06827892334637e-06
5.09128562143827e-06
5.10369584556784e-06
5.11011462658681e-06
5.11330199730452e-06
5.11482347289168e-06
5.11552241277664e-06
5.11583167133211e-06
5.11596349931775e-06
5.11601757329393e-06
5.11603880970172e-06
5.11604662870799e-06
5.11604896745415e-06
5.1160485946832e-06
5.11604544836433e-06
5.11603655750216e-06
5.11601361421234e-06
5.11595653581458e-06
5.1158192096642e-06
5.11549994430254e-06
5.11478338706341e-06
5.11323245308415e-06
5.10999900165581e-06
5.10351393792014e-06
5.09101830106726e-06
5.06791796796507e-06
5.02699820120374e-06
4.95762600297802e-06
4.84518526755533e-06
4.67109171500727e-06
4.41375812400516e-06
4.0507642391476e-06
3.56220968867079e-06
2.93484183318995e-06
2.16616758993456e-06
1.2675159617738e-06
3.73167365554601e-09
1.41843276785834e-11
1.46894929222139e-11
3.88129263108942e-09
1.32063336144397e-06
2.25696274578676e-06
3.05754590129206e-06
3.71084234021888e-06
4.21955754274658e-06
4.59750998627991e-06
4.86540803400665e-06
5.04658785764523e-06
5.16353437805965e-06
5.2356178581636e-06
5.27807908907957e-06
5.30200596245146e-06
5.3149185637961e-06
5.32160075167541e-06
5.32492093334284e-06
5.32650689790312e-06
5.32723604380623e-06
5.3275589762394e-06
5.32769680102249e-06
5.32775343059127e-06
5.3277757282887e-06
5.32778397426978e-06
5.32778646757562e-06
5.32778611100817e-06
5.32778285424384e-06
5.32777362516825e-06
5.32774981443035e-06
5.32769059790762e-06
5.32754814251741e-06
5.32721692965811e-06
5.32647344036764e-06
5.32486390759782e-06
5.32150764610705e-06
5.31477509681057e-06
5.30180064089082e-06
5.2778121176015e-06
5.23531459438625e-06
5.16326099974639e-06
5.04646327336049e-06
4.86560279313254e-06
4.59822247337033e-06
4.22096233152121e-06
3.71301555316824e-06
3.06038505724428e-06
2.26012870801563e-06
1.3235344002454e-06
3.89899110170899e-09
1.48133281888138e-11
1.52244913492902e-11
4.0238580771199e-09
1.36828914148461e-06
2.3366473632118e-06
3.16376357356035e-06
3.83822625161877e-06
4.36317685436531e-06
4.75308702658995e-06
5.02943188718121e-06
5.21632933818514e-06
5.33698263725103e-06
5.41136749720781e-06
5.45519745001679e-06
5.47990461174922e-06
5.49324400091738e-06
5.50015041590698e-06
5.50358390639185e-06
5.50522502700188e-06
5.50598008053176e-06
5.50631478031485e-06
5.50645778753281e-06
5.50651663824969e-06
5.50653986591722e-06
5.50654849058813e-06
5.50655112423399e-06
5.50655078616874e-06
5.50654743757331e-06
5.50653792286672e-06
5.50651338097233e-06
5.50645236707939e-06
5.50630560598054e-06
5.50596436771942e-06
5.50519827496697e-06
5.50353954000212e-06
5.50008010910383e-06
5.49313955301468e-06
5.47976249230424e-06
5.45502691101941e-06
5.4112020257247e-06
5.33689223654756e-06
5.21642808437559e-06
5.02987281087666e-06
4.7540367522733e-06
4.36476736376282e-06
3.84049050957413e-06
3.16657274816542e-06
2.33967513609244e-06
1.37101872255223e-06
4.04083169282045e-09
1.53453902018742e-11
1.56708255189967e-11
4.14301824769112e-09
1.40812719743878e-06
2.40319833697906e-06
3.25241974456383e-06
3.94450772526912e-06
4.48297731206276e-06
4.88284796304855e-06
5.16623340466781e-06
5.35790097041037e-06
5.48165030342302e-06
5.55795994720862e-06
5.60293640273759e-06
5.62829828938862e-06
5.64199646519284e-06
5.64909177161593e-06
5.65262093213004e-06
5.65430874027542e-06
5.65508578647667e-06
5.65543050921312e-06
5.65557794933331e-06
5.65563871079567e-06
5.65566274499105e-06
5.65567170202389e-06
5.65567446165479e-06
5.65567414343952e-06
5.65567071963801e-06
5.65566096663453e-06
5.65563581565578e-06
5.65557330838396e-06
5.65542297484844e-06
5.65507342168362e-06
5.65428857815082e-06
5.65258900838679e-06
5.64904390717196e-06
5.6419305367151e-06
5.62821883986295e-06
5.60286210352216e-06
5.55793327669607e-06
5.48174673311625e-06
5.35823244022182e-06
5.16693926567249e-06
4.88406772367658e-06
4.48480476691996e-06
3.9469348712558e-06
3.25528839514349e-06
2.40618300852286e-06
1.41076107880353e-06
4.15951793816703e-09
1.57895960192824e-11
1.60380359619195e-11
4.24124514045144e-09
1.44098353825968e-06
2.45805027001668e-06
3.32546066709216e-06
4.03204869865732e-06
4.58164245713285e-06
4.98971348919902e-06
5.27890002000178e-06
5.4745019853084e-06
5.60080810445313e-06
5.6787095630777e-06
5.7246357163422e-06
5.75054090839826e-06
5.76453739651485e-06
5.77179009221482e-06
5.7753991540447e-06
5.77712605535097e-06
5.7779215706483e-06
5.77827473944395e-06
5.77842593106956e-06
5.77848831885288e-06
5.77851304511292e-06
5.77852229074925e-06
5.77852516222018e-06
5.7785248644407e-06
5.77852138014862e-06
5.77851143105786e-06
5.77848577926738e-06
5.77842204705305e-06
5.7782687871199e-06
5.77791242479932e-06
5.77711222175117e-06
5.77537918444358e-06
5.77176382622503e-06
5.7645086505745e-06
5.75052222477236e-06
5.72465532569716e-06
5.67881953779653e-06
5.60109078083495e-06
5.47506968722617e-06
5.27988221473314e-06
4.99122735355362e-06
4.5837483555085e-06
4.03470042269453e-06
3.32846848910943e-06
2.46107870985174e-06
1.44359245956123e-06
4.25751458052679e-09
1.61555256491116e-11
1.63357728193483e-11
4.32104820186562e-09
1.46769922313273e-06
2.50263265775965e-06
3.38481284912142e-06
4.10317628410493e-06
4.66180778163605e-06
5.0765458424701e-06
5.37045319422085e-06
5.56926060440202e-06
5.69765260943352e-06
5.7768546990499e-06
5.82355815116832e-06
5.84990885766085e-06
5.86415046570226e-06
5.87153277497213e-06
5.87520779740286e-06
5.87696705762332e-06
5.87777790665879e-06
5.87813811249491e-06
5.87829244351003e-06
5.87835620021427e-06
5.87838151381787e-06
5.87839100735318e-06
5.87839397704112e-06
5.87839369970733e-06
5.87839016783654e-06
5.87838005996093e-06
5.87835400250306e-06
5.87828928013176e-06
5.87813365741072e-06
5.87777179811326e-06
5.87695918990955e-06
5.87519910347628e-06
5.87152691892945e-06
5.86415696377618e-06
5.84994802797372e-06
5.82366772051506e-06
5.77709668026187e-06
5.69811730372718e-06
5.57006293119936e-06
5.37171625734256e-06
5.07836909399629e-06
4.66422292328771e-06
4.10610199441736e-06
3.38802651568885e-06
2.50577960630552e-06
1.47034543643878e-06
4.3373092544612e-09
1.64527997701054e-11
1.65733790093456e-11
4.38486458164656e-09
1.4890863011544e-06
2.53831642401706e-06
3.43231526762163e-06
4.1601046215719e-06
4.72597523014037e-06
5.14605819963383e-06
5.44375434972675e-06
5.64513769195408e-06
5.77520842390681e-06
5.85545900525401e-06
5.90279022110532e-06
5.92950145848677e-06
5.94394186273814e-06
5.9514295400792e-06
5.95515832285495e-06
5.95694403152674e-06
5.95776745341652e-06
5.95813345067872e-06
5.95829037725041e-06
5.95835527262509e-06
5.95838107896507e-06
5.9583907830756e-06
5.9583938381213e-06
5.95839358081786e-06
5.95839001260686e-06
5.95837977864055e-06
5.95835339845263e-06
5.95828788962125e-06
5.95813039174141e-06
5.95776416918386e-06
5.9569417068542e-06
5.95516011226387e-06
5.95144269525906e-06
5.94398128959791e-06
5.9295949176975e-06
5.90298470866212e-06
5.85582658979432e-06
5.77584816483861e-06
5.6461689374738e-06
5.44529693917717e-06
5.14819807149964e-06
4.7287199487707e-06
4.16334096368354e-06
3.43578717583992e-06
2.5416426728557e-06
1.49182175666711e-06
4.40130875484202e-09
1.66906869939063e-11
1.67595483781713e-11
4.43496837634013e-09
1.50589963534508e-06
2.56636985193579e-06
3.46966358731543e-06
4.20487060382587e-06
4.77644286856328e-06
5.2007401116191e-06
5.50142741424873e-06
5.70484737939697e-06
5.83624757941746e-06
5.9173300499553e-06
5.96516035622205e-06
5.99215886221833e-06
6.00675804734335e-06
6.01433010272456e-06
6.01810205814304e-06
6.01990907223719e-06
6.02074265725631e-06
6.0211133548423e-06
6.02127239843747e-06
6.02133822864477e-06
6.0213644432309e-06
6.02137432415801e-06
6.02137745264891e-06
6.02137721467951e-06
6.02137361985167e-06
6.02136328826927e-06
6.02133665724499e-06
6.02127053771121e-06
6.02111158418597e-06
6.02074197210076e-06
6.01991184464529e-06
6.0181134938606e-06
6.01436078353226e-06
6.00682792031602e-06
5.99230272853669e-06
5.96543413687833e-06
5.9178157956819e-06
5.83705361613242e-06
5.70609892128883e-06
5.50324364054096e-06
5.20319712967545e-06
4.77952821248953e-06
4.20844230016255e-06
3.47343223234624e-06
2.56992214027388e-06
1.50876554819013e-06
4.45175345595453e-09
1.68777835157632e-11
1.69020616090881e-11
4.4733998289664e-09
1.51881487542316e-06
2.58792424456401e-06
3.49836676454441e-06
4.23928389915386e-06
4.8152501919587e-06
5.2427994935812e-06
5.54579852857195e-06
5.75079524512118e-06
5.88322672193838e-06
5.96495588661786e-06
6.01317509429018e-06
6.04039802322405e-06
6.05512159958072e-06
6.06275995771096e-06
6.06656594844789e-06
6.06838981884098e-06
6.06923147677726e-06
6.06960592527721e-06
6.06976666788537e-06
6.0698332539377e-06
6.06985980203423e-06
6.06986982959283e-06
6.06987302066445e-06
6.06987280116922e-06
6.06986918810604e-06
6.06985878363834e-06
6.06983196397657e-06
6.06976538518025e-06
6.06960533642325e-06
6.06923316972906e-06
6.06839725155604e-06
6.06658620954426e-06
6.06280670118993e-06
6.05521945674222e-06
6.04058840570546e-06
6.01352243634749e-06
5.9655520111315e-06
5.88418948956517e-06
5.7522567987977e-06
5.54787948045421e-06
5.2455692089027e-06
4.81867975093479e-06
4.24320552161365e-06
3.50245829151689e-06
2.59173642077389e-06
1.52184233223263e-06
4.49065052960159e-09
1.70217663489885e-11
1.7007595219622e-11
4.50191346317305e-09
1.52841225206062e-06
2.60394874422074e-06
3.51971528085042e-06
4.26489039078889e-06
4.84413811162011e-06
5.27412016463173e-06
5.57885188738053e-06
5.78503300649582e-06
5.91824105050905e-06
6.00045851530194e-06
6.04897225044877e-06
6.07636569689852e-06
6.09118412065113e-06
6.09887322726567e-06
6.10270537635738e-06
6.10454226019151e-06
6.10539018178607e-06
6.10576755737628e-06
6.10592963518446e-06
6.10599682068957e-06
6.10602363663428e-06
6.1060337840896e-06
6.10603702796964e-06
6.10603682602399e-06
6.10603320196572e-06
6.10602274613982e-06
6.10599579187165e-06
6.10592888493759e-06
6.10576805213588e-06
6.10539405009421e-06
6.10455395299606e-06
6.10273370975138e-06
6.0989346870295e-06
6.09130768397188e-06
6.07659896582138e-06
6.04938774229436e-06
6.00115753595935e-06
5.91935108149591e-06
5.78669385435796e-06
5.58118720140194e-06
5.27719504820014e-06
4.84791017304036e-06
4.26916865872621e-06
3.52414574000587e-06
2.60804371316251e-06
1.53162348569543e-06
4.51972477149073e-09
1.7129214510005e-11
1.70815935853732e-11
4.52194270129066e-09
1.53516544451395e-06
2.61523309632028e-06
3.53475944062034e-06
4.2829472163878e-06
4.86452163212043e-06
5.29623283322045e-06
5.60219953590949e-06
5.80922750159129e-06
5.94299275676181e-06
6.02556197408135e-06
6.07428879252186e-06
6.10180618598174e-06
6.11669390513691e-06
6.1244202923299e-06
6.12827177134412e-06
6.13011833316211e-06
6.13097094594229e-06
6.1313505315466e-06
6.13151362732732e-06
6.13158127560869e-06
6.13160830183258e-06
6.1316185456193e-06
6.13162183360646e-06
6.13162164829221e-06
6.1316180195427e-06
6.13160753127582e-06
6.13158048989978e-06
6.13151336989793e-06
6.13135202547456e-06
6.13097681618665e-06
6.13013394435009e-06
6.12830753364343e-06
6.12449531516158e-06
6.11684121484618e-06
6.10207919824998e-06
6.07476770366343e-06
6.026357259594e-06
5.9442414845454e-06
5.81107760620798e-06
5.6047788634819e-06
5.29960411301753e-06
4.86863135949811e-06
4.28758342407653e-06
3.53953728346416e-06
2.61962508282724e-06
1.53857540899088e-06
4.54038455790375e-09
1.72054877529767e-11
1.71281907956833e-11
4.53457767461007e-09
1.53943451985039e-06
2.62237675816955e-06
3.5442956837906e-06
4.29440703280035e-06
4.87747261370606e-06
5.31029676693126e-06
5.61706225791418e-06
5.82464103056812e-06
5.9587709951073e-06
6.04157206708879e-06
6.09044041532316e-06
6.11804082151401e-06
6.13297536748237e-06
6.14072718845053e-06
6.14459198910733e-06
6.14644529334457e-06
6.14730121309655e-06
6.14768237740747e-06
6.14784621185991e-06
6.14791420258003e-06
6.14794138838308e-06
6.14795170772742e-06
6.14795503210629e-06
6.147954862576e-06
6.14795123472992e-06
6.14794073096718e-06
6.14791364518045e-06
6.14784641555184e-06
6.14768480397508e-06
6.14730894966166e-06
6.14646455644571e-06
6.14463467851611e-06
6.14081487294978e-06
6.13314488559778e-06
6.11835109582559e-06
6.09097897994167e-06
6.04245827646665e-06
5.96015140530433e-06
5.82667195302815e-06
5.61987650158236e-06
5.31395601298297e-06
4.88191397383404e-06
4.29939925219926e-06
3.54942408572138e-06
2.62707346369466e-06
1.54305242981775e-06
4.55369972642381e-09
1.72546498123481e-11
1.71501685495781e-11
4.54055277268069e-09
1.54146189480858e-06
2.62578268671474e-06
3.54885874849573e-06
4.29990892679199e-06
4.883709769179e-06
5.31708912864109e-06
5.62425843718822e-06
5.83211988234557e-06
5.96644017949235e-06
6.04936451421337e-06
6.0983095960661e-06
6.12595596250991e-06
6.14091701081428e-06
6.14868355906388e-06
6.1525562582675e-06
6.15441366002518e-06
6.15527164293776e-06
6.15565382109451e-06
6.15581814608235e-06
6.15588637360378e-06
6.15591367533721e-06
6.15592405284401e-06
6.15592740734267e-06
6.15592725293799e-06
6.15592363069412e-06
6.15591312615971e-06
6.15588603420492e-06
6.15581878931464e-06
6.15565713555578e-06
6.15528115506211e-06
6.15443639680535e-06
6.15260553841967e-06
6.14878329849823e-06
6.14110769602619e-06
6.12630180576205e-06
6.09890521820829e-06
6.05033791617756e-06
5.96794729185951e-06
5.83432546711258e-06
5.62730068419088e-06
5.3210294669742e-06
4.88847702702129e-06
4.30525372774094e-06
3.5543374197002e-06
2.63078698337192e-06
1.54529244700362e-06
4.56038809793458e-09
1.72794230094882e-11
1.71489349064637e-11
4.54023992395673e-09
1.54137019015193e-06
2.62565420754531e-06
3.54871790836061e-06
4.29977420493506e-06
4.88359404860748e-06
5.3169999929681e-06
5.6241987619298e-06
5.83208878975414e-06
5.96643424595042e-06
6.049379015306e-06
6.09833955540375e-06
6.12599689350622e-06
6.14096528231683e-06
6.14873648274991e-06
6.15261198856135e-06
6.15447101107874e-06
6.15532989628401e-06
6.15571256340198e-06
6.15587714977375e-06
6.15594551743688e-06
6.15597289570855e-06
6.15598331596552e-06
6.1559866951307e-06
6.15598655532379e-06
6.15598294298757e-06
6.15597245149414e-06
6.15594538995154e-06
6.15587822098876e-06
6.15571674323905e-06
6.15534113976133e-06
6.15449713582082e-06
6.15266769769089e-06
6.14884798295592e-06
6.14117662265129e-06
6.12637745712918e-06
6.09899090086526e-06
6.05043762163623e-06
5.96806525897021e-06
5.83446539243411e-06
5.62746462276593e-06
5.32121657900817e-06
4.88868239821289e-06
4.30546746468757e-06
3.55454408081023e-06
2.63096520583349e-06
1.54541443021291e-06
4.56080774805616e-09
1.72811629853322e-11
1.71245224810921e-11
4.53364770561604e-09
1.53916182271781e-06
2.6219941714125e-06
3.54387567559667e-06
4.29400472972931e-06
4.8771266792688e-06
5.31003015944211e-06
5.61688386679588e-06
5.82454844682151e-06
5.95875409050978e-06
6.04161672206137e-06
6.09053170772649e-06
6.11816524283753e-06
6.13312197042328e-06
6.14088785773714e-06
6.144761148009e-06
6.14661935599501e-06
6.14747800578529e-06
6.14786064917308e-06
6.14802527382114e-06
6.14809368776835e-06
6.1481211043742e-06
6.14813155240878e-06
6.14813495092319e-06
6.14813482525567e-06
6.14813122731366e-06
6.14812076320009e-06
6.14809376995093e-06
6.14802677102052e-06
6.14786569359155e-06
6.14749098249861e-06
6.1466488751904e-06
6.14482329900656e-06
6.14101113780546e-06
6.1333539848947e-06
6.11858052588722e-06
6.09123871038505e-06
6.04276031608526e-06
5.96050846269039e-06
5.8270950361792e-06
5.62037159462776e-06
5.31452031294596e-06
4.88253238758557e-06
4.30004176778241e-06
3.55004419521234e-06
2.62760719198064e-06
1.54341699102113e-06
4.55495198456593e-09
1.72598377266832e-11
1.70755994422959e-11
4.52042389937189e-09
1.53471950822686e-06
2.61460542051302e-06
3.53406814809253e-06
4.28228314115254e-06
4.86394929820418e-06
5.29579121481734e-06
5.6019043365827e-06
5.80907546419694e-06
5.94296748730145e-06
6.02564014433876e-06
6.07444552386486e-06
6.10201883242323e-06
6.11694404815752e-06
6.12469424233606e-06
6.12856010264008e-06
6.1304149761546e-06
6.13127221736827e-06
6.13165431011886e-06
6.13181874438068e-06
6.13188710854684e-06
6.13191452433655e-06
6.13192498473132e-06
6.13192839711632e-06
6.13192828525724e-06
6.13192470677323e-06
6.13191428586191e-06
6.13188740224009e-06
6.13182067525511e-06
6.13166023978934e-06
6.1312869740732e-06
6.13044798524122e-06
6.12862887573178e-06
6.12482961974743e-06
6.1171972586023e-06
6.10246963123074e-06
6.07520930017293e-06
6.02687013747384e-06
5.94484678494161e-06
5.81179338932412e-06
5.60561448736435e-06
5.3005539552594e-06
4.86966910577271e-06
4.28865798065473e-06
3.54057059549393e-06
2.62051103718915e-06
1.5391782021704e-06
4.54244948082959e-09
1.72140353500884e-11
1.69994753996452e-11
4.49985755328286e-09
1.52780719497535e-06
2.60309242965273e-06