/*--------------------------------*- C++ -*----------------------------------*\
  =========                 |
  \\      /  F ield         | OpenFOAM: The Open Source CFD Toolbox
   \\    /   O peration     | Website:  https://openfoam.org
    \\  /    A nd           | Version:  10
     \\/     M anipulation  |
\*---------------------------------------------------------------------------*/
FoamFile
{
    format      ascii;
    class       volScalarField;
    location    "8.6";
    object      h;
}
// * * * * * * * * * * * * * * * * * * * * * * * * * * * * * * * * * * * * * //

dimensions      [0 2 -2 0 0 0 0];

internalField   nonuniform List<scalar> 
2500
(
6125.67074698594
6123.65953109883
6115.01852820104
6107.85011713748
6102.97035260557
6099.87894806082
6097.98767894028
6096.85897915465
6096.20364951062
6095.83604552358
6095.63571244551
6095.53083078523
6095.47792077947
6095.45164986455
6095.43888027957
6095.43249991943
6095.42960397486
6095.42793962632
6095.42678160432
6095.42609001881
6095.42558199777
6095.42518276089
6095.42487199001
6095.42468183027
6095.42449596608
6095.42435632114
6095.42431618771
6095.42432860612
6095.42440778717
6095.42457203413
6095.42486046922
6095.42542013666
6095.42627571321
6095.42784636918
6095.43094485648
6095.43732228048
6095.45056984323
6095.47763308543
6095.53270686161
6095.63977906909
6095.84206614261
6096.21179831625
6096.86591012846
6097.98880327141
6099.8709786272
6102.95060376841
6107.83461811439
6115.04292275811
6123.71951984714
6125.58645680133
5402.75043148993
5385.42252898867
5359.95133631501
5339.57374573397
5325.57846861711
5316.5613056027
5310.93299784537
5307.50315909721
5305.46786938519
5304.29751206044
5303.64683230747
5303.29814885737
5303.1181092579
5303.02825563516
5302.98487474971
5302.96446861344
5302.9552325494
5302.95097442549
5302.94889473183
5302.94786667609
5302.94728449352
5302.94690085326
5302.94662826283
5302.94644961634
5302.94629756354
5302.94618272106
5302.94613325106
5302.94613090901
5302.94619065425
5302.94636676049
5302.94678439255
5302.94774312207
5302.94980963019
5302.95435569478
5302.96432119774
5302.98588760958
5303.03143660279
5303.12475300351
5303.31010786626
5303.66508524892
5304.32185785645
5305.49594967148
5307.52739271238
5310.94130006756
5316.54213388626
5325.53500762524
5339.55797462465
5360.07028402046
5385.68346037102
5402.34050295664
4640.52944365186
4606.72869749449
4568.747109836
4539.56984361506
4519.76867810732
4507.08158581892
4499.1875975037
4494.38477062627
4491.5352156847
4489.89451478183
4488.98082786746
4488.48992908039
4488.23569664547
4488.10866639148
4488.04738240879
4488.01876548442
4488.00586431576
4488.00013046831
4487.99755704235
4487.9963893931
4487.99581087315
4487.99547589867
4487.99525616011
4487.9951119258
4487.99499859259
4487.99491249312
4487.99486686605
4487.99485394832
4487.99489437449
4487.99506453568
4487.99553148803
4487.99669146429
4487.99941506733
4488.00563071802
4488.01950167143
4488.04977102844
4488.11391116777
4488.245428953
4488.50613765085
4489.00486788643
4489.92624549445
4491.57140796663
4494.41652935392
4499.20071082019
4507.0639472486
4519.73444587881
4539.60770116484
4569.03666029537
4607.34797741695
4640.44807448584
3922.18784164925
3877.54430553083
3834.84923298128
3803.37891782706
3782.54772531675
3769.47769141139
3761.49981814246
3756.72852433947
3753.93953613991
3752.35401983039
3751.48080776519
3751.01614394244
3750.77753524315
3750.65927991744
3750.60269179712
3750.576517697
3750.56482666653
3750.55972740973
3750.55751920255
3750.55656035396
3750.55611543652
3750.55587383693
3750.55572054864
3750.55561996855
3750.55554410439
3750.55548499667
3750.55544755017
3750.55542851008
3750.555437511
3750.5555472691
3750.55591013204
3750.55686860922
3750.5592298104
3750.56473677736
3750.57719445806
3750.60469536191
3750.66357184747
3750.78547582927
3751.02940295501
3751.50077026815
3752.3810251921
3753.97147456908
3756.75888063649
3761.51805323536
3769.4775799422
3782.55567057717
3803.51017122057
3835.33862910185
3878.57500499247
3922.92617075399
3306.32684131506
3258.70236647055
3217.8158356924
3188.84578263471
3170.17784639835
3158.73176135904
3151.88912082076
3147.87073727942
3145.55766717215
3144.25924674418
3143.55158003058
3143.17823147718
3142.98788111171
3142.89413316455
3142.84953412141
3142.82903617827
3142.81994392482
3142.81602888147
3142.81437526967
3142.81368378035
3142.81338161276
3142.81322742445
3142.81313223632
3142.81307032105
3142.81302511342
3142.81298839784
3142.8129608301
3142.81294057293
3142.81293166644
3142.81298734576
3142.8132259176
3142.8139126872
3142.8156802524
3142.81987407539
3142.82945458096
3142.85079165197
3142.89684245426
3142.99294154382
3143.18678417433
3143.56470197653
3144.27746782863
3145.5800216358
3147.89350442568
3151.90645966073
3158.74396897808
3170.21967102147
3189.04456677375
3218.43784709626
3260.04075871624
3307.90858889502
2820.48091560453
2776.65625963553
2741.92870759224
2718.21219751174
2703.33839973863
2694.4306630957
2689.2168440958
2686.21033082676
2684.50546445773
2683.55980045863
2683.04920153367
2682.78178045743
2682.64621062989
2682.57974897925
2682.54825829311
2682.53384720585
2682.52748877019
2682.52477865102
2682.52365759953
2682.52320590593
2682.52302136317
2682.52293448729
2682.52288256209
2682.5228493225
2682.52282598651
2682.52280562232
2682.52278709863
2682.52276926922
2682.52275534414
2682.52277377348
2682.52290820473
2682.52335042302
2682.52454315904
2682.52741861199
2682.53403844797
2682.54888514271
2682.58112956313
2682.64883110669
2682.78628469162
2683.05625971175
2683.56986527125
2684.51823515986
2686.22406117688
2689.22915270486
2694.44591921489
2703.39315387331
2718.42994371577
2742.57762419002
2778.10252670876
2822.60506811346
2464.88086958783
2428.92445561046
2402.18740488461
2384.53992500552
2373.76318246434
2367.45821601584
2363.84442546976
2361.79761013164
2360.65361565343
2360.02609476671
2359.69009389225
2359.51519218375
2359.4269167409
2359.38378119267
2359.36339688864
2359.35409523866
2359.35000827725
2359.34828169604
2359.34758124005
2359.34730986808
2359.34720780871
2359.34716559031
2359.34714175978
2359.34712688965
2359.34711725546
2359.34710749227
2359.34709602904
2359.34708216195
2359.3470691104
2359.34706912915
2359.34713411056
2359.3473925528
2359.34813260134
2359.34994665652
2359.35415123832
2359.3636347554
2359.38433033691
2359.42798658505
2359.51707654788
2359.69312565604
2360.03054383516
2360.65941808807
2361.80402645167
2363.85082896736
2367.47008886909
2373.8130136511
2384.73464273103
2402.76977930165
2430.27727607916
2467.13889235184
2221.83020125458
2195.00270627193
2176.07899615428
2163.97651939906
2156.77411510489
2152.6557794809
2150.34347124907
2149.05662314226
2148.34736459781
2147.96236325608
2147.75775730217
2147.65179830683
2147.59849941392
2147.57251153888
2147.56025000985
2147.55466522333
2147.55221965745
2147.55119494455
2147.55078721856
2147.55063585625
2147.55058477079
2147.55056835568
2147.55056029857
2147.55055551871
2147.55055328435
2147.55054961038
2147.55054306031
2147.55053325608
2147.55052216296
2147.55051606719
2147.55054276765
2147.55068078119
2147.55110799261
2147.55217452762
2147.55466274655
2147.56030124029
2147.5726497469
2147.59878667647
2147.65233225869
2147.758659108
2147.96373883074
2148.34916787236
2149.05848164437
2150.3452984512
2152.66220345684
2156.81031557297
2164.12617914834
2176.54150921764
2196.12666109004
2223.88172822529
2065.85282772637
2047.40718960587
2034.96895655053
2027.24334912904
2022.75823257689
2020.25019290062
2018.87016526819
2018.11527034423
2017.70480875127
2017.4841995354
2017.36775183062
2017.30770767905
2017.27758027357
2017.26290957821
2017.2559928485
2017.25284587226
2017.25147172707
2017.25090049836
2017.25067765051
2017.25059839275
2017.25057610536
2017.25057292992
2017.25057181301
2017.25057145681
2017.25057235802
2017.25057172407
2017.25056825043
2017.2505618998
2017.25055358926
2017.25054702131
2017.25055514164
2017.25062302916
2017.25085435745
2017.25144382045
2017.25282856379
2017.25597860121
2017.26289429812
2017.27756511133
2017.30770370862
2017.36777700421
2017.48426065799
2017.70482145933
2018.11494676646
2018.86940101746
2020.25205070968
2022.78006368853
2027.34494054191
2035.30017954214
2048.25166547518
2067.50628910353
1971.42585968929
1959.62464802758
1951.9725817542
1947.346926055
1944.72437150011
1943.28920150656
1942.51494764238
1942.09852661376
1941.87508612933
1941.75612880764
1941.69372713434
1941.66166829622
1941.64561142014
1941.63779700902
1941.63411308214
1941.63243781546
1941.63170812779
1941.63140720589
1941.63129217369
1941.63125402407
1941.63124623391
1941.63124740122
1941.63124891623
1941.63125032375
1941.63125162944
1941.63125167939
1941.63125002353
1941.63124621222
1941.63124059429
1941.63123552728
1941.63123653769
1941.63126739808
1941.63138525316
1941.63169354777
1941.63242331086
1941.63408863699
1941.63775017443
1941.64552716145
1941.66153127724
1941.69351953851
1941.75581698835
1941.87456387372
1942.09752387192
1942.51322486371
1943.28838868493
1944.73523487476
1947.40879064351
1952.18935727359
1960.20610240181
1972.63427160153
1917.27527896202
1910.19678772573
1905.76249858272
1903.14868253052
1901.69984493447
1900.92335688697
1900.51245208617
1900.29510469665
1900.17999257982
1900.1192682614
1900.08759747985
1900.07137709331
1900.06326269366
1900.05931363254
1900.05745109481
1900.05660416881
1900.05623612787
1900.05608560185
1900.05602928665
1900.05601253371
1900.05601087399
1900.05601267969
1900.05601453343
1900.05601611175
1900.05601722898
1900.05601751994
1900.05601677895
1900.05601454341
1900.05601103891
1900.05600747075
1900.05600639369
1900.05601957874
1900.05607649227
1900.05622991375
1900.05659611917
1900.05743394881
1900.05927718399
1900.06319321437
1900.0712581224
1900.08740720277
1900.11896753747
1900.17948132715
1900.29414404325
1900.51073168971
1900.92153459196
1901.70398239123
1903.18276546134
1905.89345881143
1910.56744268279
1918.08790570202
1887.74979017441
1883.74506767532
1881.31177774419
1879.91066764217
1879.15052660803
1878.75125233535
1878.5439023431
1878.43601325135
1878.37960521448
1878.3501145269
1878.33481704453
1878.32700312477
1878.32309683964
1878.32119480897
1878.32029693877
1878.31988856163
1878.31971149055
1878.31963970365
1878.31961371692
1878.31960705779
1878.31960717341
1878.31960857047
1878.31961002109
1878.3196112285
1878.31961201131
1878.31961230689
1878.31961198338
1878.31961072585
1878.31960868828
1878.31960643053
1878.31960519558
1878.31961045009
1878.31963663265
1878.31970963145
1878.31988542011
1878.32028842555
1878.32117487008
1878.32305701826
1878.32693268485
1878.33470041632
1878.34992127426
1878.37925743412
1878.4353233963
1878.54257479516
1878.74942297683
1879.15130225394
1879.92769816005
1881.3853734418
1883.96560551292
1888.25796258963
1872.39178526748
1870.24386463307
1868.97374331807
1868.25814517926
1867.87773851491
1867.68175586365
1867.58182996441
1867.53067390233
1867.50426869162
1867.49058543829
1867.48352432028
1867.47992575581
1867.47812726355
1867.47725074908
1867.47683646823
1867.47664794915
1867.47656638892
1867.47653363347
1867.47652227086
1867.47651982863
1867.4765202642
1867.47652122331
1867.47652217158
1867.47652294851
1867.47652343387
1867.47652364778
1867.47652350719
1867.47652283357
1867.47652172034
1867.47652041413
1867.47651950932
1867.47652144926
1867.47653300435
1867.47656635427
1867.47664739302
1867.47683347295
1867.47724239957
1867.47810942922
1867.47989301443
1867.48346794807
1867.49048596426
1867.50407323715
1867.53025101658
1867.58094688083
1867.6803350874
1867.87722663488
1868.26582772583
1869.0124476971
1870.36715944804
1872.68969541521
1864.74748567547
1863.65063218268
1863.01753873058
1862.667986293
1862.48571309991
1862.39353682666
1862.34737169748
1862.32411434704
1862.3122622337
1862.30617420541
1862.30304819997
1862.30145824655
1862.30066354113
1862.30027574018
1862.30009216495
1862.30000857251
1862.29997248999
1862.29995814591
1862.29995341803
1862.29995261204
1862.29995296929
1862.29995355117
1862.29995410494
1862.2999545528
1862.29995482751
1862.29995495693
1862.29995489548
1862.29995455246
1862.29995397719
1862.29995327583
1862.29995273658
1862.2999533932
1862.29995829489
1862.29997297936
1862.30000898235
1862.30009174605
1862.30027334465
1862.30065755254
1862.30144649082
1862.30302659314
1862.30613181532
1862.31216675205
1862.32388218169
1862.3468425826
1862.39258483001
1862.48494376312
1862.67106277064
1863.03667671971
1863.71575994895
1864.91226855299
1861.0965118963
1860.56122988313
1860.25886158781
1860.09501408302
1860.01111614233
1859.96943743465
1859.94892297982
1859.93875067444
1859.933632641
1859.93102666222
1859.92969507383
1859.92901896943
1859.92868089217
1859.92851565537
1859.92843729555
1859.92840158433
1859.92838620609
1859.92838015729
1859.92837826692
1859.92837804136
1859.92837827484
1859.92837859641
1859.92837889374
1859.92837913152
1859.92837927584
1859.92837934576
1859.92837931878
1859.92837915203
1859.92837886937
1859.92837851551
1859.92837822352
1859.92837842394
1859.92838043944
1859.92838669086
1859.92840215322
1859.92843772276
1859.9285156033
1859.92867991065
1859.92901643999
1859.92968940065
1859.93101229397
1859.93359144238
1859.93863369639
1859.94863064135
1859.96886244419
1860.01048005803
1860.09605825567
1860.26779063083
1860.59388807178
1861.18296705625
1859.41907649009
1859.16861610695
1859.02982949238
1858.95591714436
1858.91871275589
1858.90054211957
1858.89174791014
1858.88745484225
1858.88532226163
1858.88424590816
1858.88369853771
1858.88342103419
1858.88328217512
1858.88321418026
1858.8831818695
1858.88316712996
1858.88316079792
1858.88315833822
1858.88315761475
1858.88315756668
1858.88315769358
1858.88315785805
1858.883158007
1858.88315812495
1858.883158196
1858.88315823074
1858.88315821892
1858.88315814132
1858.88315800881
1858.88315784001
1858.88315769736
1858.88315775253
1858.88315855522
1858.88316113489
1858.88316757259
1858.88318238481
1858.88321473111
1858.88328274005
1858.88342158131
1858.8836985832
1858.88424285849
1858.88530663089
1858.88739992186
1858.89159674867
1858.90022170642
1858.91828847662
1858.95617391154
1859.03377021436
1859.18422524895
1859.46229352883
1858.67596606251
1858.56327929178
1858.50189599412
1858.46972510367
1858.45378959804
1858.44613171365
1858.44248532077
1858.44073239621
1858.43987265009
1858.43944252616
1858.43922481555
1858.43911458695
1858.43905937689
1858.43903228437
1858.4390193807
1858.4390134872
1858.43901096093
1858.43900999261
1858.43900972288
1858.43900971952
1858.43900978445
1858.43900986306
1858.43900993315
1858.43900998818
1858.4390100211
1858.43901003719
1858.43901003207
1858.43900999747
1858.43900993812
1858.43900986167
1858.4390097952
1858.43900980832
1858.439010122
1858.43901115775
1858.43901376309
1858.439019755
1858.4390327989
1858.43906011546
1858.43911566598
1858.43922616059
1858.43944300995
1858.43986760026
1858.44070810583
1858.44241140485
1858.44596457763
1858.45353998283
1858.46972922953
1858.50354352137
1858.57041523729
1858.69662739953
1858.35787463676
1858.30899778137
1858.28277573802
1858.26923406471
1858.2626262932
1858.25949930283
1858.25803350156
1858.25733936459
1858.25700319816
1858.25683649279
1858.25675250311
1858.25671002647
1858.25668872503
1858.25667824648
1858.25667324262
1858.2566709534
1858.25666997348
1858.25666960215
1858.25666950328
1858.2566695072
1858.25666953754
1858.2566695726
1858.25666960353
1858.25666962764
1858.25666964195
1858.2566696489
1858.25666964673
1858.25666963199
1858.25666960667
1858.25666957388
1858.25666954484
1858.2566695477
1858.25666966863
1858.25667007505
1858.25667110284
1858.25667346322
1858.25667858245
1858.25668925497
1858.25671086125
1858.25675367961
1858.2568375515
1858.25700195415
1858.25732915233
1858.2579990505
1858.25941687733
1858.26249189594
1858.26918476481
1858.28342835876
1858.31212778011
1858.36735306028
1858.22605290853
1858.20556801288
1858.19472597146
1858.18920226145
1858.1865443489
1858.18530467009
1858.18473222072
1858.1844650756
1858.18433730918
1858.18427450373
1858.18424300413
1858.18422708811
1858.18421909394
1858.18421515009
1858.1842132606
1858.18421239379
1858.18421202241
1858.18421188232
1858.18421184573
1858.18421184815
1858.18421186076
1858.18421187506
1858.18421188762
1858.18421189736
1858.18421190309
1858.18421190584
1858.18421190494
1858.18421189901
1858.18421188885
1858.18421187574
1858.18421186416
1858.18421186532
1858.18421191203
1858.18421206894
1858.18421246569
1858.18421337372
1858.18421533377
1858.18421939891
1858.18422758668
1858.1842437423
1858.18427530466
1858.18433719648
1858.18446095944
1858.18471681865
1858.18526595597
1858.18647681429
1858.18915912378
1858.19497056311
1858.20688880257
1858.23023743951
1858.17306995564
1858.16475673121
1858.16040957847
1858.15822217085
1858.15718319731
1858.1567051797
1858.15648758088
1858.15638746358
1858.15634016668
1858.15631711808
1858.15630560848
1858.15629979618
1858.15629687058
1858.15629542178
1858.15629472431
1858.15629440251
1858.15629426366
1858.15629421056
1858.15629419596
1858.15629419609
1858.15629420025
1858.15629420517
1858.15629420954
1858.15629421293
1858.15629421487
1858.15629421579
1858.15629421542
1858.15629421325
1858.1562942096
1858.15629420498
1858.15629420114
1858.15629420247
1858.1562942212
1858.15629428162
1858.15629443258
1858.15629477523
1858.15629550969
1858.1562970231
1858.15630005303
1858.15630600084
1858.15631758131
1858.15634028156
1858.15638585808
1858.15648094051
1858.15668776281
1858.15715113948
1858.15819514206
1858.16049597717
1858.16529421317
1858.17485235342
1858.15238206956
1858.14910919053
1858.14741607768
1858.14657376615
1858.14617845619
1858.14599888898
1858.1459182486
1858.14588164766
1858.1458645624
1858.14585630612
1858.14585219943
1858.14585012515
1858.14584907745
1858.14584855546
1858.1458483019
1858.1458481833
1858.14584813086
1858.14584810974
1858.14584810269
1858.14584810123
1858.14584810163
1858.14584810251
1858.14584810338
1858.14584810407
1858.14584810443
1858.14584810458
1858.14584810442
1858.14584810382
1858.14584810286
1858.14584810176
1858.14584810117
1858.14584810287
1858.14584811126
1858.14584813521
1858.14584819278
1858.14584832083
1858.14584859174
1858.14584914459
1858.1458502427
1858.1458523845
1858.1458565361
1858.14586466357
1858.14588103406
1858.14591547393
1858.14599134833
1858.14616396159
1858.14655922668
1858.14744461479
1858.14932057136
1858.1531162508
1858.14452268632
1858.14327052906
1858.1426290063
1858.1423131611
1858.14216655986
1858.14210075406
1858.14207157532
1858.14205850124
1858.14205246706
1858.14204957342
1858.14204813812
1858.14204741153
1858.14204704198
1858.14204685558
1858.14204676319
1858.14204671843
1858.14204669731
1858.14204668757
1858.14204668311
1858.14204668092
1858.14204667968
1858.14204667888
1858.14204667832
1858.14204667792
1858.14204667762
1858.14204667745
1858.14204667739
1858.14204667741
1858.14204667753
1858.14204667784
1858.1420466786
1858.1420466805
1858.14204668509
1858.14204669559
1858.14204671852
1858.14204676702
1858.14204686673
1858.14204706655
1858.14204745842
1858.14204821559
1858.14204967387
1858.14205252076
1858.14205826672
1858.14207044527
1858.1420975987
1858.14216027897
1858.14230605209
1858.1426376801
1858.14335102471
1858.14481573128
1858.14161354395
1858.14114728147
1858.14091049929
1858.14079503966
1858.14074199102
1858.14071843786
1858.14070811559
1858.14070354457
1858.14070145581
1858.14070045986
1858.14069996558
1858.14069971337
1858.14069958293
1858.1406995152
1858.14069947995
1858.14069946141
1858.14069945137
1858.14069944561
1858.140699442
1858.14069943948
1858.1406994376
1858.14069943613
1858.140699435
1858.14069943417
1858.14069943361
1858.14069943332
1858.14069943331
1858.14069943357
1858.14069943411
1858.14069943496
1858.14069943625
1858.14069943823
1858.14069944147
1858.14069944711
1858.14069945746
1858.14069947714
1858.14069951504
1858.14069958801
1858.14069972748
1858.14069999239
1858.14070049687
1858.14070147583
1858.14070345133
1858.14070766306
1858.1407171556
1858.14073936921
1858.14079179635
1858.14091284189
1858.14117701417
1858.14172709755
1858.14056300487
1858.1403937863
1858.1403085717
1858.14026739876
1858.14024865864
1858.14024041943
1858.14023684493
1858.14023527703
1858.14023456522
1858.14023422581
1858.14023405563
1858.14023396669
1858.1402339187
1858.14023389202
1858.14023387659
1858.14023386716
1858.14023386098
1858.14023385659
1858.14023385326
1858.14023385061
1858.14023384847
1858.14023384675
1858.14023384541
1858.14023384442
1858.14023384376
1858.14023384344
1858.14023384345
1858.1402338438
1858.14023384449
1858.14023384555
1858.14023384704
1858.14023384905
1858.14023385181
1858.14023385572
1858.1402338616
1858.14023387105
1858.1402338871
1858.14023391545
1858.14023396664
1858.14023406029
1858.14023423438
1858.14023456739
1858.14023523561
1858.14023666359
1858.14023990968
1858.14024759894
1858.14026599745
1858.14030908262
1858.14040445549
1858.14060579348
1858.14019244748
1858.14013252038
1858.14010261219
1858.14008829928
1858.14008184221
1858.14007902623
1858.14007781297
1858.14007728288
1858.14007704145
1858.1400769244
1858.14007686351
1858.14007682959
1858.14007680945
1858.14007679667
1858.140076788
1858.14007678169
1858.14007677682
1858.14007677291
1858.14007676968
1858.14007676699
1858.14007676477
1858.14007676296
1858.14007676154
1858.1400767605
1858.14007675981
1858.14007675948
1858.1400767595
1858.14007675988
1858.14007676063
1858.14007676176
1858.14007676332
1858.14007676534
1858.14007676792
1858.14007677122
1858.14007677554
1858.14007678142
1858.1400767899
1858.14007680287
1858.1400768238
1858.1400768591
1858.14007692111
1858.14007703548
1858.14007726032
1858.14007773742
1858.14007882507
1858.14008142455
1858.14008772011
1858.14010266757
1858.1401362451
1858.14020814989
1858.14006463256
1858.14004390736
1858.14003369006
1858.1400288612
1858.14002670226
1858.14002576495
1858.1400253605
1858.14002518168
1858.14002509768
1858.14002505442
1858.14002502964
1858.1400250139
1858.14002500299
1858.14002499485
1858.14002498844
1858.14002498319
1858.14002497879
1858.14002497505
1858.14002497187
1858.14002496919
1858.14002496695
1858.14002496512
1858.14002496369
1858.14002496263
1858.14002496194
1858.1400249616
1858.14002496163
1858.14002496202
1858.14002496279
1858.14002496395
1858.14002496552
1858.14002496753
1858.14002497005
1858.14002497313
1858.14002497689
1858.14002498155
1858.14002498744
1858.14002499521
1858.14002500596
1858.14002502176
1858.14002504652
1858.1400250884
1858.14002516604
1858.14002532531
1858.14002568352
1858.1400265396
1858.14002863024
1858.1400336644
1858.14004517429
1858.14007025186
1858.14002147684
1858.14001447855
1858.14001110987
1858.14000955478
1858.14000886728
1858.14000856708
1858.14000843402
1858.14000837169
1858.1400083393
1858.14000832003
1858.14000830694
1858.1400082971
1858.14000828919
1858.14000828259
1858.14000827695
1858.14000827207
1858.14000826785
1858.1400082642
1858.14000826106
1858.14000825839
1858.14000825616
1858.14000825434
1858.14000825291
1858.14000825186
1858.14000825117
1858.14000825085
1858.14000825088
1858.14000825127
1858.14000825204
1858.1400082532
1858.14000825477
1858.14000825677
1858.14000825925
1858.14000826223
1858.1400082658
1858.14000827002
1858.14000827503
1858.14000828106
1858.14000828845
1858.14000829786
1858.1400083105
1858.14000832886
1858.14000835865
1858.14000841395
1858.14000853094
1858.14000880283
1858.14000946499
1858.14001108604
1858.14001489921
1858.14002343983
1858.14000720024
1858.1400049001
1858.14000386087
1858.14000341148
1858.14000321709
1858.14000312843
1858.1400030845
1858.14000305995
1858.1400030441
1858.14000303243
1858.14000302303
1858.14000301506
1858.14000300813
1858.14000300204
1858.14000299667
1858.14000299196
1858.14000298782
1858.14000298423
1858.14000298113
1858.14000297849
1858.14000297629
1858.1400029745
1858.14000297309
1858.14000297205
1858.14000297137
1858.14000297105
1858.14000297109
1858.14000297148
1858.14000297225
1858.1400029734
1858.14000297495
1858.14000297693
1858.14000297938
1858.14000298231
1858.14000298578
1858.14000298984
1858.14000299454
1858.14000299998
1858.14000300629
1858.14000301365
1858.14000302244
1858.14000303336
1858.14000304799
1858.14000307007
1858.14000310907
1858.14000318947
1858.14000337685
1858.14000384851
1858.14000503697
1858.14000786994
1858.1400025696
1858.140001843
1858.14000157925
1858.14000149533
1858.14000146257
1858.14000144252
1858.14000142709
1858.14000141441
1858.14000140365
1858.14000139429
1858.140001386
1858.14000137861
1858.140001372
1858.1400013661
1858.14000136086
1858.14000135623
1858.14000135217
1858.14000134863
1858.14000134558
1858.14000134299
1858.14000134082
1858.14000133905
1858.14000133767
1858.14000133665
1858.14000133599
1858.14000133568
1858.14000133572
1858.14000133611
1858.14000133687
1858.140001338
1858.14000133954
1858.14000134149
1858.1400013439
1858.14000134679
1858.1400013502
1858.14000135418
1858.14000135876
1858.14000136399
1858.14000136994
1858.14000137667
1858.14000138429
1858.14000139298
1858.140001403
1858.14000141484
1858.14000142934
1858.14000144851
1858.14000148164
1858.1400015746
1858.14000188715
1858.14000279255
1858.14000109699
1858.1400008867
1858.14000087564
1858.14000090971
1858.14000092846
1858.14000092989
1858.14000092314
1858.14000091393
1858.14000090458
1858.14000089583
1858.14000088783
1858.1400008806
1858.14000087411
1858.1400008683
1858.14000086314
1858.14000085859
1858.14000085459
1858.14000085112
1858.14000084813
1858.14000084558
1858.14000084346
1858.14000084173
1858.14000084038
1858.14000083939
1858.14000083874
1858.14000083844
1858.14000083848
1858.14000083887
1858.14000083962
1858.14000084073
1858.14000084224
1858.14000084417
1858.14000084653
1858.14000084938
1858.14000085274
1858.14000085665
1858.14000086116
1858.14000086631
1858.14000087214
1858.14000087869
1858.14000088601
1858.14000089411
1858.1400009029
1858.14000091184
1858.14000091906
1858.1400009194
1858.14000090383
1858.14000087495
1858.14000090138
1858.1400011691
1858.14000063898
1858.14000059487
1858.14000066418
1858.14000073505
1858.14000076937
1858.14000077695
1858.14000077246
1858.14000076401
1858.1400007549
1858.14000074621
1858.14000073824
1858.14000073106
1858.14000072462
1858.14000071888
1858.14000071379
1858.14000070931
1858.1400007054
1858.14000070199
1858.14000069907
1858.14000069658
1858.14000069451
1858.14000069283
1858.14000069151
1858.14000069055
1858.14000068992
1858.14000068963
1858.14000068967
1858.14000069006
1858.14000069079
1858.14000069188
1858.14000069336
1858.14000069525
1858.14000069757
1858.14000070037
1858.14000070367
1858.14000070752
1858.14000071197
1858.14000071706
1858.14000072284
1858.14000072936
1858.14000073665
1858.1400007447
1858.14000075332
1858.1400007617
1858.14000076714
1858.14000076224
1858.14000073214
1858.14000066537
1858.1400006005
1858.14000066133
1858.14000050141
1858.14000050984
1858.14000060376
1858.14000068517
1858.14000072343
1858.1400007322
1858.14000072789
1858.14000071932
1858.14000071004
1858.14000070124
1858.14000069323
1858.14000068605
1858.14000067965
1858.14000067398
1858.14000066898
1858.14000066458
1858.14000066075
1858.14000065743
1858.14000065458
1858.14000065216
1858.14000065015
1858.14000064852
1858.14000064724
1858.14000064631
1858.1400006457
1858.14000064542
1858.14000064547
1858.14000064585
1858.14000064656
1858.14000064763
1858.14000064908
1858.14000065092
1858.14000065319
1858.14000065592
1858.14000065916
1858.14000066295
1858.14000066734
1858.14000067238
1858.14000067813
1858.14000068465
1858.140000692
1858.14000070017
1858.14000070897
1858.14000071754
1858.14000072297
1858.14000071718
1858.1400006835
1858.14000060586
1858.14000051287
1858.14000050777
1858.14000046376
1858.14000048853
1858.14000058923
1858.14000067271
1858.14000071108
1858.14000071937
1858.14000071451
1858.14000070551
1858.14000069594
1858.14000068697
1858.14000067889
1858.14000067171
1858.14000066536
1858.14000065977
1858.14000065486
1858.14000065056
1858.14000064683
1858.1400006436
1858.14000064083
1858.14000063849
1858.14000063655
1858.14000063497
1858.14000063374
1858.14000063284
1858.14000063226
1858.14000063199
1858.14000063204
1858.14000063241
1858.14000063311
1858.14000063415
1858.14000063555
1858.14000063735
1858.14000063956
1858.14000064222
1858.14000064539
1858.1400006491
1858.14000065342
1858.1400006584
1858.14000066412
1858.14000067065
1858.14000067808
1858.14000068642
1858.14000069553
1858.14000070455
1858.14000071058
1858.14000070536
1858.14000067168
1858.14000059186
1858.14000049096
1858.14000046519
1858.14000045735
1858.1400004871
1858.1400005888
1858.14000067145
1858.14000070856
1858.14000071573
1858.14000071004
1858.14000070047
1858.14000069055
1858.1400006814
1858.14000067326
1858.14000066609
1858.1400006598
1858.1400006543
1858.14000064949
1858.14000064531
1858.14000064169
1858.14000063856
1858.1400006359
1858.14000063364
1858.14000063177
1858.14000063025
1858.14000062907
1858.14000062821
1858.14000062765
1858.1400006274
1858.14000062745
1858.14000062781
1858.14000062849
1858.1400006295
1858.14000063086
1858.14000063259
1858.14000063474
1858.14000063733
1858.14000064041
1858.14000064403
1858.14000064827
1858.14000065318
1858.14000065886
1858.14000066539
1858.1400006729
1858.14000068143
1858.14000069088
1858.14000070048
1858.14000070735
1858.14000070328
1858.14000067088
1858.14000059182
1858.14000048952
1858.14000045738
1858.14000046127
1858.14000049244
1858.14000059308
1858.14000067369
1858.14000070889
1858.14000071461
1858.14000070793
1858.14000069773
1858.14000068745
1858.14000067812
1858.14000066993
1858.14000066279
1858.14000065658
1858.14000065119
1858.14000064651
1858.14000064246
1858.14000063896
1858.14000063595
1858.14000063339
1858.14000063122
1858.14000062943
1858.14000062798
1858.14000062685
1858.14000062603
1858.14000062551
1858.14000062527
1858.14000062533
1858.14000062568
1858.14000062633
1858.1400006273
1858.14000062861
1858.14000063029
1858.14000063235
1858.14000063486
1858.14000063784
1858.14000064137
1858.1400006455