/*--------------------------------*- C++ -*----------------------------------*\
  =========                 |
  \\      /  F ield         | OpenFOAM: The Open Source CFD Toolbox
   \\    /   O peration     | Website:  https://openfoam.org
    \\  /    A nd           | Version:  10
     \\/     M anipulation  |
\*---------------------------------------------------------------------------*/
FoamFile
{
    format      ascii;
    class       volScalarField;
    location    "8.6";
    object      k;
}
// * * * * * * * * * * * * * * * * * * * * * * * * * * * * * * * * * * * * * //

dimensions      [0 2 -2 0 0 0 0];

internalField   nonuniform List<scalar> 
2500
(
6.27117079347212e-10
1.23550845841725e-08
5.30071174819387e-08
9.26009857500364e-08
1.27724858815221e-07
1.57136231451026e-07
1.8044165268735e-07
1.97932962855016e-07
2.10379232113673e-07
2.18785565629098e-07
2.2418173239795e-07
2.27478455962226e-07
2.29398169276843e-07
2.30465260652008e-07
2.31032328316987e-07
2.31320850340345e-07
2.31461597840164e-07
2.3152750932053e-07
2.31557166968166e-07
2.31569992455741e-07
2.31575317304263e-07
2.31577431153387e-07
2.31578224359753e-07
2.3157849518475e-07
2.31578561951745e-07
2.31578527880172e-07
2.315783781432e-07
2.3157797432442e-07
2.31576929854501e-07
2.31574314422421e-07
2.3156798938006e-07
2.31553226168365e-07
2.31519977025673e-07
2.31447764404012e-07
2.31296659382942e-07
2.30992381874451e-07
2.30403548504359e-07
2.29310068245457e-07
2.2736444030004e-07
2.24052699486947e-07
2.18668592681342e-07
2.10321146579099e-07
1.97997976397661e-07
1.80699440037851e-07
1.57638913141441e-07
1.28474802726671e-07
9.35132561714921e-08
5.38619900592664e-08
1.26930804339005e-08
6.53972678037603e-10
1.5502023481485e-08
3.55971367368551e-07
1.5587506118259e-06
2.72448078423832e-06
3.75952777786698e-06
4.62772459583768e-06
5.31721192963698e-06
5.83608023395499e-06
6.20643757589348e-06
6.45745183007691e-06
6.61919693072142e-06
6.71841880046e-06
6.77644807888986e-06
6.80885128419939e-06
6.82615227405911e-06
6.83499783543836e-06
6.83933442230687e-06
6.84137554215229e-06
6.84229872286185e-06
6.84270009027612e-06
6.84286767178607e-06
6.84293461948209e-06
6.84295993951342e-06
6.84296868650721e-06
6.84297090404898e-06
6.84296986666575e-06
6.84296511372964e-06
6.84295228221737e-06
6.84291923660149e-06
6.84283690077152e-06
6.8426387616817e-06
6.84217850098561e-06
6.84114679055336e-06
6.83891644310638e-06
6.83427082754419e-06
6.82495850016267e-06
6.80701784846487e-06
6.77384689248241e-06
6.71507570217049e-06
6.61544577635704e-06
6.4540978659807e-06
6.20485384506136e-06
5.83813002411088e-06
5.32489638134036e-06
4.64251537648695e-06
3.78144262659088e-06
2.75101157504808e-06
1.58351412764273e-06
3.65527465441009e-07
1.61421601890753e-08
5.48787722806442e-08
1.59572060333974e-06
7.91463369250734e-06
1.38148868573086e-05
1.9024725756415e-05
2.33816993098443e-05
2.68357460807845e-05
2.9433381229692e-05
3.12881844780516e-05
3.25468352003695e-05
3.3359429641376e-05
3.38591504408297e-05
3.41522604565933e-05
3.43164619304488e-05
3.44044400371463e-05
3.4449587046656e-05
3.4471805890978e-05
3.44823055459656e-05
3.44870741654083e-05
3.4489156419141e-05
3.44900298924855e-05
3.44903807098414e-05
3.44905142945084e-05
3.44905609190937e-05
3.44905730447445e-05
3.44905678724871e-05
3.44905431285189e-05
3.4490476192194e-05
3.44903042942362e-05
3.44898774466886e-05
3.44888536176947e-05
3.4486482845035e-05
3.44811849110751e-05
3.44697665670408e-05
3.44460544378137e-05
3.43986628757625e-05
3.43076247403134e-05
3.41397722241977e-05
3.38431630250666e-05
3.33415621462312e-05
3.25309336952528e-05
3.12807608626272e-05
2.94432371960279e-05
2.68723166050689e-05
2.34519186636427e-05
1.91286472665199e-05
1.39405228710643e-05
8.03147123436247e-06
1.6349115334252e-06
5.68134261105024e-08
9.69447092230179e-08
2.83857466571204e-06
1.41370075385254e-05
2.46027085382834e-05
3.3795252498107e-05
4.14514633037116e-05
4.75020589432351e-05
5.2042296759905e-05
5.52795281130625e-05
5.74745878490984e-05
5.88914017050795e-05
5.97628561684237e-05
6.02742597322172e-05
6.05609617882084e-05
6.0714717353617e-05
6.07937041378285e-05
6.08326242507837e-05
6.08510408488702e-05
6.08594174106418e-05
6.08630810610404e-05
6.08646207591356e-05
6.08652405439222e-05
6.08654772610523e-05
6.08655603008555e-05
6.08655822550756e-05
6.08655736494046e-05
6.08655309700684e-05
6.08654149856458e-05
6.08651167992947e-05
6.0864375843802e-05
6.08625974426192e-05
6.08584768204506e-05
6.08492632191089e-05
6.0829395452256e-05
6.07881183051584e-05
6.07055897985465e-05
6.05470037961485e-05
6.02545270080789e-05
5.97375527538567e-05
5.88630008683481e-05
5.74490051367386e-05
5.52667976089012e-05
5.20559905118046e-05
4.75567264978731e-05
4.15577594336099e-05
3.39530550117504e-05
2.47929458022086e-05
1.43118914830285e-05
2.8958129274429e-06
9.971620424765e-08
1.38350524005648e-07
4.05308687349633e-06
2.01513005279955e-05
3.4971566035154e-05
4.79307765420385e-05
5.86859919206635e-05
6.71629308714557e-05
7.35117517772449e-05
7.80329678385987e-05
8.10966163846081e-05
8.30736403448373e-05
8.42898345745323e-05
8.50038358180784e-05
8.54043657166179e-05
8.56193357061107e-05
8.57298724815362e-05
8.5784396545765e-05
8.58102274981744e-05
8.58219919951598e-05
8.58271451377598e-05
8.5829314601538e-05
8.58301897909276e-05
8.58305250671507e-05
8.58306432831862e-05
8.58306750140326e-05
8.58306636255127e-05
8.58306048262323e-05
8.58304441812385e-05
8.58300306938646e-05
8.5829002471915e-05
8.58265328091274e-05
8.58208064016522e-05
8.58079935191728e-05
8.5780346914294e-05
8.57228757279322e-05
8.56079113270833e-05
8.53868989615763e-05
8.49791289292859e-05
8.42580933975609e-05
8.30378465944788e-05
8.10639589796669e-05
7.80156617862622e-05
7.35263185876397e-05
6.72270578336776e-05
5.88125526497074e-05
4.8119363353807e-05
3.51984996616322e-05
2.03584675160154e-05
4.12073168705356e-06
1.41652996204585e-07
1.78129471653175e-07
5.21904599409708e-06
2.58861224344215e-05
4.48081471365344e-05
6.12884134138368e-05
7.49232793059545e-05
8.56448584636052e-05
9.36617201266175e-05
9.93649079787785e-05
0.000103227386971396
0.000105719538979074
0.000107252865170046
0.000108153406758907
0.000108658876749678
0.00010893037153498
0.000109070095893019
0.000109139086398768
0.000109171807786966
0.000109186729400656
0.000109193274919189
0.000109196035316729
0.000109197151341867
0.00010919758021828
0.000109197732243103
0.000109197773639729
0.000109197760085516
0.000109197686861559
0.000109197485690153
0.000109196967372091
0.00010919567773053
0.000109192578318501
0.000109185387191733
0.000109169286991018
0.000109134526956205
0.000109062230062113
0.00010891754012289
0.000108639266297295
0.000108125657842892
0.000107217158664678
0.000105679102013048
0.000103190056055305
9.93440114814169e-05
9.36752695730425e-05
8.5712090731037e-05
7.50581012344451e-05
6.14901538629922e-05
4.50508106152199e-05
2.61071632816031e-05
5.29195237110067e-06
1.81756027022297e-07
2.15734754306813e-07
6.32164645644532e-06
3.12820066677482e-05
5.40206658841715e-05
7.37549978018713e-05
9.00373761422828e-05
0.000102814931504209
0.00011235581323621
0.000119137332253108
0.000123728134384589
0.000126689962702608
0.000128512600880056
0.000129583485574185
0.000130184910538828
0.000130508173882588
0.000130674680089096
0.000130756973008126
0.000130796045656198
0.000130813885303052
0.000130821721859699
0.000130825032327201
0.00013082637370181
0.000130826890836997
0.000130827075164533
0.000130827126071667
0.000130827110921305
0.000130827024846795
0.000130826787087927
0.000130826174017104
0.000130824648023626
0.000130820978890238
0.000130812461428484
0.000130793381349693
0.000130752166340975
0.000130666402790056
0.000130494688313562
0.000130164315880568
0.00012955434722619
0.000128475070401491
0.000126647323449796
0.000123688394723006
0.000119114106692283
0.00011236746144267
0.000102880991354999
9.01718609547653e-05
7.39570260050015e-05
5.42637970856377e-05
3.15037801775737e-05
6.39618823529457e-06
2.1953515411138e-07
2.50772118594059e-07
7.34964751400768e-06
3.62922289096762e-05
6.2539423050535e-05
8.52472193814325e-05
0.00010393805245087
0.000118580098227204
0.000129500276428548
0.000137256648585483
0.000142505637527924
0.000145892002269656
0.000147976323480071
0.000149201445375267
0.000149889870990783
0.000150260148503981
0.000150451022665444
0.000150545444793125
0.000150590322459057
0.00015061083648069
0.000150619860087596
0.000150623678348747
0.000150625228883109
0.000150625828607061
0.000150626043601732
0.000150626103824134
0.000150626087572915
0.000150625990093507
0.000150625719491604
0.000150625021338525
0.000150623283187887
0.000150619102541359
0.000150609393471297
0.000150587633888315
0.000150540609268729
0.00015044271488125
0.000150246637477933
0.000149869265696431
0.000149172318138718
0.00014793881303688
0.000145849326388732
0.000142465636935058
0.000137232614653305
0.000129510062831571
0.000118642600406504
0.000104066682349598
8.54409095323933e-05
6.27726467360253e-05
3.65057749370529e-05
7.42329128047101e-06
2.54635570911585e-07
2.82961196595777e-07
8.29490562183476e-06
4.088348755358e-05
7.03173208025406e-05
9.57116953977157e-05
0.000116570403887971
0.000132886387698865
0.000145042939573897
0.000153672466292978
0.000159510893929574
0.000163277591368898
0.00016559653071427
0.000166960091495481
0.000167726715441869
0.000168139320083604
0.000168352174205011
0.000168457560171909
0.000168507697693953
0.000168530641584198
0.000168540747220431
0.000168545030240636
0.000168546773277728
0.000168547449655888
0.000168547693537538
0.000168547762813925
0.000168547745911225
0.000168547638349442
0.000168547338450297
0.000168546564441504
0.000168544637314837
0.00016854000111614
0.000168529230362726
0.000168505081760968
0.000168452873252057
0.000168344146196959
0.000168126297812811
0.000167706901619882
0.000166932142946917
0.000165560607755064
0.000163236783737093
0.000159472655950545
0.000153649350432309
0.000145051694763435
0.000132944592364059
0.000116690344911218
9.58920885212538e-05
7.05344041552639e-05
4.10832708787035e-05
8.36598047233577e-06
2.86808437599006e-07
3.12125845549722e-07
9.15223863847081e-06
4.50359855874402e-05
7.73294882939727e-05
0.000105123990203144
0.000127913325705919
0.000145716967747753
0.000158970989165118
0.000168375185217271
0.000174736597564785
0.000178840919345592
0.000181368312288666
0.000182855017522003
0.0001836913002815
0.000184141672678488
0.000184374176275272
0.000184489384472893
0.000184544245470333
0.000184569377439511
0.000184580460621679
0.000184585165258493
0.000184587083919956
0.000184587830829146
0.000184588101669542
0.000184588179674643
0.000184588162522825
0.000184588046092819
0.000184587720241563
0.000184586879122751
0.000184584785048567
0.00018457974659895
0.000184568038195743
0.000184541778506501
0.000184484986041101
0.000184366673362654
0.000184129548111355
0.00018367292184295
0.00018282919872918
0.000181335283287731
0.000178803629033359
0.000174701997854364
0.000168354839675189
0.000158980162408452
0.000145771476400961
0.00012802396112857
0.000105289160927967
7.75276017724192e-05
4.5219257344385e-05
9.21977799073749e-06
3.15904074973868e-07
3.38188371890224e-07
9.91929207064779e-06
4.87428650987509e-05
8.35719539095703e-05
0.000113486526181321
0.000137976802899132
0.000157088984202378
0.000171307504093854
0.000181392337846802
0.000188213362166648
0.000192614583979706
0.000195325462102054
0.000196920695014312
0.000197818458646574
0.000198302221261336
0.000198552129970163
0.000198676057088897
0.000198735121060363
0.000198762205359913
0.000198774163630329
0.000198779247265343
0.000198781324701658
0.000198782135919172
0.000198782431672936
0.000198782518001543
0.000198782500929202
0.000198782376776231
0.000198782028115155
0.000198781128115728
0.000198778887841206
0.000198773497405947
0.000198760968509874
0.000198732860709402
0.000198672052903556
0.000198545338415859
0.000198291307290278
0.000197802014207919
0.000196897755865193
0.000195296385538151
0.000192582204068663
0.000188184095694096
0.000181376645743932
0.000171318968310976
0.000157141405033479
0.000138079232039305
0.000113636925117619
8.37509435469528e-05
4.89090785136989e-05
9.98290027386737e-06
3.41867018825888e-07
3.61161313984205e-07
1.05963160831487e-05
5.20090680029224e-05
8.90594950799375e-05
0.00012082554817844
0.000146798190915061
0.000167049355937795
0.000182106925141339
0.000192783849603258
0.000200004851530095
0.000204664643481322
0.000207535484546282
0.00020922545405577
0.000210176967011927
0.000210689971050432
0.000210955151630613
0.000211086745488896
0.000211149514146066
0.000211178324074053
0.00021119105836909
0.000211196479503768
0.000211198699140566
0.000211199568441038
0.000211199886989687
0.000211199981156164
0.000211199964431465
0.00021119983362035
0.000211199465083666
0.000211198513883695
0.000211196146761225
0.00021119045124525
0.00021117721129263
0.000211147501348282
0.000211083210769856
0.000210949204685209
0.000210680493870322
0.000210162822860008
0.000209205958410972
0.000207511183234937
0.000204638309476753
0.000199982397349356
0.000192774626438378
0.000182122777547215
0.000167101965516126
0.000146894728724889
0.000120963356689622
8.92211857570545e-05
5.21593324455615e-05
1.06560438814337e-05
3.64727958603593e-07
3.81135968838792e-07
1.11858438393467e-05
5.48497424326189e-05
9.38228566630106e-05
0.00012718737011108
0.000154437733173475
0.000175669778344935
0.000191449712168985
0.000202636470954899
0.000210202069829696
0.000215084820194759
0.000218093747016641
0.000219865606572292
0.00022086365249587
0.000221402016385443
0.000221680467470247
0.000221818737796597
0.000221884740459428
0.000221915060960262
0.000221928476816406
0.000221934195610382
0.00022193654137998
0.000221937462632104
0.000221937801827395
0.000221937903284612
0.000221937887113856
0.000221937750624064
0.000221937364931046
0.000221936369632908
0.000221933893528822
0.000221927936219798
0.000221914086260431
0.000221883001506323
0.000221815720918023
0.000221675451576362
0.000221394125095791
0.000220852055932651
0.000219849948040734
0.000218074821535141
0.000215065410453343
0.00021018765961799
0.00020263537300706
0.000191472086995127
0.000175725203325843
0.000154531440934303
0.000127315899317876
9.39704085547503e-05
5.49863194221383e-05
1.12420699431169e-05
3.84592301017141e-07
3.98268319057837e-07
1.16922925531141e-05
5.72883371812435e-05
9.79055554535486e-05
0.000132634164295229
0.000160973600199047
0.00018304123390357
0.00019943649596968
0.000211057693474894
0.000218917127334212
0.000223990173433794
0.00022711709729105
0.000228959031796467
0.000229996960661141
0.000230557099143658
0.000230846967211098
0.000230990994095097
0.000231059792001741
0.000231091421785637
0.000231105430346162
0.000231111409080303
0.000231113865628544
0.000231114832886442
0.000231115190591479
0.000231115298749601
0.000231115283282179
0.000231115142006144
0.000231114741655386
0.000231113708762922
0.000231111139994421
0.000231104960387813
0.000231090592628517
0.000231058340639728
0.000230988520362721
0.000230842928363484
0.000230550875655048
0.000229988053965385
0.000228947450769008
0.000227103941922735
0.000223978314459524
0.000218911722901554
0.000211066141843687
0.000199467402811928
0.000183102171941498
0.00016106787155414
0.000132757324181155
9.8042894809132e-05
5.74141899162866e-05
1.17456138103686e-05
4.01626237285993e-07
4.12763459860858e-07
1.2121519222765e-05
5.93545341757458e-05
0.000101360495192442
0.00013723956338518
0.000166496748880692
0.000189268327217914
0.000206182054941199
0.000218169488725665
0.000226276826206339
0.000231510589862906
0.000234737296478652
0.000236638575916648
0.000237710336599703
0.000238288979885453
0.000238588570122418
0.000238737509949403
0.000238808699378308
0.000238841452505397
0.000238855971297552
0.000238862174744206
0.000238864727603701
0.000238865735186798
0.000238866109312928
0.000238866223556907
0.000238866208892239
0.000238866063634972
0.0002388656509005
0.000238864586308171
0.000238861939613182
0.000238855573328516
0.000238840770906605
0.000238807538914211
0.000238735585400395
0.000238585520315931
0.000238284449087224
0.000237704171663698
0.000236631178180099
0.00023473011856113
0.000231506668402451
0.000226281109651825
0.000218188615298928
0.000206223252510521
0.000189337320857282
0.000166594968506981
0.000137361420803622
0.000101491836449585
5.94729432390755e-05
1.21726533886503e-05
4.16041484869175e-07
4.24859674409525e-07
1.24803639836013e-05
6.10821597115372e-05
0.000104246599945131
0.000141084325426599
0.00017110588058994
0.000194463742828465
0.000211809428735106
0.000224102191783849
0.000232416394731069
0.000237784423994714
0.00024109460272821
0.000243045602651937
0.000244145756921987
0.000244739959828962
0.000245047741814382
0.000245200830627821
0.000245274044795473
0.000245307751702348
0.000245322705172944
0.000245329100868244
0.000245331736594707
0.000245332779156402
0.000245333167697049
0.00024533328740514
0.000245333273601576
0.000245333125083025
0.000245332702014632
0.000245331611008856
0.000245328899552224
0.000245322378345595
0.000245307215339464
0.000245273170198089
0.000245199445832148
0.000245045665539108
0.000244737099967551
0.000244142310541174
0.000243042379682615
0.000241093445808861
0.000237788606946664
0.000232430773308449
0.000224132810779561
0.000211862339746669
0.000194543014440138
0.000171211165594873
0.00014120876211389
0.000104376070028052
6.11964146001943e-05
1.25300686937469e-05
4.28079844292504e-07
4.34813177555983e-07
1.2776210402132e-05
6.25071956342794e-05
0.000106625642985577
0.000144252275339203
0.000174902736108823
0.000198743081277206
0.000216444436962264
0.000228988806383998
0.000237473653002391
0.000242952575773598
0.000246331795105402
0.00024832398560815
0.000249447704321699
0.000250054845764886
0.000250369454123464
0.000250526008468241
0.000250600918213956
0.000250635426178558
0.00025065074598007
0.000250657304389995
0.000250660010655432
0.000250661083234445
0.000250661484292944
0.000250661608852037
0.00025066159593495
0.000250661444792873
0.000250661013219878
0.000250659900493108
0.000250657135908779
0.000250650487779546
0.00025063502944892
0.000250600318138538
0.000250525142224684
0.000250368314754484
0.000250053598820458
0.000249446893861878
0.000248324836226555
0.000246336565604755
0.000242964837748356
0.000237498278850212
0.000229031412146214
0.000216510105531159
0.000198834431112836
0.000175017762747028
0.000144382748803752
0.00010675701106859
6.26203664906014e-05
1.28252206241415e-05
4.37998544373317e-07
4.42884317705539e-07
1.30165855768955e-05
6.36659828424312e-05
0.00010855940441851
0.000146826682579121
0.00017798790544217
0.000202220264766498
0.000220210803988623
0.000232959939640583
0.000241583822796424
0.000247153221111274
0.000250588855486884
0.00025261476145428
0.000253757804446108
0.000254375578026352
0.000254695808411998
0.000254855223821084
0.000254931537148048
0.000254966710220834
0.000254982335257808
0.000254989029840722
0.000254991795484095
0.00025499289353963
0.000254993305350992
0.000254993434170376
0.000254993422140184
0.000254993268934414
0.000254992830474172
0.000254991700151683
0.000254988892619538
0.000254982142004911
0.000254966445243978
0.000254931195861897
0.000254854846695474
0.000254695554388423
0.000254375859900739
0.000253759503579631
0.000252619514362934
0.0002505993521683
0.000247173378658737
0.000241618626192862
0.000233014728889833
0.00022028989312156
0.000202325028924897
0.000178114817038157
0.000146966085133544
0.000108695912974764
6.37807707865904e-05
1.30655701162285e-05
4.46057100544727e-07
4.49325761806158e-07
1.32088155051189e-05
6.4593678540588e-05
0.000110107244280579
0.000148887177885785
0.000180457266720906
0.000205003634995062
0.000223226018668697
0.00023613949977411
0.000244875118262045
0.000250517334149804
0.000253998448608852
0.00025605158488851
0.000257210266523829
0.00025783666323411
0.000258161464145168
0.00025832321150531
0.000258400672081931
0.00025843639052553
0.000258452266776525
0.000258459073946703
0.000258461888982151
0.000258463008411126
0.00025846342935663
0.000258463561878597
0.00025846355071728
0.000258463395935212
0.000258462952005605
0.00025846180768423
0.000258458966038228
0.000258452134085819
0.000258436248061961
0.00025840057124224
0.000258323289126523
0.000258162034791516
0.000257838373495025
0.000257214320603398
0.000256060021381886
0.000254014393713788
0.000250545084871252
0.000244919851692854
0.00023620641431088
0.000223318842151738
0.000205122695542368
0.000180597652915953
0.000149037782462303
0.000110251530473547
6.47123374056813e-05
1.32583514840543e-05
4.52506145709669e-07
4.54372915331176e-07
1.3359743445593e-05
6.53229964980112e-05
0.000111324129764005
0.000150507253066805
0.000182399101857977
0.000207192793816637
0.000225597982133779
0.000238641211920614
0.000247465173985141
0.000253165058852755
0.000256682258575503
0.000258757044147344
0.000259928186778242
0.000260561471008216
0.00026088993202994
0.000261053552113075
0.000261131936866768
0.000261168096162181
0.00026118417630185
0.00026119107530342
0.000261193930889679
0.000261195068027406
0.0002611954966428
0.000261195632350652
0.000261195622028007
0.000261195466091375
0.000261195017927441
0.000261193862725443
0.000261190994588771
0.000261184099494265
0.000261168066441514
0.000261132057128494
0.000261054048172319
0.000260891262903757
0.000260564501961896
0.000259934427419287
0.000258768920219584
0.00025670332928005
0.000253200023157107
0.000247519463436931
0.000238719996281882
0.000225704562791826
0.000207326630021155
0.000182554035071577
0.000150670729520941
0.000111478221099038
6.5447314259233e-05
1.34103062795364e-05
4.57578427417706e-07
4.58236590298551e-07
1.34755122221636e-05
6.58832318059217e-05
0.000112259113804189
0.000151752336856259
0.000183891878932574
0.000208876174825896
0.000227422430751714
0.000240565938718194
0.000249458297000132
0.000255202916522883
0.000258748168500478
0.000260839823811663
0.000262020701446221
0.000262659381511252
0.000262990718609632
0.000263155815074851
0.000263234931020154
0.000263271440502144
0.00026328768334877
0.000263294656050045
0.000263297544423314
0.000263298696028041
0.000263299131004009
0.000263299269426484
0.000263299259905212
0.00026329910317757
0.000263298651852026
0.000263297488467334
0.000263294600408822
0.000263287657805464
0.000263271513939133
0.000263235253436902
0.000263156693961804
0.000262992746250778
0.000262663626364414
0.000262028959867584
0.000260854890833778
0.000258774027221087
0.000255244679507749
0.000249521696352428
0.000240656206358048
0.000227542575606993
0.000209024942410858
0.000184061991267804
0.000151929819313133
0.000112424478573231
6.60145569996705e-05
1.35274776446745e-05
4.61481941731731e-07
4.61097738925059e-07
1.35614057827151e-05
6.62995482300331e-05
0.000112954227343694
0.000152678396805604
0.000185002642309144
0.000210129280724905
0.000228781065076707
0.000241999733947782
0.000250943469496203
0.000256721775113167
0.000260288208673362
0.000262392640056672
0.000263580914433685
0.000264223708807364
0.00026455724728306
0.000264723478450194
0.000264803158894863
0.000264839940082902
0.000264856309901335
0.000264863340521126
0.000264866254897546
0.000264867418121027
0.000264867858297888
0.000264867999011092
0.000264867990251086
0.000264867833046495
0.000264867379493124
0.000264866210269446
0.000264863307976901
0.000264856331363071
0.000264840107882611
0.000264803666105999
0.000264724707497712
0.000264559913288017
0.000264229068743729
0.000263591033185511
0.000262410663284162
0.000260318530828775
0.000256769926096567
0.000251015513843358
0.000242101035323792
0.000228914447539432
0.000210292905404364
0.000185188225239559
0.000152870581492357
0.000113131859119295
6.64388452978501e-05
1.36150599487407e-05
4.64394994912545e-07
4.63103941767997e-07
1.36217415838061e-05
6.6592490846928e-05
0.000113443724595447
0.00015333098870463
0.000185785919010336
0.00021101348586543
0.000229740277991567
0.000243012518379803
0.00025199298881539
0.000257795465381565
0.000261377157413513
0.000263490832013074
0.000264684483013996
0.000265330283311081
0.000265665438958009
0.000265832508625688
0.000265912608885396
0.00026594959356929
0.000265966059254435
0.000265973134032151
0.000265976068483011
0.000265977240828035
0.00026597768518358
0.000265977827810071
0.000265977819771502
0.000265977662363408
0.000265977207402794
0.000265976034400504
0.000265973122865387
0.00026596612405815
0.000265949848209102
0.000265913286068399
0.000265834059924707
0.000265668693302558
0.000265336673319773
0.000264696325755187
0.000263511606246885
0.000261411655352144
0.000257849632763889
0.000252073242754945
0.000243124404592651
0.000229886517551229
0.000211191757844207
0.000185987028679947
0.000153538242230692
0.000113634240424465
6.67404084740848e-05
1.3677295188513e-05
4.66462872133622e-07
4.643672699072e-07
1.3659803288263e-05
6.67776778065216e-05
0.000113753607534777
0.000153744658884383
0.000186283031450301
0.00021157528323143
0.000230350353857027
0.000243657244694728
0.000252661608448739
0.000258479905645503
0.000262071655234487
0.000264191469211364
0.000265388721193993
0.000266036552774691
0.000266372811703608
0.000266540459245355
0.000266620851981511
0.000266657980116987
0.000266674514284056
0.000266681621104216
0.000266684570409528
0.000266685749676836
0.000266686197309942
0.000266686341515039
0.000266686334161147
0.000266686176792237
0.000266685721159424
0.000266684546230634
0.000266681629939998
0.000266674619543869
0.000266658315714177
0.000266621687577438
0.000266542311028986
0.000266376615286826
0.000266043906141149
0.000265402180290705
0.000264214831097944
0.000262110097275133
0.000258539785157278
0.000252749705918302
0.000243779321116003
0.000230509084839475
0.000211767940802373
0.000186499584225513
0.000153967118992724
0.000113957341492022
6.6934615710279e-05
1.37174058897427e-05
4.67795736538753e-07
4.64963135106163e-07
1.36778030642663e-05
6.68656243472099e-05
0.000113901355149904
0.000153942602606536
0.000186521701217289
0.000211845848342498
0.000230645003573872
0.000243969411826559
0.000252986037766152
0.000258812591481095
0.000262409688128391
0.000264532830755069
0.000265732076457562
0.000266381057686993
0.00026671795547176
0.000266885945644598
0.000266966516126816
0.000267003733759846
0.000267020311906314
0.000267027440005265
0.000267030399582688
0.000267031583878883
0.000267032034034984
0.000267032179546626
0.000267032172848854
0.000267032015722949
0.000267031560056642
0.000267030384860242
0.000267027467907454
0.000267020455681236
0.000267004146377364
0.000266967502404232
0.000266888083321964
0.000266722281974827
0.000266389329241328
0.000265747078466456
0.000264558667687287
0.000262451912415854
0.000258877967089675
0.000253081711751397
0.00024410137859525
0.000230815927800857
0.000212052642732298
0.000186753548305641
0.000154180256726487
0.00011411843182295
6.70317862647063e-05
1.37375543077127e-05
4.68467389864519e-07
4.64929710241314e-07
1.3676861264721e-05
6.68616493927899e-05
0.00011389578711698
0.000153936500191709
0.000186515865676156
0.000211840838186182
0.00023064114746934
0.000243966834260353
0.000252984700468397
0.000258812345797611
0.00026241032902239
0.000264534142293766
0.000265733863979762
0.000266383163655463
0.000266720263258161
0.000266888375183799
0.000266969015975072
0.000267006272749492
0.0002670228721069
0.0002670300115445
0.000267032977201133
0.000267034164817462
0.000267034616828003
0.000267034763409637
0.000267034757345087
0.00026703460064895
0.000267034145548315
0.000267032971671084
0.000267030058011752
0.000267023053420152
0.000267006760469763
0.000266970149215751
0.000266890791737832
0.000266725099920889
0.000266392331189329
0.000265750372091681
0.000264562396396668
0.000262456249311905
0.00025888309597915
0.000253087792883338
0.000244108500969406
0.000230824054793815
0.000212061560923322
0.000186762828242207
0.000154189228252704
0.000114126167922005
6.70370806829254e-05
1.37388190647453e-05
4.68514583764443e-07
4.64267878968906e-07
1.36570037143769e-05
6.67658577283427e-05
0.000113737027015245
0.000153726460511204
0.000186265605496263
0.000211560305862232
0.000230338820077047
0.000243649539369757
0.000252657626498972
0.000258479207297343
0.000262073627706853
0.000264195465011729
0.000265394154224599
0.000266042948088469
0.000266379817233669
0.000266547833061133
0.000266628438523277
0.000266665685087544
0.000266682283416337
0.000266689424514613
0.000266692392179094
0.00026669358145834
0.00026669403467384
0.000266694182094813
0.000266694176643602
0.000266694020571851
0.000266693566658881
0.000266692395744033
0.000266689489460243
0.000266682502233463
0.000266666247992257
0.000266629719008815
0.000266550529051029
0.000266385164884221
0.000266053012426756
0.000265412168398731
0.000264226133417286
0.000262123234599941
0.000258555308563482
0.000252768092611324
0.000243800830245653
0.000230533594236377
0.000211794795015438
0.000186527480510199
0.000153994038940546
0.000113980508972177
6.69504386849227e-05
1.37211799882821e-05
4.6793644971236e-07
4.62941533369671e-07
1.36171693968348e-05
6.65731617625387e-05
0.00011341652247949
0.0001533010359487
0.000185757154150637
0.000210988706207816
0.000229721172704992
0.000242999767434273
0.000251986449963062
0.000257794426772553
0.000261380606618966
0.000263497689518269
0.000264693766274423
0.000265341193244702
0.000265677381667401
0.000265845075204889
0.000265925536027783
0.000265962721492418
0.00026597929593639
0.000265986428776404
0.000265989394281616
0.000265990583525513
0.000265991037277194
0.000265991185299854
0.000265991180447626
0.000265991025219918
0.000265990573180957
0.000265989407021478
0.000265986512534023
0.000265979553154046
0.000265963361609747
0.000265926967898107
0.000265848058448534
0.000265683254077523
0.000265352177023747
0.000264713321054207
0.000263530820656251
0.000261433961340527
0.000257875947066794
0.000252104348294497
0.00024316070659411
0.000229927771166969
0.000211236820389296
0.00018603368234955
0.000153583099531277
0.000113672696700381
6.6766571275866e-05
1.36835185004869e-05
4.66694709454733e-07
4.60877733334105e-07
1.35552166608925e-05
6.62733220110407e-05
0.000112917116362695