/*--------------------------------*- C++ -*----------------------------------*\
  =========                 |
  \\      /  F ield         | OpenFOAM: The Open Source CFD Toolbox
   \\    /   O peration     | Website:  https://openfoam.org
    \\  /    A nd           | Version:  10
     \\/     M anipulation  |
\*---------------------------------------------------------------------------*/
FoamFile
{
    format      ascii;
    class       volScalarField;
    location    "8.6";
    object      nut;
}
// * * * * * * * * * * * * * * * * * * * * * * * * * * * * * * * * * * * * * //

dimensions      [0 2 -1 0 0 0 0];

internalField   nonuniform List<scalar> 
2500
(
4.90514361612499e-15
9.6631558585072e-14
4.14586957596698e-13
7.24275591484783e-13
9.99006457224127e-13
1.22905729196409e-12
1.41134888135267e-12
1.54816335548529e-12
1.64551613863068e-12
1.71126904865709e-12
1.75347686932357e-12
1.77926318312764e-12
1.79427877113663e-12
1.80262532295593e-12
1.80706079695021e-12
1.80931755156936e-12
1.81041844601726e-12
1.81093399265459e-12
1.81116597164659e-12
1.81126629236789e-12
1.81130794459586e-12
1.81132448082138e-12
1.81133068689501e-12
1.81133280629375e-12
1.81133332964444e-12
1.81133306398306e-12
1.81133189299028e-12
1.81132873434145e-12
1.81132056431074e-12
1.81130010622781e-12
1.81125063211273e-12
1.81113515583765e-12
1.81087508739605e-12
1.8103102560931e-12
1.80912834749136e-12
1.80674835965433e-12
1.8021426399268e-12
1.79358968091385e-12
1.77837138746117e-12
1.7524676059535e-12
1.71035410962605e-12
1.64506179010708e-12
1.54867185353796e-12
1.41336520643051e-12
1.23298909674674e-12
1.00487223260217e-12
7.31410916282521e-13
4.21273192127391e-13
9.92750788685094e-14
5.11520208318392e-15
4.86267595363614e-13
2.51251815764428e-11
1.10028975126305e-10
1.92328309290482e-10
2.6540720242294e-10
3.26707993543936e-10
3.75391336632328e-10
4.12027702464647e-10
4.38177884807466e-10
4.55901379075057e-10
4.67321713168108e-10
4.74327415935632e-10
4.78424626502952e-10
4.80712469873239e-10
4.81934007589915e-10
4.82558546456257e-10
4.82864729007621e-10
4.83008841120824e-10
4.83074022018202e-10
4.83102360640857e-10
4.83114193007759e-10
4.83118920198934e-10
4.831207082539e-10
4.83121326084734e-10
4.83121482886727e-10
4.83121409828357e-10
4.831210743441e-10
4.83120168428527e-10
4.83117835275982e-10
4.83112021994102e-10
4.83098032488321e-10
4.8306553604319e-10
4.82992692845477e-10
4.82835220593469e-10
4.82507219113315e-10
4.81849724212303e-10
4.8058302225606e-10
4.78240969479539e-10
4.74091371085513e-10
4.67056850064509e-10
4.5566455006734e-10
4.3806603218308e-10
4.12172385029649e-10
3.75933843153027e-10
3.27752213349486e-10
2.66954338697941e-10
1.94201198079645e-10
1.11776936766912e-10
2.57996482901349e-11
5.0634808952601e-13
1.72575244250748e-12
4.51670520287508e-10
1.55592074918487e-07
2.71609943881534e-07
3.74063236516103e-07
4.59749027790221e-07
5.27678866379364e-07
5.78766046087239e-07
6.15243911169408e-07
6.39997194076947e-07
6.55977928844232e-07
6.65805485564346e-07
6.71569755286879e-07
6.74798893673325e-07
6.76529031533629e-07
6.77416866268505e-07
6.77853806515169e-07
6.78060284587737e-07
6.78154060493721e-07
6.7819500855061e-07
6.78212185827327e-07
6.78219085049684e-07
6.7822171234982e-07
6.78222629497827e-07
6.78222868189593e-07
6.78222766674403e-07
6.78222280210646e-07
6.78220964003103e-07
6.7821758371025e-07
6.78209189797406e-07
6.7818905617505e-07
6.78142434697024e-07
6.78038250011655e-07
6.7781370575738e-07
6.77347399388441e-07
6.76415424095824e-07
6.74625107529024e-07
6.71324165297165e-07
6.65491073933183e-07
6.55626531580217e-07
6.39684441944588e-07
6.15097861603381e-07
5.78959789311103e-07
5.28397940147331e-07
4.61129761707939e-07
3.76106578569519e-07
2.74079998068394e-07
1.57888808558455e-07
4.6276261485887e-10
1.78659126356326e-12
3.05580265093255e-12
8.05393155908166e-10
2.78588856777257e-07
4.84879963549682e-07
6.66096029403752e-07
8.17033256665754e-07
9.36318767617181e-07
1.02582808013401e-06
1.08964856128487e-06
1.13292264925215e-06
1.1608538221388e-06
1.17803353822095e-06
1.18811515855788e-06
1.19376704250704e-06
1.19679806856527e-06
1.19835514591911e-06
1.19912237879448e-06
1.19948542382688e-06
1.1996505499323e-06
1.19972277098365e-06
1.19975312301284e-06
1.19976534106183e-06
1.19977000779646e-06
1.19977164506102e-06
1.19977207811908e-06
1.19977190871942e-06
1.19977106757971e-06
1.19976878138969e-06
1.19976290355506e-06
1.19974829753121e-06
1.19971324055168e-06
1.19963201175134e-06
1.19945038545803e-06
1.1990587336205e-06
1.19824503626192e-06
1.19661813986205e-06
1.19349188812511e-06
1.18772615961246e-06
1.17753471085216e-06
1.16029391496009e-06
1.13241826928024e-06
1.08939750778843e-06
1.02609790083698e-06
9.37396269954946e-07
8.19128417577659e-07
6.69206260203458e-07
4.88629023719025e-07
2.82034726382314e-07
8.21630664175312e-10
3.14315553846448e-12
4.36982948790573e-12
1.15233943132212e-09
3.97918160042112e-07
6.90633005480204e-07
9.46615263555773e-07
1.15907066216137e-06
1.32652342511792e-06
1.45193716832415e-06
1.54124789104941e-06
1.60176562217721e-06
1.64081830201538e-06
1.66484185966798e-06
1.67894543674217e-06
1.68685698874972e-06
1.69110319926141e-06
1.69328657190266e-06
1.69436355041248e-06
1.69487377030187e-06
1.69510614507597e-06
1.69520793082973e-06
1.69525078251128e-06
1.69526806960771e-06
1.69527469232226e-06
1.69527702760361e-06
1.69527765458613e-06
1.69527742985238e-06
1.69527626863756e-06
1.69527309578439e-06
1.69526492887175e-06
1.69524461971688e-06
1.69519583903501e-06
1.69508273051263e-06
1.6948296479987e-06
1.69428356483587e-06
1.69314837375426e-06
1.69087754456078e-06
1.68651198053888e-06
1.67845741283406e-06
1.66421488009095e-06
1.64011125524694e-06
1.60112049875041e-06
1.5409059612215e-06
1.45222476943608e-06
1.32778990957303e-06
1.16157023784082e-06
9.50339652605546e-07
6.95114128395291e-07
4.02008162021054e-07
1.17156645370249e-09
4.47411537108644e-12
5.63529837433955e-12
1.4862016456948e-09
5.11965889386719e-07
8.86268054111221e-07
1.21229374829946e-06
1.4820370725193e-06
1.69414695581823e-06
1.85274749451006e-06
1.96557486695607e-06
2.04198641739973e-06
2.09128830824638e-06
2.1216216381737e-06
2.13943665388582e-06
2.14943608149026e-06
2.1548068814453e-06
2.15757094268677e-06
2.15893572434156e-06
2.15958302211876e-06
2.15987820215773e-06
2.16000768561658e-06
2.16006229176306e-06
2.16008436904482e-06
2.16009285323841e-06
2.16009586075637e-06
2.16009667981091e-06
2.1600964118337e-06
2.16009496348579e-06
2.16009098413936e-06
2.16008073112577e-06
2.16005521993856e-06
2.15999390793229e-06
2.15985165343635e-06
2.15953315865575e-06
2.15884553219255e-06
2.1574153433263e-06
2.15455305230998e-06
2.14904814741431e-06
2.13888772014318e-06
2.12091527862415e-06
2.09048835662094e-06
2.04124789010611e-06
1.96516142236872e-06
1.85301543552172e-06
1.69547681295033e-06
1.48470387356558e-06
1.21628398338326e-06
8.91067094731617e-07
5.16336442517939e-07
1.50695561926522e-09
5.74998756073136e-12
6.8330160102414e-12
1.80225716320587e-09
6.193799372697e-07
1.06966516580144e-06
1.46047753138658e-06
1.78293425036908e-06
2.0359817833351e-06
2.22492917079754e-06
2.35922933514434e-06
2.45014426293525e-06
2.50879908916192e-06
2.54489366000106e-06
2.5661007953452e-06
2.57801099221492e-06
2.5844126494678e-06
2.58770999967536e-06
2.58933965578847e-06
2.59011341409902e-06
2.59046669308937e-06
2.59062188031312e-06
2.59068743734775e-06
2.59071400053446e-06
2.59072424140633e-06
2.59072789171485e-06
2.59072889989568e-06
2.59072859996156e-06
2.59072689555319e-06
2.59072218740724e-06
2.59071004706835e-06
2.59067982829377e-06
2.59060716902831e-06
2.59043849816334e-06
2.59006065494513e-06
2.58924447138269e-06
2.58754608641954e-06
2.58414559691493e-06
2.57760315796027e-06
2.56552376875813e-06
2.54415044013287e-06
2.50795469306318e-06
2.44935727643772e-06
2.35876936322871e-06
2.22515978743158e-06
2.03728988330513e-06
1.78559726948903e-06
1.46447780022185e-06
1.07447872241147e-06
6.23769822446686e-07
1.82350033128669e-09
6.95333493687134e-12
7.9491613143913e-12
2.09695786210518e-09
7.19120363839157e-07
1.23925089550379e-06
1.68925791868233e-06
2.05966337466973e-06
2.34983196193288e-06
2.56624165031248e-06
2.71995216072124e-06
2.82397257605553e-06
2.89108066257264e-06
2.9323858125983e-06
2.95666407073688e-06
2.97030657576301e-06
2.97764433560998e-06
2.98142686655129e-06
2.98329801573101e-06
2.98418734837244e-06
2.98459387045441e-06
2.98477268911114e-06
2.9848483545496e-06
2.98487908102276e-06
2.98489096558887e-06
2.98489522609838e-06
2.98489641952338e-06
2.98489609751592e-06
2.98489416587081e-06
2.98488880355964e-06
2.98487496865291e-06
2.98484052448684e-06
2.98475767804558e-06
2.98456527597549e-06
2.98413407091646e-06
2.98320219255152e-06
2.98126223458721e-06
2.97737659258814e-06
2.96989824766887e-06
2.95608686537736e-06
2.93164247841544e-06
2.89023496388456e-06
2.82317988873317e-06
2.7194758750317e-06
2.5664355667097e-06
2.35107051656226e-06
2.06221229414445e-06
1.69309587727895e-06
1.24387172583582e-06
7.23350609495028e-07
2.11796157361922e-09
8.07157301350061e-12
8.97415431261684e-12
2.36781177793784e-09
8.10474001098048e-07
1.39400584724855e-06
1.89746489782965e-06
2.31100377708623e-06
2.63447958835721e-06
2.87549106538144e-06
3.04657646031809e-06
3.16232635512701e-06
3.23700292252759e-06
3.28297689932995e-06
3.3100100340314e-06
3.32520863597519e-06
3.33338866466971e-06
3.33760856619587e-06
3.33969787493375e-06
3.34069186559802e-06
3.34114673433534e-06
3.34134708105702e-06
3.34143199285984e-06
3.34146654888223e-06
3.34147995819904e-06
3.34148479319543e-06
3.3414861666008e-06
3.34148583150909e-06
3.34148369911815e-06
3.34147775364033e-06
3.34146240888515e-06
3.34142420336566e-06
3.34133228990011e-06
3.34111875725062e-06
3.34064000482217e-06
3.3396049563124e-06
3.33744940985368e-06
3.33313049624483e-06
3.32481582399163e-06
3.30945594983296e-06
3.28226472113612e-06
3.23619390478971e-06
3.16156828106576e-06
3.04611818527062e-06
2.87566464099264e-06
2.6356335055706e-06
2.31338158900649e-06
1.90104101716139e-06
1.39830894536609e-06
8.14433609750456e-07
2.38809367072197e-09
9.09612022477267e-12
9.90221604372755e-12
2.61330147523037e-09
8.93038912496583e-07
1.53342490565127e-06
2.08460124232787e-06
2.53652422090413e-06
2.8895782790621e-06
3.15241086226912e-06
3.33889950042691e-06
3.46504841451848e-06
3.54643835902161e-06
3.59655726765693e-06
3.62603901934615e-06
3.64262271077185e-06
3.65155369943309e-06
3.65616429679931e-06
3.65844889945006e-06
3.65953680394035e-06
3.66003517561116e-06
3.66025495704332e-06
3.66034825070846e-06
3.66038629800498e-06
3.66040110929463e-06
3.66040648007841e-06
3.66040802691401e-06
3.66040768679057e-06
3.66040537798823e-06
3.66039891636097e-06
3.66038223693181e-06
3.66034071122517e-06
3.66024079809027e-06
3.66000861853063e-06
3.65948788398742e-06
3.65836167814241e-06
3.65601551322548e-06
3.65131326796057e-06
3.64225826447707e-06
3.62552703030569e-06
3.59590229989842e-06
3.54569888979081e-06
3.46436230155053e-06
3.33849605174598e-06
3.15259277910403e-06
2.89065920622045e-06
2.53871813075187e-06
2.08787649079104e-06
1.53735313209966e-06
8.96672446112746e-07
2.6325813713897e-09
1.00220404805794e-11
1.07309791700416e-11
2.83278796632873e-09
9.66692484338343e-07
1.65745448652637e-06
2.2507509694906e-06
2.73646778613489e-06
3.11552030425549e-06
3.39751634977718e-06
3.5975287377052e-06
3.7328099063499e-06
3.82009913892745e-06
3.87386382864141e-06
3.9055019753054e-06
3.92330725353089e-06
3.93290167761459e-06
3.93785809498852e-06
3.9403159299321e-06
3.94148733982519e-06
3.94202449988838e-06
3.94226166690124e-06
3.94236248998306e-06
3.94240369147879e-06
3.94241978022406e-06
3.94242564584865e-06
3.94242735797786e-06
3.94242701938055e-06
3.94242455708077e-06
3.94241764216103e-06
3.94239979263738e-06
3.94235536161607e-06
3.94224845384139e-06
3.94199996973204e-06
3.94144251070272e-06
3.94023651553539e-06
3.93772339909635e-06
3.9326852224961e-06
3.92298111363408e-06
3.90504702710913e-06
3.8732871585576e-06
3.81945695491759e-06
3.73222947212063e-06
3.59721752453686e-06
3.39774372872737e-06
3.1165599758739e-06
2.73849926042106e-06
2.25373376446682e-06
1.66100414002254e-06
9.69988489056507e-07
2.85094992493945e-09
1.08476762393866e-11
1.14610509833843e-11
3.0264005387803e-09
1.03155309648322e-06
1.76642321431171e-06
2.39648328764062e-06
2.91163485387872e-06
3.31330419478073e-06
3.6119615763192e-06
3.82373150887698e-06
3.96695537069824e-06
4.05937926832614e-06
4.11632048860272e-06
4.149839899977e-06
4.16871251733542e-06
4.17888760456856e-06
4.18414728080589e-06
4.18675735502802e-06
4.18800232825957e-06
4.18857375330996e-06
4.18882632920163e-06
4.18893385359925e-06
4.18897787851692e-06
4.18899512046111e-06
4.18900143863307e-06
4.18900330634811e-06
4.18900297462131e-06
4.18900038007919e-06
4.18899307043032e-06
4.18897420407518e-06
4.18892725389471e-06
4.18881428735228e-06
4.18855168211702e-06
4.1879624058714e-06
4.18668724638366e-06
4.18402932736349e-06
4.17869963147466e-06
4.16843197829193e-06
4.14945321810594e-06
4.11583849013168e-06
4.05885695343582e-06
3.96651001038048e-06
3.82354857832736e-06
3.61227600580453e-06
3.31434768264474e-06
2.91354962848503e-06
2.39921660896802e-06
1.76963011839668e-06
1.0345332039233e-06
3.04345709295897e-09
1.1574214949587e-11
1.2095540511663e-11
3.19491789070882e-09
1.08793983866714e-06
1.86097256647561e-06
2.52275952580866e-06
3.06327204946735e-06
3.48441076758379e-06
3.79740646380652e-06
4.01929625967572e-06
4.16936017206616e-06
4.26620967470297e-06
4.32589182157786e-06
4.361036700981e-06
4.38083296548812e-06
4.39151142516989e-06
4.39703450824419e-06
4.39977710287759e-06
4.40108626689887e-06
4.40168767453229e-06
4.40195377822211e-06
4.40206721055714e-06
4.40211373890889e-06
4.40213201194102e-06
4.40213873987199e-06
4.40214075226988e-06
4.40214043151961e-06
4.40213772424511e-06
4.40213007402966e-06
4.40211033229638e-06
4.40206121876367e-06
4.40194305548685e-06
4.40166834136212e-06
4.40105177475375e-06
4.39971726305801e-06
4.39693501794152e-06
4.39135490139621e-06
4.38060294765056e-06
4.36072611409454e-06
4.32551643491782e-06
4.26582468307491e-06
4.16907434674749e-06
4.01927448447671e-06
3.79785027397864e-06
3.48551013251957e-06
3.0651307571196e-06
2.52530890493387e-06
1.86389920475809e-06
1.09064869120767e-06
3.21097596296785e-09
1.22052168747322e-11
1.26395645655592e-11
3.33964354615283e-09
1.1363315872105e-06
1.94198871460976e-06
2.63084362116048e-06
3.19296691812476e-06
3.6306866052888e-06
3.9558926421581e-06
4.18640332336763e-06
4.34229803634025e-06
4.44292373189404e-06
4.50494738822025e-06
4.54148281799932e-06
4.56207050747585e-06
4.57318105382662e-06
4.57893069004212e-06
4.58178751443077e-06
4.58315214529573e-06
4.58377953324269e-06
4.58405739797412e-06
4.58417598826068e-06
4.58422471474914e-06
4.5842439006409e-06
4.58425099583912e-06
4.58425314118928e-06
4.58425283438554e-06
4.58425003212666e-06
4.58424209103392e-06
4.58422160325777e-06
4.58417065084279e-06
4.58404807618301e-06
4.58376308661999e-06
4.5831233570177e-06
4.58173844707222e-06
4.57885057807418e-06
4.57305760874965e-06
4.56189384007253e-06
4.54125310434149e-06
4.50468644704471e-06
4.44268850529371e-06
4.34219083813233e-06
4.18657090104967e-06
3.95650569323027e-06
3.63189533886523e-06
3.19483683308287e-06
2.63328654598061e-06
1.94471286579214e-06
1.13882784214683e-06
3.35487285328853e-09
1.27461255099308e-11
1.30997451873971e-11
3.4622780250835e-09
1.17732598463697e-06
2.01053569625881e-06
2.72221556758803e-06
3.30254697164408e-06
3.75423296634341e-06
4.08972544554927e-06
4.32750233716112e-06
4.4883155222183e-06
4.59212989704835e-06
4.65613326875809e-06
4.69384611547396e-06
4.71510503452885e-06
4.72658271867589e-06
4.73252524346672e-06
4.73547954068322e-06
4.73689161919093e-06
4.737541294101e-06
4.73782928170738e-06
4.73795233021299e-06
4.73800296747018e-06
4.73802295338702e-06
4.7380303743647e-06
4.73803264044966e-06
4.73803234956741e-06
4.73802946831628e-06
4.73802128152137e-06
4.73800016479724e-06
4.7379476662659e-06
4.73782138778665e-06
4.73752777424063e-06
4.73686860079243e-06
4.73544136626993e-06
4.73246474899951e-06
4.72649284798888e-06
4.71498274989811e-06
4.69369937763397e-06
4.65599089116387e-06
4.59205211297834e-06
4.48840048674367e-06
4.3278817230227e-06
4.09054262178165e-06
3.75560149370719e-06
3.30449521376492e-06
2.72463267634748e-06
2.01314090826214e-06
1.17967465090375e-06
3.47688313586285e-09
1.32037750562817e-11
1.348371373116e-11
3.56479149954088e-09
1.2115991896652e-06
2.0677907853491e-06
2.79848843269939e-06
3.39398338564641e-06
3.85730010714524e-06
4.2013618164032e-06
4.44519587168054e-06
4.6101128857149e-06
4.71659084265521e-06
4.78225014651873e-06
4.82094935463478e-06
4.84277154860108e-06
4.8545579056335e-06
4.86066293862333e-06
4.86369954341435e-06
4.86515178859063e-06
4.86582038449223e-06
4.86611699518519e-06
4.86624385747893e-06
4.866296138627e-06
4.86631681843559e-06
4.86632452536092e-06
4.8663268998386e-06
4.86632662603638e-06
4.86632368008565e-06
4.86631528828189e-06
4.86629364755677e-06
4.86623986425724e-06
4.86611051237431e-06
4.86580974542328e-06
4.86513444044445e-06
4.86367207518959e-06
4.86062175450113e-06
4.85450117862827e-06
4.84270318764548e-06
4.82088542517443e-06
4.78222719834855e-06
4.71667381391212e-06
4.61039809311441e-06
4.44580321730166e-06
4.20241133750844e-06
3.85887250705943e-06
3.39607177778164e-06
2.80095670963448e-06
2.07035889654539e-06
1.21386548413593e-06
3.57898857060236e-09
1.35859098764234e-11
1.37996404253878e-11
3.64930195599825e-09
1.239867727364e-06
2.11498382578824e-06
2.86133088408763e-06
3.46930134780416e-06
3.94218903274536e-06
4.29330613710669e-06
4.54213129420078e-06
4.71043335882984e-06
4.8191111051496e-06
4.88613996372784e-06
4.92565626672428e-06
4.94794590668905e-06
4.95998892420125e-06
4.96622937114592e-06
4.96933472119084e-06
4.97082060126609e-06
4.97150508759467e-06
4.97180896511238e-06
4.97193905513405e-06
4.97199273554251e-06
4.97201401079399e-06
4.97202196603066e-06
4.97202443673495e-06
4.97202418051644e-06
4.97202118252209e-06
4.97201262201156e-06
4.97199055040485e-06
4.97193571320585e-06
4.97180384354746e-06
4.97149721822088e-06
4.97080869840512e-06
4.96931753872289e-06
4.96620677106886e-06
4.95996419029854e-06
4.94792983071988e-06
4.92567313924152e-06
4.88623458944619e-06
4.81935432880404e-06
4.71092182738894e-06
4.54297640530557e-06
4.2946087131793e-06
3.94400101286568e-06
3.47158297253191e-06
2.86391890632133e-06
2.11758959077958e-06
1.24211253240572e-06
3.66330078546367e-09
1.3900733272897e-11
1.40558082469444e-11
3.71796399050079e-09
1.26285385644684e-06
2.15334253181826e-06
2.91239758572887e-06
3.53049965014782e-06
4.01116343107721e-06
4.36801686093002e-06
4.62090382022698e-06
4.79196385440656e-06
4.90243630010492e-06
4.97058422378631e-06
5.0107693162538e-06
5.0334422778882e-06
5.04569619726991e-06
5.05204816415821e-06
5.05521026695833e-06
5.05672398878732e-06
5.05742166834202e-06
5.05773160056988e-06
5.05786439174296e-06
5.05791924998128e-06
5.05794103058829e-06
5.05794919911975e-06
5.05795175433126e-06
5.05795151570485e-06
5.05794847677411e-06
5.05793977964549e-06
5.05791735900344e-06
5.05786166987544e-06
5.05772776727876e-06
5.05741641236185e-06
5.05671721916489e-06
5.05520278643751e-06
5.0520431254412e-06
5.04570178841767e-06
5.03347598124151e-06
5.01086359311364e-06
4.97079243191006e-06
4.90283613744897e-06
4.79265420118381e-06
4.6219905987342e-06
4.36958564271725e-06
4.01324149310628e-06
3.53301702073003e-06
2.91516272246463e-06
2.15605026331303e-06
1.26513074305126e-06
3.73195554363472e-09
1.41565023293301e-11
1.42602461071119e-11
3.77287237529582e-09
1.28125561537819e-06
2.18404541747482e-06
2.95326945629301e-06
3.57948175076693e-06
4.06637418948853e-06
4.42782647031124e-06
4.68397337579523e-06
4.85724978527593e-06
4.96916663591725e-06
5.03821669966204e-06
5.07894193078692e-06
5.10192509943873e-06
5.11435006656681e-06
5.12079269401939e-06
5.12400105319267e-06
5.12553753175554e-06
5.12624602922927e-06
5.12656094451044e-06
5.12669596895088e-06
5.12675180692394e-06
5.12677401149142e-06
5.12678236120625e-06
5.1267849898615e-06
5.12678476846979e-06
5.12678169827151e-06
5.12677289265261e-06
5.12675019432885e-06
5.12669382851889e-06
5.12655831250744e-06
5.12624320337535e-06
5.12553553153683e-06
5.1240025928563e-06
5.12080401314176e-06
5.1143839906499e-06
5.10200551461668e-06
5.07910927385763e-06
5.03853298069493e-06
4.96971708866889e-06
4.85813710059567e-06
4.68530066711766e-06
4.42966768170355e-06
4.06873582946173e-06
3.5822663984307e-06
2.95625679207776e-06
2.18690742383101e-06
1.28360928640815e-06
3.78702146437691e-09
1.43611817120134e-11
1.44204297628264e-11
3.81598279164963e-09
1.29572220676505e-06
2.20818327180535e-06
2.98540487455758e-06
3.61799951543662e-06
4.10979780347461e-06
4.47487615119488e-06
4.73359671918481e-06
4.90862548991586e-06
5.02168624811252e-06
5.0914520901459e-06
5.13260675119511e-06
5.15583709300119e-06
5.16839867921011e-06
5.17491390767293e-06
5.17815941369065e-06
5.17971422398586e-06
5.18043146607836e-06
5.18075042564011e-06
5.18088727162286e-06
5.18094391395049e-06
5.18096646978377e-06
5.18097497163632e-06
5.18097766348583e-06
5.1809774587297e-06
5.18097436562969e-06
5.18096547601961e-06
5.18094256187025e-06
5.1808856705973e-06
5.18074890211355e-06
5.18043087655e-06
5.17971660945134e-06
5.17816925333321e-06
5.17494030638101e-06
5.16845880005823e-06
5.15596087999187e-06
5.13284232046403e-06
5.091870040658e-06
5.0223797868074e-06
4.90970235491691e-06
4.73515945594105e-06
4.47699024479445e-06
4.11245252783962e-06
3.6210727122018e-06
2.98864753191057e-06
2.21123976935995e-06
1.29818812639853e-06
3.83042519570633e-09
1.45221629896653e-11
1.45430518531272e-11
3.84905027980831e-09
1.30683484863629e-06
2.22672929644012e-06
3.01010192645661e-06
3.64760972273317e-06
4.14318876270387e-06
4.51106527767903e-06
4.77177492834894e-06
4.94816038242501e-06
5.0621084815399e-06
5.1324307582535e-06
5.17392004152663e-06
5.19734348344203e-06
5.21001209953512e-06
5.21658437684015e-06
5.21985916785131e-06
5.22142848180453e-06
5.22215267007384e-06
5.22247485703305e-06
5.22261316489693e-06
5.22267045757604e-06
5.22269330037156e-06
5.2227019283902e-06
5.222704674086e-06
5.22270448522561e-06
5.22270137643541e-06
5.2226924241127e-06
5.22266934765418e-06
5.22261206121842e-06
5.22247435036538e-06
5.2221541267418e-06
5.22143487714069e-06
5.21987660111979e-06
5.21662459636195e-06
5.21009629883525e-06
5.1975072943619e-06
5.17421890527403e-06
5.13294368204769e-06
5.06293687630049e-06
4.94941794798187e-06
4.77356544309278e-06
4.51344842557294e-06
4.14613966026133e-06
3.65098400673222e-06
3.01362240145121e-06
2.23000940952303e-06
1.30943976534736e-06
3.86389331391518e-09
1.46460495159511e-11
1.46338561578677e-11
3.87358429753007e-09
1.31509273458083e-06
2.2405172861837e-06
3.02847087249998e-06
3.66964236862109e-06
4.16804485539152e-06
4.53801458823582e-06
4.80021509934741e-06
4.97761965155543e-06
5.0922359340805e-06
5.16297835991008e-06
5.20472106407965e-06
5.22829122473414e-06
5.24104145056433e-06
5.24765739348825e-06
5.25095469198318e-06
5.25253520311595e-06
5.25326478083618e-06
5.2535894863568e-06
5.25372894306906e-06
5.25378675153627e-06
5.25380982479678e-06
5.25381855597829e-06
5.25382134711211e-06
5.25382117335191e-06
5.25381805510116e-06
5.25380905858819e-06
5.25378586630999e-06
5.2537282975339e-06
5.25358991206339e-06
5.25326810924735e-06
5.25254526396364e-06
5.25097907090396e-06
5.24771027535269e-06
5.2411477682321e-06
5.2284919364635e-06
5.2050785659953e-06
5.16357981870312e-06
5.09319103875483e-06
4.97904869594659e-06
4.80222447508678e-06
4.54066031226942e-06
4.17129045259829e-06
3.67332352140275e-06
3.03228297524486e-06
2.24404072288108e-06
1.31785577843551e-06
3.88890969404471e-09
1.47385011369096e-11
1.46975268124861e-11
3.89081812898393e-09
1.32090341085184e-06
2.2502267284115e-06
3.04141538342475e-06
3.68517908166805e-06
4.18558353738502e-06
4.55704108913396e-06
4.82030421970155e-06
4.99843742793296e-06
5.11353315413295e-06
5.18457823992267e-06
5.22650428825861e-06
5.25018109715383e-06
5.2629909471071e-06
5.26963896750516e-06
5.27295289811855e-06
5.27454173651433e-06
5.27527535068784e-06
5.27560195777829e-06
5.27574229038788e-06
5.27580049704302e-06
5.2758237512346e-06
5.27583256530276e-06
5.27583539438774e-06
5.2758352349377e-06
5.27583211265039e-06
5.27582308822406e-06
5.27579982099515e-06
5.27574206888796e-06
5.27560324319997e-06
5.27528040162636e-06
5.27455516885939e-06
5.2729836690976e-06
5.26970351944987e-06
5.26311769689735e-06
5.2504160052794e-06
5.22691635808689e-06
5.18526252795867e-06
5.11460759779966e-06
5.00002931466264e-06
4.82252355221684e-06
4.55994184161942e-06
4.18911967280154e-06
3.68916821687446e-06
3.04552638584994e-06
2.25400572821851e-06
1.32383744883498e-06
3.90668606817031e-09
1.4804129158251e-11
1.4737620765158e-11
3.90168972649866e-09
1.32457668167213e-06
2.25637340150965e-06
3.04962072386454e-06
3.69503953732652e-06
4.19672704799679e-06
4.56914222581865e-06
4.83309266394598e-06
5.01169980718416e-06
5.12710934296114e-06
5.19835392512517e-06
5.24040175092867e-06
5.26414998702738e-06
5.27700012847943e-06
5.28367003301912e-06
5.28699542605284e-06
5.28859006586673e-06
5.2893265254758e-06
5.28965449094078e-06
5.28979545912915e-06
5.28985396043032e-06
5.28987735192921e-06
5.28988623100964e-06
5.28988909140721e-06
5.28988894553818e-06
5.28988582402815e-06
5.28987678626852e-06
5.2898534808268e-06
5.28979563439215e-06
5.28965657883424e-06
5.28933318225404e-06
5.28860664043017e-06
5.28703215733e-06
5.28374547945234e-06
5.27714598706619e-06
5.26441695656294e-06
5.24086514844692e-06
5.19911644685809e-06
5.12829709023804e-06
5.01344727516597e-06
4.8355141255227e-06
4.572290753365e-06
4.20054853048293e-06
3.69933499602263e-06
3.05403335818386e-06
2.26041459100005e-06
1.32768964238671e-06
3.91814292657527e-09
1.48464299843175e-11
1.4756531416771e-11
3.90683096976871e-09
1.3263211265803e-06
2.25930401702599e-06
3.05354699257129e-06
3.69977361797819e-06
4.20209378138654e-06
4.57498668399802e-06
4.83928458503364e-06
5.01813495234863e-06
5.13370825871359e-06
5.20505890150867e-06
5.24717275220893e-06
5.27096053444877e-06
5.28383347961028e-06
5.29051605610346e-06
5.29384824536333e-06
5.29544641084506e-06
5.29618464567724e-06
5.29651348349358e-06
5.29665487375681e-06
5.2967135788104e-06
5.29673707005985e-06
5.29674599918525e-06
5.29674888549888e-06
5.29674875264438e-06
5.2967456359546e-06
5.2967365975308e-06
5.29671328678137e-06
5.29665542721383e-06
5.29651633535805e-06
5.29619283020129e-06
5.29546597426893e-06
5.2938906475192e-06
5.29060187497451e-06
5.28399755101979e-06
5.27125810859841e-06
5.24768524378209e-06
5.20589644643594e-06
5.13500502445283e-06
5.02003270517899e-06
4.84190222773124e-06
4.57837707204123e-06
4.20619567635538e-06
3.7043724487611e-06
3.05826100942912e-06
2.26360986746317e-06
1.32961705126101e-06
3.92389789247618e-09
1.48677459221118e-11
1.47554702822325e-11
3.90656187296453e-09
1.32624225098664e-06
2.25919352062252e-06
3.05342587839246e-06
3.69965778277914e-06
4.20199430684194e-06
4.57491009235117e-06
4.83923334800955e-06
5.01810831277347e-06
5.13370326937066e-06
5.20507149636622e-06
5.24719864876748e-06
5.27099587189724e-06
5.2838751333468e-06
5.29056171287262e-06
5.29389631709939e-06
5.29549587716869e-06
5.2962348883779e-06
5.29656414691893e-06
5.2967057620881e-06
5.29676458772525e-06
5.29678814483109e-06
5.29679711074025e-06
5.29680001827778e-06
5.29679989798364e-06
5.29679678981864e-06
5.29678776261548e-06
5.29676447803312e-06
5.29670668379462e-06
5.29656774337938e-06
5.2962445626114e-06
5.29551835569948e-06
5.29394425094581e-06
5.29065765107475e-06
5.28405697706184e-06
5.271323320527e-06
5.24775908640755e-06
5.20598235376578e-06
5.13510664306598e-06
5.02015321471136e-06
4.84204339497633e-06
4.57853817248246e-06
4.2063724791186e-06
3.7045564383241e-06
3.05843889610335e-06
2.26376326666243e-06
1.32972203934406e-06
3.92425906052739e-09
1.48692433826414e-11
1.4734465415205e-11
3.90088981431918e-09
1.32434213389019e-06
2.25604436437159e-06
3.04925954188484e-06
3.69469363306874e-06
4.19642967898974e-06
4.56891313734594e-06
4.83293949739951e-06
5.01162048401397e-06
5.12709514425943e-06
5.19839269898599e-06
5.24048065591074e-06
5.26425739875592e-06
5.27712662682191e-06
5.28380863492861e-06
5.28714133291281e-06
5.28874019217062e-06
5.28947900083833e-06
5.28980823896867e-06
5.28994988707516e-06
5.29000875253788e-06
5.29003234262816e-06
5.29004133243823e-06
5.29004425662451e-06
5.29004414849633e-06
5.29004105271647e-06
5.2900320490716e-06
5.29000882325047e-06
5.28995117531174e-06
5.28981257934161e-06
5.28949016640158e-06
5.28876559139388e-06
5.28719480954154e-06
5.28391470888848e-06
5.27732625920388e-06
5.26461472105489e-06
5.24108898272635e-06
5.19937668242971e-06
5.12860465999968e-06
5.01381164775985e-06
4.8359404456117e-06
4.57277660341284e-06
4.20108091655444e-06
3.69988808614041e-06
3.05456712573333e-06
2.26087397976783e-06
1.32800341146861e-06
3.91922067065853e-09
1.48508948111321e-11
1.46923708631042e-11
3.88951173350869e-09
1.32051986002951e-06
2.24968690722666e-06
3.04082091302558e-06
3.68460810189504e-06
4.18509155061277e-06
4.55666161551579e-06
4.82005075896473e-06
4.9983071680171e-06
5.11351198209636e-06
5.18464607853165e-06
5.22663972792181e-06
5.25036465053019e-06
5.26320676512306e-06
5.26987527052561e-06
5.27320157561286e-06
5.27479756582524e-06
5.27553516252714e-06
5.27586392687978e-06
5.27600541117532e-06
5.27606423380624e-06
5.27608782319482e-06
5.27609682364019e-06
5.27609975976121e-06
5.27609966351424e-06
5.27609658447658e-06
5.27608761800403e-06
5.27606448650912e-06
5.27600707255928e-06
5.27586902895088e-06
5.27554785965016e-06
5.27482596785881e-06
5.27326075009624e-06
5.26999175341387e-06
5.26342463517686e-06
5.25075253168749e-06
5.22729690454519e-06
5.18570440244996e-06
5.11512898757803e-06
5.00064575437779e-06
4.82324308679108e-06
4.56075962385479e-06
4.19001304893872e-06
3.6900932098399e-06
3.04641581873093e-06
2.25476828142236e-06
1.32435625741089e-06
3.9084632211203e-09
1.48114853753378e-11
1.46268717288334e-11
3.87181590504287e-09
1.31457232307806e-06
2.23978082685354e-06