/*--------------------------------*- C++ -*----------------------------------*\
  =========                 |
  \\      /  F ield         | OpenFOAM: The Open Source CFD Toolbox
   \\    /   O peration     | Website:  https://openfoam.org
    \\  /    A nd           | Version:  10
     \\/     M anipulation  |
\*---------------------------------------------------------------------------*/
FoamFile
{
    format      ascii;
    class       volScalarField;
    location    "8.6";
    object      omega;
}
// * * * * * * * * * * * * * * * * * * * * * * * * * * * * * * * * * * * * * //

dimensions      [0 0 -1 0 0 0 0];

internalField   nonuniform List<scalar> 
2500
(
127848.872209501
127857.656081324
127855.246072413
127853.246524851
127851.885132076
127851.022469355
127850.494708587
127850.179474744
127849.99622595
127849.893504934
127849.837268987
127849.807785242
127849.792890056
127849.785375307
127849.781649241
127849.779680578
127849.778789736
127849.778213695
127849.777763686
127849.777490756
127849.777281208
127849.777113581
127849.776981764
127849.776904662
127849.776825563
127849.776766587
127849.77675234
127849.776759941
127849.776796755
127849.776868117
127849.77698528
127849.777208522
127849.777512036
127849.778028385
127849.778985372
127849.780872996
127849.784695021
127849.792338581
127849.807921521
127849.837980339
127849.894621618
127849.998002451
127850.180750255
127850.494136765
127851.019572982
127851.878635335
127853.241030068
127855.251807665
127857.671618802
127848.844953266
31879.6144947579
14167.9122312218
14166.7284461804
14165.7813885496
14165.1309517817
14164.7118750871
14164.4502969573
14164.2908936584
14164.1963026513
14164.1419097655
14164.1116691283
14164.0954639057
14164.0870964824
14164.0829204927
14164.0809043457
14164.0799559602
14164.0795267093
14164.0793288107
14164.0792321555
14164.0791843761
14164.0791573188
14164.0791394888
14164.0791268197
14164.0791185174
14164.0791114507
14164.0791061131
14164.0791038144
14164.0791037059
14164.0791064823
14164.0791146676
14164.0791340774
14164.0791786352
14164.0792746776
14164.0794859589
14164.0799491109
14164.0809514204
14164.083068332
14164.0874052557
14164.0960197086
14164.1125174448
14164.1430412502
14164.1976076981
14164.2920199298
14164.4506828102
14164.7109840768
14165.1289319166
14165.7806555851
14166.7339743335
14167.9243581308
31879.5716286516
31799.9099574831
3532.93060243116
50.8678459147339
50.8629642195065
50.8596512547043
50.8575285568915
50.856207800999
50.8554042322923
50.8549274686546
50.8546529603321
50.8545000898917
50.8544179568155
50.8543754207695
50.8543541671271
50.8543439136006
50.8543391256535
50.8543369671357
50.8543360077946
50.8543355772293
50.8543353818671
50.8543352850735
50.8543352290281
50.8543351922632
50.8543351681312
50.8543351491694
50.8543351347642
50.8543351271307
50.85433512497
50.8543351317345
50.8543351602053
50.854335238333
50.854335432412
50.8543358881042
50.8543369280572
50.8543392488318
50.8543443132507
50.8543550446459
50.8543770491049
50.8544206687054
50.8545041120744
50.8546582692576
50.8549335240532
50.8554095459064
50.8562099950205
50.8575256057668
50.8596455272696
50.86297055353
50.8678943599033
3532.93779776009
31799.9014487462
31724.7938748377
3524.45839015262
50.7450574371986
50.7397920882794
50.7363067880144
50.7341200196325
50.7327852288192
50.7319869359653
50.731520305849
50.731255030551
50.7311089320238
50.7310311883624
50.7309912663493
50.7309714808545
50.7309620130005
50.7309576337664
50.7309556777188
50.7309548245522
50.7309544550923
50.7309542946649
50.7309542202246
50.7309541798019
50.7309541541548
50.7309541373267
50.7309541246339
50.7309541147448
50.73095410848
50.7309541052949
50.7309541068015
50.7309541251662
50.7309541858785
50.7309543462443
50.7309547413025
50.7309556626844
50.730957747002
50.7309623482264
50.730972198951
50.7309925949088
50.7310334067569
50.7311122719906
50.7312595488704
50.7315256495284
50.7319920149364
50.7327882797729
50.7341200009947
50.7363081173624
50.7398140485105
50.7451393188651
3524.47036570803
31724.8710817423
31660.3941615015
3517.26823132839
50.6418217400857
50.6369747139987
50.6338513515999
50.6319362887064
50.6307914355041
50.6301191132766
50.6297321097822
50.6295148689588
50.6293964680915
50.6293340025355
50.6293021547025
50.6292864695771
50.6292790076353
50.6292755780884
50.6292740568465
50.6292734018127
50.629273125143
50.629273009448
50.6292729588914
50.6292729330936
50.6292729171675
50.6292729068083
50.6292728992448
50.6292728931021
50.6292728884901
50.6292728851014
50.6292728836119
50.6292728929286
50.6292729328455
50.6292730477514
50.6292733434874
50.6292740451649
50.6292756480975
50.6292792180408
50.6292869228794
50.6293030013787
50.6293354335087
50.6293986635536
50.6295179175665
50.6297358499528
50.6301229224944
50.630794336504
50.6319383311946
50.6338583493577
50.6370079729064
50.6419258098278
3517.28378192364
31660.5595644683
31609.5900909686
3511.66748416376
50.5622014494565
50.5582334020485
50.5557448430372
50.5542544752901
50.5533821428383
50.5528791182552
50.5525938743087
50.5524356537328
50.552350224596
50.5523054819379
50.5522827995258
50.5522716797153
50.5522664109543
50.5522639998094
50.5522629359672
50.5522624825313
50.5522622949653
50.552262219391
50.5522621885144
50.5522621739788
50.552262165291
50.5522621597297
50.5522621558255
50.5522621524186
50.5522621493198
50.5522621463373
50.5522621440081
50.5522621470924
50.5522621695853
50.5522622435749
50.5522624431351
50.5522629242338
50.5522640318118
50.5522665158395
50.5522719107096
50.552283237969
50.5523062355561
50.5523514055192
50.5524373377014
50.5525960110046
50.5528814155119
50.553384202222
50.5542570278272
50.5557540040516
50.5582698335291
50.5623100207497
3511.68428814181
31609.8122130857
31572.4057990596
3507.62731618186
50.5053599340704
50.5024073058385
50.5006042317186
50.4995493376407
50.4989447085276
50.498602252554
50.4984108489899
50.4983058574533
50.4982496405997
50.4982203775077
50.4982056079965
50.4981983909147
50.4981949803809
50.4981934241046
50.4981927403068
50.4981924514284
50.498192334233
50.4981922888287
50.4981922717526
50.4981922646887
50.4981922607015
50.4981922582136
50.4981922566019
50.4981922549687
50.4981922530512
50.4981922507316
50.4981922485485
50.4981922485524
50.4981922594256
50.4981923026671
50.4981924264873
50.4981927300017
50.4981934334793
50.4981950201847
50.4981984827993
50.4982057870008
50.4982206927911
50.498250147857
50.4983066018426
50.4984118198136
50.4986033260883
50.4989457799171
50.4995513241175
50.500612569066
50.5024398843866
50.5054573720843
3507.64303441685
31572.641919959
31546.9907674483
3504.90949142354
50.4675305200974
50.4655056352498
50.4643005894139
50.4636115440644
50.4632246680588
50.4630093634321
50.4628906962419
50.4628262810446
50.4627920480894
50.4627743199157
50.4627654023888
50.4627610543128
50.4627590028143
50.4627580684128
50.4627576592399
50.4627574877924
50.4627574195743
50.4627573942492
50.4627573857016
50.462757382955
50.462757381607
50.4627573808073
50.4627573804336
50.4627573798193
50.4627573787237
50.4627573770838
50.4627573752284
50.4627573742092
50.4627573786774
50.4627574017698
50.4627574732486
50.4627576516939
50.4627580680037
50.4627590113916
50.4627610774429
50.462765450458
50.4627744092594
50.4627921989798
50.4628265112025
50.4628909979594
50.4630096743903
50.4632249737806
50.4636126188802
50.4643066461831
50.4655306750745
50.4676079039149
3504.92255050025
31547.2052951362
31530.6809687861
3503.19467920668
50.4439223197662
50.4426297359736
50.4418793239297
50.4414596997958
50.4412288051657
50.441102502489
50.4410338275028
50.4409969170205
50.4409774339667
50.4409673878814
50.4409623472148
50.4409598926354
50.4409587353846
50.4409582088576
50.4409579789461
50.4409578833721
50.4409578460864
50.4409578328252
50.4409578290961
50.4409578285647
50.4409578283778
50.4409578283184
50.4409578284693
50.4409578283636
50.4409578277827
50.4409578267207
50.4409578253308
50.4409578242325
50.440957825592
50.4409578369513
50.4409578756563
50.4409579742817
50.440958205967
50.4409587330066
50.4409598900851
50.4409623446848
50.4409673872243
50.4409774381862
50.4409969272551
50.4410338296375
50.4411024483595
50.441228677307
50.4414600106384
50.441882976538
50.4426467334066
50.4439777372295
3503.20449105606
31530.8538708517
31520.8074810118
3502.17482568252
50.4300372102906
50.4292632844185
50.4288245006283
50.4285843800558
50.4284548384167
50.4283851663579
50.4283477821788
50.4283278792419
50.4283174387192
50.4283120749036
50.4283093884013
50.4283080809588
50.4283074645942
50.4283071843018
50.4283070622158
50.4283070118675
50.4283069926209
50.4283069862378
50.4283069849342
50.4283069851294
50.428306985383
50.4283069856186
50.4283069858372
50.4283069858459
50.4283069855692
50.428306984932
50.4283069839925
50.4283069831454
50.4283069833151
50.4283069884792
50.4283070081987
50.4283070597811
50.4283071818801
50.4283074605099
50.428308073129
50.4283093743105
50.4283120519859
50.4283174039936
50.4283278270789
50.4283476948077
50.4283849985962
50.4284545501848
50.4285842440704
50.4288263182061
50.4292736350917
50.430073479362
3502.18158152146
31520.9338443627
31515.1456853414
3501.60060991191
50.422306874676
50.4218695529414
50.4216271456305
50.4214972302001
50.4214284810823
50.4213921163585
50.4213728567763
50.4213626968996
50.4213573980139
50.4213546841568
50.4213533265242
50.4213526658005
50.4213523541761
50.4213522124752
50.4213521508973
50.4213521257123
50.4213521162898
50.4213521134867
50.421352113209
50.4213521135111
50.4213521138214
50.4213521140856
50.4213521142727
50.4213521143217
50.4213521141981
50.4213521138244
50.4213521132385
50.4213521126421
50.4213521124625
50.4213521146692
50.4213521241922
50.4213521498622
50.4213522111335
50.421352351313
50.4213526597084
50.4213533149061
50.4213546642586
50.4213573661858
50.4213626465929
50.421372771246
50.4213919556385
50.4214281932487
50.4214969253177
50.4216278378838
50.4218752554201
50.4223287858519
3501.60491650143
31515.2306615318
31512.0589296566
3501.29335075363
50.4182171332066
50.4179827112609
50.4178555308828
50.4177887276986
50.4177540356659
50.4177359845884
50.4177265468825
50.4177216127569
50.4177190533159
50.4177177459595
50.4177170923944
50.4177167741635
50.4177166239397
50.4177165556136
50.4177165259876
50.4177165139767
50.4177165096288
50.4177165085146
50.4177165085341
50.4177165087679
50.4177165090107
50.4177165092129
50.4177165093441
50.4177165093938
50.4177165093401
50.41771650913
50.4177165087895
50.4177165084122
50.4177165082061
50.4177165090858
50.417716513467
50.4177165256811
50.4177165550931
50.417716622521
50.4177167708335
50.4177170857383
50.417717734181
50.41771903381
50.4177215804312
50.4177264887029
50.4177358691759
50.4177538135601
50.4177884216342
50.4178556606657
50.4179855606724
50.4182294466294
3501.29591315298
31512.1120691307
31510.4536644133
3501.13656187422
50.4161539849636
50.4160342571285
50.4159706107186
50.4159378205826
50.4159211018483
50.4159125428664
50.4159081249829
50.4159058356258
50.4159046542254
50.415904052148
50.415903751242
50.4159036045925
50.4159035352795
50.4159035037385
50.4159034900929
50.4159034846127
50.4159034827117
50.4159034823033
50.4159034823763
50.4159034825369
50.4159034826958
50.415903482826
50.4159034829074
50.4159034829435
50.4159034829203
50.4159034828079
50.415903482622
50.4159034824039
50.4159034822529
50.4159034825778
50.4159034845115
50.4159034900916
50.4159035036505
50.4159035347838
50.4159036032015
50.4159037482645
50.4159040466769
50.4159046448009
50.4159058189903
50.4159080922891
50.4159124721208
50.4159209541064
50.4159375828785
50.4159705250832
50.4160355425155
50.4161604606632
3501.13799442024
31510.4848168116
31509.6550195294
3501.0600357584
50.415158591056
50.4151001069141
50.4150696105316
50.415054188406
50.4150464644718
50.4150425732683
50.4150405902875
50.4150395717006
50.415039048691
50.4150387826784
50.4150386497182
50.4150385848368
50.4150385541239
50.4150385401388
50.4150385341025
50.4150385317029
50.4150385309122
50.4150385307777
50.4150385308377
50.4150385309353
50.4150385310282
50.4150385311034
50.4150385311496
50.4150385311715
50.4150385311615
50.4150385311045
50.4150385310085
50.4150385308915
50.4150385308015
50.4150385309116
50.4150385317319
50.4150385341889
50.4150385402125
50.4150385540594
50.415038584442
50.4150386487227
50.4150387807183
50.4150390450831
50.4150395646158
50.4150405743202
50.4150425344324
50.4150463759528
50.415054029134
50.4150694818205
50.4151006216521
50.4151617930711
3501.06079246946
31509.6722508402
31509.2739557992
3501.02422016576
50.4146981806807
50.4146707671261
50.4146567300616
50.4146497567622
50.414646324482
50.4146446225579
50.4146437662669
50.4146433302676
50.4146431074854
50.4146429943709
50.4146429378105
50.4146429101671
50.4146428970584
50.4146428910847
50.4146428885127
50.4146428875013
50.4146428871855
50.4146428871482
50.4146428871876
50.4146428872417
50.4146428872918
50.4146428873318
50.4146428873563
50.4146428873682
50.414642887364
50.4146428873363
50.4146428872893
50.4146428872303
50.4146428871817
50.4146428872153
50.4146428875526
50.4146428885984
50.4146428911849
50.4146428971354
50.4146429101643
50.4146429376526
50.4146429939544
50.4146431065433
50.4146433278711
50.4146437593816
50.414644602994
50.4146462755784
50.4146496605676
50.4146566236451
50.4146709418359
50.4146996746206
3501.02459961727
31509.2829963991
31509.0992645225
3501.00811932723
50.4144936977186
50.4144813313552
50.41447510666
50.4144720665306
50.4144705951816
50.4144698769211
50.4144695201307
50.4144693400555
50.4144692484824
50.4144692020588
50.4144691788304
50.4144691674571
50.4144691620533
50.4144691595888
50.4144691585305
50.4144691581198
50.4144691579994
50.4144691579918
50.4144691580135
50.4144691580414
50.4144691580667
50.4144691580867
50.4144691580989
50.414469158105
50.4144691581032
50.4144691580905
50.4144691580685
50.4144691580405
50.4144691580167
50.4144691580259
50.4144691581601
50.4144691585914
50.4144691596678
50.414469162145
50.4144691675552
50.4144691789312
50.4144692021571
50.4144692484971
50.4144693395527
50.4144695175231
50.4144698677401
50.4144705698985
50.4144720129297
50.4144750356809
50.4144813743229
50.4144943570545
3501.00830068817
31509.103783721
31509.0222753948
3501.0011657523
50.4144065167109
50.4144011341734
50.4143984680051
50.4143971867779
50.4143965767162
50.41439628345
50.4143961396189
50.4143960676654
50.4143960312482
50.4143960128119
50.4143960035793
50.4143959990497
50.4143959968932
50.414395995909
50.4143959954877
50.4143959953266
50.4143959952823
50.4143959952823
50.4143959952937
50.4143959953073
50.4143959953194
50.414395995329
50.4143959953348
50.4143959953377
50.4143959953372
50.4143959953316
50.4143959953218
50.4143959953091
50.414395995298
50.4143959953001
50.4143959953523
50.4143959955251
50.4143959959601
50.4143959969613
50.4143959991417
50.4143960037092
50.4143960129992
50.4143960314803
50.4143960677537
50.4143961387817
50.4143962793937
50.4143965643571
50.4143971588221
50.4143984262494
50.4144011348713
50.4144067923688
3501.00124866438
31509.0244359489
31508.9897304068
3500.99829104108
50.414371003753
50.4143687380956
50.4143676325618
50.4143671094027
50.4143668641772
50.414366748057
50.4143666918262
50.4143666639452
50.4143666499011
50.4143666428007
50.4143666392414
50.4143666374918
50.4143666366573
50.4143666362762
50.4143666361138
50.4143666360528
50.4143666360372
50.4143666360386
50.4143666360442
50.4143666360506
50.4143666360562
50.4143666360606
50.4143666360633
50.4143666360648
50.4143666360646
50.4143666360624
50.4143666360583
50.4143666360528
50.4143666360479
50.4143666360482
50.414366636068
50.4143666361353
50.4143666363063
50.4143666366997
50.4143666375539
50.4143666393364
50.414366642947
50.414366650105
50.4143666641297
50.4143666916256
50.4143667463562
50.414366858421
50.4143670956199
50.4143676100834
50.4143687298549
50.4143711129516
3500.99832740863
31508.9907215685
31508.9766635983
3500.99716905565
50.4143574204134
50.4143564962508
50.414356051571
50.4143558441782
50.4143557484187
50.4143557037378
50.4143556823739
50.4143556718762
50.414355666614
50.4143556639575
50.4143556626248
50.4143556619686
50.4143556616553
50.4143556615125
50.414355661452
50.4143556614298
50.4143556614247
50.4143556614259
50.4143556614287
50.4143556614316
50.4143556614342
50.4143556614362
50.4143556614375
50.4143556614382
50.4143556614383
50.4143556614375
50.4143556614358
50.4143556614337
50.4143556614316
50.4143556614315
50.4143556614388
50.4143556614643
50.4143556615295
50.4143556616797
50.4143556620053
50.4143556626821
50.4143556640476
50.4143556667446
50.4143556720175
50.4143556823626
50.4143557030569
50.4143557458496
50.4143558377088
50.4143560402795
50.4143564890412
50.4143574613442
3500.99718440222
31508.9771011768
31508.9718409418
3500.99677462583
50.4143528272924
50.4143524613288
50.4143522875133
50.4143522075528
50.414352171162
50.4143521544254
50.414352146524
50.4143521426776
50.4143521407597
50.4143521397935
50.4143521393089
50.4143521390703
50.4143521389565
50.4143521389049
50.4143521388835
50.4143521388759
50.4143521388746
50.4143521388755
50.4143521388769
50.4143521388783
50.4143521388795
50.4143521388805
50.4143521388812
50.4143521388816
50.4143521388817
50.4143521388816
50.414352138881
50.4143521388802
50.4143521388794
50.4143521388792
50.4143521388818
50.414352138891
50.414352138915
50.4143521389705
50.4143521390909
50.4143521393407
50.4143521398432
50.4143521408324
50.4143521427624
50.4143521465508
50.4143521541645
50.4143521700588
50.4143522046467
50.4143522821576
50.4143524568145
50.4143528417557
3500.99678087135
31508.972027331
31508.9703953724
3500.99667257003
50.4143518017388
50.4143516608229
50.4143515946973
50.4143515646687
50.4143515511908
50.4143515450799
50.4143515422323
50.4143515408602
50.4143515401806
50.4143515398397
50.4143515396692
50.4143515395856
50.4143515395462
50.4143515395287
50.4143515395217
50.4143515395197
50.4143515395196
50.4143515395203
50.4143515395211
50.4143515395219
50.4143515395226
50.4143515395231
50.4143515395235
50.4143515395238
50.414351539524
50.414351539524
50.4143515395239
50.4143515395237
50.4143515395233
50.4143515395232
50.4143515395239
50.414351539527
50.4143515395353
50.4143515395548
50.4143515395977
50.4143515396867
50.414351539866
50.4143515402187
50.414351540906
50.4143515422568
50.414351544985
50.4143515507345
50.414351563415
50.4143515922802
50.4143516583982
50.4143518065213
3500.99667502659
31508.9704721488
31508.9702912759
3500.99668448219
50.4143521492158
50.4143520963816
50.4143520718657
50.4143520608687
50.4143520559993
50.4143520538234
50.4143520528239
50.4143520523484
50.4143520521154
50.4143520519997
50.4143520519425
50.4143520519151
50.4143520519026
50.4143520518975
50.4143520518959
50.4143520518957
50.4143520518961
50.4143520518968
50.4143520518973
50.4143520518979
50.4143520518983
50.4143520518987
50.414352051899
50.4143520518993
50.4143520518995
50.4143520518996
50.4143520518996
50.4143520518996
50.4143520518994
50.4143520518993
50.4143520518993
50.4143520519001
50.4143520519025
50.4143520519088
50.4143520519229
50.414352051953
50.4143520520143
50.4143520521354
50.4143520523726
50.4143520528405
50.414352053792
50.4143520558182
50.4143520603488
50.414352070823
50.4143520952003
50.4143521506751
3500.99668541807
31508.9703219251
31508.9707048244
3500.99673956318
50.4143530100986
50.4143529907895
50.4143529819243
50.4143529779948
50.4143529762788
50.4143529755243
50.4143529751841
50.4143529750254
50.4143529749494
50.4143529749127
50.4143529748954
50.4143529748878
50.4143529748848
50.4143529748841
50.4143529748843
50.4143529748849
50.4143529748855
50.4143529748861
50.4143529748866
50.414352974887
50.4143529748874
50.4143529748877
50.414352974888
50.4143529748882
50.4143529748884
50.4143529748886
50.4143529748886
50.4143529748887
50.4143529748886
50.4143529748884
50.4143529748882
50.4143529748882
50.4143529748885
50.4143529748899
50.4143529748937
50.4143529749027
50.4143529749218
50.414352974961
50.414352975039
50.4143529751951
50.4143529755166
50.4143529762111
50.4143529777884
50.4143529814937
50.4143529902551
50.4143530104988
3500.99673990922
31508.9707167032
31508.9713127261
3500.99681055909
50.4143540577977
50.4143540509161
50.4143540477895
50.4143540464206
50.4143540458322
50.4143540455791
50.4143540454683
50.4143540454188
50.4143540453965
50.4143540453869
50.4143540453832
50.4143540453822
50.4143540453826
50.4143540453833
50.4143540453842
50.414354045385
50.4143540453857
50.4143540453863
50.4143540453867
50.4143540453871
50.4143540453875
50.4143540453878
50.414354045388
50.4143540453883
50.4143540453885
50.4143540453887
50.4143540453887
50.4143540453888
50.4143540453887
50.4143540453886
50.4143540453883
50.4143540453879
50.4143540453875
50.4143540453872
50.4143540453874
50.4143540453891
50.4143540453937
50.4143540454044
50.4143540454276
50.4143540454763
50.41435404558
50.4143540458099
50.4143540463435
50.4143540476204
50.41435405069
50.4143540578916
3500.99681068364
31508.9713172051
31508.9719917329
3500.9968872741
50.4143551717464
50.4143551693575
50.4143551682845
50.4143551678216
50.414355167627
50.4143551675464
50.4143551675135
50.4143551675005
50.4143551674961
50.4143551674953
50.4143551674961
50.4143551674973
50.4143551674986
50.4143551674998
50.4143551675009
50.4143551675018
50.4143551675025
50.4143551675031
50.4143551675036
50.414355167504
50.4143551675043
50.4143551675046
50.4143551675049
50.4143551675051
50.4143551675053
50.4143551675054
50.4143551675056
50.4143551675056
50.4143551675055
50.4143551675054
50.4143551675051
50.4143551675046
50.414355167504
50.4143551675031
50.4143551675022
50.4143551675014
50.4143551675012
50.4143551675025
50.4143551675075
50.4143551675202
50.4143551675506
50.4143551676225
50.4143551677962
50.4143551682229
50.414355169269
50.4143551717641
3500.99688731797
31508.9719933806
31508.9726961228
3500.9969659951
50.4143563086226
50.4143563078193
50.4143563074642
50.4143563073144
50.414356307254
50.4143563072312
50.4143563072238
50.4143563072225
50.4143563072236
50.4143563072255
50.4143563072275
50.4143563072294
50.414356307231
50.4143563072323
50.4143563072334
50.4143563072343
50.414356307235
50.4143563072355
50.414356307236
50.4143563072364
50.4143563072368
50.4143563072371
50.4143563072374
50.4143563072376
50.4143563072378
50.4143563072379
50.4143563072381
50.4143563072381
50.4143563072381
50.4143563072379
50.4143563072376
50.4143563072371
50.4143563072364
50.4143563072354
50.4143563072342
50.4143563072327
50.4143563072311
50.4143563072295
50.4143563072287
50.41435630723
50.4143563072366
50.4143563072563
50.4143563073091
50.4143563074454
50.4143563077892
50.4143563086268
3500.99696601042
31508.972696714
31508.9734093652
3500.99704540372
50.414357453252
50.4143574529954
50.4143574528854
50.414357452841
50.414357452825
50.4143574528207
50.4143574528212
50.4143574528233
50.4143574528259
50.4143574528284
50.4143574528306
50.4143574528325
50.4143574528341
50.4143574528354
50.4143574528365
50.4143574528373
50.414357452838
50.4143574528386
50.4143574528391
50.4143574528395
50.4143574528398
50.4143574528401
50.4143574528404
50.4143574528406
50.4143574528408
50.414357452841
50.4143574528411
50.4143574528412
50.4143574528411
50.414357452841
50.4143574528407
50.4143574528403
50.4143574528396
50.4143574528386
50.4143574528374
50.4143574528358
50.4143574528339
50.4143574528317
50.4143574528293
50.4143574528273
50.4143574528266
50.4143574528299
50.4143574528434
50.4143574528831
50.414357452989
50.4143574532566
3500.99704540918
31508.9734095752
31508.9741256273
3500.99712504296
50.4143586004461
50.4143586003737
50.4143586003452
50.4143586003352
50.414358600333
50.4143586003343
50.4143586003367
50.4143586003395
50.4143586003422
50.4143586003447
50.4143586003468
50.4143586003486
50.41435860035
50.4143586003512
50.4143586003523
50.414358600353
50.4143586003537
50.4143586003543
50.4143586003547
50.4143586003551
50.4143586003555
50.4143586003558
50.4143586003561
50.4143586003563
50.4143586003565
50.4143586003567
50.4143586003568
50.4143586003568
50.4143586003568
50.4143586003567
50.4143586003565
50.4143586003561
50.4143586003554
50.4143586003546
50.4143586003534
50.414358600352
50.4143586003502
50.414358600348
50.4143586003455
50.4143586003428
50.4143586003404
50.414358600339
50.4143586003404
50.4143586003491
50.4143586003765
50.4143586004528
3500.99712504516
31508.9741257021
31508.9748428978
3500.99720475794
50.4143597484711
50.414359748459
50.4143597484566
50.4143597484571
50.4143597484589
50.4143597484613
50.4143597484639
50.4143597484665
50.4143597484689
50.4143597484711
50.4143597484729
50.4143597484745
50.4143597484759
50.414359748477
50.4143597484779
50.4143597484786
50.4143597484793
50.4143597484798
50.4143597484802
50.4143597484806
50.414359748481
50.4143597484813
50.4143597484815
50.4143597484818
50.414359748482
50.4143597484822
50.4143597484823
50.4143597484824
50.4143597484824
50.4143597484823
50.4143597484821
50.4143597484818
50.4143597484812
50.4143597484805
50.4143597484795
50.4143597484782
50.4143597484766
50.4143597484747
50.4143597484725
50.4143597484701
50.4143597484676
50.4143597484652
50.4143597484634
50.4143597484629
50.4143597484654
50.4143597484791
3500.99720475907
31508.974842927
31508.9755604984
3500.99728449732
50.4143608967598
50.4143608967667
50.4143608967721
50.4143608967753
50.4143608967778
50.41436089678
50.4143608967822
50.4143608967843
50.4143608967863
50.4143608967881
50.4143608967897
50.414360896791
50.4143608967922
50.4143608967932
50.414360896794
50.4143608967947
50.4143608967953
50.4143608967958
50.4143608967962
50.4143608967966
50.4143608967969
50.4143608967972
50.4143608967975
50.4143608967978
50.414360896798
50.4143608967982
50.4143608967983
50.4143608967984
50.4143608967984
50.4143608967984
50.4143608967982
50.414360896798
50.4143608967975
50.4143608967969
50.4143608967961
50.414360896795
50.4143608967937
50.4143608967922
50.4143608967904
50.4143608967885
50.4143608967864
50.4143608967844
50.4143608967822
50.4143608967793
50.4143608967745
50.4143608967686
3500.99728449815
31508.9755605119
31508.976278205
3500.9973642444
50.4143620451307
50.414362045143
50.4143620451503
50.4143620451538
50.4143620451558
50.4143620451574
50.414362045159
50.4143620451606
50.4143620451621
50.4143620451636
50.4143620451648
50.414362045166
50.414362045167
50.4143620451679
50.4143620451686
50.4143620451692
50.4143620451697
50.4143620451702
50.4143620451706
50.414362045171
50.4143620451713
50.4143620451716
50.4143620451719
50.4143620451722
50.4143620451724
50.4143620451726
50.4143620451728
50.4143620451729
50.4143620451729
50.4143620451729
50.4143620451728
50.4143620451726
50.4143620451723
50.4143620451718
50.4143620451712
50.4143620451703
50.4143620451693
50.4143620451681
50.4143620451668
50.4143620451654
50.414362045164
50.4143620451625
50.4143620451608
50.4143620451579
50.4143620451514
50.4143620451399
3500.99736424509
31508.9762782133
31508.976995945
3500.99744399387
50.4143631935267
50.4143631935401
50.4143631935473
50.4143631935502
50.4143631935515
50.4143631935524
50.4143631935534
50.4143631935545
50.4143631935556
50.4143631935567
50.4143631935576
50.4143631935586
50.4143631935594
50.4143631935601
50.4143631935607
50.4143631935613
50.4143631935618
50.4143631935622
50.4143631935626
50.4143631935629
50.4143631935633
50.4143631935635
50.4143631935638
50.4143631935641
50.4143631935643
50.4143631935645
50.4143631935647
50.4143631935649
50.414363193565
50.414363193565
50.414363193565
50.4143631935648
50.4143631935646
50.4143631935643
50.4143631935638
50.4143631935632
50.4143631935625
50.4143631935617
50.4143631935608
50.41436319356
50.4143631935591
50.4143631935584
50.4143631935574
50.4143631935551
50.4143631935488
50.414363193536
3500.99744399449
31508.9769959494
31508.9777136953
3500.99752374407
50.4143643419302
50.4143643419432
50.4143643419498
50.4143643419519
50.4143643419525
50.4143643419527
50.4143643419531
50.4143643419536
50.4143643419543
50.414364341955
50.4143643419557
50.4143643419564
50.414364341957
50.4143643419576
50.4143643419581
50.4143643419586
50.4143643419591
50.4143643419594
50.4143643419598
50.4143643419601
50.4143643419605
50.4143643419607
50.414364341961
50.4143643419613
50.4143643419615
50.4143643419617
50.414364341962
50.4143643419621
50.4143643419622
50.4143643419623
50.4143643419624
50.4143643419623
50.4143643419622
50.414364341962
50.4143643419618
50.4143643419614
50.414364341961
50.4143643419605
50.4143643419601
50.4143643419597
50.4143643419596
50.4143643419595
50.4143643419593
50.4143643419578
50.4143643419521
50.4143643419397
3500.99752374473
31508.9777137004
31508.9784314489
3500.9976034945
50.4143654903359
50.4143654903481
50.4143654903538
50.4143654903551
50.4143654903549
50.4143654903544
50.4143654903542
50.4143654903543
50.4143654903545
50.4143654903548
50.4143654903553
50.4143654903557
50.4143654903562
50.4143654903566
50.4143654903571
50.4143654903575
50.4143654903578
50.4143654903582
50.4143654903585
50.4143654903589
50.4143654903592
50.4143654903594
50.4143654903597
50.41436549036
50.4143654903603
50.4143654903605
50.4143654903607
50.4143654903609
50.4143654903611
50.4143654903612
50.4143654903613
50.4143654903614
50.4143654903613
50.4143654903613
50.4143654903612
50.4143654903611
50.414365490361
50.4143654903609
50.4143654903609
50.414365490361
50.4143654903614
50.4143654903621
50.4143654903626
50.414365490362
50.4143654903571
50.4143654903456
3500.9976034952
31508.978431455
31508.9791492036
3500.99768324499
50.4143666387423
50.4143666387534
50.4143666387582
50.4143666387586
50.4143666387576
50.4143666387565
50.4143666387558
50.4143666387553
50.4143666387552
50.4143666387552
50.4143666387554
50.4143666387556
50.4143666387559
50.4143666387562
50.4143666387565
50.4143666387568
50.4143666387572
50.4143666387575
50.4143666387578
50.4143666387581
50.4143666387584
50.4143666387587
50.4143666387589
50.4143666387592
50.4143666387595
50.4143666387597
50.41436663876
50.4143666387602
50.4143666387604
50.4143666387606
50.4143666387607
50.4143666387609
50.414366638761
50.4143666387611