/*--------------------------------*- C++ -*----------------------------------*\
  =========                 |
  \\      /  F ield         | OpenFOAM: The Open Source CFD Toolbox
   \\    /   O peration     | Website:  https://openfoam.org
    \\  /    A nd           | Version:  10
     \\/     M anipulation  |
\*---------------------------------------------------------------------------*/
FoamFile
{
    format      ascii;
    class       volScalarField;
    location    "8.6";
    object      p;
}
// * * * * * * * * * * * * * * * * * * * * * * * * * * * * * * * * * * * * * //

dimensions      [1 -1 -2 0 0 0 0];

internalField   nonuniform List<scalar> 
2500
(
100102.39874723
100102.398747898
100102.398748756
100102.398749568
100102.39875018
100102.398750621
100102.398750921
100102.398751124
100102.39875126
100102.398751351
100102.398751411
100102.398751451
100102.398751478
100102.398751496
100102.398751509
100102.398751518
100102.398751524
100102.398751529
100102.398751532
100102.398751534
100102.398751536
100102.398751537
100102.398751538
100102.398751539
100102.398751539
100102.398751539
100102.398751538
100102.398751538
100102.398751537
100102.398751536
100102.398751534
100102.398751531
100102.398751528
100102.398751523
100102.398751517
100102.398751507
100102.398751494
100102.398751476
100102.398751448
100102.398751407
100102.398751346
100102.398751255
100102.398751119
100102.398750914
100102.398750613
100102.39875017
100102.398749553
100102.398748733
100102.398747864
100102.398747198
100102.396496667
100102.396497175
100102.39649788
100102.396498583
100102.396499127
100102.39649953
100102.396499809
100102.396500002
100102.396500131
100102.396500218
100102.396500276
100102.396500315
100102.396500342
100102.39650036
100102.396500373
100102.396500382
100102.396500388
100102.396500393
100102.396500396
100102.396500398
100102.3965004
100102.396500401
100102.396500402
100102.396500403
100102.396500403
100102.396500403
100102.396500403
100102.396500402
100102.396500401
100102.3965004
100102.396500398
100102.396500395
100102.396500392
100102.396500387
100102.39650038
100102.396500371
100102.396500358
100102.39650034
100102.396500313
100102.396500273
100102.396500214
100102.396500126
100102.396499996
100102.396499803
100102.396499522
100102.396499116
100102.396498567
100102.396497857
100102.396497142
100102.396496637
100102.394240061
100102.394240444
100102.394240934
100102.394241462
100102.394241881
100102.394242204
100102.394242433
100102.394242594
100102.394242704
100102.39424278
100102.394242832
100102.394242867
100102.394242892
100102.394242909
100102.394242921
100102.39424293
100102.394242936
100102.394242941
100102.394242944
100102.394242947
100102.394242948
100102.39424295
100102.39424295
100102.394242951
100102.394242951
100102.394242951
100102.394242951
100102.39424295
100102.394242949
100102.394242948
100102.394242946
100102.394242944
100102.39424294
100102.394242935
100102.394242929
100102.39424292
100102.394242908
100102.39424289
100102.394242865
100102.394242829
100102.394242777
100102.3942427
100102.394242589
100102.394242427
100102.394242196
100102.394241871
100102.394241446
100102.394240912
100102.394240414
100102.39424003
100102.391977749
100102.391977989
100102.39197826
100102.391978591
100102.391978861
100102.39197908
100102.391979241
100102.391979359
100102.391979442
100102.391979501
100102.391979543
100102.391979573
100102.391979594
100102.39197961
100102.391979621
100102.391979629
100102.391979635
100102.391979639
100102.391979643
100102.391979645
100102.391979647
100102.391979648
100102.391979649
100102.39197965
100102.39197965
100102.39197965
100102.391979649
100102.391979649
100102.391979648
100102.391979647
100102.391979645
100102.391979642
100102.391979639
100102.391979634
100102.391979628
100102.39197962
100102.391979608
100102.391979593
100102.391979571
100102.391979541
100102.391979498
100102.391979438
100102.391979354
100102.391979235
100102.391979073
100102.391978851
100102.391978577
100102.391978241
100102.391977962
100102.391977717
100102.389710371
100102.389710469
100102.389710557
100102.389710707
100102.38971084
100102.38971096
100102.389711054
100102.389711129
100102.389711185
100102.389711227
100102.389711259
100102.389711282
100102.3897113
100102.389711313
100102.389711323
100102.38971133
100102.389711336
100102.38971134
100102.389711343
100102.389711345
100102.389711347
100102.389711348
100102.389711349
100102.38971135
100102.38971135
100102.38971135
100102.38971135
100102.389711349
100102.389711348
100102.389711347
100102.389711345
100102.389711343
100102.389711339
100102.389711335
100102.389711329
100102.389711322
100102.389711312
100102.389711299
100102.389711281
100102.389711257
100102.389711225
100102.389711182
100102.389711125
100102.389711049
100102.389710953
100102.389710831
100102.389710696
100102.389710541
100102.389710448
100102.389710343
100102.387438816
100102.387438797
100102.387438749
100102.387438757
100102.387438778
100102.387438816
100102.387438854
100102.387438891
100102.387438923
100102.38743895
100102.387438972
100102.387438989
100102.387439003
100102.387439014
100102.387439022
100102.387439029
100102.387439034
100102.387439037
100102.38743904
100102.387439042
100102.387439044
100102.387439045
100102.387439046
100102.387439047
100102.387439047
100102.387439047
100102.387439047
100102.387439046
100102.387439045
100102.387439044
100102.387439042
100102.38743904
100102.387439037
100102.387439033
100102.387439028
100102.387439021
100102.387439013
100102.387439002
100102.387438988
100102.38743897
100102.387438948
100102.38743892
100102.387438888
100102.38743885
100102.38743881
100102.387438771
100102.387438748
100102.387438737
100102.387438782
100102.387438795
100102.385164097
100102.385163995
100102.385163865
100102.385163774
100102.385163717
100102.385163695
100102.385163691
100102.385163698
100102.385163711
100102.385163725
100102.385163738
100102.38516375
100102.38516376
100102.385163769
100102.385163775
100102.385163781
100102.385163785
100102.385163789
100102.385163791
100102.385163793
100102.385163795
100102.385163796
100102.385163796
100102.385163797
100102.385163797
100102.385163797
100102.385163797
100102.385163796
100102.385163796
100102.385163795
100102.385163793
100102.385163791
100102.385163788
100102.385163785
100102.38516378
100102.385163775
100102.385163768
100102.385163759
100102.385163749
100102.385163736
100102.385163723
100102.385163708
100102.385163695
100102.385163687
100102.38516369
100102.385163712
100102.385163768
100102.385163858
100102.385163988
100102.385164084
100102.382887152
100102.382887007
100102.382886839
100102.382886693
100102.382886589
100102.382886527
100102.382886494
100102.38288648
100102.382886477
100102.382886481
100102.382886487
100102.382886494
100102.382886501
100102.382886507
100102.382886513
100102.382886517
100102.382886521
100102.382886524
100102.382886526
100102.382886528
100102.382886529
100102.38288653
100102.382886531
100102.382886531
100102.382886531
100102.382886531
100102.382886531
100102.382886531
100102.38288653
100102.382886529
100102.382886528
100102.382886526
100102.382886523
100102.38288652
100102.382886517
100102.382886512
100102.382886507
100102.3828865
100102.382886493
100102.382886486
100102.382886479
100102.382886475
100102.382886478
100102.382886491
100102.382886524
100102.382886585
100102.382886689
100102.382886836
100102.382887006
100102.382887147
100102.380608748
100102.380608594
100102.380608419
100102.38060825
100102.380608124
100102.380608041
100102.380607989
100102.380607961
100102.380607948
100102.380607943
100102.380607944
100102.380607946
100102.38060795
100102.380607955
100102.380607958
100102.380607962
100102.380607965
100102.380607967
100102.380607969
100102.380607971
100102.380607972
100102.380607973
100102.380607973
100102.380607974
100102.380607974
100102.380607974
100102.380607974
100102.380607973
100102.380607973
100102.380607972
100102.380607971
100102.380607969
100102.380607967
100102.380607965
100102.380607962
100102.380607958
100102.380607954
100102.38060795
100102.380607946
100102.380607942
100102.380607942
100102.380607946
100102.380607959
100102.380607987
100102.380608038
100102.380608122
100102.380608249
100102.380608419
100102.380608596
100102.38060875
100102.378329452
100102.378329309
100102.378329147
100102.378328979
100102.378328848
100102.378328755
100102.378328694
100102.378328657
100102.378328636
100102.378328625
100102.378328621
100102.37832862
100102.378328622
100102.378328624
100102.378328626
100102.378328629
100102.378328631
100102.378328632
100102.378328634
100102.378328635
100102.378328636
100102.378328637
100102.378328638
100102.378328638
100102.378328638
100102.378328638
100102.378328638
100102.378328638
100102.378328637
100102.378328636
100102.378328635
100102.378328634
100102.378328632
100102.378328631
100102.378328628
100102.378328626
100102.378328623
100102.378328621
100102.37832862
100102.37832862
100102.378328624
100102.378328634
100102.378328655
100102.378328692
100102.378328753
100102.378328847
100102.378328979
100102.37832915
100102.378329314
100102.378329458
100102.376049646
100102.376049524
100102.376049385
100102.376049229
100102.376049104
100102.37604901
100102.376048945
100102.376048903
100102.376048877
100102.376048862
100102.376048854
100102.37604885
100102.376048849
100102.37604885
100102.376048851
100102.376048852
100102.376048854
100102.376048855
100102.376048856
100102.376048857
100102.376048858
100102.376048858
100102.376048859
100102.376048859
100102.376048859
100102.376048859
100102.376048859
100102.376048859
100102.376048858
100102.376048858
100102.376048857
100102.376048856
100102.376048855
100102.376048853
100102.376048852
100102.376048851
100102.376048849
100102.376048849
100102.37604885
100102.376048853
100102.376048861
100102.376048876
100102.376048902
100102.376048944
100102.376049009
100102.376049104
100102.37604923
100102.376049388
100102.37604953
100102.376049654
100102.373769567
100102.37376947
100102.373769355
100102.373769218
100102.373769104
100102.373769014
100102.373768949
100102.373768905
100102.373768876
100102.373768857
100102.373768846
100102.37376884
100102.373768837
100102.373768836
100102.373768836
100102.373768836
100102.373768837
100102.373768838
100102.373768839
100102.373768839
100102.37376884
100102.37376884
100102.373768841
100102.373768841
100102.373768841
100102.373768841
100102.373768841
100102.373768841
100102.37376884
100102.37376884
100102.373768839
100102.373768839
100102.373768838
100102.373768837
100102.373768836
100102.373768836
100102.373768836
100102.373768837
100102.37376884
100102.373768846
100102.373768857
100102.373768875
100102.373768904
100102.373768949
100102.373769013
100102.373769104
100102.373769219
100102.373769359
100102.373769477
100102.373769575
100102.371489354
100102.37148928
100102.371489187
100102.37148907
100102.371488969
100102.371488886
100102.371488824
100102.371488779
100102.371488748
100102.371488728
100102.371488715
100102.371488707
100102.371488702
100102.3714887
100102.371488698
100102.371488698
100102.371488698
100102.371488698
100102.371488698
100102.371488699
100102.371488699
100102.371488699
100102.3714887
100102.3714887
100102.3714887
100102.3714887
100102.3714887
100102.3714887
100102.371488699
100102.371488699
100102.371488699
100102.371488698
100102.371488698
100102.371488698
100102.371488698
100102.371488698
100102.371488699
100102.371488702
100102.371488706
100102.371488714
100102.371488727
100102.371488748
100102.371488779
100102.371488823
100102.371488886
100102.37148897
100102.371489072
100102.371489191
100102.371489286
100102.371489362
100102.369209081
100102.369209026
100102.369208952
100102.369208854
100102.369208767
100102.369208691
100102.369208633
100102.369208589
100102.369208558
100102.369208536
100102.369208522
100102.369208512
100102.369208506
100102.369208502
100102.3692085
100102.369208499
100102.369208498
100102.369208498
100102.369208498
100102.369208498
100102.369208498
100102.369208498
100102.369208498
100102.369208498
100102.369208499
100102.369208499
100102.369208498
100102.369208498
100102.369208498
100102.369208498
100102.369208498
100102.369208498
100102.369208498
100102.369208498
100102.369208499
100102.3692085
100102.369208502
100102.369208506
100102.369208512
100102.369208521
100102.369208536
100102.369208558
100102.369208589
100102.369208633
100102.369208692
100102.369208768
100102.369208857
100102.369208956
100102.369209032
100102.369209088
100102.366928786
100102.366928746
100102.366928687
100102.366928606
100102.366928531
100102.366928464
100102.36692841
100102.366928368
100102.366928337
100102.366928315
100102.366928299
100102.366928288
100102.366928281
100102.366928276
100102.366928273
100102.366928271
100102.36692827
100102.366928269
100102.366928269
100102.366928269
100102.366928269
100102.366928269
100102.366928269
100102.366928269
100102.366928269
100102.366928269
100102.366928269
100102.366928269
100102.366928269
100102.366928269
100102.366928269
100102.366928269
100102.366928269
100102.36692827
100102.366928271
100102.366928273
100102.366928276
100102.366928281
100102.366928288
100102.366928299
100102.366928314
100102.366928337
100102.366928368
100102.36692841
100102.366928464
100102.366928532
100102.366928609
100102.366928691
100102.366928751
100102.366928792
100102.364648486
100102.364648457
100102.36464841
100102.364648344
100102.364648279
100102.36464822
100102.364648171
100102.364648131
100102.364648101
100102.364648079
100102.364648062
100102.364648051
100102.364648043
100102.364648037
100102.364648033
100102.364648031
100102.364648029
100102.364648028
100102.364648027
100102.364648027
100102.364648027
100102.364648027
100102.364648026
100102.364648026
100102.364648026
100102.364648026
100102.364648026
100102.364648026
100102.364648027
100102.364648027
100102.364648027
100102.364648027
100102.364648028
100102.364648029
100102.364648031
100102.364648033
100102.364648037
100102.364648043
100102.364648051
100102.364648062
100102.364648078
100102.364648101
100102.364648131
100102.364648171
100102.36464822
100102.364648281
100102.364648346
100102.364648413
100102.364648461
100102.364648491
100102.362368188
100102.362368167
100102.36236813
100102.362368075
100102.36236802
100102.362367968
100102.362367923
100102.362367886
100102.362367858
100102.362367836
100102.362367819
100102.362367807
100102.362367798
100102.362367792
100102.362367788
100102.362367785
100102.362367783
100102.362367781
100102.36236778
100102.362367779
100102.362367779
100102.362367779
100102.362367779
100102.362367779
100102.362367778
100102.362367778
100102.362367779
100102.362367779
100102.362367779
100102.362367779
100102.362367779
100102.36236778
100102.362367781
100102.362367782
100102.362367785
100102.362367788
100102.362367792
100102.362367798
100102.362367807
100102.362367819
100102.362367835
100102.362367857
100102.362367886
100102.362367923
100102.362367968
100102.362368021
100102.362368077
100102.362368132
100102.36236817
100102.362368192
100102.360087894
100102.360087879
100102.360087849
100102.360087804
100102.360087757
100102.360087711
100102.360087671
100102.360087637
100102.36008761
100102.360087589
100102.360087572
100102.36008756
100102.360087551
100102.360087544
100102.360087539
100102.360087536
100102.360087534
100102.360087532
100102.360087531
100102.36008753
100102.360087529
100102.360087529
100102.360087528
100102.360087528
100102.360087528
100102.360087528
100102.360087528
100102.360087528
100102.360087529
100102.360087529
100102.36008753
100102.36008753
100102.360087532
100102.360087533
100102.360087536
100102.360087539
100102.360087544
100102.360087551
100102.36008756
100102.360087572
100102.360087588
100102.36008761
100102.360087637
100102.360087672
100102.360087712
100102.360087758
100102.360087806
100102.360087851
100102.360087881
100102.360087897
100102.357807605
100102.357807593
100102.357807569
100102.357807532
100102.357807493
100102.357807453
100102.357807417
100102.357807386
100102.35780736
100102.35780734
100102.357807324
100102.357807311
100102.357807302
100102.357807295
100102.35780729
100102.357807286
100102.357807283
100102.357807281
100102.35780728
100102.357807279
100102.357807278
100102.357807278
100102.357807277
100102.357807277
100102.357807277
100102.357807277
100102.357807277
100102.357807277
100102.357807278
100102.357807278
100102.357807279
100102.35780728
100102.357807281
100102.357807283
100102.357807286
100102.35780729
100102.357807295
100102.357807302
100102.357807311
100102.357807323
100102.357807339
100102.35780736
100102.357807386
100102.357807417
100102.357807453
100102.357807494
100102.357807534
100102.357807571
100102.357807595
100102.357807607
100102.35552732
100102.355527311
100102.355527292
100102.355527261
100102.355527227
100102.355527193
100102.355527161
100102.355527132
100102.355527109
100102.355527089
100102.355527074
100102.355527062
100102.355527052
100102.355527045
100102.35552704
100102.355527036
100102.355527033
100102.355527031
100102.355527029
100102.355527028
100102.355527027
100102.355527026
100102.355527026
100102.355527026
100102.355527025
100102.355527025
100102.355527026
100102.355527026
100102.355527026
100102.355527027
100102.355527028
100102.355527029
100102.35552703
100102.355527032
100102.355527035
100102.355527039
100102.355527045
100102.355527052
100102.355527061
100102.355527073
100102.355527089
100102.355527108
100102.355527132
100102.355527161
100102.355527193
100102.355527228
100102.355527262
100102.355527293
100102.355527313
100102.355527321
100102.353247038
100102.353247032
100102.353247016
100102.353246991
100102.353246962
100102.353246932
100102.353246903
100102.353246878
100102.353246856
100102.353246838
100102.353246823
100102.353246811
100102.353246802
100102.353246795
100102.353246789
100102.353246785
100102.353246782
100102.353246779
100102.353246778
100102.353246776
100102.353246775
100102.353246775
100102.353246774
100102.353246774
100102.353246774
100102.353246774
100102.353246774
100102.353246774
100102.353246774
100102.353246775
100102.353246776
100102.353246777
100102.353246779
100102.353246781
100102.353246785
100102.353246789
100102.353246794
100102.353246801
100102.35324681
100102.353246822
100102.353246837
100102.353246855
100102.353246878
100102.353246903
100102.353246932
100102.353246962
100102.353246991
100102.353247017
100102.353247033
100102.353247039
100102.350966759
100102.350966754
100102.350966742
100102.350966721
100102.350966696
100102.35096667
100102.350966645
100102.350966622
100102.350966602
100102.350966585
100102.350966571
100102.35096656
100102.350966551
100102.350966544
100102.350966538
100102.350966534
100102.350966531
100102.350966528
100102.350966526
100102.350966525
100102.350966524
100102.350966523
100102.350966522
100102.350966522
100102.350966522
100102.350966522
100102.350966522
100102.350966522
100102.350966523
100102.350966523
100102.350966524
100102.350966526
100102.350966528
100102.35096653
100102.350966533
100102.350966538
100102.350966543
100102.35096655
100102.350966559
100102.35096657
100102.350966585
100102.350966602
100102.350966622
100102.350966645
100102.35096667
100102.350966696
100102.350966721
100102.350966742
100102.350966755
100102.35096676
100102.348686483
100102.348686479
100102.348686469
100102.348686451
100102.348686431
100102.348686408
100102.348686386
100102.348686366
100102.348686348
100102.348686332
100102.348686319
100102.348686308
100102.348686299
100102.348686292
100102.348686287
100102.348686282
100102.348686279
100102.348686277
100102.348686275
100102.348686273
100102.348686272
100102.348686271
100102.348686271
100102.34868627
100102.34868627
100102.34868627
100102.34868627
100102.34868627
100102.348686271
100102.348686272
100102.348686273
100102.348686274
100102.348686276
100102.348686279
100102.348686282
100102.348686286
100102.348686292
100102.348686298
100102.348686307
100102.348686318
100102.348686331
100102.348686347
100102.348686365
100102.348686386
100102.348686408
100102.348686431
100102.348686452
100102.348686469
100102.348686479
100102.348686483
100102.346406208
100102.346406206
100102.346406197
100102.346406183
100102.346406166
100102.346406146
100102.346406127
100102.346406109
100102.346406092
100102.346406078
100102.346406066
100102.346406056
100102.346406047
100102.346406041
100102.346406035
100102.346406031
100102.346406028
100102.346406025
100102.346406023
100102.346406021
100102.34640602
100102.346406019
100102.346406019
100102.346406018
100102.346406018
100102.346406018
100102.346406018
100102.346406019
100102.346406019
100102.34640602
100102.346406021
100102.346406022
100102.346406024
100102.346406027
100102.34640603
100102.346406034
100102.34640604
100102.346406046
100102.346406055
100102.346406065
100102.346406077
100102.346406092
100102.346406108
100102.346406126
100102.346406146
100102.346406165
100102.346406183
100102.346406197
100102.346406206
100102.346406208
100102.344125935
100102.344125934
100102.344125927
100102.344125915
100102.344125901
100102.344125884
100102.344125868
100102.344125851
100102.344125837
100102.344125823
100102.344125812
100102.344125803
100102.344125795
100102.344125788
100102.344125783
100102.344125779
100102.344125776
100102.344125773
100102.344125771
100102.34412577
100102.344125768
100102.344125768
100102.344125767
100102.344125767
100102.344125766
100102.344125766
100102.344125766
100102.344125767
100102.344125767
100102.344125768
100102.344125769
100102.344125771
100102.344125773
100102.344125775
100102.344125778
100102.344125782
100102.344125787
100102.344125794
100102.344125802
100102.344125811
100102.344125822
100102.344125836
100102.34412585
100102.344125867
100102.344125884
100102.3441259
100102.344125915
100102.344125927
100102.344125933
100102.344125935
100102.341845664
100102.341845663
100102.341845658
100102.341845648
100102.341845636
100102.341845622
100102.341845608
100102.341845594
100102.34184558
100102.341845569
100102.341845558
100102.34184555
100102.341845542
100102.341845536
100102.341845531
100102.341845527
100102.341845524
100102.341845521
100102.341845519
100102.341845518
100102.341845517
100102.341845516
100102.341845515
100102.341845515
100102.341845514
100102.341845514
100102.341845514
100102.341845515
100102.341845515
100102.341845516
100102.341845517
100102.341845519
100102.341845521
100102.341845523
100102.341845526
100102.34184553
100102.341845535
100102.341845541
100102.341845548
100102.341845557
100102.341845567
100102.341845579
100102.341845592
100102.341845607
100102.341845621
100102.341845635
100102.341845648
100102.341845657
100102.341845662
100102.341845663
100102.339565393
100102.339565393
100102.339565389
100102.339565382
100102.339565372
100102.33956536
100102.339565348
100102.339565336
100102.339565324
100102.339565313
100102.339565304
100102.339565296
100102.339565289
100102.339565283
100102.339565279
100102.339565275
100102.339565272
100102.339565269
100102.339565267
100102.339565266
100102.339565265
100102.339565264
100102.339565263
100102.339565263
100102.339565262
100102.339565262
100102.339565262
100102.339565263
100102.339565263
100102.339565264
100102.339565265
100102.339565267
100102.339565268
100102.339565271
100102.339565274
100102.339565278
100102.339565282
100102.339565288
100102.339565295
100102.339565303
100102.339565312
100102.339565323
100102.339565334
100102.339565347
100102.339565359
100102.339565371
100102.339565381
100102.339565388
100102.339565392
100102.339565393
100102.337285124
100102.337285124
100102.337285122
100102.337285116
100102.337285108
100102.337285098
100102.337285088
100102.337285077
100102.337285067
100102.337285058
100102.337285049
100102.337285042
100102.337285036
100102.337285031
100102.337285026
100102.337285023
100102.33728502
100102.337285017
100102.337285015
100102.337285014
100102.337285013
100102.337285012
100102.337285011
100102.337285011
100102.33728501
100102.33728501
100102.33728501
100102.337285011
100102.337285011
100102.337285012
100102.337285013
100102.337285014
100102.337285016
100102.337285018
100102.337285021
100102.337285025
100102.337285029
100102.337285034
100102.337285041
100102.337285048
100102.337285056
100102.337285066
100102.337285076
100102.337285086
100102.337285097
100102.337285107
100102.337285115
100102.33728512
100102.337285123
100102.337285123
100102.335004855
100102.335004856
100102.335004855
100102.335004851
100102.335004844
100102.335004837
100102.335004828
100102.335004819
100102.33500481
100102.335004802
100102.335004795
100102.335004788
100102.335004782
100102.335004778
100102.335004773
100102.33500477
100102.335004767
100102.335004765
100102.335004763
100102.335004762
100102.335004761
100102.33500476
100102.335004759
100102.335004759
100102.335004758
100102.335004758
100102.335004758
100102.335004759
100102.335004759
100102.33500476
100102.335004761
100102.335004762
100102.335004764
100102.335004766
100102.335004769
100102.335004772
100102.335004776
100102.335004781
100102.335004786
100102.335004793
100102.3350048
100102.335004808
100102.335004817
100102.335004826
100102.335004835
100102.335004843
100102.335004849
100102.335004853
100102.335004855
100102.335004854
100102.332724587
100102.332724589
100102.332724588
100102.332724586
100102.332724581
100102.332724575
100102.332724568
100102.332724561
100102.332724553
100102.332724546
100102.33272454
100102.332724534
100102.332724529
100102.332724524
100102.332724521
100102.332724517
100102.332724515
100102.332724513
100102.332724511
100102.33272451
100102.332724508
100102.332724508
100102.332724507
100102.332724507
100102.332724506
100102.332724506
100102.332724506
100102.332724507
100102.332724507
100102.332724508
100102.332724509
100102.33272451
100102.332724511
100102.332724513
100102.332724516
100102.332724519
100102.332724523
100102.332724527
100102.332724532
100102.332724538
100102.332724544
100102.332724551
100102.332724559
100102.332724566
100102.332724573
100102.332724579
100102.332724584
100102.332724587
100102.332724587
100102.332724586
100102.33044432
100102.330444322
100102.330444322
100102.330444321
100102.330444318
100102.330444314
100102.330444308
100102.330444302
100102.330444296
100102.33044429
100102.330444284
100102.330444279
100102.330444275
100102.330444271
100102.330444268
100102.330444265
100102.330444262
100102.33044426
100102.330444259
100102.330444257
100102.330444256
100102.330444255
100102.330444255
100102.330444254
100102.330444254
100102.330444254
100102.330444254
100102.330444254
100102.330444255
100102.330444255
100102.330444256
100102.330444257
100102.330444259
100102.330444261
100102.330444263
100102.330444266
100102.330444269
100102.330444273
100102.330444277
100102.330444282
100102.330444288
100102.330444294
100102.3304443
100102.330444306
100102.330444312
100102.330444316
100102.330444319
100102.33044432
100102.33044432
100102.330444318
100102.328164052
100102.328164056
100102.328164057
100102.328164057
100102.328164056
100102.328164053
100102.328164049
100102.328164044
100102.328164039
100102.328164034
100102.328164029
100102.328164025
100102.328164021
100102.328164017
100102.328164014
100102.328164012
100102.32816401
100102.328164008
100102.328164006
100102.328164005
100102.328164004
100102.328164003
100102.328164003
100102.328164002
100102.328164002
100102.328164002
100102.328164002
100102.328164002
100102.328164003
100102.328164003
100102.328164004
100102.328164005
100102.328164006
100102.328164008
100102.32816401
100102.328164012
100102.328164015
100102.328164019
100102.328164022
100102.328164027
100102.328164031
100102.328164036
100102.328164041
100102.328164046
100102.32816405
100102.328164053
100102.328164055
100102.328164055
100102.328164054
100102.328164051
100102.325883786
100102.32588379
100102.325883792
100102.325883794
100102.325883793
100102.325883792
100102.325883789
100102.325883786
100102.325883782
100102.325883778
100102.325883774
100102.32588377
100102.325883767
100102.325883764
100102.325883761
100102.325883759
100102.325883757
100102.325883755
100102.325883754
100102.325883753
100102.325883752
100102.325883751
100102.32588375
100102.32588375
100102.32588375
100102.32588375
100102.32588375
100102.32588375
100102.32588375
100102.325883751
100102.325883751
100102.325883752
100102.325883754
100102.325883755
100102.325883757
100102.325883759
100102.325883761
100102.325883764
100102.325883768
100102.325883771
100102.325883775
100102.325883779
100102.325883783
100102.325883786
100102.325883789
100102.325883791
100102.325883791
100102.32588379
100102.325883787
100102.325883784
100102.323603519
100102.323603524
100102.323603528
100102.323603531
100102.323603532
100102.323603531
100102.32360353
100102.323603527
100102.323603524
100102.323603521
100102.323603518
100102.323603515
100102.323603513
100102.32360351
100102.323603508
100102.323603506
100102.323603504
100102.323603503
100102.323603501
100102.3236035
100102.323603499
100102.323603499
100102.323603498
100102.323603498
100102.323603498
100102.323603497
100102.323603497
100102.323603498
100102.323603498
100102.323603498
100102.323603499
100102.3236035
100102.323603501
100102.323603502
100102.323603504
100102.323603505
100102.323603508
100102.32360351
100102.323603513
100102.323603515
100102.323603518
100102.323603521
100102.323603524
100102.323603527
100102.323603528
100102.323603529
100102.323603528
100102.323603525
100102.323603522
100102.323603517
100102.321323253
100102.321323259
100102.321323263
100102.321323268
100102.32132327
100102.321323271
100102.321323271
100102.321323269
100102.321323267
100102.321323265
100102.321323263
100102.32132326
100102.321323258
100102.321323256
100102.321323254
100102.321323253
100102.321323251
100102.32132325
100102.321323249
100102.321323248
100102.321323247
100102.321323246
100102.321323246
100102.321323246
100102.321323245
100102.321323245
100102.321323245
100102.321323245
100102.321323245
100102.321323246
100102.321323246
100102.321323247
100102.321323248
100102.321323249
100102.32132325
100102.321323252
100102.321323254