/*--------------------------------*- C++ -*----------------------------------*\
  =========                 |
  \\      /  F ield         | OpenFOAM: The Open Source CFD Toolbox
   \\    /   O peration     | Website:  https://openfoam.org
    \\  /    A nd           | Version:  10
     \\/     M anipulation  |
\*---------------------------------------------------------------------------*/
FoamFile
{
    format      ascii;
    class       volScalarField;
    location    "8.6";
    object      p_rgh;
}
// * * * * * * * * * * * * * * * * * * * * * * * * * * * * * * * * * * * * * //

dimensions      [1 -1 -2 0 0 0 0];

internalField   nonuniform List<scalar> 
2500
(
102.512291978346
102.512293394015
102.512297463021
102.512300939023
102.512303364449
102.512304954042
102.512305956654
102.512306579636
102.512306958859
102.512307186029
102.512307320649
102.512307399797
102.512307446435
102.512307474535
102.512307491925
102.512307503144
102.512307510493
102.512307515615
102.512307519326
102.51230752196
102.512307523881
102.512307525234
102.51230752618
102.512307526762
102.512307527039
102.512307527068
102.512307526777
102.512307526194
102.512307525249
102.512307523852
102.512307521902
102.51230751918
102.512307515412
102.5123075101
102.512307502417
102.512307490892
102.512307472934
102.512307444107
102.512307396115
102.512307315526
102.512307179481
102.512306950754
102.512306571181
102.512305949465
102.51230494905
102.512303361684
102.51230092984
102.512297430745
102.512293337801
102.512291978361
102.51256440203
102.512571507628
102.512581912146
102.512590375583
102.512596250628
102.512600088623
102.512602511983
102.512604010786
102.512604915479
102.512605448341
102.512605754469
102.512605926488
102.512606021643
102.512606074059
102.512606103221
102.512606119912
102.512606129792
102.512606136006
102.512606140153
102.512606142991
102.512606144985
102.512606146396
102.512606147357
102.512606147953
102.512606148259
102.512606148273
102.512606147982
102.512606147386
102.512606146411
102.512606144999
102.512606142962
102.512606140022
102.512606135715
102.512606129196
102.512606118791
102.512606101373
102.512606071046
102.51260601687
102.512605919197
102.512605744181
102.512605435055
102.512604899981
102.512603995929
102.512602502175
102.512600087866
102.512596256667
102.51259036627
102.512581843985
102.512571375759
102.512564528195
102.512858104688
102.51287167368
102.512886983473
102.512898898422
102.512907047421
102.512912322913
102.512915633604
102.512917669927
102.512918892986
102.512919609391
102.512920017864
102.512920245033
102.512920368812
102.512920435547
102.512920471578
102.512920491397
102.512920502704
102.5129205095
102.512920513866
102.512920516776
102.512920518813
102.512920520225
102.5129205212
102.512920521796
102.512920522087
102.512920522102
102.512920521825
102.512920521229
102.512920520268
102.512920518842
102.512920516761
102.51292051372
102.512920509165
102.512920501991
102.512920490102
102.51292046938
102.512920431924
102.512920363079
102.512920236331
102.512920005567
102.512919593471
102.512918874592
102.512917652391
102.512915622225
102.512912321894
102.51290705023
102.512898868445
102.512886848563
102.512871401414
102.512858104703
102.513141390285
102.513159461887
102.513176792287
102.513189699661
102.513198296641
102.513203740498
102.513207090626
102.513209115888
102.513210314413
102.513211007725
102.513211398822
102.513211614409
102.5132117311
102.513211793674
102.51321182739
102.513211845944
102.513211856582
102.513211863028
102.51321186719
102.513211869984
102.513211871963
102.513211873331
102.513211874291
102.513211874859
102.51321187515
102.513211875164
102.513211874888
102.51321187432
102.513211873375
102.513211871978
102.513211869969
102.513211867074
102.513211862737
102.51321185597
102.513211844853
102.513211825528
102.513211790632
102.513211726284
102.513211607104
102.513211388374
102.513210993915
102.513210297955
102.513209099197
102.513207077602
102.513203733106
102.513198283443
102.513189633071
102.513176576904
102.513159023045
102.513141063668
102.513389815736
102.513409371895
102.513426168778
102.513438161652
102.513445926073
102.513450726197
102.513453618609
102.513455336302
102.513456338304
102.513456911649
102.513457232606
102.513457408815
102.513457504203
102.513457555629
102.513457583642
102.513457599343
102.513457608584
102.513457614317
102.513457618086
102.513457620706
102.513457622554
102.513457623863
102.513457624766
102.513457625333
102.51345762561
102.51345762561
102.513457625348
102.513457624795
102.513457623892
102.513457622568
102.513457620691
102.513457617999
102.51345761407
102.513457608075
102.513457598499
102.513457582245
102.513457553403
102.51345750074
102.51345740362
102.513457225141
102.513456901623
102.513456325993
102.513455323031
102.513453606472
102.513450714614
102.513445900171
102.513438068418
102.513425898331
102.513408803512
102.513389141619
102.513590038434
102.513608311056
102.513622761791
102.513632673057
102.51363890589
102.513642664228
102.513644880251
102.513646173145
102.513646917185
102.513647339132
102.513647574262
102.513647703468
102.513647773871
102.513647812404
102.513647833897
102.513647846354
102.513647853935
102.513647858854
102.513647862201
102.513647864573
102.513647866275
102.513647867512
102.513647868342
102.513647868895
102.513647869157
102.513647869142
102.513647868895
102.513647868371
102.513647867527
102.513647866275
102.513647864558
102.513647862113
102.51364785865
102.513647853557
102.513647845713
102.513647832908
102.513647810905
102.51364777163
102.513647700136
102.513647569562
102.513647332744
102.513646909152
102.513646164036
102.513644870822
102.513642652309
102.513638875869
102.513632572969
102.51362247912
102.513607692716
102.513589131064
102.51373956498
102.513754777596
102.513766036471
102.513773464947
102.513777999877
102.513780663969
102.513782199676
102.513783079557
102.513783579343
102.51378386069
102.513784017254
102.513784103765
102.513784151612
102.51378417846
102.513784194001
102.513784203402
102.513784209441
102.51378421353
102.513784216426
102.513784218536
102.513784220078
102.513784221199
102.513784221999
102.513784222494
102.513784222727
102.513784222741
102.513784222509
102.513784221999
102.513784221228
102.513784220093
102.513784218521
102.513784216353
102.513784213384
102.513784209135
102.513784202936
102.513784193303
102.513784177456
102.5137841502
102.513784101771
102.513784014474
102.51378385695
102.513783574599
102.513783073999
102.513782193419
102.513780654495
102.513777973276
102.513773375758
102.513765781288
102.513754193671
102.513738591006
102.513843708701
102.513855211058
102.513863258806
102.513868367983
102.513871391973
102.513873118631
102.513874089418
102.513874634606
102.513874939948
102.513875110686
102.513875205826
102.513875258985
102.513875289078
102.513875306584
102.51387531725
102.513875324119
102.513875328776
102.513875332108
102.513875334553
102.513875336372
102.513875337754
102.513875338758
102.513875339457
102.513875339922
102.513875340155
102.513875340155
102.513875339937
102.513875339486
102.513875338773
102.513875337754
102.513875336372
102.513875334495
102.513875331977
102.513875328557
102.51387532377
102.51387531677
102.513875305915
102.513875288161
102.513875257748
102.513875204182
102.513875108547
102.513874937271
102.513874631477
102.513874085838
102.513873112519
102.513871372561
102.5138682994
102.513863054948
102.513854721241
102.513842813831
102.51391172834
102.513919728968
102.513925054096
102.513928301531
102.513930159112
102.513931184425
102.513931743335
102.513932049056
102.513932217029
102.513932310059
102.51393236201
102.513932391535
102.513932408823
102.513932419446
102.513932426387
102.51393243116
102.513932434638
102.513932437258
102.513932439266
102.513932440808
102.513932441987
102.51393244286
102.5139324435
102.513932443908
102.513932444112
102.513932444112
102.513932443922
102.513932443529
102.513932442904
102.513932442016
102.513932440823
102.513932439237
102.513932437185
102.513932434493
102.513932430913
102.513932426024
102.513932418966
102.513932408197
102.513932390706
102.513932360962
102.513932308764
102.513932215501
102.513932047368
102.513931741545
102.513931181282
102.513930147208
102.51392825511
102.513924907704
102.513919357982
102.513910999245
102.513953585149
102.513958751617
102.513962033452
102.513963946069
102.513964995611
102.51396554838
102.513965835868
102.513965986131
102.513966065599
102.513966108512
102.513966132348
102.513966146158
102.513966154729
102.513966160433
102.513966164537
102.513966167637
102.513966170096
102.51396617206
102.513966173647
102.513966174898
102.513966175873
102.513966176615
102.513966177168
102.513966177517
102.513966177692
102.513966177692
102.513966177532
102.513966177197
102.513966176659
102.513966175931
102.513966174927
102.513966173647
102.513966172031
102.513966169994
102.513966167477
102.513966164246
102.513966160055
102.513966154234
102.513966145561
102.513966131577
102.513966107625
102.513966064609
102.51396598517
102.513965835111
102.513965547245
102.513964989615
102.513963918289
102.51396193805
102.513958494936
102.513953047295
102.513977950701
102.513981068711
102.513982958713
102.513983999088
102.513984537174
102.513984798614
102.513984922043
102.513984979334
102.513985005964
102.513985018653
102.513985025173
102.513985028985
102.513985031706
102.513985033918
102.513985035883
102.513985037644
102.513985039186
102.513985040554
102.513985041718
102.513985042664
102.513985043435
102.513985044046
102.513985044483
102.513985044774
102.51398504492
102.513985044934
102.513985044803
102.513985044512
102.51398504409
102.513985043493
102.513985042708
102.513985041733
102.513985040539
102.513985039113
102.513985037498
102.513985035665
102.513985033627
102.513985031299
102.513985028505
102.513985024576
102.513985017969
102.513985005251
102.513984978737
102.513984921796
102.513984798614
102.513984535064
102.513983984594
102.513982902106
102.513980905162
102.513977586495
102.513991412663
102.513993179266
102.513994195979
102.513994710884
102.513994950568
102.513995046495
102.513995078436
102.513995084242
102.513995081375
102.513995076821
102.513995073052
102.513995070622
102.513995069428
102.513995069108
102.513995069399
102.513995070025
102.513995070796
102.513995071582
102.513995072324
102.513995072979
102.513995073547
102.513995073998
102.513995074332
102.513995074551
102.513995074682
102.513995074682
102.51399507458
102.513995074376
102.513995074041
102.51399507359
102.513995073023
102.513995072353
102.513995071567
102.513995070753
102.513995069909
102.513995069239
102.513995068875
102.513995069094
102.5139950702
102.513995072557
102.513995076282
102.513995080837
102.513995083835
102.513995078436
102.513995047062
102.513994950612
102.513994704699
102.513994165594
102.513993082917
102.513991184213
102.51399848923
102.513999431045
102.513999938397
102.514000160052
102.514000238996
102.514000248557
102.514000233699
102.51400021321
102.514000194991
102.514000181036
102.514000171301
102.514000164942
102.514000161085
102.514000158902
102.514000157869
102.51400015752
102.514000157564
102.514000157826
102.514000158175
102.514000158539
102.514000158888
102.514000159179
102.514000159412
102.514000159572
102.514000159659
102.514000159674
102.514000159601
102.514000159455
102.514000159237
102.514000158932
102.514000158582
102.514000158204
102.514000157826
102.514000157535
102.514000157433
102.514000157724
102.514000158713
102.514000160809
102.514000164592
102.514000170908
102.514000180599
102.514000194584
102.514000212948
102.514000233845
102.514000249328
102.514000240073
102.51400015848
102.513999924035
102.513999378614
102.513998355775
102.514002032549
102.514002504569
102.514002734431
102.514002804804
102.514002804601
102.51400277362
102.514002737458
102.514002704949
102.514002679425
102.514002660624
102.514002647498
102.514002638651
102.514002632903
102.514002629323
102.514002627184
102.514002625991
102.514002625394
102.514002625161
102.514002625147
102.514002625234
102.514002625365
102.51400262551
102.514002625627
102.514002625729
102.514002625772
102.514002625787
102.514002625743
102.51400262567
102.514002625554
102.514002625408
102.514002625263
102.514002625176
102.514002625147
102.51400262535
102.514002625918
102.514002627053
102.514002629148
102.51400263267
102.51400263836
102.514002647164
102.514002660289
102.51400267912
102.514002704804
102.514002737676
102.514002774449
102.514002806041
102.514002805474
102.514002728989
102.514002478492
102.514001959789
102.514003720207
102.514003941134
102.514004029785
102.514004029028
102.514003994482
102.514003947625
102.514003903721
102.514003866876
102.514003838412
102.514003817356
102.514003802338
102.514003791905
102.514003784818
102.514003780132
102.514003777105
102.514003775184
102.514003774006
102.514003773336
102.514003772958
102.514003772783
102.514003772711
102.514003772711
102.514003772725
102.514003772754
102.514003772769
102.514003772783
102.514003772769
102.514003772754
102.51400377274
102.51400377274
102.514003772798
102.514003772973
102.514003773307
102.514003773947
102.514003775097
102.514003776974
102.514003779957
102.514003784614
102.514003791628
102.514003802062
102.514003817065
102.514003838209
102.514003866818
102.514003903983
102.514003948454
102.51400399601
102.514004030658
102.514004028824
102.514003929638
102.514003683274
102.514004479759
102.514004574477
102.514004596553
102.514004566765
102.514004520664
102.514004470228
102.51400442532
102.514004388024
102.514004358993
102.514004337092
102.514004321129
102.514004309705
102.514004301673
102.514004296128
102.514004292359
102.514004289813
102.514004288139
102.514004287063
102.514004286364
102.514004285928
102.51400428568
102.514004285535
102.514004285447
102.514004285404
102.514004285389
102.514004285389
102.514004285418
102.514004285462
102.514004285535
102.51400428568
102.514004285928
102.514004286335
102.514004287004
102.514004288067
102.514004289711
102.514004292214
102.514004295954
102.51400430144
102.514004309429
102.514004320867
102.514004336874
102.514004358833
102.514004388024
102.514004425626
102.514004470999
102.514004522091
102.514004568628
102.514004597571
102.514004570447
102.514004462559
102.51400479635
102.514004831537
102.514004825236
102.514004786848
102.514004739875
102.514004691489
102.514004648707
102.514004612836
102.514004584446
102.514004562574
102.514004546232
102.514004534227
102.514004525554
102.514004519369
102.514004515018
102.514004511962
102.514004509852
102.514004508412
102.514004507437
102.514004506767
102.514004506331
102.514004506054
102.51400450588
102.514004505778
102.514004505734
102.514004505734
102.514004505778
102.514004505865
102.51400450604
102.514004506316
102.514004506738
102.514004507379
102.514004508324
102.514004509751
102.514004511817
102.514004514829
102.514004519151
102.514004525307
102.51400453395
102.51400454597
102.514004562356
102.5140045843
102.514004612865
102.514004648998
102.514004692188
102.514004741155
102.514004788653
102.514004826968
102.514004830984
102.514004789249
102.514004911252
102.514004920362
102.514004903991
102.514004866011
102.514004822602
102.514004778466
102.514004739074
102.514004705517
102.514004678393
102.514004657074
102.514004640747
102.51400462848
102.514004619385
102.514004612749
102.514004607932
102.514004604469
102.514004601995
102.514004600249
102.514004599012
102.514004598153
102.514004597557
102.514004597149
102.514004596887
102.514004596727
102.514004596655
102.51400459664
102.514004596713
102.514004596858
102.514004597106
102.514004597499
102.514004598081
102.51400459891
102.514004600118
102.514004601835
102.514004604265
102.514004607699
102.514004612487
102.514004619108
102.514004628189
102.514004640456
102.514004656812
102.514004678247
102.514004705517
102.514004739336
102.514004779092
102.514004823708
102.514004867611
102.514004905781
102.514004921191
102.514004908939
102.514004938814
102.51400493765
102.514004919285
102.514004885175
102.514004846729
102.514004807512
102.514004771889
102.514004740951
102.514004715456
102.514004694967
102.51400467896
102.514004666678
102.51400465738
102.514004650424
102.514004645273
102.514004641489
102.514004638724
102.514004636716
102.514004635261
102.514004634228
102.514004633485
102.514004632976
102.514004632627
102.514004632409
102.514004632307
102.514004632292
102.51400463238
102.514004632583
102.514004632903
102.514004633398
102.514004634111
102.514004635115
102.514004636527
102.514004638506
102.514004641242
102.514004644981
102.514004650104
102.51400465703
102.514004666315
102.514004678625
102.514004694676
102.514004715267
102.514004740922
102.514004772092
102.514004808007
102.514004847661
102.514004886485
102.514004920871
102.514004938857
102.514004938537
102.514004930897
102.51400492643
102.514004909317
102.514004879922
102.514004846627
102.514004812183
102.514004780314
102.514004752113
102.514004728393
102.514004708937
102.514004693468
102.514004681347
102.514004672004
102.514004664888
102.514004659519
102.514004655503
102.514004652505
102.514004650293
102.514004648649
102.514004647455
102.514004646597
102.514004645986
102.514004645564
102.514004645302
102.514004645171
102.514004645156
102.514004645258
102.514004645491
102.514004645884
102.514004646466
102.514004647281
102.514004648445
102.514004650031
102.514004652214
102.514004655168
102.514004659155
102.514004664481
102.514004671582
102.51400468091
102.514004693061
102.514004708573
102.514004728117
102.514004751982
102.514004780416
102.514004812547
102.514004847326
102.51400488097
102.514004910598
102.51400492758
102.514004931349
102.514004909914
102.514004904995
102.514004890138
102.514004865341
102.51400483679
102.514004806784
102.514004778466
102.514004752913
102.514004731027
102.514004712764
102.514004697965
102.514004686178
102.514004676937
102.514004669778
102.514004664292
102.514004660115
102.514004656943
102.514004654571
102.514004652796
102.514004651472
102.514004650497
102.514004649813
102.514004649332
102.514004649027
102.514004648867
102.514004648852
102.514004648969
102.514004649231
102.514004649667
102.514004650322
102.514004651239
102.514004652519
102.514004654251
102.514004656579
102.514004659693
102.514004663826
102.514004669283
102.514004676414
102.514004685654
102.514004697456
102.514004712299
102.514004730663
102.51400475268
102.514004778408
102.514004806959
102.514004837256
102.514004866083
102.514004891098
102.514004905897
102.514004910467
102.514004885074
102.514004880752
102.514004868295
102.514004847559
102.514004823228
102.514004797209
102.514004772194
102.514004749217
102.514004729164
102.514004712153
102.51400469814
102.514004686804
102.514004677781
102.514004670695
102.514004665165
102.514004660901
102.514004657627
102.514004655139
102.514004653262
102.514004651835
102.514004650788
102.514004650016
102.514004649493
102.514004649143
102.514004648969
102.51400464894
102.514004649071
102.514004649362
102.514004649827
102.51400465054
102.514004651544
102.514004652898
102.514004654731
102.514004657176
102.514004660392
102.514004664612
102.514004670084
102.514004677156
102.514004686163
102.514004697514
102.514004711571
102.514004728655
102.514004748824
102.514004771976
102.514004797209
102.514004823475
102.514004848039
102.514004868906
102.514004881348
102.514004885481
102.514004859928
102.514004856464
102.514004846191
102.514004829005
102.514004808356
102.514004785902
102.514004763885
102.514004743338
102.51400472509
102.514004709388
102.514004696248
102.51400468545
102.514004676748
102.514004669807
102.514004664321
102.514004660043
102.514004656725
102.514004654164
102.514004652199
102.5140046507
102.514004649594
102.514004648765
102.514004648183
102.514004647819
102.514004647615
102.514004647586
102.514004647717
102.514004648023
102.514004648532
102.514004649289
102.514004650337
102.514004651763
102.514004653669
102.514004656157
102.514004659432
102.514004663652
102.514004669079
102.514004675992
102.514004684694
102.514004695477
102.514004708661
102.514004724435
102.514004742785
102.514004763492
102.514004785684
102.514004808341
102.51400482918
102.514004846482
102.514004856741
102.514004860102
102.514004835626
102.514004833065
102.514004824727
102.514004810568
102.51400479312
102.514004773824
102.514004754572
102.514004736295
102.514004719822
102.514004705416
102.514004693207
102.51400468302
102.514004674711
102.514004668003
102.514004662647
102.514004658398
102.51400465508
102.514004652476
102.514004650468
102.514004648925
102.514004647761
102.514004646902
102.514004646291
102.514004645884
102.51400464568
102.514004645636
102.514004645767
102.514004646087
102.514004646626
102.514004647412
102.514004648488
102.514004649958
102.514004651894
102.514004654411
102.514004657671
102.514004661847
102.514004667159
102.514004673838
102.514004682118
102.51400469229
102.514004704542
102.514004719007
102.514004735567
102.514004753975
102.514004773388
102.514004792858
102.514004810451
102.514004824712
102.514004833036
102.514004835553
102.514004812489
102.514004810742
102.514004804092
102.514004792523
102.514004777884
102.514004761411
102.514004744662
102.514004728524
102.514004713739
102.514004700643
102.514004689379
102.514004679877
102.514004672019
102.514004665587
102.514004660406
102.514004656259
102.51400465297
102.51400465038
102.514004648358
102.5140046468
102.514004645593
102.514004644705
102.514004644079
102.514004643657
102.514004643424
102.514004643381
102.514004643512
102.514004643832
102.514004644385
102.514004645171
102.514004646277
102.514004647761
102.514004649696
102.514004652199
102.514004655415
102.51400465949
102.514004664612
102.514004670986
102.514004678829
102.514004688317
102.514004699595
102.51400471275
102.514004727607
102.514004743847
102.514004760742
102.51400477736
102.51400479213
102.514004803772
102.514004810408
102.514004812139
102.514004790472
102.514004789453
102.514004784287
102.514004774974
102.514004762794
102.514004748853
102.514004734388
102.514004720244
102.514004707089
102.514004695273
102.51400468497
102.514004676181
102.514004668818
102.514004662735
102.514004657773
102.514004653771
102.514004650555
102.514004648008
102.514004645986
102.514004644428
102.514004643221
102.514004642304
102.514004641664
102.514004641227
102.51400464098
102.514004640921
102.514004641052
102.514004641387
102.514004641926
102.514004642726
102.514004643817
102.514004645287
102.514004647208
102.514004649667
102.514004652781
102.51400465671
102.5140046616
102.514004667639
102.514004674958
102.514004683733
102.514004694051
102.514004705896
102.514004719109
102.514004733355
102.514004747936
102.514004762008
102.514004774304
102.51400478369
102.514004788856
102.51400478986
102.5140047694
102.51400476908
102.514004765224
102.51400475789
102.514004747922
102.514004736251
102.514004723867
102.514004711571
102.514004699973
102.514004689408
102.514004680081
102.514004672019
102.514004665194
102.51400465949
102.514004654804
102.514004650962
102.514004647863
102.514004645374
102.51400464341
102.514004641853
102.51400464066
102.514004639743
102.514004639073
102.514004638637
102.514004638389
102.514004638317
102.514004638448
102.514004638768
102.514004639306
102.514004640092
102.514004641169
102.51400464261
102.514004644472
102.514004646844
102.514004649842
102.514004653596
102.514004658209
102.514004663841
102.514004670622
102.514004678655
102.514004687997
102.514004698576
102.514004710247
102.514004722616
102.514004735087
102.514004746874
102.514004756958
102.514004764336
102.514004768222
102.514004768571
102.514004749159
102.514004749508
102.51400474683
102.514004741286
102.514004733253
102.514004723635
102.514004713186
102.514004702607
102.514004692479
102.514004683122
102.514004674755
102.514004667435
102.514004661178
102.514004655881
102.514004651486
102.514004647863
102.514004644909
102.514004642508
102.514004640601
102.514004639073
102.514004637895
102.514004636992
102.514004636338
102.514004635887
102.514004635625
102.514004635552
102.514004635668
102.514004635988
102.514004636498
102.514004637269
102.514004638317
102.514004639699
102.514004641489
102.514004643759
102.514004646611
102.514004650133
102.51400465444
102.51400465965
102.514004665863
102.514004673139
102.514004681507
102.514004690864
102.51400470105
102.514004711673
102.514004722223
102.514004731958
102.514004740078
102.514004745681
102.514004748387
102.514004748096
102.514004729586
102.51400473059
102.514004729004
102.51400472509
102.514004718847
102.514004711091
102.514004702403
102.514004693439
102.514004684694
102.514004676501
102.514004669079
102.514004662517
102.514004656827
102.514004651981
102.514004647906
102.514004644516
102.514004641722
102.514004639452
102.514004637618
102.514004636148
102.514004634999
102.514004634111
102.514004633456
102.514004633005
102.514004632743
102.514004632671
102.514004632772
102.514004633063
102.514004633558
102.514004634286
102.51400463529
102.514004636614
102.514004638317
102.514004640456
102.514004643119
102.514004646408
102.51400465038
102.514004655139
102.514004660756
102.514004667275
102.514004674682
102.514004682875
102.514004691649
102.514004700657
102.514004709432
102.514004717275
102.514004723605
102.514004727593
102.514004729237
102.514004728306
102.514004710552
102.514004712226
102.514004711658
102.514004709272
102.514004704644
102.514004698605
102.514004691548
102.514004684082
102.514004676661
102.514004669589
102.514004663099
102.514004657278
102.51400465217
102.514004647775
102.514004644036
102.514004640907
102.514004638302
102.514004636163
102.514004634417
102.51400463302
102.514004631914
102.514004631055
102.514004630415
102.514004629978
102.514004629702
102.514004629629
102.514004629717
102.514004629978
102.514004630444
102.514004631128
102.514004632074
102.514004633325
102.514004634912
102.514004636905
102.514004639379
102.514004642391
102.514004646
102.514004650307
102.514004655328
102.51400466109
102.514004667566
102.514004674624
102.51400468206
102.514004689569
102.514004696699
102.514004702825
102.514004707526
102.514004709999
102.51400471064
102.514004709068
102.51400469194
102.514004694327
102.514004694764
102.514004693789
102.514004690689
102.514004686236
102.514004680677
102.514004674638
102.514004668439
102.514004662444
102.514004656856
102.514004651763
102.514004647252
102.514004643323
102.514004639947
102.514004637094
102.514004634693
102.5140046327
102.51400463107
102.514004629746
102.514004628683
102.514004627854
102.514004627243
102.514004626806
102.514004626544
102.514004626457
102.514004626515
102.514004626762
102.514004627184
102.514004627825
102.514004628712
102.514004629862
102.514004631317
102.514004633151
102.514004635406
102.514004638128
102.514004641373
102.5140046452
102.514004649638
102.514004654644
102.514004660203
102.514004666184
102.514004672383
102.514004678451
102.514004684082
102.514004688608
102.51400469181
102.514004692857
102.514004692508
102.514004690267
102.514004673649
102.514004676792
102.514004678233
102.51400467864
102.514004676952
102.514004673983
102.514004669836
102.514004665092
102.514004660072
102.51400465511
102.514004650366
102.514004646015
102.514004642086
102.514004638622
102.51400463561
102.514004633034
102.514004630866
102.514004629033
102.514004627519
102.514004626282
102.514004625293
102.514004624507
102.51400462391
102.514004623488
102.514004623226
102.514004623124
102.514004623168
102.514004623386
102.514004623779
102.514004624361
102.514004625162
102.514004626209
102.514004627534
102.514004629193
102.514004631201
102.514004633631
102.514004636498
102.514004639859
102.514004643686
102.514004647965
102.51400465265
102.514004657583
102.514004662604
102.514004667362
102.514004671568
102.514004674609
102.514004676399
102.514004676093
102.514004674769
102.514004671772
102.514004655575
102.514004659592
102.514004662022
102.514004663797
102.514004663462
102.514004661876
102.514004659024
102.514004655517
102.514004651603
102.514004647601
102.514004643701
102.514004640048
102.514004636687
102.514004633704
102.51400463107
102.514004628785
102.514004626835
102.514004625191
102.514004623808
102.514004622659
102.514004621728
102.514004621
102.514004620432
102.514004620025
102.514004619763
102.514004619647
102.51400461969
102.514004619865
102.514004620214
102.514004620723
102.514004621436
102.514004622382
102.514004623561
102.514004625031
102.514004626806
102.514004628931
102.514004631419
102.514004634286
102.514004637516
102.514004641096
102.514004644938
102.514004648896
102.514004652796
102.514004656317
102.514004659213
102.514004660872
102.514004661309
102.51400465965
102.514004657365
102.514004653538
102.514004637676
102.514004642668
102.514004646131
102.51400464926
102.514004650206
102.514004649929
102.514004648299
102.514004645942
102.514004643061
102.51400463999
102.514004636891
102.514004633907
102.514004631128
102.514004628596
102.51400462634
102.514004624347
102.51400462263
102.51400462116
102.514004619923
102.514004618875
102.514004618031
102.514004617347
102.514004616809
102.514004616431
102.514004616169
102.514004616038
102.514004616052
102.514004616198
102.514004616503
102.514004616954
102.51400461758
102.514004618395
102.514004619428
102.514004620694
102.514004622222
102.514004624041
102.514004626137
102.514004628523
102.514004631201
102.514004634082
102.514004637109
102.514004640121
102.514004642973
102.514004645345
102.514004647019
102.514004647368
102.514004646524
102.514004643541
102.514004640238
102.514004635465
102.514004619836
102.514004625962
102.514004630517
102.514004635013
102.514004637182
102.514004638157
102.514004637662
102.514004636367
102.51400463446
102.514004632263
102.514004629935
102.514004627606
102.514004625365
102.514004623299
102.514004621407
102.514004619734
102.51400461825
102.514004616969
102.514004615863
102.514004614932
102.514004614161
102.514004613535
102.514004613025
102.514004612662
102.514004612414
102.514004612283
102.514004612269
102.514004612385
102.514004612618
102.514004612996
102.514004613535
102.514004614233
102.514004615106
102.514004616183
102.514004617464