/*--------------------------------*- C++ -*----------------------------------*\
  =========                 |
  \\      /  F ield         | OpenFOAM: The Open Source CFD Toolbox
   \\    /   O peration     | Website:  https://openfoam.org
    \\  /    A nd           | Version:  10
     \\/     M anipulation  |
\*---------------------------------------------------------------------------*/
FoamFile
{
    format      ascii;
    class       surfaceScalarField;
    location    "8.6";
    object      phi;
}
// * * * * * * * * * * * * * * * * * * * * * * * * * * * * * * * * * * * * * //

dimensions      [1 0 -1 0 0 0 0];

internalField   nonuniform List<scalar> 
4900
(
-5.10700995637523e-12
5.12550931777371e-12
-7.85513365375444e-12
2.77681617496833e-12
-7.80135331671332e-12
-2.3168123789579e-14
-6.30623880866929e-12
-1.46520649111138e-12
-4.60764948520595e-12
-1.66922327273502e-12
-3.20805937905914e-12
-1.37040867932357e-12
-2.1910950877586e-12
-9.87860545635416e-13
-1.48935228117851e-12
-6.72757234914141e-13
-1.01542875604208e-12
-4.45138693712856e-13
-6.97044073347487e-13
-2.8988008011026e-13
-4.82427245085947e-13
-1.86449444698643e-13
-3.36213366986119e-13
-1.18418597898244e-13
-2.3493841255753e-13
-7.38650548391095e-14
-1.63256606759913e-13
-4.46565601549559e-14
-1.11260875666203e-13
-2.53421552461475e-14
-7.25700362980989e-14
-1.23912142705127e-14
-4.3078617877355e-14
-3.52189743503637e-15
-2.00849753081372e-14
2.66895281426658e-15
-1.7854281924274e-15
7.08242830377249e-15
1.30625198657889e-14
1.02772906793905e-14
2.53488156209641e-14
1.26069986991496e-14
3.57325556523447e-14
1.43006190090398e-14
4.47431960489381e-14
1.54883993235572e-14
5.28023037562543e-14
1.62753645653974e-14
6.0296009318793e-14
1.66976116592371e-14
6.757213443827e-14
1.67910191896396e-14
7.49874290054914e-14
1.65468549376145e-14
8.29129003990722e-14
1.59483508826009e-14
9.1782079363885e-14
1.49335005720243e-14
1.02107691622747e-13
1.34216673225428e-14
1.14553469840449e-13
1.12618381803112e-14
1.29999540131401e-13
8.23790434008982e-15
1.49679204090012e-13
3.99696936536628e-15
1.75400631841391e-13
-2.03464430061895e-15
2.09862730754837e-13
-1.0747749358097e-14
2.57208305351551e-13
-2.35857055117652e-14
3.23815678794348e-13
-4.27859074624516e-14
4.19603021645101e-13
-7.1890512189329e-14
5.5987009643248e-13
-1.16287359029865e-13
7.68071882716379e-13
-1.84139081083951e-13
1.07955975963585e-12
-2.87352281068608e-13
1.54626560741996e-12
-4.42516637896594e-13
2.24130172527095e-12
-6.70814373846579e-13
3.25455764058607e-12
-9.89000216342374e-13
4.65872898422025e-12
-1.37980867401876e-12
6.3766758032867e-12
-1.69325715680908e-12
7.90144627212593e-12
-1.49935329720194e-12
7.95879533911041e-12
-3.0698581588596e-14
5.15202120086929e-12
2.83392128991968e-12
5.17112223929964e-12
-8.3953566607606e-12
1.35469304477688e-11
-1.41505675320821e-11
8.56979143696099e-12
-1.45564493165605e-11
4.22414914306145e-13
-1.21076666920233e-11
-3.87515454277345e-12
-9.05748244683894e-12
-4.6812829205834e-12
-6.44880596903694e-12
-3.94128668010177e-12
-4.501692295616e-12
-2.89737834976907e-12
-3.13187642781799e-12
-2.00521476171259e-12
-2.18937845485362e-12
-1.35059671179782e-12
-1.54389086543946e-12
-8.98723067765929e-13
-1.09892421568386e-12
-5.95220215353768e-13
-7.87918927112098e-13
-3.93707784369452e-13
-5.66277716642905e-13
-2.60278343077372e-13
-4.04648890027146e-13
-1.7153938520943e-13
-2.83857904713078e-13
-1.1185002292064e-13
-1.91388096282238e-13
-7.10162789676935e-14
-1.19011618580356e-13
-4.24630543841921e-14
-6.12034727108641e-14
-2.2083077318185e-14
-1.41792579905661e-14
-7.23330432779366e-15
2.47489485223039e-14
3.74071494886391e-15
5.75561353766208e-14
1.19051408419649e-14
8.57601133187523e-14
1.79447068302465e-14
1.10583772527571e-13
2.22843394455234e-14
1.33049235128315e-13
2.52274211805832e-14
1.54075055484374e-13
2.69135735748631e-14
1.74523738871311e-13
2.74321372642794e-14
1.95253877101006e-13
2.67778282689168e-14
2.17180461885374e-13
2.4875848923333e-14
2.41322038336297e-13
2.15601156173988e-14
2.68883742558643e-13
1.6561603367345e-14
3.01371950164799e-13
9.42886470973348e-15
3.40744336443333e-13
-5.05618597793577e-16
3.89668112000097e-13
-1.43033211849691e-14
4.51921545777613e-13
-3.364860969672e-14
5.33035447298573e-13
-6.11837676821465e-14
6.41274664924724e-13
-1.01086541333823e-13
7.89172643299933e-13
-1.59864379756449e-13
9.95914837366676e-13
-2.47715075926836e-13
1.290838056065e-12
-3.80185475474841e-13
1.7185574799684e-12
-5.80724915946286e-13
2.34572772962982e-12
-8.8329191622311e-13
3.26933585700875e-12
-1.33481736391828e-12
4.62151143443924e-12
-1.99162380383956e-12
6.55719771054813e-12
-2.89324300608057e-12
9.17095616503122e-12
-3.96191902591845e-12
1.22548184818776e-11
-4.74493243583863e-12
1.47584674554778e-11
-3.96972650660573e-12
1.43628211071017e-11
3.99688353028789e-13
8.50459511504388e-12
8.72623831782651e-12
1.36981986217536e-11
-7.48599899967446e-12
2.10613942810339e-11
-1.38401085138807e-11
1.49637824863169e-11
-1.4793022285027e-11
1.41669747518438e-12
-1.27121111315084e-11
-5.91571292444043e-12
-9.80334865119471e-12
-7.550579899026e-12
-7.1980180520651e-12
-6.50767439153803e-12
-5.18535063196952e-12
-4.87147721125505e-12
-3.72730975524949e-12
-3.4250540830962e-12
-2.69457034271249e-12
-2.34554135116591e-12
-1.96565878271566e-12
-1.59028940120793e-12
-1.4468111013187e-12
-1.07720000167597e-12
-1.07185315486763e-12
-7.32289343392842e-13
-7.95523931982024e-13
-5.00719469641829e-13
-5.87432352559269e-13
-3.44219804159615e-13
-4.27248820257671e-13
-2.37077349721601e-13
-3.01347538605135e-13
-1.62391735288879e-13
-2.00479287505446e-13
-1.09205885232342e-13
-1.18252176298861e-13
-7.05562212077581e-14
-5.01304607646589e-14
-4.19410940308255e-14
7.20845823854895e-15
-2.04947161533849e-14
5.62797460423926e-14
-4.34286902725232e-15
9.90672487618826e-14
7.72857086651385e-15
1.37199996399261e-13
1.64992810233868e-14
1.72077549506006e-13
2.25001687687677e-14
2.04959377118426e-13
2.60099433574208e-14
2.37041986298218e-13
2.71797674635027e-14
2.69512585916278e-13
2.60119911658635e-14
3.03630572461997e-13
2.23586646835092e-14
3.40776555360229e-13
1.59311992868094e-14
3.82567375377067e-13
6.2239327280631e-15
4.30964720069379e-13
-7.55970745327723e-15
4.88462483923447e-13
-2.66191592307609e-14
5.58350536781908e-13
-5.28113589668818e-14
6.45147019495763e-13
-8.90471838624194e-14
7.55256364429258e-13
-1.39855449204192e-13
8.97934229817444e-13
-2.12264421247782e-13
1.08683047890973e-12
-3.17177599556299e-13
1.34228648784324e-12
-4.71486464473641e-13
1.69473138364088e-12
-7.0083169107045e-13
2.18950017060432e-12
-1.04357576542613e-12
2.89299787471526e-12
-1.55475652761383e-12
3.89969406550341e-12
-2.30937555161198e-12
5.33315318209344e-12
-3.39284617104506e-12
7.32804663746944e-12
-4.8557655808096e-12
9.93344564180686e-12
-6.53466183297894e-12
1.28738569600683e-11
-7.65202356745232e-12
1.50139290586715e-11
-6.07521474579595e-12
1.40843280270089e-11
1.36530543084575e-12
7.63176299398926e-12
1.52136178938784e-11
2.1352458649556e-11
-4.85143365542804e-12
2.59429336568764e-11
-1.0058356106672e-11
2.02121169130848e-11
-1.14192967179376e-11
2.82023799933137e-12
-1.03403342383968e-11
-6.95326749035527e-12
-8.3794712965033e-12
-9.47112428165021e-12
-6.45967927453476e-12
-8.38787471807322e-12
-4.88063750694921e-12
-6.41147075429826e-12
-3.67413175328651e-12
-4.5930005274085e-12
-2.77582198963029e-12
-3.20577523630041e-12
-2.11054305715851e-12
-2.21798297179288e-12
-1.61452357578355e-12
-1.53612785928563e-12
-1.24005564381622e-12
-1.07015608959792e-12
-9.52877615631291e-13
-7.5177472130545e-13
-7.28898309296099e-13
-5.32538178436353e-13
-5.51232268258184e-13
-3.79520501508319e-13
-4.08014429620877e-13
-2.70800590970179e-13
-2.9079843074041e-13
-1.91997560628236e-13
-1.93481903155872e-13
-1.33805845867834e-13
-1.11544895373155e-13
-9.01380775689253e-14
-4.15610195070174e-14
-5.70372005560527e-14
1.91554643619293e-14
-3.18879906116065e-14
7.27796217631377e-14
-1.29663601042923e-14
1.21130053404624e-13
8.62553643351255e-16
1.65799522170147e-13
1.0354198654629e-14
2.08233658056807e-13
1.5934585444325e-14
2.49813278315384e-13
1.78163613629461e-14
2.91920357584373e-13
1.6001148634096e-14
3.35989539254724e-13
1.02857597426564e-14
3.83596853549978e-13
2.40146838242354e-16
4.3654610345743e-13
-1.48703869464717e-14
4.96985462198216e-13
-3.61861651260746e-14
5.6757450844257e-13
-6.54187853388808e-14
6.51708729587707e-13
-1.05159332139192e-13
7.53880747458508e-13
-1.59415987734205e-13
8.80186091411655e-13
-2.34317735814055e-13
1.03905668895721e-12
-3.39230908207817e-13
1.24237242739452e-12
-4.88506445690362e-13
1.50702232685782e-12
-7.04047217145068e-13
1.85715158705254e-12
-1.0187538272804e-12
2.32713610967167e-12
-1.48122487354317e-12
2.96496206833979e-12
-2.16011473293307e-12
3.83509461452012e-12
-3.14691000212732e-12
5.01447915394547e-12
-4.53949870687797e-12
6.57185711851524e-12
-6.38023614112196e-12
8.48476704872676e-12
-8.41432961905606e-12
1.04666531811699e-11
-9.59993840928535e-12
1.15962341444973e-11
-7.16946568130512e-12
1.02709471312928e-11
2.7273457593424e-12
4.99673363057709e-12
2.05230651870689e-11
2.6371761686181e-11
-1.97876325291612e-12
2.79526920058794e-11
-5.31796308876151e-12
2.35933110301349e-11
-6.88387551736937e-12
4.42884132368518e-12
-6.90433084146639e-12
-6.89146992377954e-12
-6.11013657729181e-12
-1.02252354835454e-11
-5.09225845500539e-12
-9.3665733441762e-12
-4.12229168594118e-12
-7.34294353952359e-12
-3.29694739802945e-12
-5.3804353297355e-12
-2.62581715683664e-12
-3.83953470310105e-12
-2.09012292686227e-12
-2.71682064313486e-12
-1.66433070453645e-12
-1.92555895842336e-12
-1.32501936387271e-12
-1.37358508822244e-12
-1.05286171762484e-12
-9.88509711760845e-13
-8.32680667284599e-13
-7.17736382918924e-13
-6.52799044994456e-13
-5.24835863069337e-13
-5.04303230310053e-13
-3.85122558735378e-13
-3.80377926660453e-13
-2.82114739024656e-13
-2.75794770767657e-13
-2.0492032811531e-13
-1.86474034921193e-13
-1.46301830211038e-13
-1.09189157912852e-13
-1.01450020803672e-13
-4.13260623542445e-14
-6.7136430874123e-14
1.92932068842746e-14
-4.12019967107064e-14
7.45233793589853e-14
-2.21893343605244e-14
1.26021929491879e-13
-9.14712097349781e-15
1.75301005767443e-13
-1.50476771960243e-15
2.23815553632076e-13
1.00570327601868e-15
2.73015765225442e-13
-1.60977762897012e-15
3.24405597786382e-13
-9.60988139140197e-15
3.7962240714122e-13
-2.35587394481978e-14
4.40506234456757e-13
-4.43942076192551e-14
5.09203594884072e-13
-7.35639972685416e-14
5.8830079694138e-13
-1.13218247892068e-13
6.80993604422738e-13
-1.66557881889053e-13
7.91324885002873e-13
-2.38436552657868e-13
9.2450158083714e-13
-3.36146648889955e-13
1.08730391309444e-12
-4.70626952131452e-13
1.28862929083981e-12
-6.58345512570579e-13
1.54014458001788e-12
-9.23975888752069e-13
1.85705643123059e-12
-1.30396047255965e-12
2.25877610757633e-12
-1.85110622058896e-12
2.76893855311974e-12
-2.63829674645234e-12
3.41354695503926e-12
-3.759391219368e-12
4.21249850580948e-12
-5.30616929013009e-12
5.15904673664723e-12
-7.29431036137934e-12
6.16311177618201e-12
-9.38557733874952e-12
6.96431447839749e-12
-1.03675905470446e-11
6.97870032849431e-12
-7.14893167721034e-12
5.45426003582762e-12
4.28804848695182e-12
2.08915725764391e-12
2.39227344890879e-11
2.84826655248658e-11
3.06745352624098e-13
2.76773594649932e-11
-1.19758847973678e-12
2.51395433100082e-11
-2.76753418796934e-12
6.04103063539553e-12
-3.65114613939563e-12
-5.96711535618097e-12
-3.85894676805855e-12
-9.97810469260762e-12
-3.65334891696316e-12
-9.53389511639253e-12
-3.25583700336121e-12
-7.70298200072297e-12
-2.80465989119705e-12
-5.7948004649844e-12
-2.3682928316211e-12
-4.23966783458173e-12
-1.97580635612197e-12
-3.07360092320882e-12
-1.63549462194257e-12
-2.23065474630807e-12
-1.34607879370866e-12
-1.62824839231377e-12
-1.10223466222921e-12
-1.19803992848177e-12
-8.97423299206402e-13
-8.88651051732819e-13
-7.25209430795874e-13
-6.63547324111219e-13
-5.79811384540732e-13
-4.9738962131734e-13
-4.5627166433151e-13
-3.72869601905614e-13
-3.50448774834366e-13
-2.78281125638971e-13
-2.58903102186469e-13
-2.05681219392984e-13
-1.78775090091492e-13
-1.49682824403203e-13
-1.07661113302221e-13
-1.06599897013185e-13
-4.35036279459197e-14
-7.39295750480706e-14
1.54884216951524e-14
-4.99471216767859e-14
7.09414269998305e-14
-3.35383481741871e-14
1.24348839212534e-13
-2.4000166682993e-14
1.77160167020233e-13
-2.1022475171472e-14
2.30813688584027e-13
-2.45893729944498e-14
2.86803914044516e-13
-3.50159838065946e-14
3.46724273440876e-13
-5.29677219208224e-14
4.12357317926576e-13
-7.9571304162537e-14
4.85726563063883e-13
-1.16515193888531e-13
5.69202025247064e-13
-1.6629712059532e-13
6.65613799877946e-13
-2.32576111222546e-13
7.78359177458202e-13
-3.20773563865144e-13
9.11537453005426e-13
-4.38882048018986e-13
1.07005453433207e-12
-5.98645957721956e-13
1.25964571966194e-12
-8.17362149543313e-13
1.48670671054362e-12
-1.12036534022007e-12
1.7577615901092e-12
-1.5442267171044e-12
2.07813659691865e-12
-2.14055790146488e-12
2.44917482563e-12
-2.97826323935832e-12
2.86270262454837e-12
-4.14169033113852e-12
3.28999574157033e-12
-5.70206909747079e-12
3.66381502271023e-12
-7.63653821428444e-12
3.84982097092868e-12
-9.53965821787317e-12
3.635335071442e-12
-1.01204723001986e-11
2.76850500229423e-12
-6.24813767278022e-12
1.23831355765827e-12
5.85348466759442e-12
-2.51835361700971e-13
2.54462713785425e-11
2.82516569318988e-11
1.73135786320444e-12
2.59767824300443e-11
1.62530647115051e-12
2.52858659356897e-11
2.06627618220211e-13
7.49975347850866e-12
-1.17764522124065e-12
-4.54438492519615e-12
-2.05442675925023e-12
-9.06435413601888e-12
-2.4300846997466e-12
-9.12241176447959e-12
-2.46672001805955e-12
-7.63139443090637e-12
-2.31510002777881e-12
-5.91216868551238e-12
-2.07744586679886e-12
-4.44366207799754e-12
-1.81377896186234e-12
-3.30412977779289e-12
-1.55598209103269e-12
-2.45578726661379e-12
-1.31906237405404e-12
-1.83294345287454e-12
-1.10849625579869e-12
-1.37679408777958e-12
-9.24718416458843e-13
-1.0410080115131e-12
-7.65732768186464e-13
-7.91481333536775e-13
-6.2855538580034e-13
-6.03864585080859e-13
-5.0999205610184e-13
-4.61056634888734e-13
-4.07002036979456e-13
-3.51199086589607e-13
-3.16843252847028e-13
-2.66047936971457e-13
-2.37096931941176e-13
-1.99893560306627e-13
-1.65646431012665e-13
-1.48747106994702e-13
-1.00621568697443e-13
-1.09859863226109e-13
-4.03550127328238e-14
-8.13045614333743e-14
1.66826657176114e-14
-6.18302276504257e-14
7.19239451781525e-14
-5.06379311226179e-14
1.26752626997338e-13
-4.73691759388758e-14
1.825439975668e-13
-5.20019641719333e-14
2.40724992388281e-13
-6.49035149445827e-14
3.02799758230616e-13
-8.68170982329849e-14
3.70416971502064e-13
-1.19015504789918e-13
4.45415482127307e-13
-1.63377192411885e-13
5.29877314452525e-13
-2.22642886762523e-13
6.26185801486438e-13
-3.00772388563538e-13
7.37036706078088e-13
-4.03498757046046e-13
8.65410674985983e-13
-5.39098879784558e-13
1.01444295069289e-12
-7.19470679850223e-13
1.18704233225686e-12
-9.61683013962329e-13
1.38513443897332e-12
-1.2900876993487e-12
1.60821479117847e-12
-1.7388251776094e-12
1.85070812704421e-12
-2.35443805980644e-12
2.09749564920733e-12
-3.19629089027936e-12
2.31647508699212e-12
-4.33175447491742e-12
2.44728097180783e-12
-5.80379857466988e-12
2.38762784398488e-12
-7.54762400710234e-12
1.98847971172882e-12
-9.11094891800255e-12
1.09426850957106e-12
-9.19605053560721e-12
-2.89120781869869e-13
-4.83328227543004e-12
-1.67443239970949e-12
7.2714010367294e-12
-1.73442581252098e-12
2.55369890944136e-11
2.65359567610311e-11
2.37853042375498e-12
2.36276570380417e-11
3.12522682350829e-12
2.45768389791225e-11
1.94864230595203e-12
8.71343030812627e-12
4.01093523403715e-13
-2.96138295747882e-12
-8.05551162733696e-13
-7.82377920025719e-12
-1.51367398994887e-12
-8.3815478862631e-12
-1.82621913447877e-12
-7.28701572191141e-12
-1.88211226998897e-12
-5.82515710436422e-12
-1.79315829436408e-12
-4.50208654348187e-12
-1.63313583435064e-12
-3.43412934636328e-12
-1.44661505320702e-12
-2.61273568081957e-12
-1.2584083222965e-12
-1.99199229132182e-12
-1.08111213205498e-12
-1.52531948851817e-12
-9.20118347253686e-13
-1.17359714473793e-12
-7.76807588491024e-13
-9.06733768718015e-13
-6.50471966430167e-13
-7.02469606771984e-13
-5.3943524466571e-13
-5.44670228943483e-13
-4.41670589423741e-13
-4.2182782040754e-13
-3.551117148441e-13
-3.25735844339557e-13
-2.77801958450124e-13
-2.50575844357692e-13
-2.07931236247766e-13
-1.92210100109324e-13
-1.43857633909017e-13
-1.47723865698541e-13
-8.40687458135651e-14
-1.15059816375119e-13
-2.71589277041777e-14
-9.28613757888375e-14
2.82049023019669e-14
-8.02573111023192e-14
8.33136292972565e-14
-7.6849074906476e-14
1.39456991835831e-13
-8.26139262296917e-14
1.97953502677684e-13
-9.79490573004072e-14
2.60192860280286e-13
-1.23669847887955e-13
3.27657091926129e-13
-1.61142159500768e-13
4.01965561932258e-13
-2.1238294078248e-13
4.84882045883979e-13
-2.80276406826246e-13
5.78328970983009e-13
-3.68940582013795e-13
6.84321659025508e-13
-4.84201487236183e-13
8.04820768763082e-13
-6.34279743477661e-13
9.41426515826856e-13
-8.30711697238386e-13
1.0947583067622e-12
-1.08958548653746e-12
1.26333345380814e-12
-1.43314853479625e-12
1.4416458763728e-12
-1.89151807140568e-12
1.61692153869183e-12
-2.50396996176983e-12
1.76408104527805e-12
-3.31756672403341e-12
1.83806643379398e-12
-4.37970789344223e-12
1.76428779229433e-12
-5.70383801498959e-12
1.43005253170797e-12
-7.18704267231559e-12
6.96776502863638e-13
-8.35106534599374e-12
-5.33699005037365e-13
-7.938382588442e-12
-2.09119585919357e-12
-3.24743335816168e-12
-3.24159367894575e-12
8.45120809047653e-12
-2.42794608768889e-12
2.47508528787346e-11
2.4124594924077e-11
2.47766908427334e-12
2.11766945586914e-11
3.60998035044093e-12
2.34778588879178e-11
2.70552489026736e-12
9.65016468469054e-12
1.23331244004714e-12
-1.45846813558432e-12
-4.32222664414724e-14
-6.51799289057695e-12
-8.83715230128674e-13
-7.51295979680167e-12
-1.33872551850318e-12
-6.80479543616551e-12
-1.52053462614547e-12
-5.61682776052982e-12
-1.5331299582664e-12
-4.463528962068e-12
-1.45086732349106e-12
-3.49090330286002e-12
-1.32221577157707e-12
-2.71631658484149e-12
-1.17637450871958e-12
-2.11314514660492e-12
-1.02985727908129e-12
-1.6475052711187e-12
-8.91177660367942e-13
-1.2882841964755e-12
-7.64076090805884e-13
-1.01016497315578e-12
-6.49576978801816e-13
-7.93604177480018e-13
-5.47242377180308e-13
-6.23928657968604e-13
-4.55928002042332e-13
-4.90335635989559e-13
-3.74184144319065e-13
-3.84922566879088e-13
-3.00495052513512e-13
-3.01936965571155e-13
-2.33367814476937e-13
-2.37217097466078e-13
-1.71389056064186e-13
-1.87769350322001e-13
-1.13215881090766e-13
-1.51465626569546e-13
-5.75830261992217e-14
-1.26872644994323e-13
-3.27352901159321e-15
-1.13071642923529e-13
5.08993953285387e-14
-1.09635601905097e-13
1.06119858610492e-13
-1.16539346231381e-13
1.63589773600546e-13
-1.34199383932629e-13
2.24563590827832e-13
-1.63484572626375e-13
2.90347950916683e-13
-2.05813669850988e-13
3.62328455882832e-13
-2.63282721944319e-13
4.41958255116371e-13
-3.38844016844913e-13
5.30714961290641e-13
-4.36640248869281e-13
6.29986939677634e-13
-5.6240675418738e-13
7.40855436239336e-13
-7.24057019715211e-13
8.63668177534387e-13
-9.32392374416094e-13
9.97310880487736e-13
-1.20203852586289e-12
1.13791972368235e-12
-1.55249211411215e-12
1.2768280031201e-12
-2.00906687797379e-12
1.39729178531505e-12
-2.60296238679161e-12
1.46974799728704e-12
-3.36842591648929e-12
1.4450949138256e-12
-4.33332787936365e-12
1.24795444571023e-12
-5.48484520608069e-12
7.73088972922702e-13
-6.6901956719908e-12
-9.20782013164114e-14
-7.46370947115549e-12
-1.394427241215e-12
-6.61334300696562e-12
-2.88148643281658e-12
-1.7366393264562e-12
-3.76494110961086e-12
9.35929248025404e-12
-2.55537177649749e-12
2.35641793162818e-11
2.15825691943634e-11
2.26394177102316e-12
1.89360951391111e-11
3.46602553474836e-12
2.2304082340926e-11
2.81946221625817e-12
1.03238060052605e-11
1.55173047639613e-12
-1.65132783832644e-13
3.65124258741054e-13
-5.30712506059026e-12
-4.75574126485624e-13
-6.64908309236673e-12
-9.79075236271328e-13
-6.27894795063813e-12
-1.22578613369243e-12
-5.34841457417471e-12
-1.30242210658581e-12
-4.36570693841566e-12
-1.27584806116427e-12
-3.49672646458528e-12
-1.19257167388667e-12
-2.77922487444078e-12
-1.08234935204208e-12
-2.20335019090182e-12
-9.63206646513677e-13
-1.74695932043253e-12
-8.4533130269644e-13
-1.38678508379865e-12
-7.33980382661199e-13
-1.10244075778069e-12
-6.31425154294872e-13
-8.77370483906599e-13
-5.38195665929767e-13
-6.98639458151978e-13
-4.53879123063186e-13
-5.56387641682527e-13
-3.77579127135932e-13
-4.43193272318367e-13
-3.08174818570951e-13
-3.53528103271236e-13
-2.44478585624716e-13
-2.83296486588259e-13
-1.85298989368633e-13
-2.2950835101542e-13
-1.29472027481822e-13
-1.90008349851561e-13
-7.58747715856453e-14
-1.63323514336085e-13
-2.34093228543222e-14
-1.48509683606078e-13
2.8997236528447e-14
-1.45116895610595e-13
8.24186957762862e-14
-1.53120904113837e-13
1.37933655586165e-13
-1.72945357415177e-13
1.96654258942593e-13
-2.05492714001962e-13
2.59715177017264e-13
-2.52204891277912e-13
3.28272005053561e-13
-3.15200034870303e-13
4.03478268431263e-13
-3.97428505808467e-13
4.86404358443355e-13
-5.02949897386289e-13
5.7789319759584e-13
-6.37271177474824e-13
6.78290507152062e-13
-8.0780888879613e-13
7.86968783560425e-13
-1.02438962821711e-12
9.01564113960403e-13
-1.29990259077719e-12
1.01669077032973e-12
-1.65082120291954e-12
1.12198611450393e-12
-2.09748278048139e-12
1.19917269582093e-12
-2.66317184367622e-12
1.21809321744051e-12
-3.37026221728963e-12
1.13157037721148e-12
-4.22961250103361e-12
8.71716562679994e-13
-5.20770064995045e-12
3.50573688690968e-13
-6.1516687286378e-12
-5.12639051764968e-13
-6.58295641825461e-12
-1.72350591976642e-12
-5.38451493579862e-12
-3.00596430096355e-12
-4.35302538474393e-13
-3.63383935081745e-12
1.00068648864305e-11
-2.35261591883561e-12
2.23010691036915e-11
1.92403025639902e-11
1.91573431453419e-12
1.70392947216294e-11
3.01692549742682e-12
2.12249502182792e-11
2.58892827701219e-12
1.0772416151586e-11
1.56890300263194e-12
8.74251683609637e-13
5.47691636487265e-13
-4.26769192618845e-12
-2.20916300422119e-13
-5.8631970847211e-12
-7.15572035898409e-13
-5.76774774531791e-12
-9.86502931581401e-13
-5.06150688159129e-12
-1.10011749136269e-12
-4.23656993761748e-12
-1.11207247948177e-12
-3.46963304341588e-12
-1.06368189191252e-12
-2.81281768705309e-12
-9.8289638999551e-13
-2.26965323308297e-12
-8.87632737287658e-13
-1.82803908825763e-12
-7.88707938276849e-13
-1.47181381348876e-12
-6.9223113574656e-13
-1.18529783887082e-12
-6.01312417279083e-13
-9.54935371236287e-13
-5.17213234221581e-13
-7.69636783898197e-13
-4.40112829620419e-13
-6.20623540800317e-13
-3.69578553730377e-13
-5.01083443222452e-13
-3.04848959184747e-13
-4.05816357591727e-13
-2.45016510521401e-13
-3.30871565233152e-13
-1.89103329508731e-13
-2.7332979291227e-13
-1.36115167176888e-13
-2.31051406669701e-13
-8.50718083518401e-14
-2.02550451998966e-13
-3.49966975370975e-14
-1.86879580471787e-13
1.5066524459421e-14
-1.83570071918455e-13
6.60784875199247e-14
-1.92602391993568e-13
1.18995605548933e-13
-2.1439746513554e-13
1.74788045488444e-13
-2.49872436767167e-13
2.34418607713324e-13
-3.00462659245025e-13
2.98831320950882e-13
-3.68267835895648e-13
3.68897119502893e-13
-4.56165937256342e-13
4.45330446535532e-13
-5.68060112878898e-13
5.28506361286726e-13
-7.09117806514394e-13
6.18176447317563e-13
-8.86131482349894e-13
7.12989642747629e-13
-1.10782578924851e-12
8.09737950498895e-13
-1.38523167247751e-12
9.02180693243453e-13
-1.73178920915282e-12
9.79325545449032e-13
-2.1630849758031e-12
1.02300318635164e-12
-2.69522801473986e-12
1.00487528832235e-12
-3.3404294481553e-12
8.83009115562135e-13
-4.09596294800765e-12
6.00857474802607e-13
-4.91370357708174e-12
9.10095966127111e-14
-5.62992726391577e-12
-6.96905668441012e-13
-5.78305267706715e-12
-1.73859540286852e-12
-4.33051003950356e-12
-2.76998186370285e-12
6.0917400351986e-13
-3.179234738988e-12
1.04298545389829e-11
-2.00264408567474e-12
2.11369471814374e-11
1.72442801741346e-11
1.54411289366765e-12
1.55095568068034e-11
2.47788305975981e-12
2.03070665914665e-11
2.22017077819351e-12
1.10446415348375e-11
1.43805519147699e-12
1.66985888075792e-12
6.01331692928921e-13
-3.41840361928977e-12
-6.50082287911533e-14
-5.18508150811817e-12
-5.20625407529616e-13
-5.30097855354717e-12
-7.90972421756218e-13
-4.78049374079758e-12
-9.23168537631251e-13
-4.09409954442725e-12
-9.60913966449845e-13
-3.42194749539801e-12
-9.38999656489505e-13
-2.8250924178848e-12
-8.8232055381485e-13
-2.3169754468408e-12
-8.07689705875096e-13
-1.89358466443954e-12
-7.25829340171179e-13
-1.54485319387788e-12
-6.43212660140867e-13
-1.259349598317e-12
-5.63458131799168e-13
-1.02637246080663e-12
-4.88347135206634e-13
-8.36665954506212e-13
-4.18523613693633e-13
-6.82587771418463e-13
-3.53935035898676e-13
-5.5801934015704e-13
-2.94140416904458e-13
-4.58148716533187e-13
-2.38472696336355e-13
-3.79249930884552e-13
-1.86158824923101e-13
-3.18509417567873e-13
-1.36368653814773e-13
-2.73844840608457e-13
-8.82590842592692e-14
-2.43783588005995e-13
-4.09769321156001e-14
-2.27389271667427e-13
6.32237643824474e-15
-2.24185706442677e-13
5.448293970762e-14
-2.34153116467278e-13
1.04345135750312e-13
-2.5771036784982e-13
1.5673536121901e-13
-2.95761324240157e-13
2.12456034543747e-13
-3.49718613961752e-13
2.72250661107007e-13
-4.2162338747614e-13
3.36740815007344e-13
-5.14231923974593e-13
4.06329176190883e-13
-6.31229494668492e-13
4.81006544424638e-13
-7.7737148986647e-13
5.60061553067567e-13
-9.58747893496541e-13
6.41628394929572e-13
-1.18292889855787e-12
7.21988007813252e-13
-1.45909270827372e-12
7.94545499752234e-13
-1.79780293201066e-12
8.48412401698542e-13
-2.21035412950073e-12
8.66539434712053e-13
-2.70669708365022e-12
8.23686667124543e-13
-3.29085869001795e-12
6.84544614678273e-13
-3.95005308219612e-12
4.047303389764e-13
-4.62709380611413e-12
-6.35549889534221e-14
-5.15483850583205e-12
-7.45554947883972e-13
-5.09420761592941e-12
-1.5980004836147e-12
-3.47098172966283e-12
-2.38668739236958e-12
1.40556324888863e-12
-2.6243625111626e-12
1.06757949757918e-11
-1.6220170355259e-12
2.01418490151235e-11
1.56257478320797e-11
1.2063838783983e-12
1.43125807017457e-11
1.96616769547158e-12
1.95566322483402e-11
1.83215154999451e-12
1.11866825135128e-11
1.25308248653552e-12
2.25624422697407e-12
5.89139761363243e-13
-2.74780399283206e-12
3.01832631673191e-14
-4.62006740176877e-12
-3.73619934358487e-13
-4.89160748862306e-12
-6.29466601199999e-13
-4.51946843116371e-12
-7.68188669310401e-13
-3.95051855765796e-12
-8.22441803129501e-13
-3.36311471409002e-12
-8.20366560002497e-13
-2.82284662487902e-12
-7.8329548794085e-13
-2.34997471704866e-12
-7.26389711428578e-13
-1.9466624931619e-12
-6.59805297165975e-13
-1.60785006987881e-12
-5.90011738355194e-13
-1.32579104490919e-12
-5.20880444313263e-13
-1.09238050140984e-12
-4.54538336890309e-13
-9.00103483067424e-13
-3.91970858073914e-13
-7.42457637546351e-13
-3.33433345175145e-13
-6.14052014005032e-13
-2.78753615142563e-13
-5.10501170195809e-13
-2.27480295106231e-13
-4.28356202616831e-13
-1.79027510610958e-13
-3.64940040846136e-13
-1.32717209974384e-13
-3.18260475899134e-13
-8.78381175712295e-14
-2.86879856841591e-13
-4.36581849012795e-14
-2.69882155628671e-13
5.57502056645567e-16
-2.66795834679936e-13
4.55374776567819e-14
-2.77595296116834e-13
9.20059902249304e-14
-3.02696320748135e-13
1.40653788869145e-13
-3.42970377374219e-13
1.92135051980081e-13
-3.99794233411806e-13
2.47005690567862e-13
-4.75111223615627e-13
3.05671381035182e-13
-5.71528362366573e-13
3.68267110125277e-13
-6.92460527672762e-13
4.34478777699627e-13
-8.42214364505981e-13
5.03252925551156e-13
-1.02614111643828e-12
5.72386655371265e-13
-1.25066129601325e-12
6.37909416572628e-13
-1.52318602505464e-12
6.93241891569973e-13
-1.85167160701967e-12
7.28075200681467e-13
-2.24368427314599e-12
7.27042499756023e-13
-2.70412078339324e-12
6.6852452946532e-13
-3.23076236379077e-12
5.23987649070818e-13
-3.80391967667092e-12
2.60306277389002e-13
-4.36182583369224e-12
-1.53706132203281e-13
-4.73927566921368e-12
-7.24690323820238e-13
-4.52169102502916e-12
-1.39956044857332e-12
-2.79444194582571e-12
-1.9803302438238e-12
1.98845327832124e-12
-2.09281566407146e-12
1.07907689701278e-11
-1.27241927079826e-12
1.93232844507644e-11
1.43533722279241e-11
9.24706308895707e-13
1.33927805504875e-11
1.53106728648368e-12
1.89539218169134e-11
1.48150477867873e-12
1.12388306997817e-11
1.06395393821703e-12
2.67595121476635e-12
5.48149647553795e-13
-2.23026746245076e-12
8.90566642857914e-14
-4.15966698113294e-12
-2.60161331602873e-13
-4.54144794332505e-12
-4.94481449287696e-13
-4.28450845273808e-12
-6.32031412570905e-13
-3.8125840804785e-12
-6.96085463008208e-13
-3.29890848720476e-12
-7.08631136513182e-13
-2.81037077882243e-12
-6.8739778193913e-13
-2.37149831781335e-12
-6.45639816380589e-13
-1.98893040868904e-12
-5.92663886097013e-13
-1.66155637896825e-12
-5.34676068799539e-13
-1.38472669582345e-12
-4.75602787366839e-13
-1.15261385044488e-12
-4.1775892853568e-13
-9.59310728365146e-13
-3.62370856661117e-13
-7.99402157297801e-13
-3.09937125444131e-13
-6.68221848926203e-13
-2.60498370307644e-13
-5.61841507047769e-13
-2.13797893627734e-13
-4.771079890589e-13
-1.69411428097035e-13
-4.1151213245951e-13
-1.26806422771787e-13
-3.63169830760897e-13
-8.53948127175367e-14
-3.30699099920699e-13
-4.45633349167707e-14
-3.13210122024167e-13
-3.6849199006082e-15
-3.10245286217843e-13
3.78591514363708e-14
-3.21772702323824e-13
8.06784267471937e-14
-3.481992221499e-13
1.25339286970554e-13
-3.9035412308417e-13
1.72350908581077e-13
-4.49558283512657e-13
2.22107291661589e-13
-5.27640363084352e-13
2.74826007819534e-13
-6.27031745023176e-13
3.30422134407728e-13
-7.50844968848073e-13
3.88344658689989e-13
-9.02921798672226e-13
4.47303213694322e-13
-1.08787386314058e-12
5.04909587525287e-13
-1.31102537696055e-12
5.57147822934104e-13
-1.57815969552932e-12
5.97710179253734e-13