/*--------------------------------*- C++ -*----------------------------------*\
  =========                 |
  \\      /  F ield         | OpenFOAM: The Open Source CFD Toolbox
   \\    /   O peration     | Website:  https://openfoam.org
    \\  /    A nd           | Version:  10
     \\/     M anipulation  |
\*---------------------------------------------------------------------------*/
FoamFile
{
    format      ascii;
    class       volScalarField;
    location    "8.6";
    object      rho;
}
// * * * * * * * * * * * * * * * * * * * * * * * * * * * * * * * * * * * * * //

dimensions      [1 -3 0 0 0 0 0];

internalField   nonuniform List<scalar> 
2500
(
1.14597903511977
1.14598657740666
1.14601898324974
1.14604586791056
1.1460641698732
1.14607576474605
1.14608285840953
1.14608709191391
1.14608954992564
1.14609092874018
1.146091680154
1.14609207354698
1.14609227200343
1.14609237054125
1.14609241843788
1.14609244236959
1.14609245323184
1.14609245947457
1.14609246381814
1.14609246641217
1.14609246831768
1.14609246981516
1.14609247098081
1.14609247169406
1.1460924723912
1.14609247291498
1.1460924730655
1.14609247301891
1.1460924727219
1.14609247210582
1.14609247102392
1.14609246892467
1.14609246571551
1.1460924598242
1.14609244820223
1.14609242428152
1.14609237459207
1.14609227308235
1.14609206650995
1.14609166490061
1.14609090615772
1.1460895193608
1.14608706591702
1.14608285419217
1.14607579463686
1.1460642439437
1.14604592603962
1.14601889176126
1.14598635244028
1.1459793512146
1.14869645007851
1.1487617434338
1.14885773503646
1.1489345422704
1.14898729923205
1.14902129313204
1.14904251237
1.14905544356212
1.14906311715751
1.14906752976926
1.14906998304942
1.14907129770697
1.14907197651995
1.14907231530025
1.14907247886181
1.14907255580034
1.14907259062367
1.14907260667837
1.14907261451959
1.14907261839575
1.1490726205908
1.14907262203726
1.14907262306503
1.14907262373859
1.14907262431188
1.14907262474487
1.14907262493138
1.1490726249402
1.14907262471492
1.14907262405092
1.14907262247627
1.14907261886148
1.14907261106996
1.14907259392961
1.14907255635602
1.14907247504282
1.14907230330671
1.1490719514705
1.14907125261714
1.14906991422941
1.14906743797748
1.14906301128629
1.14905535219519
1.14904248106902
1.14902136540955
1.14898746307095
1.14893460171848
1.14885728672838
1.14876076016143
1.14869799464584
1.15157558775989
1.15170359873158
1.15184747744604
1.15195802877586
1.15203306657712
1.15208115027564
1.15211107028018
1.15212927484303
1.15214007602536
1.15214629516208
1.15214975855492
1.15215161934908
1.15215258304146
1.15215306456246
1.15215329686576
1.15215340534124
1.15215345424452
1.1521534759793
1.15215348573417
1.15215349016029
1.15215349235324
1.152153493623
1.15215349445595
1.15215349500268
1.15215349543228
1.15215349575864
1.15215349593158
1.15215349598054
1.15215349582728
1.15215349518225
1.15215349341219
1.15215348901515
1.152153478691
1.15215345512988
1.15215340255052
1.15215328781131
1.15215304468145
1.15215254615003
1.15215155790883
1.15214966742913
1.15214617488482
1.15213993883774
1.1521291544631
1.15211102057619
1.1520812171278
1.15203319631051
1.15195788532122
1.1518463804585
1.15170125312385
1.15157589588833
1.15430222003885
1.15447210279384
1.154634617815
1.15475443608557
1.15483376125125
1.15488353749561
1.15491392273721
1.15493209587781
1.15494271897948
1.1549487582106
1.15495208430214
1.15495385422879
1.15495476310287
1.15495521354469
1.15495542909249
1.15495552879138
1.15495557332333
1.15495559274676
1.154955601158
1.15495560481033
1.15495560650506
1.15495560742534
1.15495560800922
1.15495560839234
1.15495560868131
1.15495560890645
1.15495560904907
1.15495560912158
1.15495560908728
1.15495560866919
1.15495560728699
1.15495560363606
1.15495559464205
1.15495557366561
1.15495552621343
1.15495542146065
1.15495519719631
1.15495473285654
1.15495380372433
1.15495200826396
1.15494865534646
1.15494259732645
1.1549319802532
1.15491385328333
1.15488353791987
1.15483373099331
1.15475393630695
1.15463275471229
1.1544681800925
1.15429941088315
1.15665016086658
1.15683212688961
1.15698839391517
1.15709914209788
1.1571705180619
1.15721428597763
1.1572404526727
1.15725581978012
1.15726466561097
1.15726963119536
1.15727233756236
1.15727376538403
1.15727449335499
1.15727485188257
1.15727502244628
1.15727510083826
1.15727513561054
1.15727515058319
1.15727515690725
1.15727515955179
1.1572751607074
1.15727516129708
1.15727516166112
1.15727516189791
1.1572751620708
1.1572751622112
1.15727516231662
1.15727516239408
1.15727516242813
1.15727516221517
1.15727516130275
1.15727515867626
1.15727515191638
1.15727513587755
1.157275099238
1.15727501763687
1.15727484152107
1.15727447400183
1.15727373267517
1.15727228737912
1.15726956151148
1.15726458012035
1.1572557327126
1.15724038636613
1.1572142392957
1.15717035813731
1.15709838210326
1.15698601629067
1.15682701230993
1.15664411822645
1.15850917062233
1.15867715472435
1.15881030335616
1.15890125222663
1.15895829805126
1.15899246479124
1.1590124639821
1.15902399669343
1.15903053650778
1.15903416407738
1.15903612274573
1.15903714858138
1.15903766863224
1.15903792358179
1.1590380443814
1.15903809966297
1.15903812405424
1.1590381344504
1.15903813875082
1.15903814048355
1.15903814119148
1.15903814152474
1.15903814172393
1.15903814185144
1.15903814194095
1.15903814201907
1.15903814209011
1.1590381421585
1.1590381422119
1.15903814214118
1.15903814162548
1.15903813992908
1.15903813535366
1.15903812432326
1.15903809892924
1.15903804197664
1.15903791828567
1.15903765857983
1.15903713130281
1.15903609567018
1.15903412546842
1.15903048751928
1.15902394402431
1.15901241676763
1.1589924062725
1.15895808804087
1.15890041714092
1.15880781506927
1.15867161026652
1.15850102977959
1.15987360079765
1.16001174643547
1.16011449233281
1.1601823185412
1.16022374170326
1.16024797782359
1.1602618695932
1.16026973790224
1.1602741356597
1.16027654799734
1.16027783966779
1.1602785120344
1.16027885138797
1.16027901721226
1.16027909557487
1.16027913133288
1.16027914704426
1.16027915368172
1.16027915637448
1.16027915741772
1.16027915781007
1.16027915797237
1.16027915806398
1.16027915812115
1.16027915815818
1.16027915819571
1.16027915823976
1.16027915829306
1.16027915834322
1.16027915834313
1.1602791580933
1.16027915709976
1.16027915425478
1.16027914728104
1.16027913111748
1.16027909466032
1.16027901510106
1.16027884727506
1.16027850479026
1.16027782801275
1.16027653089385
1.16027411335362
1.16026971323642
1.160261844977
1.16024793218346
1.1602235501573
1.16018157012082
1.16011225417365
1.16000654826193
1.15986492650301
1.16080802349574
1.16091125857755
1.1609840900907
1.16103067357506
1.16105839802902
1.16107425147005
1.16108315283875
1.1610881066966
1.16109083708047
1.16109231919911
1.16109310686106
1.1610935147669
1.16109371994953
1.16109381999407
1.16109386719684
1.16109388869642
1.16109389811105
1.16109390205587
1.1610939036255
1.1610939042082
1.16109390440487
1.16109390446807
1.16109390449908
1.16109390451748
1.16109390452608
1.16109390454022
1.16109390456542
1.16109390460316
1.16109390464585
1.1610939046693
1.16109390456649
1.16109390403516
1.16109390239051
1.16109389828467
1.16109388870583
1.16109386699949
1.16109381946187
1.16109371884351
1.1610935127112
1.16109310338924
1.16109231390344
1.16109083013832
1.16108809954185
1.16108314580455
1.16107422674053
1.1610582586778
1.16103009749859
1.1609823099116
1.16090693310988
1.16080012975496
1.16140847183897
1.16147952411549
1.16152744087945
1.16155720482223
1.16157448503716
1.16158414821285
1.1615894653621
1.16159237393966
1.16159395543659
1.16159480543948
1.16159525411069
1.16159548546004
1.1615956015406
1.16159565806666
1.16159568471678
1.16159569684208
1.16159570213667
1.16159570433762
1.16159570519627
1.16159570550166
1.16159570558754
1.16159570559977
1.16159570560408
1.16159570560545
1.16159570560197
1.16159570560441
1.16159570561778
1.16159570564224
1.16159570567425
1.16159570569954
1.16159570566823
1.16159570540664
1.16159570451531
1.16159570224408
1.16159569690865
1.16159568477154
1.16159565812539
1.16159560159887
1.16159548547517
1.16159525401352
1.16159480520379
1.16159395538743
1.16159237518619
1.16158946830651
1.16158414105465
1.16157440092498
1.16155681341749
1.1615261648321
1.16147627101901
1.16140210315878
1.16177226811401
1.16181775365709
1.16184724900508
1.16186507959762
1.16187518904531
1.16188072142618
1.16188370608897
1.16188531135215
1.16188617269563
1.1618866312662
1.16188687181961
1.1618869954039
1.16188705730191
1.16188708742588
1.16188710162715
1.16188710808519
1.1618871108981
1.16188711205814
1.16188711250159
1.16188711264866
1.16188711267869
1.16188711267419
1.16188711266835
1.16188711266292
1.16188711265789
1.16188711265769
1.16188711266406
1.16188711267875
1.16188711270039
1.16188711271991
1.161887112716
1.16188711259701
1.16188711214267
1.16188711095419
1.16188710814099
1.16188710172125
1.16188708760628
1.16188705762657
1.16188699593193
1.16188687261971
1.16188663246806
1.16188617470869
1.16188531521743
1.1618837127299
1.1618807245593
1.16187514716849
1.16186484112331
1.16184641341001
1.1618155124673
1.16176761071907
1.16198098417908
1.16200827626405
1.1620253739209
1.16203545246334
1.16204103907181
1.16204403317294
1.16204561760846
1.16204645569456
1.16204689956445
1.16204713371626
1.16204725583822
1.16204731838374
1.16204734967274
1.16204736490026
1.16204737208218
1.16204737534792
1.16204737676709
1.16204737734753
1.16204737756468
1.16204737762928
1.16204737763568
1.16204737762872
1.16204737762157
1.16204737761548
1.16204737761117
1.16204737761004
1.16204737761289
1.1620473776215
1.162047377635
1.16204737764875
1.16204737765289
1.16204737760203
1.16204737738256
1.16204737679095
1.16204737537884
1.16204737214817
1.16204736504066
1.16204734994049
1.16204731884233
1.16204725657175
1.16204713487566
1.16204690153564
1.16204645939863
1.16204562424206
1.16204404019944
1.16204102311781
1.16203532104256
1.16202486895926
1.16200684712148
1.161977851068
1.16209480572963
1.16211024934917
1.16211963317144
1.16212503652816
1.16212796801939
1.16212950783005
1.1621303074816
1.16213072355947
1.16213094109899
1.16213105483082
1.16213111382607
1.16213114396071
1.16213115902542
1.16213116636066
1.16213116982333
1.16213117139825
1.16213117208113
1.16213117235798
1.1621311724582
1.16213117248388
1.16213117248343
1.16213117247804
1.16213117247245
1.16213117246778
1.16213117246476
1.16213117246361
1.16213117246485
1.1621311724697
1.16213117247754
1.16213117248624
1.16213117249099
1.16213117247072
1.16213117236973
1.16213117208819
1.16213117141024
1.16213116985603
1.16213116643742
1.16213115917884
1.1621311442322
1.16213111427569
1.16213105557593
1.16213094244003
1.16213072621973
1.16213031260114
1.16212951488484
1.1621279650279
1.16212497084976
1.16211934935206
1.16210939886677
1.16209284606703
1.16215400736541
1.16216229129627
1.16216718985496
1.16216994976584
1.16217141691889
1.16217217278619
1.16217255818127
1.16217275548036
1.16217285732012
1.16217291009372
1.16217293732702
1.16217295120593
1.16217295814233
1.16217296152285
1.16217296312064
1.16217296384771
1.16217296416227
1.16217296428859
1.16217296433241
1.16217296434183
1.16217296434015
1.16217296433644
1.16217296433278
1.16217296432978
1.1621729643279
1.16217296432707
1.16217296432761
1.1621729643302
1.16217296433448
1.16217296433951
1.16217296434299
1.1621729643355
1.16217296429093
1.1621729641623
1.16217296384974
1.16217296313206
1.16217296155492
1.16217295821097
1.16217295133205
1.16217293754427
1.16217291047719
1.16217285807377
1.16217275711117
1.16217256158697
1.16217217826567
1.16217141889293
1.16216992013562
1.16216704058049
1.16216181577918
1.16215285841815
1.16218346336395
1.16218769382156
1.16219013561518
1.16219148381626
1.16219218683297
1.16219254235126
1.1621927204072
1.16219281010917
1.16219285582183
1.16219287930281
1.16219289135949
1.16219289749175
1.16219290055682
1.1621929020525
1.1621929027605
1.16219290308289
1.16219290322205
1.16219290327736
1.16219290329559
1.16219290329869
1.16219290329731
1.16219290329506
1.16219290329292
1.16219290329119
1.16219290329012
1.16219290328961
1.16219290328984
1.16219290329116
1.16219290329337
1.16219290329607
1.16219290329814
1.16219290329561
1.1621929032767
1.16219290322006
1.1621929030812
1.16219290276199
1.1621929020616
1.16219290057977
1.16219289753694
1.16219289144266
1.16219287946614
1.16219285618992
1.16219281100443
1.16219272244779
1.16219254602287
1.16219218980008
1.16219147195029
1.16219006180106
1.16218744262904
1.1621828278148
1.16219751846298
1.1621995830398
1.16220074927381
1.16220138123378
1.16220170482808
1.16220186558255
1.16220194470643
1.16220198394066
1.16220200368062
1.16220201373165
1.16220201886742
1.16220202147503
1.16220202277891
1.16220202341617
1.16220202371837
1.16220202385608
1.16220202391537
1.16220202393868
1.16220202394596
1.16220202394682
1.16220202394592
1.16220202394467
1.16220202394352
1.16220202394259
1.16220202394203
1.16220202394175
1.16220202394185
1.16220202394249
1.16220202394357
1.16220202394493
1.16220202394605
1.16220202394528
1.1622020239375
1.16220202391339
1.16220202385377
1.16220202371659
1.16220202341624
1.16220202278255
1.16220202148463
1.16220201888914
1.1622020137869
1.16220200383935
1.16220198439166
1.1622019458338
1.16220186780011
1.16220170728128
1.16220137720622
1.16220071483429
1.16219945707714
1.16219718500685
1.16220396186419
1.16220492789682
1.16220546320098
1.16220574828286
1.16220589178087
1.16220596186503
1.16220599578408
1.16220601234215
1.16220602056725
1.16220602471853
1.16220602682956
1.16220602789977
1.16220602843525
1.16220602869744
1.16220602882202
1.16220602887883
1.16220602890323
1.1622060289127
1.16220602891547
1.16220602891565
1.16220602891515
1.1622060289145
1.16220602891392
1.16220602891346
1.16220602891318
1.16220602891304
1.16220602891308
1.16220602891337
1.16220602891388
1.16220602891452
1.16220602891507
1.16220602891486
1.16220602891177
1.16220602890183
1.16220602887701
1.1622060288199
1.16220602869518
1.16220602843293
1.1622060278975
1.16220602682923
1.16220602473012
1.16220602062736
1.1622060125538
1.16220599636693
1.1622059631007
1.16220589341715
1.16220574729233
1.16220544800131
1.1622048676917
1.16220379517482
1.16220680159271
1.16220723623054
1.16220747298847
1.16220759707256
1.16220765853598
1.16220768807222
1.16220770213603
1.16220770889673
1.16220771221248
1.16220771387123
1.16220771471076
1.16220771513577
1.16220771534861
1.16220771545303
1.16220771550275
1.16220771552543
1.16220771553515
1.16220771553886
1.16220771553988
1.16220771553988
1.16220771553962
1.1622077155393
1.16220771553903
1.16220771553881
1.16220771553867
1.1622077155386
1.16220771553862
1.16220771553875
1.16220771553897
1.16220771553926
1.16220771553952
1.16220771553947
1.16220771553827
1.16220771553428
1.16220771552426
1.16220771550118
1.16220771545091
1.16220771534562
1.16220771513145
1.16220771470541
1.16220771386919
1.16220771223178
1.16220770899024
1.16220770242095
1.16220768871669
1.16220765949858
1.16220759705647
1.16220746663371
1.1622072087067
1.16220672190085
1.16220800201223
1.16220819053269
1.1622082916722
1.16220834390266
1.16220836938866
1.16220838144911
1.16220838710232
1.16220838977925
1.16220839107555
1.16220839171829
1.16220839204205
1.16220839220574
1.16220839228779
1.16220839232812
1.16220839234736
1.16220839235615
1.16220839235989
1.1622083923613
1.16220839236166
1.16220839236163
1.1622083923615
1.16220839236135
1.16220839236122
1.16220839236112
1.16220839236106
1.16220839236102
1.16220839236103
1.16220839236108
1.16220839236117
1.1622083923613
1.16220839236141
1.16220839236141
1.16220839236095
1.1622083923594
1.16220839235546
1.16220839234639
1.16220839232669
1.1622083922856
1.16220839220237
1.16220839203735
1.16220839171404
1.16220839108017
1.16220838981846
1.16220838723502
1.16220838176684
1.16220836990686
1.16220834409263
1.16220828915483
1.16220817845994
1.16220796545328
1.16220848398121
1.16220856299247
1.16220860481057
1.16220862611541
1.16220863636667
1.16220864114772
1.16220864335528
1.16220864438531
1.16220864487782
1.16220864511982
1.16220864524113
1.16220864530237
1.16220864533309
1.16220864534822
1.16220864535544
1.16220864535874
1.16220864536013
1.16220864536064
1.16220864536076
1.16220864536073
1.16220864536067
1.1622086453606
1.16220864536054
1.1622086453605
1.16220864536047
1.16220864536045
1.16220864536045
1.16220864536047
1.1622086453605
1.16220864536055
1.1622086453606
1.1622086453606
1.16220864536043
1.16220864535985
1.16220864535834
1.16220864535488
1.16220864534738
1.16220864533177
1.1622086453003
1.16220864523812
1.16220864511656
1.16220864487808
1.16220864440101
1.1622086434145
1.16220864129686
1.16220863662697
1.16220862628161
1.16220860386699
1.16220855789794
1.16220846784107
1.16220866186491
1.16220869392939
1.16220871069638
1.16220871913299
1.16220872313998
1.16220872498332
1.16220872582224
1.16220872620807
1.16220872639023
1.1622087264789
1.16220872652311
1.16220872654538
1.16220872655656
1.16220872656206
1.16220872656468
1.16220872656587
1.16220872656636
1.16220872656654
1.16220872656657
1.16220872656655
1.16220872656652
1.16220872656648
1.16220872656646
1.16220872656643
1.16220872656642
1.16220872656641
1.1622087265664
1.16220872656641
1.16220872656642
1.16220872656644
1.16220872656646
1.16220872656646
1.1622087265664
1.16220872656619
1.16220872656564
1.16220872656436
1.16220872656158
1.16220872655582
1.16220872654424
1.16220872652143
1.16220872647694
1.16220872638961
1.16220872621409
1.16220872584767
1.16220872505032
1.16220872326345
1.16220871923706
1.16220871036296
1.16220869185611
1.16220865498991
1.16220871518475
1.16220872780835
1.1622087343386
1.16220873758716
1.16220873911156
1.16220873980381
1.16220874011452
1.1622087402554
1.16220874032104
1.16220874035267
1.16220874036834
1.1622087403762
1.16220874038013
1.16220874038206
1.16220874038297
1.16220874038337
1.16220874038353
1.16220874038358
1.16220874038358
1.16220874038356
1.16220874038354
1.16220874038353
1.16220874038351
1.1622087403835
1.16220874038349
1.16220874038348
1.16220874038348
1.16220874038348
1.16220874038348
1.16220874038349
1.16220874038349
1.1622087403835
1.16220874038348
1.16220874038341
1.16220874038322
1.16220874038277
1.16220874038178
1.16220874037973
1.16220874037559
1.16220874036746
1.16220874035162
1.16220874032048
1.16220874025758
1.16220874012504
1.16220873983271
1.16220873916728
1.16220873764305
1.16220873422835
1.16220872699286
1.16220871235278
1.16220871902435
1.16220872385393
1.16220872632817
1.16220872754616
1.16220872811133
1.16220872836485
1.1622087284771
1.16220872852726
1.16220872855031
1.16220872856127
1.16220872856664
1.16220872856931
1.16220872857063
1.16220872857126
1.16220872857155
1.16220872857166
1.1622087285717
1.1622087285717
1.16220872857169
1.16220872857168
1.16220872857167
1.16220872857165
1.16220872857164
1.16220872857164
1.16220872857163
1.16220872857162
1.16220872857162
1.16220872857162
1.16220872857161
1.16220872857162
1.16220872857162
1.16220872857162
1.16220872857162
1.1622087285716
1.16220872857155
1.1622087285714
1.16220872857108
1.16220872857038
1.16220872856897
1.16220872856618
1.16220872856071
1.16220872854992
1.16220872852799
1.16220872848128
1.16220872837683
1.16220872813537
1.1622087275734
1.16220872629453
1.16220872354327
1.16220871789387
1.16220870377061
1.16220870556896
1.16220870648213
1.16220870692726
1.16220870713163
1.16220870722222
1.16220870726178
1.16220870727917
1.16220870728702
1.16220870729067
1.16220870729243
1.16220870729327
1.16220870729367
1.16220870729385
1.16220870729391
1.16220870729393
1.16220870729393
1.16220870729391
1.1622087072939
1.16220870729389
1.16220870729387
1.16220870729386
1.16220870729386
1.16220870729385
1.16220870729384
1.16220870729384
1.16220870729383
1.16220870729383
1.16220870729383
1.16220870729383
1.16220870729383
1.16220870729383
1.16220870729384
1.16220870729384
1.16220870729383
1.1622087072938
1.16220870729371
1.1622087072935
1.16220870729306
1.16220870729216
1.16220870729036
1.16220870728676
1.16220870727935
1.16220870726334
1.16220870722698
1.16220870714156
1.16220870693958
1.1622087064729
1.16220870545409
1.16220870333243
1.16220868134815
1.1622086820008
1.16220868232938
1.16220868248802
1.1622086825601
1.16220868259166
1.16220868260522
1.16220868261106
1.16220868261361
1.16220868261475
1.16220868261527
1.16220868261549
1.16220868261558
1.1622086826156
1.16220868261559
1.16220868261557
1.16220868261555
1.16220868261553
1.16220868261552
1.1622086826155
1.16220868261549
1.16220868261548
1.16220868261548
1.16220868261547
1.16220868261546
1.16220868261546
1.16220868261545
1.16220868261545
1.16220868261545
1.16220868261545
1.16220868261545
1.16220868261545
1.16220868261546
1.16220868261547
1.16220868261548
1.16220868261548
1.16220868261548
1.16220868261544
1.16220868261533
1.16220868261509
1.16220868261455
1.16220868261343
1.16220868261104
1.16220868260574
1.16220868259344
1.162208682564
1.16220868249324
1.16220868232722
1.16220868195946
1.16220868118291
1.16220865630298
1.1622086565341
1.16220865664938
1.16220865670445
1.16220865672919
1.16220865673986
1.16220865674434
1.1622086567462
1.16220865674696
1.16220865674726
1.16220865674736
1.16220865674738
1.16220865674736
1.16220865674733
1.1622086567473
1.16220865674727
1.16220865674725
1.16220865674723
1.16220865674721
1.1622086567472
1.16220865674719
1.16220865674718
1.16220865674717
1.16220865674716
1.16220865674716
1.16220865674715
1.16220865674715
1.16220865674714
1.16220865674714
1.16220865674714
1.16220865674714
1.16220865674715
1.16220865674715
1.16220865674716
1.16220865674718
1.1622086567472
1.16220865674722
1.16220865674724
1.16220865674724
1.16220865674721
1.1622086567471
1.1622086567468
1.1622086567461
1.16220865674445
1.16220865674044
1.16220865673061
1.16220865670649
1.16220865664897
1.16220865651954
1.16220865624221
1.16220863032155
1.16220863040148
1.16220863044082
1.16220863045934
1.16220863046753
1.16220863047098
1.16220863047238
1.1622086304729
1.16220863047307
1.1622086304731
1.16220863047307
1.16220863047303
1.16220863047299
1.16220863047294
1.16220863047291
1.16220863047288
1.16220863047285
1.16220863047283
1.16220863047281
1.1622086304728
1.16220863047279
1.16220863047278
1.16220863047277
1.16220863047276
1.16220863047276
1.16220863047275
1.16220863047275
1.16220863047275
1.16220863047274
1.16220863047274
1.16220863047274
1.16220863047275
1.16220863047275
1.16220863047276
1.16220863047278
1.1622086304728
1.16220863047283
1.16220863047287
1.1622086304729
1.16220863047294
1.16220863047296
1.16220863047293
1.16220863047278
1.16220863047232
1.16220863047111
1.16220863046796
1.16220863046004
1.16220863044073
1.16220863039639
1.16220863029968
1.1622086040136
1.16220860404059
1.16220860405354
1.16220860405945
1.16220860406199
1.16220860406301
1.16220860406338
1.16220860406348
1.16220860406347
1.16220860406342
1.16220860406336
1.1622086040633
1.16220860406325
1.16220860406321
1.16220860406317
1.16220860406314
1.16220860406312
1.1622086040631
1.16220860406308
1.16220860406307
1.16220860406306
1.16220860406305
1.16220860406304
1.16220860406303
1.16220860406303
1.16220860406302
1.16220860406302
1.16220860406301
1.16220860406301
1.16220860406301
1.16220860406301
1.16220860406301
1.16220860406302
1.16220860406303
1.16220860406304
1.16220860406307
1.16220860406309
1.16220860406313
1.16220860406318
1.16220860406323
1.16220860406328
1.16220860406333
1.16220860406334
1.16220860406327
1.16220860406296
1.16220860406204
1.1622086040596
1.16220860405343
1.16220860403877
1.16220860400583
1.16220857759427
1.16220857760315
1.16220857760713
1.1622085776088
1.16220857760945
1.16220857760968
1.16220857760973
1.1622085776097
1.16220857760965
1.16220857760958
1.16220857760952
1.16220857760946
1.16220857760942
1.16220857760937
1.16220857760934
1.16220857760931
1.16220857760929
1.16220857760927
1.16220857760926
1.16220857760924
1.16220857760923
1.16220857760922
1.16220857760921
1.16220857760921
1.1622085776092
1.1622085776092
1.16220857760919
1.16220857760919
1.16220857760918
1.16220857760918
1.16220857760918
1.16220857760919
1.16220857760919
1.1622085776092
1.16220857760922
1.16220857760923
1.16220857760926
1.16220857760929
1.16220857760934
1.16220857760939
1.16220857760945
1.16220857760951
1.16220857760956
1.1622085776096
1.16220857760956
1.16220857760936
1.16220857760873
1.16220857760697
1.16220857760242
1.16220857759149
1.16220855113775
1.16220855114056
1.16220855114156
1.16220855114184
1.16220855114189
1.16220855114188
1.16220855114184
1.16220855114179
1.16220855114173
1.16220855114167
1.16220855114161
1.16220855114156
1.16220855114152
1.16220855114148
1.16220855114145
1.16220855114143
1.1622085511414
1.16220855114139
1.16220855114137
1.16220855114136
1.16220855114135
1.16220855114134
1.16220855114133
1.16220855114133
1.16220855114132
1.16220855114131
1.16220855114131
1.16220855114131
1.1622085511413
1.1622085511413
1.1622085511413
1.1622085511413
1.16220855114131
1.16220855114131
1.16220855114133
1.16220855114134
1.16220855114137
1.1622085511414
1.16220855114143
1.16220855114148
1.16220855114153
1.16220855114158
1.16220855114164
1.1622085511417
1.16220855114174
1.16220855114175
1.16220855114169
1.16220855114138
1.16220855114019
1.16220855113669
1.16220852466905
1.16220852466988
1.16220852466992
1.16220852466976
1.16220852466963
1.16220852466956
1.1622085246695
1.16220852466945
1.1622085246694
1.16220852466935
1.16220852466931
1.16220852466927
1.16220852466923
1.1622085246692
1.16220852466917
1.16220852466915
1.16220852466913
1.16220852466911
1.1622085246691
1.16220852466909
1.16220852466908
1.16220852466907
1.16220852466906
1.16220852466905
1.16220852466905
1.16220852466904
1.16220852466904
1.16220852466903
1.16220852466903
1.16220852466903
1.16220852466903
1.16220852466903
1.16220852466903
1.16220852466904
1.16220852466905
1.16220852466906
1.16220852466908
1.16220852466911
1.16220852466914
1.16220852466917
1.16220852466921
1.16220852466926
1.1622085246693
1.16220852466935
1.1622085246694
1.16220852466947
1.16220852466958
1.16220852466972
1.16220852466962
1.16220852466857
1.16220849819644
1.16220849819664
1.16220849819638
1.1622084981961
1.16220849819593
1.16220849819585
1.1622084981958
1.16220849819577
1.16220849819573
1.16220849819569
1.16220849819566
1.16220849819562
1.16220849819559
1.16220849819557
1.16220849819554
1.16220849819553
1.16220849819551
1.16220849819549
1.16220849819548
1.16220849819547
1.16220849819546
1.16220849819545
1.16220849819545
1.16220849819544
1.16220849819543
1.16220849819543
1.16220849819542
1.16220849819542
1.16220849819541
1.16220849819541
1.16220849819541
1.16220849819541
1.16220849819541
1.16220849819542
1.16220849819542
1.16220849819543
1.16220849819545
1.16220849819547
1.16220849819549
1.16220849819552
1.16220849819555
1.16220849819558
1.16220849819561
1.16220849819565
1.16220849819569
1.16220849819575
1.1622084981959
1.16220849819617
1.16220849819641
1.16220849819615
1.16220847172261
1.16220847172261
1.16220847172227
1.16220847172196
1.16220847172179
1.16220847172173
1.1622084717217
1.16220847172167
1.16220847172165
1.16220847172163
1.1622084717216
1.16220847172158
1.16220847172155
1.16220847172153
1.16220847172151
1.1622084717215
1.16220847172148
1.16220847172147
1.16220847172146
1.16220847172145
1.16220847172144
1.16220847172143
1.16220847172142
1.16220847172142
1.16220847172141
1.16220847172141
1.1622084717214
1.1622084717214
1.16220847172139
1.16220847172139
1.16220847172139
1.16220847172138
1.16220847172139
1.16220847172139
1.16220847172139
1.1622084717214
1.16220847172141
1.16220847172143
1.16220847172144
1.16220847172146
1.16220847172148
1.1622084717215
1.16220847172152
1.16220847172154
1.16220847172156
1.16220847172161
1.16220847172176
1.16220847172205
1.16220847172239
1.16220847172238
1.16220844524839
1.16220844524834
1.16220844524798
1.16220844524768
1.16220844524753
1.16220844524748
1.16220844524747
1.16220844524746
1.16220844524745
1.16220844524744
1.16220844524743
1.16220844524741
1.16220844524739
1.16220844524738
1.16220844524736
1.16220844524735
1.16220844524734
1.16220844524733
1.16220844524732
1.16220844524731
1.1622084452473
1.16220844524729
1.16220844524728
1.16220844524728
1.16220844524727
1.16220844524727
1.16220844524726
1.16220844524726
1.16220844524725
1.16220844524725
1.16220844524724
1.16220844524724
1.16220844524724
1.16220844524724
1.16220844524724
1.16220844524725
1.16220844524725
1.16220844524726
1.16220844524727
1.16220844524728
1.16220844524729
1.1622084452473
1.16220844524731
1.16220844524731
1.16220844524731
1.16220844524735
1.16220844524748
1.16220844524776
1.16220844524812
1.16220844524818
1.16220841877405
1.162208418774
1.16220841877365
1.16220841877337
1.16220841877324
1.16220841877321
1.16220841877321
1.16220841877322
1.16220841877322
1.16220841877322
1.16220841877322
1.16220841877321
1.1622084187732
1.16220841877319
1.16220841877318
1.16220841877317
1.16220841877316
1.16220841877315
1.16220841877314
1.16220841877313
1.16220841877313
1.16220841877312
1.16220841877311
1.1622084187731
1.1622084187731
1.16220841877309
1.16220841877309
1.16220841877308
1.16220841877308
1.16220841877307
1.16220841877307
1.16220841877306
1.16220841877306
1.16220841877306
1.16220841877306
1.16220841877306
1.16220841877306
1.16220841877307
1.16220841877307
1.16220841877307
1.16220841877307
1.16220841877307
1.16220841877306
1.16220841877304
1.16220841877303
1.16220841877305
1.16220841877316
1.16220841877342
1.16220841877378
1.16220841877384
1.16220839229968
1.16220839229963
1.1622083922993
1.16220839229904
1.16220839229893
1.16220839229892
1.16220839229894
1.16220839229897
1.16220839229899
1.162208392299
1.162208392299
1.162208392299
1.162208392299
1.16220839229899
1.16220839229898
1.16220839229898
1.16220839229897
1.16220839229896
1.16220839229895
1.16220839229895
1.16220839229894
1.16220839229893
1.16220839229893
1.16220839229892
1.16220839229891
1.16220839229891
1.1622083922989
1.1622083922989
1.16220839229889
1.16220839229888
1.16220839229888
1.16220839229888
1.16220839229887
1.16220839229887
1.16220839229887
1.16220839229886
1.16220839229886