/*--------------------------------*- C++ -*----------------------------------*\
  =========                 |
  \\      /  F ield         | OpenFOAM: The Open Source CFD Toolbox
   \\    /   O peration     | Website:  https://openfoam.org
    \\  /    A nd           | Version:  10
     \\/     M anipulation  |
\*---------------------------------------------------------------------------*/
FoamFile
{
    format      ascii;
    class       volScalarField;
    location    "8.6";
    object      T;
}
// * * * * * * * * * * * * * * * * * * * * * * * * * * * * * * * * * * * * * //

dimensions      [0 0 0 1 0 0 0];

internalField   nonuniform List<scalar> 
2500
(
304.248835869162
304.246833463858
304.238230314816
304.231093306588
304.226234918962
304.22315705701
304.221274073019
304.220150317757
304.219497858931
304.219131865316
304.218932409842
304.21882798764
304.218775309418
304.218749153589
304.218736439944
304.218730087534
304.218727204276
304.218725547219
304.218724394269
304.218723705714
304.218723199918
304.21872280243
304.218722493021
304.218722303694
304.218722118644
304.218721979611
304.218721939653
304.218721952017
304.218722030851
304.218722194379
304.21872248155
304.218723038766
304.218723890595
304.21872545437
304.218728539284
304.21873488877
304.218748078299
304.218775022984
304.218829855497
304.218936458651
304.219137859561
304.219505972039
304.220157218368
304.221275192425
304.223149122488
304.226215256639
304.231077875462
304.238254602507
304.246893189812
304.248751948229
303.529082468628
303.511830474899
303.486470864511
303.466182542547
303.452248574888
303.443270913583
303.437667261893
303.434252448325
303.432226074657
303.431060844345
303.430413015041
303.430065859077
303.429886608182
303.429797148183
303.429753957337
303.429733640595
303.429724444991
303.429720205521
303.429718134938
303.429717111386
303.429716531754
303.429716149794
303.429715878398
303.429715700534
303.429715549147
303.429715434808
303.429715385555
303.429715383223
303.429715442706
303.429715618041
303.429716033844
303.429716988373
303.429719045829
303.429723571978
303.429733493825
303.42975496576
303.429800315216
303.429893222823
303.430077765697
303.430431188022
303.431085083489
303.432254031931
303.434276575779
303.437675527745
303.443251825852
303.452205304286
303.466166840526
303.486589291139
303.512090263213
303.528674335879
302.770200561183
302.736547886793
302.698732686017
302.669683237371
302.64996881532
302.637337301691
302.629477894767
302.624696107752
302.621859035927
302.620225522483
302.619315838179
302.618827089885
302.618573971172
302.618447497403
302.618386481888
302.618357990327
302.618345145675
302.618339436946
302.618336874793
302.618335712259
302.618335136274
302.618334802766
302.618334583991
302.618334440388
302.618334327551
302.618334241829
302.618334196402
302.618334183541
302.61833422379
302.618334393206
302.618334858112
302.618336013007
302.618338724679
302.6183449131
302.618358723289
302.618388860044
302.618452719203
302.618583660845
302.61884322745
302.619339772886
302.620257114192
302.62189506966
302.624727727354
302.629490950637
302.637319740391
302.649934733053
302.669720929077
302.699020968036
302.73716445382
302.770119548473
302.055005816059
302.010557850986
301.968049813801
301.936717361437
301.915977424648
301.902964646965
301.895021722563
301.890271330485
301.887494560076
301.885915989477
301.885046602713
301.884583974455
301.884346411035
301.884228673753
301.88417233353
301.884146274091
301.884134634276
301.884129557357
301.884127358824
301.884126404176
301.884125961207
301.884125720666
301.884125568049
301.88412546791
301.884125392378
301.884125333529
301.884125296247
301.88412527729
301.884125286251
301.884125395529
301.884125756802
301.88412671108
301.884129061938
301.88413454478
301.884146947887
301.884174328317
301.884232946881
301.884354316835
301.884597175383
301.885066477766
301.885942876535
301.887526358591
301.8903015538
301.895039877773
301.902964535984
301.915985335103
301.936848039845
301.968537066011
302.011584035237
302.055740910747
301.441842733289
301.394426888163
301.353719470024
301.324876326797
301.306290169652
301.294894226761
301.288081561948
301.284080781839
301.281777844656
301.28048511225
301.27978054563
301.279408832614
301.279219316121
301.279125978858
301.279081575191
301.279061167043
301.27905211462
301.279048216728
301.27904657036
301.2790458819
301.279045581056
301.279045427543
301.279045332772
301.279045271128
301.279045226118
301.279045189564
301.279045162117
301.279045141948
301.279045133081
301.279045188516
301.279045426043
301.279046109804
301.279047869626
301.279052045077
301.279061583613
301.279082827212
301.279128676279
301.279224354384
301.279417347844
301.279793610092
301.280503253513
301.281800101191
301.284103449249
301.288098824831
301.294906380902
301.306331811053
301.325074240117
301.354338756567
301.39575941728
301.443417551668
300.958125164879
300.914492492668
300.879917072473
300.856304457897
300.841495818139
300.832627103839
300.827436125145
300.824442782583
300.822745384765
300.821803863459
300.821295501328
300.82102925175
300.820894275816
300.820828105316
300.820796752582
300.820782404625
300.820776074044
300.820773375798
300.820772259657
300.820771809942
300.820771626208
300.820771539713
300.820771488015
300.820771454921
300.820771431687
300.820771411412
300.82077139297
300.820771375218
300.820771361354
300.820771379703
300.820771513545
300.820771953826
300.820773141337
300.820776004194
300.82078259503
300.820797376685
300.820829479852
300.820896884813
300.821033736252
300.821302528586
300.821813884181
300.822758099522
300.824456452785
300.827448379834
300.832642293125
300.841550332411
300.856521250215
300.880563146346
300.915932424043
300.96024001206
300.604082904807
300.568284005984
300.54166408292
300.524093911794
300.513364379196
300.50708703307
300.503489073546
300.501451224743
300.50031224179
300.499687469899
300.499352940952
300.49917880544
300.499090916707
300.499047970124
300.499027675118
300.499018414216
300.499014345159
300.499012626141
300.499011928754
300.49901165857
300.499011556958
300.499011514925
300.499011491198
300.499011476393
300.499011466802
300.499011457081
300.499011445668
300.499011431862
300.499011418867
300.499011418886
300.499011483583
300.499011740893
300.499012477699
300.499014283808
300.49901846997
300.499027911943
300.499048516863
300.499091981865
300.499180681549
300.499355959435
300.499691899477
300.500318018805
300.501457612955
300.503495448992
300.507098853912
300.513413992086
300.524287776514
300.542243906115
300.569630900119
300.606331035794
300.362096974566
300.335387003457
300.316546192905
300.30449673377
300.297325881227
300.293225586899
300.290923408253
300.289642197473
300.288936045995
300.288552731239
300.288349021607
300.288243526789
300.288190461384
300.288164587355
300.28815237954
300.288146819219
300.288144384366
300.288143364142
300.288142958202
300.288142807503
300.288142756642
300.288142740298
300.288142732277
300.288142727518
300.288142725293
300.288142721635
300.288142715114
300.288142705353
300.288142694308
300.288142688239
300.288142714822
300.288142852231
300.288143277571
300.288144339434
300.288146816753
300.288152430546
300.288164724957
300.288190747388
300.288244058402
300.288349919462
300.288554100787
300.28893784137
300.289644047834
300.29092522745
300.293231982733
300.297361923111
300.304645737902
300.317006679826
300.336506034538
300.364139514362
300.206802894988
300.188438062132
300.176054317553
300.168362553892
300.163897085401
300.161400032756
300.160026050645
300.159274462708
300.158865799235
300.158646156447
300.158530218868
300.158470437753
300.158440442327
300.1584258359
300.158418949471
300.158415816281
300.158414448155
300.158413879429
300.158413657557
300.158413578647
300.158413556457
300.158413553295
300.158413552183
300.158413551829
300.158413552726
300.158413552095
300.158413548636
300.158413542314
300.158413534039
300.1584135275
300.158413535585
300.158413603175
300.15841383349
300.158414420371
300.158415799048
300.158418935286
300.158425820687
300.158440427231
300.1584704338
300.158530243931
300.158646217302
300.158865811887
300.159274140548
300.160025289743
300.161401882427
300.163918820877
300.168463700261
300.176384089548
300.189278838585
300.208449113006
300.112789585513
300.101040071712
300.093421527035
300.088816135061
300.086205069196
300.084776186287
300.084005324216
300.083590727413
300.08336826576
300.083249829558
300.083187701249
300.083155782852
300.083139796316
300.083132016138
300.083128348349
300.083126680422
300.08312595393
300.083125654327
300.083125539799
300.083125501816
300.08312549406
300.083125495222
300.083125496731
300.083125498132
300.083125499432
300.083125499482
300.083125497833
300.083125494038
300.083125488445
300.0831254834
300.083125484406
300.083125515131
300.08312563247
300.083125939414
300.083126665981
300.083128324011
300.083131969509
300.083139712427
300.083155646433
300.083187494562
300.083249519104
300.083367745792
300.083589729064
300.084003608984
300.084775377026
300.086215884981
300.088877728637
300.093637352921
300.101618978895
300.113992703705
300.058876223578
300.051828741264
300.047413877522
300.044811511878
300.043369021241
300.042595934774
300.042186830034
300.041970434784
300.041855826941
300.041795368639
300.041763836599
300.041747687269
300.041739608417
300.041735676655
300.041733822277
300.041732979061
300.041732612632
300.041732462766
300.041732406697
300.041732390018
300.041732388365
300.041732390163
300.041732392009
300.04173239358
300.041732394692
300.041732394982
300.041732394244
300.041732392019
300.041732388529
300.041732384977
300.041732383905
300.041732397032
300.041732453696
300.041732606445
300.041732971047
300.041733805206
300.041735640366
300.041739539242
300.04174756882
300.041763647155
300.041795069233
300.041855317928
300.041969478339
300.042185117174
300.042594120462
300.043373140573
300.044845445501
300.04754426405
300.052197772484
300.059685290424
300.029480077832
300.02549289892
300.023070268562
300.021675296338
300.020918485273
300.020520960111
300.020314518462
300.020207102003
300.020150941074
300.020121579577
300.020106349108
300.020098569419
300.020094680247
300.020092786548
300.020091892611
300.020091486023
300.020091309728
300.020091238255
300.020091212382
300.020091205752
300.020091205868
300.020091207259
300.020091208703
300.020091209905
300.020091210684
300.020091210979
300.020091210656
300.020091209404
300.020091207376
300.020091205128
300.020091203898
300.02009120913
300.020091235198
300.020091307877
300.020091482895
300.020091884135
300.020092766697
300.0200946406
300.020098499288
300.020106232991
300.020121387171
300.020150594817
300.02020641517
300.02031319673
300.020519138766
300.020919257521
300.02169225225
300.023143541858
300.025712470642
300.029986024084
300.014189352118
300.012050840933
300.01078628367
300.01007382037
300.009695080162
300.009499956057
300.009400467906
300.009349535944
300.009323246407
300.009309623097
300.009302592911
300.009299010111
300.009297219498
300.009296346823
300.009295934357
300.009295746664
300.009295665461
300.009295632849
300.009295621536
300.009295619105
300.009295619538
300.009295620493
300.009295621437
300.009295622211
300.009295622694
300.009295622907
300.009295622767
300.009295622096
300.009295620988
300.009295619687
300.009295618787
300.009295620718
300.009295632223
300.009295665426
300.00929574611
300.009295931375
300.00929633851
300.009297201742
300.009298977513
300.009302536786
300.009309524058
300.009323051809
300.009349114911
300.009399588691
300.009498541505
300.009694570525
300.010081469261
300.010824818496
300.012173595627
300.014485957203
300.006578540099
300.00548649162
300.004856171576
300.004508150431
300.004326675727
300.004234903252
300.00418894036
300.004165784893
300.004153984701
300.004147923343
300.004144811031
300.004143228043
300.004142436819
300.004142050717
300.004141867946
300.00414178472
300.004141748795
300.004141734514
300.004141729807
300.004141729004
300.00414172936
300.004141729939
300.004141730491
300.004141730937
300.00414173121
300.004141731339
300.004141731278
300.004141730936
300.004141730364
300.004141729665
300.004141729128
300.004141729782
300.004141734662
300.004141749282
300.004141785128
300.004141867529
300.004142048332
300.004142430857
300.004143216339
300.004144789519
300.004147881138
300.004153889638
300.004165553745
300.004188413563
300.004233955426
300.00432590976
300.004511213431
300.004875225726
300.005551334079
300.006742601108
300.002943560231
300.002410623141
300.002109579438
300.001946449704
300.001862919297
300.001821423173
300.001800998586
300.001790870843
300.00178577523
300.001783180667
300.001781854912
300.00178118177
300.001780845173
300.00178068066
300.001780602644
300.001780567089
300.001780551778
300.001780545756
300.001780543874
300.001780543649
300.001780543882
300.001780544202
300.001780544498
300.001780544735
300.001780544878
300.001780544948
300.001780544921
300.001780544755
300.001780544474
300.001780544121
300.001780543831
300.00178054403
300.001780546037
300.001780552261
300.001780567655
300.001780603069
300.001780680609
300.001780844196
300.001781179251
300.001781849264
300.001783166362
300.001785734212
300.001790754377
300.001800707528
300.001820850701
300.001862286
300.001947489303
300.002118469366
300.002443138263
300.003029636655
300.001273473208
300.001024110023
300.000885931394
300.000812342836
300.00077530143
300.000757210394
300.000748454709
300.000744180448
300.00074205721
300.000740985572
300.000740440599
300.000740164311
300.00074002606
300.000739958363
300.000739926194
300.000739911519
300.000739905215
300.000739902766
300.000739902046
300.000739901998
300.000739902124
300.000739902288
300.000739902436
300.000739902554
300.000739902624
300.000739902659
300.000739902647
300.00073990257
300.000739902438
300.00073990227
300.000739902128
300.000739902183
300.000739902982
300.00073990555
300.00073991196
300.000739926707
300.000739958912
300.000740026623
300.000740164856
300.000740440644
300.000740982535
300.000742041648
300.000744125768
300.00074830421
300.000756891384
300.000774879009
300.000812598478
300.000889854853
300.001039650785
300.001316500925
300.000533618143
300.000421425022
300.000360310627
300.000328280669
300.000312414972
300.000304790635
300.000301160216
300.00029941497
300.00029855899
300.000298130751
300.000297913994
300.000297804248
300.00029774928
300.000297722306
300.000297709459
300.000297703591
300.000297701076
300.000297700112
300.000297699844
300.00029769984
300.000297699905
300.000297699983
300.000297700053
300.000297700108
300.00029770014
300.000297700156
300.000297700151
300.000297700117
300.000297700058
300.000297699982
300.000297699916
300.000297699929
300.000297700241
300.000297701272
300.000297703866
300.000297709832
300.000297722818
300.000297750015
300.000297805323
300.000297915333
300.000298131233
300.000298553963
300.000299390786
300.000301086624
300.000304624231
300.00031216645
300.000328284777
300.000361950937
300.000428529707
300.000554188968
300.000216920188
300.000168257449
300.000142150277
300.000128667926
300.000122089101
300.000118975809
300.000117516429
300.000116825333
300.000116490639
300.000116324664
300.000116241043
300.000116198752
300.000116177544
300.000116167111
300.000116162129
300.00011615985
300.000116158874
300.000116158505
300.000116158406
300.00011615841
300.00011615844
300.000116158475
300.000116158506
300.00011615853
300.000116158544
300.000116158551
300.000116158549
300.000116158534
300.000116158509
300.000116158477
300.000116158448
300.000116158451
300.000116158571
300.000116158976
300.000116159999
300.000116162349
300.000116167446
300.000116178071
300.000116199583
300.000116242214
300.000116325718
300.000116489401
300.000116815166
300.000117482129
300.000118893745
300.000121955293
300.000128618842
300.000142800039
300.000171373736
300.000226357089
300.000085675934
300.000065280777
300.000054486232
300.00004898672
300.000046340451
300.000045106203
300.000044536261
300.000044270286
300.00004414308
300.000044080549
300.000044049188
300.000044033341
300.000044025382
300.000044021456
300.000044019574
300.000044018711
300.000044018342
300.000044018202
300.000044018166
300.000044018168
300.000044018181
300.000044018195
300.000044018207
300.000044018217
300.000044018223
300.000044018226
300.000044018225
300.000044018219
300.000044018209
300.000044018196
300.000044018184
300.000044018185
300.000044018232
300.000044018388
300.000044018783
300.000044019687
300.000044021639
300.000044025686
300.000044033838
300.000044049923
300.000044081347
300.000044142967
300.000044266188
300.000044520927
300.000045067658
300.000046273212
300.000048943771
300.000054729752
300.000066595781
300.000089842134
300.000032925085
300.000024648279
300.00002032017
300.000018142345
300.000017107922
300.000016631999
300.000016415353
300.000016315675
300.000016268585
300.000016245637
300.000016234178
300.000016228391
300.000016225478
300.000016224036
300.000016223342
300.000016223021
300.000016222883
300.00001622283
300.000016222816
300.000016222816
300.00001622282
300.000016222825
300.000016222829
300.000016222832
300.000016222834
300.000016222835
300.000016222835
300.000016222833
300.000016222829
300.000016222825
300.000016222821
300.000016222822
300.000016222841
300.000016222901
300.000016223051
300.000016223392
300.000016224123
300.00001622563
300.000016228647
300.000016234569
300.000016246098
300.000016268699
300.000016314076
300.000016408742
300.000016614658
300.000017076005
300.000018115434
300.00002040619
300.000025183406
300.000034699675
300.000012327827
300.000009069286
300.00000738359
300.000006544968
300.00000615139
300.000005972609
300.000005892322
300.000005855882
300.000005838871
300.000005830651
300.000005826563
300.000005824497
300.000005823454
300.000005822934
300.000005822682
300.000005822564
300.000005822512
300.000005822491
300.000005822484
300.000005822482
300.000005822483
300.000005822484
300.000005822484
300.000005822485
300.000005822485
300.000005822486
300.000005822485
300.000005822485
300.000005822484
300.000005822483
300.000005822482
300.000005822484
300.000005822492
300.000005822516
300.000005822573
300.000005822701
300.000005822971
300.000005823521
300.000005824614
300.000005826747
300.00000583088
300.000005838972
300.000005855271
300.00000588956
300.000005965102
300.000006136959
300.000006530492
300.000007412002
300.00000927974
300.000013058792
300.000004502874
300.000003256202
300.000002617489
300.000002303028
300.000002157069
300.000002091551
300.0000020625
300.000002049483
300.000002043476
300.000002040595
300.000002039166
300.000002038442
300.000002038074
300.000002037889
300.000002037797
300.000002037752
300.000002037731
300.000002037722
300.000002037717
300.000002037715
300.000002037714
300.000002037713
300.000002037712
300.000002037712
300.000002037712
300.000002037712
300.000002037711
300.000002037711
300.000002037712
300.000002037712
300.000002037713
300.000002037715
300.000002037719
300.00000203773
300.000002037752
300.000002037801
300.0000020379
300.000002038099
300.000002038489
300.000002039243
300.000002040695
300.000002043529
300.00000204925
300.000002061375
300.00000208841
300.000002150815
300.00000229595
300.000002626125
300.000003336345
300.000004794635
300.000001606475
300.000001142256
300.000000906511
300.000000791557
300.000000738741
300.000000715291
300.000000705014
300.000000700463
300.000000698383
300.000000697391
300.000000696899
300.000000696648
300.000000696518
300.000000696451
300.000000696416
300.000000696397
300.000000696387
300.000000696382
300.000000696378
300.000000696375
300.000000696374
300.000000696372
300.000000696371
300.00000069637
300.00000069637
300.000000696369
300.000000696369
300.00000069637
300.00000069637
300.000000696371
300.000000696372
300.000000696374
300.000000696377
300.000000696383
300.000000696393
300.000000696413
300.000000696451
300.000000696523
300.000000696662
300.000000696926
300.000000697428
300.000000698403
300.00000070037
300.000000704563
300.000000714014
300.00000073613
300.000000788328
300.000000908843
300.000001171858
300.000001719532
300.000000560538
300.000000392061
300.00000030722
300.000000266227
300.000000247569
300.000000239366
300.000000235807
300.000000234246
300.000000233538
300.0000002332
300.00000023303
300.000000232942
300.000000232894
300.000000232867
300.000000232852
300.000000232843
300.000000232836
300.000000232832
300.000000232829
300.000000232826
300.000000232824
300.000000232822
300.000000232821
300.00000023282
300.000000232819
300.000000232819
300.000000232819
300.000000232819
300.00000023282
300.000000232821
300.000000232823
300.000000232825
300.000000232827
300.000000232831
300.000000232837
300.000000232847
300.000000232862
300.000000232891
300.000000232942
300.000000233035
300.000000233208
300.00000023354
300.000000234205
300.000000235627
300.000000238859
300.000000246514
300.000000264832
300.000000307729
300.000000402684
300.00000060314
300.000000191604
300.00000013194
300.000000102163
300.000000087912
300.000000081484
300.00000007868
300.000000077472
300.000000076944
300.000000076704
300.000000076587
300.000000076527
300.000000076493
300.000000076473
300.00000007646
300.000000076452
300.000000076445
300.00000007644
300.000000076437
300.000000076433
300.000000076431
300.000000076428
300.000000076427
300.000000076425
300.000000076424
300.000000076424
300.000000076423
300.000000076423
300.000000076424
300.000000076424
300.000000076425
300.000000076427
300.000000076429
300.000000076432
300.000000076435
300.000000076439
300.000000076445
300.000000076453
300.000000076466
300.000000076487
300.000000076522
300.000000076584
300.000000076698
300.000000076922
300.000000077397
300.00000007848
300.000000081068
300.000000087336
300.000000102218
300.000000135648
300.000000207238
300.000000064349
300.000000043715
300.000000033542
300.000000028735
300.000000026585
300.000000025652
300.000000025249
300.000000025071
300.000000024988
300.000000024945
300.00000002492
300.000000024904
300.000000024893
300.000000024885
300.000000024879
300.000000024874
300.000000024869
300.000000024866
300.000000024862
300.00000002486
300.000000024858
300.000000024856
300.000000024854
300.000000024853
300.000000024853
300.000000024852
300.000000024852
300.000000024853
300.000000024853
300.000000024855
300.000000024856
300.000000024858
300.000000024861
300.000000024864
300.000000024867
300.000000024872
300.000000024878
300.000000024886
300.000000024896
300.000000024912
300.000000024937
300.000000024978
300.000000025056
300.000000025214
300.000000025571
300.000000026423
300.000000028505
300.000000033517
300.000000044976
300.000000069944
300.000000021383
300.000000014415
300.000000011061
300.000000009513
300.000000008828
300.00000000853
300.000000008397
300.000000008335
300.000000008303
300.000000008284
300.000000008271
300.000000008261
300.000000008253
300.000000008246
300.000000008241
300.000000008236
300.000000008232
300.000000008228
300.000000008225
300.000000008222
300.00000000822
300.000000008218
300.000000008217
300.000000008216
300.000000008215
300.000000008215
300.000000008215
300.000000008215
300.000000008216
300.000000008217
300.000000008219
300.000000008221
300.000000008223
300.000000008226
300.00000000823
300.000000008234
300.000000008239
300.000000008245
300.000000008252
300.000000008262
300.000000008274
300.000000008292
300.000000008322
300.000000008377
300.000000008494
300.000000008764
300.000000009424
300.000000011037
300.000000014834
300.000000023337
300.000000007169
300.000000004879
300.000000003844
300.000000003397
300.000000003203
300.000000003115
300.000000003071
300.000000003047
300.000000003031
300.000000003019
300.00000000301
300.000000003002
300.000000002995
300.000000002989
300.000000002984
300.000000002979
300.000000002975
300.000000002971
300.000000002968
300.000000002965
300.000000002963
300.000000002961
300.00000000296
300.000000002959
300.000000002958
300.000000002958
300.000000002958
300.000000002958
300.000000002959
300.00000000296
300.000000002962
300.000000002964
300.000000002966
300.000000002969
300.000000002973
300.000000002977
300.000000002981
300.000000002987
300.000000002993
300.000000003
300.000000003009
300.00000000302
300.000000003035
300.000000003057
300.000000003095
300.000000003176
300.000000003362
300.000000003832
300.000000005015
300.000000007835
300.000000002558
300.000000001835
300.000000001572
300.000000001489
300.000000001456
300.000000001436
300.000000001421
300.000000001408
300.000000001397
300.000000001388
300.00000000138
300.000000001373
300.000000001366
300.00000000136
300.000000001355
300.00000000135
300.000000001346
300.000000001343
300.00000000134
300.000000001337
300.000000001335
300.000000001333
300.000000001332
300.000000001331
300.00000000133
300.00000000133
300.00000000133
300.00000000133
300.000000001331
300.000000001332
300.000000001334
300.000000001336
300.000000001338
300.000000001341
300.000000001344
300.000000001348
300.000000001353
300.000000001358
300.000000001364
300.000000001371
300.000000001378
300.000000001387
300.000000001397
300.000000001409
300.000000001423
300.000000001442
300.000000001475
300.000000001568
300.000000001879
300.00000000278
300.000000001092
300.000000000883
300.000000000872
300.000000000906
300.000000000924
300.000000000926
300.000000000919
300.00000000091
300.000000000901
300.000000000892
300.000000000884
300.000000000877
300.00000000087
300.000000000864
300.000000000859
300.000000000855
300.000000000851
300.000000000847
300.000000000844
300.000000000842
300.00000000084
300.000000000838
300.000000000837
300.000000000836
300.000000000835
300.000000000835
300.000000000835
300.000000000835
300.000000000836
300.000000000837
300.000000000839
300.00000000084
300.000000000843
300.000000000846
300.000000000849
300.000000000853
300.000000000857
300.000000000862
300.000000000868
300.000000000875
300.000000000882
300.00000000089
300.000000000899
300.000000000908
300.000000000915
300.000000000915
300.0000000009
300.000000000871
300.000000000897
300.000000001164
300.000000000636
300.000000000592
300.000000000661
300.000000000732
300.000000000766
300.000000000774
300.000000000769
300.000000000761
300.000000000752
300.000000000743
300.000000000735
300.000000000728
300.000000000721
300.000000000716
300.000000000711
300.000000000706
300.000000000702
300.000000000699
300.000000000696
300.000000000693
300.000000000691
300.00000000069
300.000000000688
300.000000000688
300.000000000687
300.000000000687
300.000000000687
300.000000000687
300.000000000688
300.000000000689
300.00000000069
300.000000000692
300.000000000695
300.000000000697
300.000000000701
300.000000000704
300.000000000709
300.000000000714
300.00000000072
300.000000000726
300.000000000733
300.000000000741
300.00000000075
300.000000000758
300.000000000764
300.000000000759
300.000000000729
300.000000000662
300.000000000598
300.000000000658
300.000000000499
300.000000000508
300.000000000601
300.000000000682
300.00000000072
300.000000000729
300.000000000725
300.000000000716
300.000000000707
300.000000000698
300.00000000069
300.000000000683
300.000000000677
300.000000000671
300.000000000666
300.000000000662
300.000000000658
300.000000000655
300.000000000652
300.000000000649
300.000000000647
300.000000000646
300.000000000644
300.000000000643
300.000000000643
300.000000000643
300.000000000643
300.000000000643
300.000000000644
300.000000000645
300.000000000646
300.000000000648
300.00000000065
300.000000000653
300.000000000656
300.00000000066
300.000000000664
300.000000000669
300.000000000675
300.000000000682
300.000000000689
300.000000000697
300.000000000706
300.000000000714
300.00000000072
300.000000000714
300.00000000068
300.000000000603
300.000000000511
300.000000000506
300.000000000462
300.000000000486
300.000000000587
300.00000000067
300.000000000708
300.000000000716
300.000000000711
300.000000000702
300.000000000693
300.000000000684
300.000000000676
300.000000000669
300.000000000662
300.000000000657
300.000000000652
300.000000000648
300.000000000644
300.000000000641
300.000000000638
300.000000000636
300.000000000634
300.000000000632
300.000000000631
300.00000000063
300.000000000629
300.000000000629
300.000000000629
300.00000000063
300.00000000063
300.000000000631
300.000000000633
300.000000000635
300.000000000637
300.000000000639
300.000000000643
300.000000000646
300.000000000651
300.000000000656
300.000000000661
300.000000000668
300.000000000675
300.000000000683
300.000000000692
300.000000000701
300.000000000707
300.000000000702
300.000000000669
300.000000000589
300.000000000489
300.000000000463
300.000000000455
300.000000000485
300.000000000586
300.000000000668
300.000000000705
300.000000000713
300.000000000707
300.000000000697
300.000000000688
300.000000000678
300.00000000067
300.000000000663
300.000000000657
300.000000000651
300.000000000647
300.000000000642
300.000000000639
300.000000000636
300.000000000633
300.000000000631
300.000000000629
300.000000000627
300.000000000626
300.000000000625
300.000000000625
300.000000000625
300.000000000625
300.000000000625
300.000000000626
300.000000000627
300.000000000628
300.00000000063
300.000000000632
300.000000000634
300.000000000638
300.000000000641
300.000000000645
300.00000000065
300.000000000656
300.000000000662
300.00000000067
300.000000000678
300.000000000688
300.000000000697
300.000000000704
300.0000000007
300.000000000668
300.000000000589
300.000000000487
300.000000000455
300.000000000459
300.00000000049
300.00000000059
300.000000000671
300.000000000706
300.000000000711
300.000000000705
300.000000000695
300.000000000684
300.000000000675
300.000000000667
300.00000000066
300.000000000654
300.000000000648
300.000000000644
300.00000000064
300.000000000636
300.000000000633
300.000000000631
300.000000000628
300.000000000627
300.000000000625
300.000000000624
300.000000000623
300.000000000623
300.000000000622
300.000000000623
300.000000000623
300.000000000624
300.000000000625
300.000000000626
300.000000000627
300.00000000063
300.000000000632
300.000000000635
300.000000000639