/*--------------------------------*- C++ -*----------------------------------*\
  =========                 |
  \\      /  F ield         | OpenFOAM: The Open Source CFD Toolbox
   \\    /   O peration     | Website:  https://openfoam.org
    \\  /    A nd           | Version:  10
     \\/     M anipulation  |
\*---------------------------------------------------------------------------*/
FoamFile
{
    format      ascii;
    class       volVectorField;
    location    "8.6";
    object      U;
}
// * * * * * * * * * * * * * * * * * * * * * * * * * * * * * * * * * * * * * //

dimensions      [0 1 -1 0 0 0 0];

internalField   nonuniform List<vector> 
2500
(
(-1.19369881673808e-06 -1.34513860331705e-06 1.81323269135951e-25)
(-3.20804284933903e-06 -1.88286882022511e-06 2.49371159200431e-24)
(-3.63982426095121e-06 -2.09488521939561e-06 2.32329606825315e-25)
(-3.15652239618779e-06 -2.2012152903485e-06 -8.7631694588596e-26)
(-2.36069262868794e-06 -2.2205130698354e-06 -6.97170363001863e-25)
(-1.66666951501536e-06 -2.20861316010232e-06 -7.58183638199074e-25)
(-1.13959851066446e-06 -2.18868837427493e-06 -2.97855980513546e-25)
(-7.74724435065813e-07 -2.17121689305417e-06 -2.84331204110761e-25)
(-5.26261831267345e-07 -2.15752796084733e-06 -4.57522192171469e-25)
(-3.60023181011903e-07 -2.14766521230652e-06 2.71495441594001e-24)
(-2.48219313688518e-07 -2.1408024565675e-06 1.51259620054038e-24)
(-1.72580808747795e-07 -2.13623203471378e-06 3.80677782220597e-24)
(-1.20611687318636e-07 -2.13328209144774e-06 3.33728232352302e-24)
(-8.41914315475099e-08 -2.13142449439516e-06 1.19560919409958e-24)
(-5.80530899909237e-08 -2.13028099372902e-06 2.25323053224056e-24)
(-3.8806603725491e-08 -2.12958263934748e-06 8.16575429160552e-25)
(-2.42819707219299e-08 -2.12915565048473e-06 2.73164267259593e-24)
(-1.30631612065255e-08 -2.12888546605964e-06 2.80240692028269e-24)
(-4.21162702824347e-09 -2.12872380313956e-06 5.49494424077375e-25)
(2.90750612291656e-09 -2.12861636572842e-06 2.48997218206457e-24)
(8.7433915173291e-09 -2.12854800576062e-06 2.42650259623834e-27)
(1.36255214587655e-08 -2.12850507974979e-06 -2.39187427004985e-25)
(1.78036781843755e-08 -2.12848285302785e-06 2.95455037481244e-24)
(2.1479860335712e-08 -2.12846858672798e-06 2.78762614297951e-25)
(2.48290759415789e-08 -2.1284689323669e-06 -1.42419772628982e-25)
(2.80086038049074e-08 -2.12847493537294e-06 2.78562833290804e-24)
(3.11712610463495e-08 -2.12849096281169e-06 9.95034446001639e-26)
(3.44709719940592e-08 -2.12852329222765e-06 9.46186958494958e-25)
(3.80778506578551e-08 -2.12856792670995e-06 2.3862527885494e-24)
(4.2197817632115e-08 -2.12863154590805e-06 -8.12468780627645e-26)
(4.70770070010421e-08 -2.12871807744792e-06 1.96458057060478e-25)
(5.30439942204268e-08 -2.12884417272622e-06 -2.34959243890423e-25)
(6.05476106629295e-08 -2.12902995982011e-06 7.29537356544318e-25)
(7.02122597841356e-08 -2.1293248901229e-06 7.29743509579534e-25)
(8.29814177349978e-08 -2.12977496245693e-06 -3.57206529648012e-26)
(1.00280973012586e-07 -2.13050496965721e-06 1.79872602406827e-24)
(1.2428483473694e-07 -2.13168122273978e-06 -2.66475446781635e-24)
(1.58395449705869e-07 -2.13355516899431e-06 -2.43802856625586e-25)
(2.078647297001e-07 -2.13652200662652e-06 2.28027427203083e-26)
(2.80802479778591e-07 -2.14108102069194e-06 -1.51591862684596e-24)
(3.89695184103535e-07 -2.14790860762673e-06 -4.55820706584285e-24)
(5.52822783486265e-07 -2.15771150052812e-06 -3.74243538805401e-24)
(7.98089670784489e-07 -2.17136232021155e-06 -2.28300408365964e-24)
(1.1603218574315e-06 -2.1889432587307e-06 -4.4185285782073e-24)
(1.68678588373993e-06 -2.2093058197673e-06 -4.54480194149595e-24)
(2.38552385306443e-06 -2.22212695429373e-06 -2.37441350948573e-24)
(3.19326260176697e-06 -2.20349535588037e-06 -3.95273396051554e-24)
(3.69039850658633e-06 -2.09548515500597e-06 -4.38721562681535e-24)
(3.2450862095461e-06 -1.87840066129051e-06 -1.84846219204596e-24)
(1.19876866358382e-06 -1.34360435150448e-06 -2.20115998630442e-24)
(-1.71669253440811e-06 -1.39115007512468e-06 -8.14316624472115e-26)
(-5.71179672506452e-06 -2.71080967725663e-06 -2.11715634718412e-25)
(-6.72210988859133e-06 -3.95016911256395e-06 -3.07500760848184e-26)
(-5.99263128822049e-06 -4.5853052719126e-06 -4.07031103460777e-25)
(-4.58764438861679e-06 -4.69254778305037e-06 -2.28752565753059e-24)
(-3.30830871615582e-06 -4.57522920151092e-06 -2.35796413233011e-24)
(-2.31053329674749e-06 -4.41547541315694e-06 -8.58712914705182e-25)
(-1.60516993830262e-06 -4.27960479422583e-06 -8.74878942076616e-25)
(-1.11679539401256e-06 -4.17942071199435e-06 -2.13332503360285e-24)
(-7.84084235244745e-07 -4.10991114428064e-06 1.32970288205808e-25)
(-5.55851062277986e-07 -4.06312715094963e-06 2.86073235790621e-24)
(-3.97717272364875e-07 -4.03221608871332e-06 2.85136591540484e-24)
(-2.86068597242046e-07 -4.01199856340338e-06 1.28093486528822e-24)
(-2.05462854645882e-07 -3.9988268564426e-06 2.0503224818996e-24)
(-1.45825930823387e-07 -3.99019485483454e-06 6.60856329531262e-25)
(-1.00592084935241e-07 -3.98446774512564e-06 8.27145028463816e-25)
(-6.54843147712043e-08 -3.98059070814062e-06 1.93590167301459e-24)
(-3.76687586248106e-08 -3.97789649010147e-06 7.17605839806735e-25)
(-1.5211937174887e-08 -3.97599325129106e-06 1.8411347288919e-25)
(3.24019481063468e-09 -3.9746120523692e-06 -3.60874896027391e-25)
(1.86579980731642e-08 -3.97360169973978e-06 -7.13529920980667e-25)
(3.17834097596133e-08 -3.97286649127608e-06 -1.49306497052674e-24)
(4.31988309689154e-08 -3.97234855242167e-06 1.01627686161071e-24)
(5.337769763372e-08 -3.97200075688888e-06 1.74640310496793e-26)
(6.2738977291532e-08 -3.97180806820111e-06 -1.28655711302522e-24)
(7.16669180711393e-08 -3.97175416355696e-06 6.76756273224916e-25)
(8.05239662706379e-08 -3.97184979306184e-06 -5.51239200602351e-25)
(8.96941726815319e-08 -3.97209051446938e-06 2.08932926025962e-24)
(9.95888978990756e-08 -3.97251519274934e-06 1.61181146653101e-24)
(1.10687020108952e-07 -3.97315300406196e-06 -1.01309098212928e-24)
(1.2355830541956e-07 -3.97406385948031e-06 6.06505806527213e-25)
(1.38936304319395e-07 -3.97533990325574e-06 -7.28937927739894e-25)
(1.57790754493628e-07 -3.97715102820636e-06 2.10367498190799e-24)
(1.81459925380055e-07 -3.97975197890964e-06 2.10748189072797e-24)
(2.11877415562334e-07 -3.98354273203682e-06 -8.52340272379245e-25)
(2.51891194296921e-07 -3.98919897497261e-06 6.07184047568065e-25)
(3.05799629905412e-07 -3.99776309806146e-06 -1.07475650360835e-24)
(3.80169538501134e-07 -4.01086526399116e-06 -6.83341360174872e-26)
(4.85072827117768e-07 -4.03098685587992e-06 5.16516834644092e-25)
(6.35964555012262e-07 -4.06177312021123e-06 -3.10013635754446e-24)
(8.56446453368665e-07 -4.10838901211627e-06 -4.37576565163349e-24)
(1.18099487651939e-06 -4.17776248635465e-06 -4.44494583471169e-24)
(1.66108403016573e-06 -4.27811899342428e-06 -4.61123233269628e-24)
(2.35933082871239e-06 -4.41519619223613e-06 -4.42540562826919e-24)
(3.35407550597022e-06 -4.57840794474673e-06 -4.65223038279178e-24)
(4.64069523026027e-06 -4.70189108377023e-06 -4.90178506712173e-24)
(6.0673426736693e-06 -4.59890769094001e-06 -4.43701660570228e-24)
(6.82394371615946e-06 -3.95232573722648e-06 -4.31339229746321e-24)
(5.79337371976265e-06 -2.68523912572706e-06 -3.7870695640726e-24)
(1.73173518959861e-06 -1.36926925324952e-06 -1.97771093612959e-24)
(-1.21551563522374e-06 1.1451226299313e-06 -4.57668674907982e-25)
(-5.5125349627586e-06 -4.75139465129424e-07 -2.69126971409651e-24)
(-6.71497364933554e-06 -2.85629575892796e-06 -4.21442542987199e-25)
(-6.19260641313676e-06 -4.0971707616304e-06 -5.93709811537433e-25)
(-4.88297213120444e-06 -4.31815359117255e-06 -3.39631521774118e-24)
(-3.62948370538693e-06 -4.08163332607768e-06 -3.88707862208157e-24)
(-2.61447796480692e-06 -3.75697748527002e-06 -1.14262533795042e-24)
(-1.87564290795305e-06 -3.47944658563827e-06 -1.21338798776401e-24)
(-1.34937408980001e-06 -3.27557519784617e-06 -4.00302829340844e-24)
(-9.80233195579917e-07 -3.13472608461366e-06 -2.38604769827555e-24)
(-7.19000955559894e-07 -3.04020177164643e-06 3.63862091105709e-24)
(-5.3189140531567e-07 -2.97754989058227e-06 1.44375447519449e-24)
(-3.95226639307304e-07 -2.93616050732335e-06 -1.41202253521632e-24)
(-2.93219921560516e-07 -2.908696856036e-06 2.48641765185255e-24)
(-2.15359696571268e-07 -2.89024513305913e-06 -2.01679910100208e-24)
(-1.54635279614904e-07 -2.87762008886427e-06 1.86947546379731e-25)
(-1.06329121041025e-07 -2.86878749912626e-06 3.01952646530168e-25)
(-6.7214085357138e-08 -2.86247205454156e-06 -1.77382137423917e-24)
(-3.50240384383361e-08 -2.85785109320772e-06 -6.12087356686905e-25)
(-8.11645137960526e-09 -2.85442522450966e-06 -3.30939381937207e-24)
(1.47281678831772e-08 -2.85186616569556e-06 -1.40315244319708e-24)
(3.44632790753956e-08 -2.84996728891579e-06 -3.06187391162934e-24)
(5.18572689581443e-08 -2.84859511748536e-06 -6.14879913369386e-25)
(6.75526353902873e-08 -2.84765926434269e-06 -4.43124377821243e-25)
(8.21195235126637e-08 -2.84711168583608e-06 -3.10304177226473e-24)
(9.60805002958922e-08 -2.84694109573513e-06 -1.02478024268116e-24)
(1.09953457230889e-07 -2.8471353354138e-06 -1.6062834514685e-24)
(1.24255714783816e-07 -2.84771863838519e-06 3.29856314615295e-24)
(1.39545594599831e-07 -2.84874061534952e-06 1.74285161514035e-25)
(1.56477349487436e-07 -2.85028356352001e-06 -2.70663305652132e-24)
(1.75800391585141e-07 -2.85249192818353e-06 1.34455949680497e-24)
(1.98453897490753e-07 -2.85556242397216e-06 -1.5588870998674e-24)
(2.25655190118561e-07 -2.85982552383476e-06 3.48275782484925e-24)
(2.59029484396154e-07 -2.86579140281962e-06 3.44276872573869e-24)
(3.00840919139752e-07 -2.87427994908773e-06 -2.4438278963141e-24)
(3.54326815589288e-07 -2.88658088992872e-06 -6.97680427057849e-25)
(4.24206552506442e-07 -2.90472170609912e-06 1.05782992399476e-25)
(5.17512144490842e-07 -2.93190295098327e-06 3.19387796344483e-25)
(6.44756617255782e-07 -2.97298525211084e-06 1.85821883150038e-24)
(8.21760275442658e-07 -3.03533654183667e-06 -4.43279295902852e-24)
(1.07222820259422e-06 -3.1295784757435e-06 -3.18704289699959e-24)
(1.43012177975031e-06 -3.27031762154476e-06 -3.28253664726856e-24)
(1.9450387480228e-06 -3.47480855875595e-06 -6.06648977609545e-24)
(2.67381733000758e-06 -3.75507221810253e-06 -3.35618210442499e-24)
(3.68315692431264e-06 -4.08697260248578e-06 -3.70696559462995e-24)
(4.9420386779917e-06 -4.33613531430713e-06 -6.47586703309081e-24)
(6.27349660404004e-06 -4.12441143015503e-06 -3.45014629664029e-24)
(6.82740859116053e-06 -2.86252383252258e-06 -3.17840913098598e-24)
(5.61479225308077e-06 -4.26919459445643e-07 -5.45095588175347e-24)
(1.24215887142711e-06 1.20051699721723e-06 -1.38724298383007e-24)
(-5.6273398646194e-07 3.62678439363874e-06 -4.76989990078923e-25)
(-3.89432153075407e-06 2.17045860374982e-06 -3.25545080986816e-24)
(-5.02302880242511e-06 -1.17942564080739e-06 -3.60708636922351e-25)
(-4.90204754458409e-06 -2.99339151162813e-06 -2.68772992488726e-25)
(-4.0614741183364e-06 -3.38516777409907e-06 -1.6303531871518e-24)
(-3.17301696809295e-06 -3.10037462700545e-06 -2.35678015491733e-24)
(-2.39955937175143e-06 -2.66816925642156e-06 -8.05671270382721e-25)
(-1.80534575428742e-06 -2.28726094155932e-06 -8.95282243897173e-25)
(-1.35963269267015e-06 -2.0032215502801e-06 -2.78602876386003e-24)
(-1.03128290841525e-06 -1.80454696095639e-06 -2.95604396530121e-24)
(-7.87495456416739e-07 -1.669587753348e-06 2.13147881914074e-24)
(-6.04692451536052e-07 -1.57879130435902e-06 -5.33677503541144e-25)
(-4.65400761471282e-07 -1.51770915529021e-06 -2.19551602278443e-24)
(-3.57438839776155e-07 -1.47628048586488e-06 1.07511032949287e-24)
(-2.72320646395199e-07 -1.44778084464725e-06 -2.33508218804579e-24)
(-2.04099789606864e-07 -1.42780012710619e-06 -1.07456524228176e-25)
(-1.48581962262345e-07 -1.41348009929918e-06 -1.15895366841155e-24)
(-1.02746826832306e-07 -1.40301326702237e-06 -2.80225979104134e-24)
(-6.43856774325986e-08 -1.39521546488893e-06 -6.77487182246417e-25)
(-3.18350870882843e-08 -1.38934392417184e-06 -2.99122040730291e-24)
(-3.80775721146367e-09 -1.38490797470368e-06 -1.17253287014992e-24)
(2.07248882124003e-08 -1.38157621227062e-06 -2.06986193347055e-24)
(4.26147964291205e-08 -1.37915259586556e-06 -1.87822137155539e-24)
(6.25847947865747e-08 -1.37748798411662e-06 -4.19728637828429e-25)
(8.12797000649766e-08 -1.37651187927405e-06 -1.77938589920996e-24)
(9.93121913442928e-08 -1.37618180063192e-06 -2.100249378209e-24)
(1.17270992501093e-07 -1.37648860115398e-06 -1.07181689728179e-24)
(1.35757299797174e-07 -1.37749275138972e-06 1.67399630584151e-24)
(1.55414855854654e-07 -1.37925635952481e-06 -1.40256818901252e-24)
(1.76962469466616e-07 -1.38191107652717e-06 -1.6656819831967e-24)
(2.01237636803563e-07 -1.385673083887e-06 4.8574757080721e-25)
(2.29261245707378e-07 -1.3908714721679e-06 -9.20557382789526e-25)
(2.62306211761496e-07 -1.39797461258632e-06 2.18994029591243e-24)
(3.02022389333792e-07 -1.40775514040371e-06 2.17005546769488e-24)
(3.50613359108084e-07 -1.42139623947317e-06 -1.3889985313687e-24)
(4.11092091234832e-07 -1.44072961798088e-06 -1.85204502604721e-24)
(4.87651281112802e-07 -1.46859103509145e-06 1.42963730578003e-24)
(5.86251790953191e-07 -1.50939966886087e-06 4.10747517584601e-25)
(7.15389413324901e-07 -1.56988093500598e-06 6.19708936127286e-25)
(8.87282383846726e-07 -1.66010640941245e-06 -3.45340894985886e-24)
(1.11945428834071e-06 -1.79459242754825e-06 -1.05465852015333e-24)
(1.43569262352119e-06 -1.9931503220406e-06 -6.94448654327977e-25)
(1.86913438746955e-06 -2.27824946263246e-06 -4.40544039853319e-24)
(2.45208966118565e-06 -2.66340860383272e-06 -1.05892220049852e-24)
(3.21778175546093e-06 -3.1065520538701e-06 -1.5293790865113e-24)
(4.10768330050346e-06 -3.41058111310336e-06 -4.77593039474441e-24)
(4.96488284918265e-06 -3.03440986610311e-06 -1.31362382947427e-24)
(5.11531415593855e-06 -1.19422206860804e-06 -5.47655609109308e-25)
(3.9920662724163e-06 2.2340801764724e-06 -4.20396293295385e-24)
(5.96438618191106e-07 3.71242381643013e-06 2.71638629883705e-25)
(-1.40351264444324e-08 5.46001639258141e-06 -1.59779410113832e-25)
(-1.90307300261188e-06 4.4053033732891e-06 -1.43809199153957e-24)
(-2.82784904969562e-06 4.60968195342294e-07 9.72046718334665e-26)
(-3.1081442653616e-06 -1.79590138569064e-06 2.09085465247845e-25)
(-2.82995923477666e-06 -2.39360795422439e-06 2.34534294591418e-25)
(-2.40633709456194e-06 -2.1500618566225e-06 -1.09083668503571e-24)
(-1.960094839191e-06 -1.69295695115158e-06 -3.02207748088762e-25)
(-1.57440586383149e-06 -1.26843115045276e-06 -3.53524348882781e-25)
(-1.2552287615172e-06 -9.4272914756979e-07 -1.4560017648588e-24)
(-1.00018172698124e-06 -7.09571905424469e-07 -1.34741111515242e-24)
(-7.97079036565002e-07 -5.47715005604388e-07 1.6452331390145e-24)
(-6.35459835079624e-07 -4.3635508599411e-07 4.51130032590353e-25)
(-5.06070430410082e-07 -3.59646228429649e-07 -7.1296533907021e-25)
(-4.01653075668954e-07 -3.06340952259436e-07 8.28879059406314e-25)
(-3.16618544750272e-07 -2.68778646754385e-07 -1.01897238034988e-24)
(-2.46671697132277e-07 -2.418416158923e-07 2.55486001439757e-25)
(-1.88541121638578e-07 -2.22143458183618e-07 -6.9804044124798e-26)
(-1.39709376088495e-07 -2.07491313482769e-07 -8.25112732805762e-25)
(-9.82265222441283e-08 -1.96424885593064e-07 9.00978453010788e-27)
(-6.25576710765523e-08 -1.87995659841433e-07 -1.25204021920652e-24)
(-3.14603094531453e-08 -1.81570418676341e-07 -4.09798026885304e-25)
(-3.92454983915011e-09 -1.76720903725339e-07 -9.67919076084244e-25)
(2.09097068158483e-08 -1.73167804589316e-07 -6.04198884797062e-25)
(4.37925467402173e-08 -1.70733447526531e-07 3.54503061681487e-26)
(6.53989977659087e-08 -1.69302855701773e-07 -7.25349094450313e-25)
(8.63684856486291e-08 -1.68814461960846e-07 -7.50677291265385e-25)
(1.07313660898757e-07 -1.69286001875876e-07 -4.38656335453137e-25)
(1.28865555039402e-07 -1.70755513679519e-07 1.05505799348927e-24)
(1.51702003539011e-07 -1.73338642072634e-07 -5.36421770302135e-25)
(1.76566735550944e-07 -1.77212813144942e-07 -9.698455315155e-25)
(2.04293179543685e-07 -1.8265594315116e-07 1.86371793986483e-25)
(2.35895124229314e-07 -1.90090366884262e-07 -6.89002599609347e-25)
(2.72598013589878e-07 -2.00142952204323e-07 1.23092163225721e-24)
(3.15914902917655e-07 -2.13781932907901e-07 1.23631362805182e-24)
(3.67788473645754e-07 -2.32470314890448e-07 -8.15877928554663e-25)
(4.30728851479742e-07 -2.58419125339723e-07 -7.97734607075047e-25)
(5.07990105957885e-07 -2.95005988363503e-07 5.86351599400915e-25)
(6.03859297139227e-07 -3.47343994695635e-07 1.8314007342139e-25)
(7.23932894243466e-07 -4.2310469896427e-07 9.36157780684153e-26)
(8.75505752913275e-07 -5.33593362996805e-07 -3.25689400505183e-24)
(1.06785548494659e-06 -6.94729527436851e-07 -1.049469657292e-24)
(1.31161674565232e-06 -9.2768350905996e-07 -1.00579301065014e-24)
(1.61917039836712e-06 -1.25471914500773e-06 -3.67441981332738e-24)
(1.99364325183026e-06 -1.68460699401414e-06 -1.09358020928617e-24)
(2.43064079118234e-06 -2.15553350061893e-06 -1.34616845039127e-24)
(2.85118667513039e-06 -2.42386194081769e-06 -4.30875780848282e-24)
(3.1383767137789e-06 -1.8483751466641e-06 -1.15084035365853e-24)
(2.88106814796632e-06 4.3471626494002e-07 -9.94433439996705e-25)
(1.97489783263876e-06 4.4745914920851e-06 -4.19321046966798e-24)
(4.60350565495238e-08 5.56716573928259e-06 -3.67849812423457e-25)
(3.38579516292332e-07 6.47766059439578e-06 1.66444198609565e-25)
(-1.93558985819926e-07 5.89587256658409e-06 -7.27363054424005e-25)
(-8.82580574479704e-07 1.75955706985195e-06 5.26062470955415e-25)
(-1.44938770778734e-06 -7.65172180597492e-07 4.1708493843377e-25)
(-1.6443861308179e-06 -1.55833700731448e-06 -1.92459960620535e-25)
(-1.62921185749716e-06 -1.41436760079849e-06 -6.12066122353335e-25)
(-1.48341096945483e-06 -9.95939212588467e-07 8.85521768009009e-26)
(-1.296777643907e-06 -5.7736615174598e-07 9.91866584807176e-26)
(-1.10409470147616e-06 -2.43562793065742e-07 -7.81251631127437e-25)
(-9.26629569979419e-07 2.70142160191177e-09 -4.61058955493453e-25)
(-7.7018932086396e-07 1.78343896652546e-07 1.69790306682033e-24)
(-6.3602389356314e-07 3.02402304664998e-07 9.08699723232755e-25)
(-5.22431316055523e-07 3.90080091010355e-07 2.01013220504582e-26)
(-4.26809372120928e-07 4.52547930591201e-07 1.16278168861142e-24)
(-3.46400284231677e-07 4.97612344778999e-07 -2.84754981951051e-25)
(-2.78599644053222e-07 5.30630035084358e-07 6.89515751405875e-25)
(-2.21146576027419e-07 5.55214482256548e-07 6.80695378560088e-25)
(-1.72111657868205e-07 5.73784865117578e-07 1.40824316180729e-25)
(-1.29889944810661e-07 5.87971225970082e-07 6.67677927177338e-25)
(-9.31515555354777e-08 5.98874063061953e-07 -3.69777079992216e-25)
(-6.07713436879763e-08 6.07250039243152e-07 2.9341435345396e-25)
(-3.18017100974271e-08 6.13584941517292e-07 -2.98755762650119e-25)
(-5.42494581073985e-09 6.18238339248753e-07 2.50612650076126e-25)
(1.90883143446115e-08 6.21428659012655e-07 4.65336431271838e-25)
(4.24089906655248e-08 6.23297637534858e-07 -1.90005710259838e-25)
(6.51611794102113e-08 6.23898321796965e-07 1.31648820325546e-25)
(8.7960883703876e-08 6.23232775609312e-07 -1.91843376863987e-25)
(1.11439442016752e-07 6.21254175321583e-07 9.91737845405346e-25)
(1.36252627944709e-07 6.17817724832156e-07 1.86071427670082e-26)
(1.63124637474009e-07 6.12701333495419e-07 -7.3607133433788e-25)
(1.92861051387879e-07 6.05563449272704e-07 4.17396244434545e-25)
(2.26401003152619e-07 5.95908742979492e-07 -7.62128827324812e-25)
(2.64846262483747e-07 5.82990113406909e-07 8.80269283524903e-25)
(3.09515960257061e-07 5.65704451429471e-07 8.39478996806921e-25)
(3.62001147681024e-07 5.42406798101778e-07 -6.56829343060108e-25)
(4.24203265154983e-07 5.1067170297749e-07 -2.96239314724494e-25)
(4.98366328055341e-07 4.66874726619737e-07 1.29998510635051e-25)
(5.87078854742764e-07 4.05672827502659e-07 -1.52294698733079e-26)
(6.93072813088369e-07 3.19251660423026e-07 3.30866476119134e-25)
(8.18970792427885e-07 1.96374570385766e-07 -1.96935045773876e-24)
(9.66463374950664e-07 2.17111236931571e-08 -8.08798412738271e-25)
(1.13437373281085e-06 -2.24157940560868e-07 -8.07347123422637e-25)
(1.31689611655285e-06 -5.59303453622044e-07 -2.09847674645438e-24)
(1.49304277324656e-06 -9.8370395232531e-07 -8.39562937244528e-25)
(1.62867870935665e-06 -1.41757350220555e-06 -9.3064109178978e-25)
(1.63668450783911e-06 -1.59008589159288e-06 -2.4107490795258e-24)
(1.44284274104767e-06 -8.24901353818478e-07 -9.03041774064398e-25)
(8.90497398101513e-07 1.72205998806487e-06 -7.93994265915947e-25)
(2.27259379847668e-07 5.96235361335781e-06 -2.2550384089512e-24)
(-3.15986169323885e-07 6.59546940124216e-06 -2.48021160419781e-25)
(5.03809056617445e-07 6.71765072370726e-06 4.10194815116882e-25)
(9.54727767332859e-07 6.56751914854486e-06 4.45707683097658e-25)
(4.79420385333531e-07 2.56184195424298e-06 8.0705669367059e-25)
(-2.23258033828173e-07 -6.69339937408922e-08 5.06506755288665e-25)
(-7.23678840552341e-07 -1.01699025166418e-06 2.318051305979e-25)
(-9.90598711150306e-07 -9.96825534065205e-07 1.67107062115546e-25)
(-1.06609929970766e-06 -6.53906864712009e-07 3.47795516711658e-25)
(-1.03395869239436e-06 -2.73447328549945e-07 3.96241024695711e-25)
(-9.45031883883071e-07 4.52143059903548e-08 3.15337745295413e-25)
(-8.34978821686544e-07 2.88946445411606e-07 4.15981727037103e-25)
(-7.2186675228555e-07 4.6825765654052e-07 1.10173618437942e-24)
(-6.15291751876125e-07 5.98577464941331e-07 9.45862089657642e-25)
(-5.19232740544281e-07 6.93179136153153e-07 7.21546819938195e-25)
(-4.3473084144999e-07 7.62268183817797e-07 9.31428471791092e-25)
(-3.6136083892984e-07 8.13246178291097e-07 5.4524295291303e-25)
(-2.97989155112519e-07 8.51334027066701e-07 9.38076866280707e-25)
(-2.43278194093658e-07 8.80160996540044e-07 1.0318917458511e-24)
(-1.95880705230372e-07 9.02233925414437e-07 9.42647877523412e-25)
(-1.54555393648536e-07 9.19275801084286e-07 1.0790006410028e-24)
(-1.18195171902922e-07 9.32476254478877e-07 7.12410508715796e-25)
(-8.58338182043021e-08 9.42662807606547e-07 7.62757251602293e-25)
(-5.66234236227095e-08 9.50395569194087e-07 5.48077517384891e-25)
(-2.98006106121142e-08 9.56077571634031e-07 6.57447845745603e-25)
(-4.68588442574922e-09 9.59959801611509e-07 7.16553344387645e-25)
(1.93505229732895e-08 9.622079036976e-07 5.65517802774719e-25)
(4.2911603941549e-08 9.62886322245966e-07 5.78740167564441e-25)
(6.65931797787696e-08 9.62007385362449e-07 3.5643599443076e-25)
(9.09876469330554e-08 9.59493790666117e-07 5.10739914987362e-25)
(1.16720491644139e-07 9.55199567924558e-07 2.14455893843931e-25)
(1.44473824311012e-07 9.48854852413367e-07 -4.75026144017082e-26)
(1.74981136121024e-07 9.40081507648036e-07 3.18192705221668e-27)
(2.09085815785813e-07 9.2831090309644e-07 -3.69684762075164e-25)
(2.47744012032928e-07 9.12725780057944e-07 1.02076149881178e-26)
(2.92036083051817e-07 8.92129450056199e-07 1.22114248794594e-25)
(3.43185112227015e-07 8.64786817989892e-07 -9.06028434072067e-26)
(4.02510610203584e-07 8.28190905602077e-07 -5.39301959547869e-26)
(4.71320545735057e-07 7.78719200091473e-07 2.78578235654271e-26)
(5.50723902395997e-07 7.11139028001722e-07 -1.56890947223034e-25)
(6.41104782718921e-07 6.18046731366039e-07 -6.80188803210361e-26)
(7.41402646289348e-07 4.89173682075879e-07 -5.70016663949819e-25)
(8.47577546279679e-07 3.11119731896472e-07 -4.31725744620984e-25)
(9.50006150105361e-07 6.80625741207279e-08 -4.28173238265354e-25)
(1.03043086927073e-06 -2.51654531122047e-07 -6.53030947191895e-25)
(1.05308037546121e-06 -6.37786724066678e-07 -3.84613993836531e-25)
(9.67029565570772e-07 -9.96571710341942e-07 -4.23670928642972e-25)
(6.89952498522445e-07 -1.04728433460627e-06 -7.55515875856697e-25)
(1.84250806551641e-07 -1.29648035935243e-07 -4.15927711642727e-25)
(-5.12080181308723e-07 2.51502533457014e-06 -2.48030309660827e-25)
(-9.60097710841554e-07 6.62483901664088e-06 -5.34768026444382e-25)
(-4.94012891596005e-07 6.83551932585934e-06 1.60749656431897e-25)
(5.39005828577903e-07 6.39304291318209e-06 5.1187076080135e-25)
(1.53585367121689e-06 6.59258786373872e-06 1.15891426055603e-24)
(1.23238352305929e-06 2.92152822000764e-06 8.84440893187795e-25)
(5.24368475162872e-07 3.14435299116886e-07 5.05030008411525e-25)
(-1.14070253854499e-07 -7.42265164697535e-07 3.76842576470845e-25)
(-5.31374365419871e-07 -8.42932607052167e-07 5.84089437358665e-25)
(-7.40935281609501e-07 -5.88432565169559e-07 4.51180809897111e-25)
(-8.11227542014892e-07 -2.61807405664851e-07 5.03512857817802e-25)
(-7.97059359378405e-07 2.8483400349868e-08 7.76996902839736e-25)
(-7.39335112531529e-07 2.59759649744589e-07 8.372679388425e-25)
(-6.62400471794272e-07 4.35718254708844e-07 6.51990691580715e-25)
(-5.80580877680733e-07 5.67467053066798e-07 8.79573890096588e-25)
(-5.01452513560847e-07 6.65706924120134e-07 9.83804923792683e-25)
(-4.28551999776863e-07 7.39206634637644e-07 6.80899381684034e-25)
(-3.6317057858979e-07 7.9460227067376e-07 9.10905846402462e-25)
(-3.05332724251111e-07 8.36748722941796e-07 9.30404888257057e-25)
(-2.54472435235643e-07 8.69138552452548e-07 1.09712205794976e-24)
(-2.09757931266221e-07 8.94235164604408e-07 1.29236619708112e-24)
(-1.70298081378274e-07 9.13803023139952e-07 1.15564494284711e-24)
(-1.3522498920156e-07 9.29061211500059e-07 1.1630152849911e-24)
(-1.03726010032067e-07 9.40887247741389e-07 9.10384863671623e-25)
(-7.50577194182656e-08 9.49891655222719e-07 8.93030496304984e-25)
(-4.85468021620047e-08 9.56504562198291e-07 8.09516435975903e-25)
(-2.35709851568099e-08 9.61007467673716e-07 7.48015391803095e-25)
(4.59014478841191e-10 9.63575843042718e-07 8.72992094533349e-25)
(2.41005164957517e-08 9.64302972245287e-07 7.84883827992371e-25)
(4.79079907503089e-08 9.63188300122254e-07 5.6824914397093e-25)
(7.24439046594087e-08 9.60139738163887e-07 1.95480321858317e-25)
(9.82787299403773e-08 9.55005282468756e-07 3.09659941907027e-25)
(1.26031254112199e-07 9.47489696786242e-07 2.68416734949191e-25)
(1.56366311121978e-07 9.37172784202459e-07 -1.5253748895679e-25)
(1.90008025389058e-07 9.23456270469311e-07 -1.31797858225575e-25)
(2.27749572650397e-07 9.05461296012278e-07 -3.84324737179011e-25)
(2.70442295986922e-07 8.81956670363703e-07 -2.70689396183314e-25)
(3.18959377564856e-07 8.51195949697077e-07 2.12261879915501e-25)
(3.74097561616602e-07 8.10686010359508e-07 1.78307469750372e-25)
(4.36383033997529e-07 7.56960379986246e-07 -9.77085431070996e-26)
(5.05757498236244e-07 6.85156629948396e-07 -2.15407538160629e-25)
(5.80873158504046e-07 5.88633902465843e-07 -1.96381180479794e-25)
(6.58153275939648e-07 4.58569960072751e-07 1.64233479699358e-25)
(7.29914010508963e-07 2.8415267002505e-07 -2.01171097560801e-25)
(7.81712851602933e-07 5.39126662398152e-08 -1.89058487536214e-25)
(7.88874539670013e-07 -2.36937458438558e-07 2.02849252468564e-25)
(7.10121832909898e-07 -5.68626027173097e-07 -1.56164049218677e-25)
(4.90144646748442e-07 -8.38563434621926e-07 -1.60773105358835e-25)
(6.11433453572622e-08 -7.69145321973694e-07 2.39793476413261e-25)
(-5.8666708522264e-07 2.51893084498068e-07 -1.42816289027888e-25)
(-1.29423712154193e-06 2.86753311436246e-06 -1.05001510618549e-26)
(-1.57241485547249e-06 6.63628320701066e-06 5.09683392535273e-25)
(-5.40958595488819e-07 6.50210291598378e-06 2.1577018359861e-25)
(5.02500835040759e-07 5.76322153492943e-06 4.98302193069174e-25)
(1.68527916581832e-06 6.23457518009604e-06 1.43463253636514e-24)
(1.51092398368005e-06 2.98679776252472e-06 8.1155249275914e-25)
(8.82678926502006e-07 4.79959728015645e-07 4.82122066414674e-25)
(2.32017689168527e-07 -6.35956452318938e-07 7.81450010063233e-25)
(-2.32664604939728e-07 -8.39195556920837e-07 9.327505058614e-25)
(-5.04673133972346e-07 -6.70142979747006e-07 4.58133711583706e-25)
(-6.32754399769292e-07 -4.01303782991864e-07 4.92854231192677e-25)
(-6.67081827374814e-07 -1.45113273087907e-07 1.04047491774855e-24)
(-6.47041476372211e-07 6.82158732056401e-08 9.8608443517214e-25)
(-5.98513760442017e-07 2.36315814605285e-07 1.60867766722769e-25)
(-5.37615687193026e-07 3.66028738341717e-07 6.37362130954266e-25)
(-4.73758011212809e-07 4.653308105415e-07 1.03114238668006e-24)
(-4.11949500638755e-07 5.41371128639563e-07 2.8492288575408e-25)
(-3.54633221016535e-07 5.99850483643232e-07 1.00886378548892e-24)
(-3.02678125271557e-07 6.45109613971267e-07 7.66821629689268e-25)
(-2.56140092576826e-07 6.8038339777461e-07 9.09821328904821e-25)
(-2.14624309553193e-07 7.08032974159469e-07 1.34847186885683e-24)
(-1.77549549455611e-07 7.29767243003721e-07 1.01973611836302e-24)
(-1.44267339250194e-07 7.46831289564258e-07 1.25065059234009e-24)
(-1.14121091716003e-07 7.60111118191543e-07 8.52240749486524e-25)
(-8.6488181396463e-08 7.70249600689853e-07 1.06137184290652e-24)
(-6.07705103315748e-08 7.77689325392558e-07 7.12863882442471e-25)
(-3.64153828886176e-08 7.82739630259587e-07 6.45456835474704e-25)
(-1.28864379814112e-08 7.85588001489295e-07 1.02914106095249e-24)
(1.03308510146822e-08 7.86329938318307e-07 7.4129550677973e-25)
(3.37390635831668e-08 7.8496812229294e-07 6.52073831123694e-25)
(5.78551666650968e-08 7.81412267911773e-07 -1.55114420579213e-25)
(8.32033663638323e-08 7.75477140733506e-07 2.49064403902406e-25)
(1.10331579418004e-07 7.66873244130237e-07 5.02450011569323e-25)
(1.39819994822852e-07 7.55145816355771e-07 -2.96901541423697e-25)
(1.72278022335952e-07 7.39671134973439e-07 1.33110075551446e-25)
(2.08342254654291e-07 7.19560094663261e-07 -6.58306919607819e-25)
(2.48648335767425e-07 6.93583873581626e-07 -5.91139294596446e-25)
(2.93745388053851e-07 6.60015084382621e-07 4.53782960548726e-25)
(3.43992910327369e-07 6.16497897250061e-07 2.25907625678681e-25)
(3.99303982623377e-07 5.59804144994897e-07 -8.74030617677587e-26)
(4.58761527015775e-07 4.85601581120105e-07 -2.1979142735996e-25)
(5.19858611834987e-07 3.88172514391602e-07 -3.90847809290245e-25)
(5.77522157380097e-07 2.60375430422213e-07 5.12539104594997e-25)
(6.22204009806073e-07 9.40987672202503e-08 -8.54445308902457e-27)
(6.37621960350921e-07 -1.17784324819282e-07 1.05943937987855e-26)