/*--------------------------------*- C++ -*----------------------------------*\
  =========                 |
  \\      /  F ield         | OpenFOAM: The Open Source CFD Toolbox
   \\    /   O peration     | Website:  https://openfoam.org
    \\  /    A nd           | Version:  10
     \\/     M anipulation  |
\*---------------------------------------------------------------------------*/
FoamFile
{
    format      ascii;
    class       volScalarField;
    location    "8.6";
    object      wallHeatFlux;
}
// * * * * * * * * * * * * * * * * * * * * * * * * * * * * * * * * * * * * * //

dimensions      [1 0 -3 0 0 0 0];

internalField   uniform 0;

boundaryField
{
    back
    {
        type            calculated;
        value           uniform 0;
    }
    bottom
    {
        type            calculated;
        value           nonuniform List<scalar> 
50
(
69.6298031093666
70.1517662708155
72.3951536789826
74.2557592944633
75.5218903950531
76.323631470654
76.8141264006047
77.1063504362799
77.2756035515936
77.3706784875612
77.4220144653002
77.4488121517525
77.4622909719657
77.4687618879211
77.4717705800971
77.4730747409716
77.4736717007408
77.4738954659469
77.4739594963938
77.4739899403928
77.4739954236887
77.4739942509709
77.4739908548867
77.4739953781131
77.4739928680268
77.473991813791
77.4739965349284
77.4740010151286
77.4740078932332
77.4740128453636
77.4740063522767
77.4739861326488
77.4738848642856
77.473622907912
77.4729913364444
77.4715385306369
77.4683361421934
77.4614878395056
77.4476042158247
77.4201709723214
77.3680675943754
77.2725635538385
77.1033260732654
76.8121851536225
76.324445576644
75.5251758051468
74.2575998439407
72.38682994342
70.1339683979904
69.6496737005812
)
;
    }
    left
    {
        type            calculated;
        value           uniform 0;
    }
    front
    {
        type            calculated;
        value           uniform 0;
    }
    right
    {
        type            calculated;
        value           uniform 0;
    }
    top
    {
        type            calculated;
        value           uniform 0;
    }
}


// ************************************************************************* //
