/*--------------------------------*- C++ -*----------------------------------*\
  =========                 |
  \\      /  F ield         | OpenFOAM: The Open Source CFD Toolbox
   \\    /   O peration     | Website:  https://openfoam.org
    \\  /    A nd           | Version:  10
     \\/     M anipulation  |
\*---------------------------------------------------------------------------*/
FoamFile
{
    format      ascii;
    class       volScalarField;
    location    "0.1";
    object      T;
}
// * * * * * * * * * * * * * * * * * * * * * * * * * * * * * * * * * * * * * //

dimensions      [0 0 0 1 0 0 0];

internalField   nonuniform List<scalar> 
500
(
228.883921606952
222.292921579064
222.012296518962
222.000519826655
222.000022152763
222.000001020445
222.000000120283
222.000000082925
222.000000091422
222.00000016647
227.197763302417
222.177030866331
222.006219670367
222.000228588043
222.000009138555
222.000000780022
222.000000451409
222.000000441788
222.000000480581
222.00000081351
227.035720814223
222.160288131414
222.005111460051
222.000169862066
222.000009310667
222.000003958194
222.000003775906
222.000003792033
222.000004058033
222.000006515849
227.019518973065
222.158023752253
222.004954497698
222.000186766167
222.000037511849
222.000032804101
222.000032663717
222.000032795034
222.000034559388
222.000052625394
227.018040966188
222.157974250299
222.005175651176
222.000434595731
222.000287330167
222.000282756743
222.00028266798
222.000283439143
222.000294673989
222.00042450137
227.019194554119
222.160083527798
222.007331115697
222.002594391841
222.00244750851
222.002443022994
222.002443172215
222.002447281807
222.002515001395
222.003418969663
227.030944961997
222.178587884001
222.025965869145
222.021234243574
222.021087905372
222.02108394299
222.021085365311
222.021105104735
222.021482157603
222.027489552067
227.139832012176
222.337982391818
222.186490447522
222.181799916053
222.181657813351
222.181658139266
222.181666966601
222.181748462274
222.183599431381
222.220602205204
228.154448436037
223.708145017598
223.566589246873
223.562262800077
223.562156647082
223.562193071275
223.562252073741
223.562513679483
223.569694983409
223.766533092633
237.627300276456
235.460854621384
235.406358242612
235.405252488276
235.40545068754
235.40579331769
235.406250462926
235.406775214947
235.421191626848
236.111947180628
228.269655626268
222.245271834929
222.009524260419
222.000373393972
222.000014787345
222.000000621646
222.000000058255
222.000000036078
222.000000038884
222.000000068138
226.819035702227
222.152086845278
222.004950557685
222.000168330574
222.000006154414
222.000000430807
222.000000221696
222.000000215251
222.000000231357
222.000000378737
226.686347791394
222.13925306895
222.004151842497
222.000128093244
222.000005920429
222.000002118092
222.000001996868
222.000002002428
222.000002122703
222.000003305937
226.673702641389
222.137595083344
222.004040620113
222.000137008872
222.000022203317
222.000018798343
222.000018700505
222.000018759801
222.000019623873
222.000029060044
226.672626622169
222.137544450845
222.004178435646
222.000292419822
222.000178859559
222.000175534126
222.000175462539
222.000175844842
222.000181811464
222.000255479869
226.673454816577
222.138982928075
222.005646499803
222.001763172283
222.001649862438
222.001646591886
222.001646654122
222.001648870676
222.00168794219
222.00224612606
226.682430978223
222.152699333007
222.019449164464
222.015568923705
222.015456174338
222.015453278223
222.01545416373
222.015465774678
222.015702696294
222.019748026381
226.772489762669
222.281431353772
222.148998904604
222.14514568188
222.145037980291
222.145038489742
222.145044956345
222.145097602538
222.146369173209
222.173628737547
227.683893435243
223.489528517086
223.364917639517
223.361323351846
223.361263433028
223.361295591821
223.361345566976
223.361534740012
223.366972751087
223.526598108131
236.936594698275
234.827150473547
234.777250642203
234.776137666105
234.776530356162
234.776858900284
234.777293936459
234.777754875105
234.790252100648
235.422411658974
228.253364174
222.243106887606
222.009347969963
222.000361630016
222.000014084765
222.000000582836
222.000000056502
222.000000036301
222.000000039269
222.000000068916
226.810032330272
222.151061331356
222.004876309235
222.000163794578
222.000005901413
222.000000418465
222.000000222175
222.000000216408
222.000000232713
222.000000381273
226.678701595746
222.138476914099
222.004102176247
222.000125427456
222.000005795263
222.000002119056
222.000002003845
222.000002009787
222.000002130947
222.000003320678
226.666264726027
222.136864860008
222.003996079792
222.000134799073
222.000022141626
222.000018835012
222.000018741487
222.000018801483
222.000019669729
222.000029138598
226.665218507407
222.13682205332
222.004135001553
222.000290448664
222.00017895606
222.000175721932
222.000175654465
222.000176039587
222.000182023003
222.000255827694
226.666049793636
222.138261984442
222.00560350641
222.001761501598
222.001650242511
222.001647052557
222.001647120003
222.001649351816
222.001688468036
222.002246978951
226.675010695838
222.151973741756
222.019401467044
222.015562610016
222.015451895767
222.01544898605
222.015449883618
222.015461601457
222.015698454123
222.01974219333
226.765052415091
222.280622876632
222.148864616148
222.145053466988
222.144947713871
222.144947278831
222.144953796344
222.14500739206
222.146276813308
222.173504288405
227.676060442058
223.487742590477
223.36376813039
223.360222442945
223.360164071249
223.360186078337
223.360236259803
223.360434959319
223.365853015335
223.525167391183
236.924676128943
234.815661630853
234.766004793802
234.765001850404
234.765396634588
234.765624047159
234.766058655536
234.766617824416
234.778977541448
235.40886208119
228.273939218189
222.245273858611
222.009482050733
222.000368820293
222.000014445806
222.000000603484
222.000000060985
222.000000040109
222.000000043641
222.000000077366
226.819787807667
222.151881821598
222.004919584045
222.000165839007
222.000006007967
222.000000438718
222.000000238715
222.000000232987
222.000000251221
222.000000414624
226.687595815166
222.139168094745
222.00413535433
222.000126935279
222.000005970283
222.000002241238
222.00000212408
222.000002131046
222.00000226381
222.000003549064
226.675054678316
222.13753695393
222.00402817044
222.000136919944
222.000023050562
222.000019698448
222.000019603737
222.000019669538
222.000020604753
222.000030671774
226.673999965275
222.137496363853
222.004171875906
222.000297634281
222.000184951138
222.000181673129
222.000181606239
222.000182020365
222.000188366694
222.000265727879
226.67486039801
222.138968866788
222.005673326097
222.001801690977
222.001689236922
222.001686003982
222.001686079084
222.001688441941
222.001729366915
222.002307583201
226.683907653991
222.152874523888
222.01966824511
222.015799975476
222.015687983796
222.015685032544
222.015685964291
222.015698202142
222.015943076424
222.020085461082
226.774489587295
222.282534757757
222.150159722837
222.146320817092
222.146212928598
222.146212439966
222.146219076961
222.146274384034
222.147573720791
222.175222072043
227.687587844679
223.493677916755
223.369183713375
223.365623721741
223.365554479196
223.365576174161
223.365626682758
223.365829581058
223.371332382967
223.531979310703
236.937287282555
234.827897610862
234.778137641205
234.777231097532
234.777526980154
234.777750826801
234.778185854326
234.778751288674
234.791277644987
235.422862778257
228.862259412718
222.302002656139
222.013131204181
222.000572731073
222.000025075088
222.000001160211
222.00000011571
222.000000070995
222.000000077456
222.000000140454
227.208887253178
222.182893957046
222.006636443185
222.000251433618
222.000010231768
222.000000776421
222.000000394674
222.000000381962
222.000000414658
222.000000699228
227.038845555138
222.16477430348
222.005403643128
222.000183704342
222.000009479539
222.000003518013
222.000003309299
222.000003320948
222.000003549118
222.000005676706
227.021405837467
222.162269825712
222.005219495685
222.000195604575
222.000034392728
222.000029187988
222.000029026677
222.000029138515
222.000030672168
222.000046528179
227.01979277622
222.162161143538
222.005412614562
222.000419207963
222.000260314653
222.000255265326
222.000255151708
222.00025582526
222.000265731389
222.00038141495
227.020848380817
222.16409414901
222.007395106642
222.002406621287
222.002248175131
222.00224319854
222.002243299051
222.002246954825
222.002307614896
222.003126657407
227.031868164442
222.181439324029
222.024868450525
222.019885182973
222.019727371979
222.019722757036
222.019724032968
222.019741967154
222.020085747654
222.025630843415
227.13631797936
222.33396544689
222.17851337181
222.173571939252
222.173419257309
222.173417577084
222.173425909685
222.173502181097
222.175224663435
222.21010940724
228.130810884845
223.674902127273
223.52947974241
223.524915101268
223.524808003835
223.524831091229
223.524888651421
223.525147782039
223.532002744295
223.722376524887
237.633776657903
235.463842314477
235.408228561569
235.407059486099
235.407358412196
235.40759316187
235.408050164824
235.408679743572
235.423074685297
236.1192197553
)
;

boundaryField
{
    patch0
    {
        type            zeroGradient;
    }
    patch1
    {
        type            zeroGradient;
    }
    patch2
    {
        type            fixedValue;
        value           nonuniform List<scalar>
50
(
300.011666666667
300.013
300.013
300.014666666667
300.015
300.016
300.017333333333
300.019
300.019666666667
300.02
300.013666666667
300.015
300.015666666667
300.016666666667
300.017666666667
300.018666666667
300.02
300.021
300.021666666667
300.022666666667
300.015666666667
300.017
300.017666666667
300.018666666667
300.019666666667
300.020666666667
300.021666666667
300.023
300.023666666667
300.024666666667
300.017
300.018
300.019
300.02
300.021
300.022333333333
300.023
300.024333333333
300.025
300.026
300.019666666667
300.020666666667
300.021666666667
300.022666666667
300.023666666667
300.025
300.025666666667
300.027
300.027666666667
300.028666666667
)
;
    }
    patch3
    {
        type            zeroGradient;
    }
    patch4
    {
        type            fixedValue;
        value           nonuniform List<scalar>
50
(
300.022
300.024
300.026666666667
300.028666666667
300.03
300.032
300.034666666667
300.036
300.037333333333
300.039333333333
300.024666666667
300.026666666667
300.028666666667
300.029333333333
300.032
300.034
300.036666666667
300.038
300.04
300.042
300.026666666667
300.028
300.030666666667
300.032
300.034666666667
300.036
300.038666666667
300.040666666667
300.042
300.044
300.028
300.029333333333
300.032
300.034
300.036
300.037333333333
300.04
300.042
300.044
300.045333333333
300.030666666667
300.032
300.034666666667
300.036666666667
300.038666666667
300.04
300.042666666667
300.044666666667
300.046666666667
300.048
)
;
    }
    patch5
    {
        type            zeroGradient;
    }
}


// ************************************************************************* //
