/*--------------------------------*- C++ -*----------------------------------*\
  =========                 |
  \\      /  F ield         | OpenFOAM: The Open Source CFD Toolbox
   \\    /   O peration     | Website:  https://openfoam.org
    \\  /    A nd           | Version:  10
     \\/     M anipulation  |
\*---------------------------------------------------------------------------*/
FoamFile
{
    format      ascii;
    class       volScalarField;
    location    "0.8";
    object      alphat;
}
// * * * * * * * * * * * * * * * * * * * * * * * * * * * * * * * * * * * * * //

dimensions      [1 -1 -1 0 0 0 0];

internalField   nonuniform List<scalar> 
2500
(
8.71727275713946e-11
9.63931831795988e-11
1.02580707168267e-10
1.03937333381004e-10
1.04159299130718e-10
1.04191155229386e-10
1.0419539411023e-10
1.0419593693095e-10
1.04195974175723e-10
1.0419599926573e-10
1.0419600894658e-10
1.04195970230076e-10
1.04195960430723e-10
1.04195948867925e-10
1.04195932608967e-10
1.0419591704669e-10
1.04195910227264e-10
1.04195904802545e-10
1.04195899747171e-10
1.04195894724859e-10
1.04195889967148e-10
1.0419588591727e-10
1.04195881847619e-10
1.04195877073623e-10
1.04195872608112e-10
1.04195869182489e-10
1.04195865706644e-10
1.04195862301444e-10
1.04195859389079e-10
1.04195856015194e-10
1.04195853341288e-10
1.04195850989596e-10
1.04195848931674e-10
1.0419584715864e-10
1.04195845503029e-10
1.04195844528376e-10
1.04195844172391e-10
1.04195844138336e-10
1.04195844246417e-10
1.04195844697434e-10
1.04195842276523e-10
1.04195815643029e-10
1.04195620512112e-10
1.04194318642133e-10
1.04186085544363e-10
1.04136853991331e-10
1.03862160324838e-10
1.0246239486567e-10
9.62616766941377e-11
8.72767893998067e-11
5.87233960528874e-10
2.86441284645955e-09
4.60128165497224e-09
5.02501946643673e-09
5.09931020391036e-09
5.11042940156772e-09
5.11194195297666e-09
5.11213362102056e-09
5.11215614624848e-09
5.11216183846488e-09
5.11216258202083e-09
5.11215963886043e-09
5.11215837704326e-09
5.11215588280931e-09
5.11215272809327e-09
5.11214981050128e-09
5.11214845670399e-09
5.11214740684107e-09
5.11214643555617e-09
5.11214550714426e-09
5.11214463967343e-09
5.11214381459494e-09
5.11214301236056e-09
5.11214223803309e-09
5.11214150645114e-09
5.11214084172755e-09
5.11214021677224e-09
5.11213964968604e-09
5.1121391309109e-09
5.11213863721745e-09
5.112138213191e-09
5.11213786208689e-09
5.11213756088632e-09
5.11213731110809e-09
5.11213715978997e-09
5.11213710325722e-09
5.11213717121738e-09
5.11213730703301e-09
5.11213751802262e-09
5.11213772312645e-09
5.1121368386779e-09
5.11212739781641e-09
5.11205950681791e-09
5.11161374087304e-09
5.10884887604842e-09
5.09273593651769e-09
5.00608803240364e-09
4.58892000444868e-09
2.89125320744846e-09
5.93076690626861e-10
6.87324601641603e-10
2.64554436679019e-08
4.04659613644024e-06
4.59829810135362e-06
4.70271185022844e-06
4.71940012371932e-06
4.72178654429765e-06
4.72210189128549e-06
4.72214118106227e-06
4.72214760562913e-06
4.72214739346204e-06
4.7221448661655e-06
4.72214346084783e-06
4.72214191055148e-06
4.72213973760208e-06
4.72213784045696e-06
4.72213664749261e-06
4.72213568469438e-06
4.72213479858287e-06
4.72213395472327e-06
4.72213315000198e-06
4.72213237370831e-06
4.72213163246255e-06
4.72213092583497e-06
4.7221302508174e-06
4.72212962405395e-06
4.72212904143419e-06
4.7221284930609e-06
4.722127989376e-06
4.72212752781346e-06
4.72212711282241e-06
4.72212675522575e-06
4.72212645005487e-06
4.72212619361353e-06
4.72212600794892e-06
4.72212589895122e-06
4.72212587804522e-06
4.72212592422112e-06
4.72212603332552e-06
4.72212600721089e-06
4.72212428004816e-06
4.72211003628187e-06
4.72201160122865e-06
4.7213747063907e-06
4.71747765572982e-06
4.69518837558724e-06
4.57871792969531e-06
4.04225713379445e-06
2.68891808071202e-08
6.97751413592788e-10
7.27248222978912e-10
3.43105627378292e-08
5.59181622929866e-06
6.39537632303102e-06
6.55438942003978e-06
6.58100386247606e-06
6.58498132491543e-06
6.58552971053057e-06
6.58560140041457e-06
6.58561147469798e-06
6.58561033302721e-06
6.58560837017352e-06
6.5856068789179e-06
6.58560525418589e-06
6.58560309734793e-06
6.58560123653356e-06
6.58559990787954e-06
6.58559878862085e-06
6.5855977419625e-06
6.5855967351194e-06
6.58559576482531e-06
6.58559482835698e-06
6.58559393098042e-06
6.58559306935025e-06
6.58559224816706e-06
6.58559147108525e-06
6.58559073813286e-06
6.58559004685329e-06
6.58558940355228e-06
6.58558880606211e-06
6.58558825896395e-06
6.58558776456358e-06
6.58558732595612e-06
6.58558694437154e-06
6.58558662918425e-06
6.58558638642859e-06
6.58558622548905e-06
6.58558613175299e-06
6.58558608622995e-06
6.58558581689493e-06
6.58558327116398e-06
6.58556408132563e-06
6.5854313742502e-06
6.58455909372947e-06
6.57911764888286e-06
6.54736983567746e-06
6.3785004042602e-06
5.59241345181251e-06
3.47791756373344e-08
7.38453403846421e-10
7.42424773858918e-10
3.78447559234051e-08
6.38758097224024e-06
7.33761044666747e-06
7.53187729274553e-06
7.56558535260583e-06
7.57081207561079e-06
7.57155992551718e-06
7.57166134145219e-06
7.57167435546852e-06
7.57167399864853e-06
7.57167257099737e-06
7.57167126050661e-06
7.5716698506705e-06
7.5716681232221e-06
7.57166658071533e-06
7.57166535645555e-06
7.57166427512311e-06
7.57166325064568e-06
7.57166225882878e-06
7.57166129882241e-06
7.5716603686482e-06
7.57165947397668e-06
7.57165861307937e-06
7.57165779066707e-06
7.57165700580076e-06
7.57165626252154e-06
7.57165555954229e-06
7.57165490040686e-06
7.57165428320842e-06
7.57165371269743e-06
7.57165318798143e-06
7.57165271355649e-06
7.57165229007736e-06
7.57165192359428e-06
7.57165161697389e-06
7.57165137689643e-06
7.57165119208009e-06
7.57165103195259e-06
7.57165059081596e-06
7.5716476175538e-06
7.57162623654726e-06
7.57147821358121e-06
7.57049506250524e-06
7.56428293771833e-06
7.52755854631981e-06
7.32998159090577e-06
6.40510815943955e-06
3.84225912086962e-08
7.54536294647981e-10
7.48059693350964e-10
3.93186194696611e-08
6.76674456251954e-06
7.79665691698942e-06
8.01202762054824e-06
8.05038043235049e-06
8.0564967121451e-06
8.05739801404345e-06
8.05752363260491e-06
8.0575398036451e-06
8.05754039206575e-06
8.05753938090091e-06
8.0575382728799e-06
8.05753710317402e-06
8.05753577090905e-06
8.05753452876762e-06
8.05753345298019e-06
8.05753246155096e-06
8.05753151048048e-06
8.05753058432105e-06
8.05752968481148e-06
8.05752881092189e-06
8.05752796825141e-06
8.05752715578212e-06
8.05752637828665e-06
8.0575256344374e-06
8.05752492841705e-06
8.05752425842242e-06
8.0575236280548e-06
8.05752303524693e-06
8.05752248387492e-06
8.05752197225794e-06
8.0575215044737e-06
8.05752107990372e-06
8.05752070319259e-06
8.057520374902e-06
8.05752009901479e-06
8.05751986552928e-06
8.05751963627758e-06
8.05751908919817e-06
8.05751589098906e-06
8.05749353542024e-06
8.05733883509094e-06
8.05630572098132e-06
8.04973194648488e-06
8.01058385174682e-06
7.7986246047272e-06
6.80333659590265e-06
4.00240221924522e-08
7.60948814078236e-10
7.50126524014162e-10
3.99062472513641e-08
6.93721169617138e-06
8.00809257052584e-06
8.23525994458915e-06
8.27642964086646e-06
8.28312823703752e-06
8.28413737285383e-06
8.28428106580167e-06
8.28430002948488e-06
8.28430140028609e-06
8.2843006828721e-06
8.28429972619819e-06
8.28429873295189e-06
8.28429766431074e-06
8.28429663175347e-06
8.284295678508e-06
8.28429477081491e-06
8.28429389032907e-06
8.28429302882612e-06
8.28429219019675e-06
8.28429137395999e-06
8.28429058573901e-06
8.28428982476499e-06
8.28428909593181e-06
8.28428839776872e-06
8.28428773439394e-06
8.28428710375875e-06
8.28428650936058e-06
8.28428594890081e-06
8.28428542574616e-06
8.28428493783108e-06
8.28428448863633e-06
8.28428407672012e-06
8.28428370578005e-06
8.28428337483242e-06
8.28428308615324e-06
8.28428282989198e-06
8.28428256345672e-06
8.28428195674313e-06
8.28427864275419e-06
8.2842558607864e-06
8.28409836551203e-06
8.28304392403826e-06
8.27631094339631e-06
8.23606346317955e-06
8.01741313434111e-06
6.9888494828325e-06
4.07083991455351e-08
7.63508883899756e-10
7.50878818129195e-10
4.01337932590307e-08
7.01049612973239e-06
8.10127940439561e-06
8.33466023536155e-06
8.37743001021798e-06
8.38448362369432e-06
8.38556298524348e-06
8.38571919602238e-06
8.38574030541528e-06
8.38574224362265e-06
8.38574170613866e-06
8.38574085214804e-06
8.38573997081519e-06
8.38573905657962e-06
8.38573815289318e-06
8.38573728431583e-06
8.38573643893899e-06
8.38573561226519e-06
8.38573480072684e-06
8.38573400949255e-06
8.38573323846058e-06
8.38573249335497e-06
8.3857317734939e-06
8.38573108379703e-06
8.38573042273736e-06
8.38572979437118e-06
8.38572919650951e-06
8.38572863254251e-06
8.38572809999315e-06
8.3857276019494e-06
8.38572713608654e-06
8.38572670549345e-06
8.3857263082569e-06
8.38572594743556e-06
8.3857256211481e-06
8.38572533068013e-06
8.38572506599256e-06
8.38572478215258e-06
8.3857241452237e-06
8.38572077474001e-06
8.38569781182547e-06
8.38553919909954e-06
8.38447612951907e-06
8.37767699386584e-06
8.33695983677578e-06
8.11537587018036e-06
7.0719347479421e-06
4.09953212880985e-08
7.64528775910723e-10
7.5115101120297e-10
4.02201344100928e-08
7.04091476041372e-06
8.14093287247829e-06
8.37742501538311e-06
8.42105463272593e-06
8.42831206333016e-06
8.42943431492423e-06
8.4295986369227e-06
8.42962127077609e-06
8.42962360026775e-06
8.42962313382462e-06
8.42962234592926e-06
8.42962153262167e-06
8.42962070522968e-06
8.42961987764259e-06
8.42961906450717e-06
8.4296182629053e-06
8.42961747509319e-06
8.4296167000885e-06
8.42961594379053e-06
8.42961520632833e-06
8.42961449346818e-06
8.42961380456754e-06
8.42961314451845e-06
8.42961251178108e-06
8.42961191034127e-06
8.42961133795705e-06
8.4296107979119e-06
8.42961028763448e-06
8.42960981004791e-06
8.42960936267675e-06
8.42960894837196e-06
8.42960856496284e-06
8.42960821512786e-06
8.429607896517e-06
8.4296076098737e-06
8.42960734498305e-06
8.42960705578681e-06
8.42960640666142e-06
8.4296030119942e-06
8.42957997686475e-06
8.42942093908621e-06
8.42835454911037e-06
8.42152926564558e-06
8.38062112215999e-06
8.15781024818466e-06
7.10799995742856e-06
4.11138101070336e-08
7.64933409520994e-10
7.51248918262173e-10
4.02524017495178e-08
7.05319220225723e-06
8.15733447682031e-06
8.39531943796711e-06
8.43938990379457e-06
8.4467585330747e-06
8.4479055884693e-06
8.44807486820761e-06
8.44809848497509e-06
8.44810104294907e-06
8.44810065264437e-06
8.44809990937406e-06
8.44809913868555e-06
8.44809836157225e-06
8.44809758013464e-06
8.44809680408823e-06
8.44809603390107e-06
8.44809527484988e-06
8.44809452725887e-06
8.44809379739239e-06
8.44809308550857e-06
8.44809239736469e-06
8.44809173234078e-06
8.44809109528083e-06
8.4480904846471e-06
8.44808990436014e-06
8.44808935216245e-06
8.44808883125196e-06
8.44808833902027e-06
8.44808787827709e-06
8.44808744647654e-06
8.44808704631839e-06
8.44808667550859e-06
8.44808633650647e-06
8.44808602674415e-06
8.44808574668586e-06
8.44808548604283e-06
8.448085198287e-06
8.44808454719619e-06
8.44808114538842e-06
8.44805808549905e-06
8.44789889632763e-06
8.44683128846383e-06
8.43999611055435e-06
8.39901341373841e-06
8.17570846474008e-06
7.1232633912389e-06
4.11621027515301e-08
7.65093025786065e-10
7.51283856368724e-10
4.02643095046896e-08
7.05803568257203e-06
8.16396212946102e-06
8.40263799683445e-06
8.4469256414628e-06
8.45435235679302e-06
8.4555131021274e-06
8.45568526427387e-06
8.45570946908348e-06
8.45571218058705e-06
8.45571184796565e-06
8.45571113705636e-06
8.45571039593265e-06
8.45570965133324e-06
8.45570890104691e-06
8.45570815246299e-06
8.45570740715486e-06
8.45570667161417e-06
8.45570594676797e-06
8.45570523902126e-06
8.45570454869706e-06
8.45570388150879e-06
8.45570323684951e-06
8.45570261950475e-06
8.4557020279447e-06
8.45570146602744e-06
8.45570093149883e-06
8.45570042748625e-06
8.45569995137282e-06
8.45569950588356e-06
8.45569908844803e-06
8.45569870165947e-06
8.45569834317457e-06
8.45569801532164e-06
8.45569771545152e-06
8.45569744389849e-06
8.45569719039359e-06
8.45569690826717e-06
8.45569626125052e-06
8.45569286156085e-06
8.45566979797544e-06
8.45551056214286e-06
8.45444253090415e-06
8.44760375119679e-06
8.40659292291822e-06
8.18309496862034e-06
7.12958929980693e-06
4.11815460405135e-08
7.65155503349496e-10
7.51296166814605e-10
4.02686516058061e-08
7.05991012342981e-06
8.16658830061383e-06
8.40557433252745e-06
8.44996537922516e-06
8.4574213228743e-06
8.45858932531651e-06
8.45876309307337e-06
8.45878763851086e-06
8.45879044807422e-06
8.45879015763193e-06
8.45878947196318e-06
8.45878875384827e-06
8.45878803340952e-06
8.45878730705888e-06
8.45878658114507e-06
8.45878585742665e-06
8.45878514276736e-06
8.45878443833957e-06
8.45878375056856e-06
8.45878307980547e-06
8.45878243170132e-06
8.45878180566099e-06
8.45878120640527e-06
8.45878063241933e-06
8.45878008749801e-06
8.45877956940322e-06
8.45877908119653e-06
8.45877862027128e-06
8.45877818927974e-06
8.45877778564898e-06
8.458777411889e-06
8.4587770656438e-06
8.45877674915269e-06
8.45877645975805e-06
8.4587761977456e-06
8.45877595293512e-06
8.45877567863725e-06
8.45877503883803e-06
8.45877164591716e-06
8.45874858781095e-06
8.45858934413827e-06
8.45752117700582e-06
8.4506811313757e-06
8.40965997416903e-06
8.18608841124961e-06
7.13216497506599e-06
4.11892807539185e-08
7.65179714399016e-10
7.51300411033974e-10
4.02702140752093e-08
7.06062329124403e-06
8.16761130223755e-06
8.40673302171695e-06
8.45117187507912e-06
8.45864205543261e-06
8.45981377102827e-06
8.45998839892965e-06
8.46001313569122e-06
8.46001600821323e-06
8.46001574987835e-06
8.46001508543131e-06
8.46001438719679e-06
8.46001368727441e-06
8.46001298181375e-06
8.46001227680271e-06
8.46001157368433e-06
8.46001087926561e-06
8.46001019478111e-06
8.4600095266089e-06
8.46000887510648e-06
8.46000824585337e-06
8.46000763826065e-06
8.46000705698263e-06
8.46000650052031e-06
8.4600059726062e-06
8.46000547102218e-06
8.46000499876704e-06
8.46000455325088e-06
8.46000413705782e-06
8.46000374762331e-06
8.46000338738305e-06
8.46000305398401e-06
8.46000274959755e-06
8.46000247159763e-06
8.46000222028434e-06
8.46000198562703e-06
8.46000172083759e-06
8.46000109039083e-06
8.45999770708871e-06
8.45997465906331e-06
8.45981542228417e-06
8.45874721994079e-06
8.45190674440861e-06
8.41088186756593e-06
8.1872827119366e-06
7.13319744599454e-06
4.11923182101974e-08
7.65188943958422e-10
7.51302024623524e-10
4.02707681249975e-08
7.06089025858483e-06
8.16800361783419e-06
8.40718338363335e-06
8.45164377597306e-06
8.45912069246219e-06
8.46029424780441e-06
8.46046931947938e-06
8.46049416039368e-06
8.4604970743356e-06
8.46049684131916e-06
8.46049619501207e-06
8.46049551433599e-06
8.46049483255155e-06
8.4604941460538e-06
8.46049346097491e-06
8.46049277794527e-06
8.46049210343547e-06
8.46049143864711e-06
8.46049078987576e-06
8.46049015747852e-06
8.46048954695627e-06
8.46048895773021e-06
8.4604883943849e-06
8.46048785544128e-06
8.46048734456856e-06
8.46048685957301e-06
8.46048640339129e-06
8.46048597345516e-06
8.46048557228138e-06
8.46048519731816e-06
8.46048485092887e-06
8.46048453077182e-06
8.4604842389599e-06
8.46048397293248e-06
8.46048373309535e-06
8.46048350970684e-06
8.46048325534779e-06
8.46048263536912e-06
8.46047926315941e-06
8.4604562274149e-06
8.46029700315565e-06
8.45922879997581e-06
8.45238818510877e-06
8.41136197916534e-06
8.18775257651861e-06
7.13360537013915e-06
4.11934933165297e-08
7.65192420130693e-10
7.51304202093661e-10
4.02709674299385e-08
7.06098846313969e-06
8.16815157016966e-06
8.40735568498697e-06
8.45182556563451e-06
8.45930558679269e-06
8.46048002620749e-06
8.46065531776978e-06
8.4606802134978e-06
8.46068315596572e-06
8.46068294394185e-06
8.46068231375552e-06
8.46068164924938e-06
8.46068098431894e-06
8.4606803158567e-06
8.46067965055599e-06
8.46067898764966e-06
8.46067833319029e-06
8.46067768831476e-06
8.46067705922099e-06
8.46067644625728e-06
8.4606758548425e-06
8.46067528440522e-06
8.4606747394599e-06
8.46067421854689e-06
8.46067372527432e-06
8.46067325747182e-06
8.46067281801518e-06
8.46067240435912e-06
8.46067201895411e-06
8.46067165926346e-06
8.46067132757958e-06
8.46067102157631e-06
8.46067074331827e-06
8.46067049035824e-06
8.46067026343095e-06
8.46067005361778e-06
8.46066981093835e-06
8.46066920266137e-06
8.46066584297821e-06
8.46064282128673e-06
8.46048361251698e-06
8.45941542102918e-06
8.4525747675971e-06
8.4115480885012e-06
8.18793489193592e-06
7.13376420896943e-06
4.11939405499083e-08
7.65194168259672e-10
7.51307761733733e-10
4.02710189181585e-08
7.06102308565371e-06
8.16820592012651e-06
8.40742023168275e-06
8.45189424288234e-06
8.4593756675181e-06
8.46055052084974e-06
8.4607259172167e-06
8.46075084198923e-06
8.46075380820468e-06
8.46075361793579e-06
8.46075300610059e-06
8.46075236010638e-06
8.4607517141944e-06
8.46075106523236e-06
8.4607504196397e-06
8.46074977639955e-06
8.46074914157204e-06
8.46074851626703e-06
8.46074790658065e-06
8.46074731285124e-06
8.46074674041185e-06
8.46074618870081e-06
8.4607456621608e-06
8.46074515935422e-06
8.46074468382653e-06
8.4607442334358e-06
8.46074381099849e-06
8.46074341399291e-06
8.46074304480546e-06
8.46074270091748e-06
8.46074238455348e-06
8.4607420934081e-06
8.46074182950827e-06
8.46074159060368e-06
8.46074137832014e-06
8.46074118675068e-06
8.4607409567314e-06
8.46074036067482e-06
8.46073701408726e-06
8.46071400707019e-06
8.46055481468936e-06
8.45948663901617e-06
8.45264598274768e-06
8.41161914070238e-06
8.18800454989483e-06
7.13382515787443e-06
4.11941146272908e-08
7.6520019074846e-10
7.51306461998744e-10
4.02710055745307e-08
7.06103504917288e-06
8.16822519996824e-06
8.40744350738062e-06
8.45191923005206e-06
8.4594012659244e-06
8.46057630499089e-06
8.46075174741024e-06
8.46077668753314e-06
8.46077967570948e-06
8.46077950865624e-06
8.4607789175446e-06
8.4607782925724e-06
8.46077766815092e-06
8.46077704044015e-06
8.46077641477421e-06
8.46077579141574e-06
8.46077517654457e-06
8.46077457125319e-06
8.46077398152842e-06
8.46077340768921e-06
8.46077285497798e-06
8.46077232283535e-06
8.46077181563085e-06
8.46077133194482e-06
8.46077087525941e-06
8.46077044345942e-06
8.460770039302e-06
8.46076966028934e-06
8.46076930874273e-06
8.46076898216429e-06
8.46076868271295e-06
8.46076840810626e-06
8.46076816034619e-06
8.46076793748269e-06
8.46076774330497e-06
8.46076758364651e-06
8.4607673677356e-06
8.46076678340656e-06
8.46076344901042e-06
8.46074045510438e-06
8.46058127661295e-06
8.45951311431404e-06
8.45267246424628e-06
8.41164556930936e-06
8.18803039149276e-06
7.13384766956843e-06
4.11941966248496e-08
7.65203445120724e-10
7.51306157296034e-10
4.02710024985558e-08
7.06103917253751e-06
8.16823097383954e-06
8.40745081451345e-06
8.4519273184433e-06
8.45940964522774e-06
8.46058477863216e-06
8.4607602489994e-06
8.4607852063922e-06
8.46078822192575e-06
8.46078808395618e-06
8.46078751934062e-06
8.4607869208301e-06
8.46078632283246e-06
8.46078572100335e-06
8.46078512007187e-06
8.46078452100662e-06
8.46078393007235e-06
8.46078334837288e-06
8.46078278181297e-06
8.46078223071545e-06
8.46078170024681e-06
8.46078118986539e-06
8.46078070387194e-06
8.46078024087105e-06
8.46077980427701e-06
8.46077939199662e-06
8.46077900671536e-06
8.46077864594042e-06
8.46077831190416e-06
8.46077800210039e-06
8.46077771858735e-06
8.46077745906777e-06
8.46077722545566e-06
8.46077701606316e-06
8.46077683869772e-06
8.4607767550184e-06
8.46077656297397e-06
8.46077599484748e-06
8.46077267726797e-06
8.46074970237587e-06
8.46059054563352e-06
8.45952240650442e-06
8.45268177482745e-06
8.41165487396285e-06
8.18803951516373e-06
7.13385533662758e-06
4.11942279236557e-08
7.6519829875751e-10
7.51307621329989e-10
4.02710110873731e-08
7.06103924823238e-06
8.16823138504607e-06
8.40745206179032e-06
8.4519289512114e-06
8.45941142179504e-06
8.46058660715171e-06
8.46076209797697e-06
8.46078707410708e-06
8.46079011950479e-06
8.46079001364844e-06
8.46078947865679e-06
8.46078890960322e-06
8.46078834078627e-06
8.46078776757257e-06
8.46078719433818e-06
8.46078662232973e-06
8.46078605782864e-06
8.46078550195939e-06
8.46078496056155e-06
8.46078443397541e-06
8.46078392730516e-06
8.46078344003183e-06
8.46078297639743e-06
8.46078253503267e-06
8.46078211928203e-06
8.46078172707084e-06
8.46078136100705e-06
8.46078101858656e-06
8.4607807019353e-06
8.4607804085181e-06
8.46078014027235e-06
8.4607798948574e-06
8.46077967402839e-06
8.46077947588332e-06
8.46077930740638e-06
8.46077923993206e-06
8.46077905602075e-06
8.46077850119191e-06
8.46077519825145e-06
8.46075224077354e-06
8.46059310500098e-06
8.45952498702256e-06
8.45268435932339e-06
8.41165740619284e-06
8.18804202355997e-06
7.13385816729289e-06
4.11942044113083e-08
7.65198425961464e-10
7.51304761298571e-10
4.02710166500071e-08
7.06103683215078e-06
8.16823019391318e-06
8.40745131749538e-06
8.45192837603942e-06
8.45941090675678e-06
8.46058611354449e-06
8.46076161237651e-06
8.46078659966235e-06
8.46078966865153e-06
8.46078958969011e-06
8.46078907971565e-06
8.46078853586972e-06
8.46078799234976e-06
8.46078744434512e-06
8.46078689596961e-06
8.4607863485174e-06
8.46078580820987e-06
8.46078527616713e-06
8.4607847581522e-06
8.46078425451783e-06
8.460783770295e-06
8.46078330498687e-06
8.46078286277683e-06
8.46078244232717e-06
8.46078204691162e-06
8.46078167448069e-06
8.46078132757714e-06
8.46078100368468e-06
8.46078070482709e-06
8.46078042845424e-06
8.46078017639985e-06
8.46077994630757e-06
8.46077973977595e-06
8.46077955448366e-06
8.46077939250444e-06
8.46077926692695e-06
8.46077908769042e-06
8.4607785406336e-06
8.4607752461406e-06
8.46075229861694e-06
8.46059317447095e-06
8.45952506508019e-06
8.45268441805401e-06
8.41165733422896e-06
8.18804161580242e-06
7.13385797216375e-06
4.11941700012139e-08
7.65200124578046e-10
7.51305720326758e-10
4.02710141071375e-08
7.06103330610916e-06
8.16822814604496e-06
8.40744970809908e-06
8.45192689091584e-06
8.45940945562172e-06
8.46058467340725e-06
8.46076017701129e-06
8.46078517472136e-06
8.4607882674031e-06
8.46078821558596e-06
8.46078773014364e-06
8.46078721067562e-06
8.46078669165608e-06
8.46078616823879e-06
8.46078564432835e-06
8.4607851211767e-06
8.46078460490868e-06
8.46078409662557e-06
8.46078360201153e-06
8.46078312142975e-06
8.46078265983085e-06
8.46078221673435e-06
8.46078179627254e-06
8.46078139714507e-06
8.46078102254571e-06
8.46078067045258e-06
8.4607803433572e-06
8.46078003870951e-06
8.46077975842751e-06
8.46077949994504e-06
8.46077926499798e-06
8.46077905123115e-06
8.46077886009979e-06
8.46077868915825e-06
8.46077853916063e-06
8.46077840795222e-06
8.46077823812933e-06
8.46077770246667e-06
8.46077442041554e-06
8.46075148728132e-06
8.46059237996618e-06
8.45952428732735e-06
8.45268364240435e-06
8.4116564912478e-06
8.18804045147593e-06
7.13385533779199e-06
4.11941620800957e-08
7.65200575901183e-10
7.5130959667659e-10
4.02709793265518e-08
7.06102893384774e-06
8.16822559852747e-06
8.4074477130986e-06
8.45192503293525e-06
8.45940762802541e-06
8.46058285433818e-06
8.46075836272302e-06
8.46078337210868e-06
8.46078648995877e-06
8.46078646660522e-06
8.46078600612325e-06
8.46078551118186e-06
8.46078501679596e-06
8.46078451815726e-06
8.46078401898979e-06
8.46078352047457e-06
8.46078302862775e-06
8.4607825445227e-06
8.46078207376756e-06
8.4607816167427e-06
8.46078117830248e-06
8.46078075797909e-06
8.46078035986026e-06
8.46077998270121e-06
8.46077962959482e-06
8.4607792985468e-06
8.46077899200988e-06
8.46077870737028e-06
8.46077844643286e-06
8.4607782066161e-06
8.46077798954268e-06
8.46077779286189e-06
8.46077761787027e-06
8.46077746208585e-06
8.46077732585915e-06
8.4607772026752e-06
8.46077704449478e-06
8.46077652143202e-06
8.46077325304335e-06
8.4607503356432e-06
8.46059124667523e-06
8.45952317266947e-06
8.45268253271157e-06
8.41165531723885e-06
8.18803895241063e-06
7.13385282364921e-06
4.11941765523984e-08
7.65203970566424e-10
7.51306838208872e-10
4.027090199868e-08
7.06102461730717e-06
8.16822283479603e-06
8.40744550051677e-06
8.45192296049089e-06
8.45940558510657e-06
8.46058081913217e-06
8.46075633246638e-06
8.46078135379609e-06
8.46078449674895e-06
8.46078450206803e-06
8.46078406700859e-06
8.46078359717491e-06
8.46078312806935e-06
8.46078265491728e-06
8.46078218126776e-06
8.46078170821921e-06
8.46078124168264e-06
8.4607807826844e-06
8.46078033676161e-06
8.46077990432828e-06
8.46077949010709e-06
8.46077909363061e-06
8.46077871895091e-06
8.46077836490165e-06
8.46077803444957e-06
8.46077772560641e-06
8.4607774407787e-06
8.46077717726715e-06
8.46077693679635e-06
8.46077671677329e-06
8.46077651863112e-06
8.46077633994855e-06
8.46077618194928e-06
8.46077604217297e-06
8.46077592084267e-06
8.46077581023829e-06
8.4607756652246e-06
8.46077515574451e-06
8.46077190197649e-06
8.46074900133417e-06
8.46058993179668e-06
8.45952187749793e-06
8.45268124328735e-06
8.41165396337922e-06
8.18803727061592e-06
7.13385029212577e-06
4.11941545363203e-08
7.65202515483859e-10
7.5130104205919e-10
4.02708556202141e-08
7.06102089064882e-06
8.16822017399835e-06
8.40744329031508e-06
8.45192087406723e-06
8.45940352522424e-06
8.46057876603063e-06
8.46075428396339e-06
8.4607793164348e-06
8.46078248316884e-06
8.46078251618477e-06
8.46078210604989e-06
8.46078166101305e-06
8.46078121692132e-06
8.46078076900047e-06
8.46078032062209e-06
8.46077987281636e-06
8.46077943141402e-06
8.46077899736763e-06
8.46077857614977e-06
8.46077816825908e-06
8.46077777822459e-06
8.46077740556533e-06
8.46077705429251e-06
8.46077672333074e-06
8.46077641553267e-06
8.46077612884472e-06
8.46077586549128e-06
8.46077562286031e-06
8.46077540255842e-06
8.46077520195996e-06
8.4607750224101e-06
8.46077486142014e-06
8.46077472012933e-06
8.46077459610579e-06
8.46077448953878e-06
8.46077439245858e-06
8.46077426073243e-06
8.46077376470791e-06
8.46077052545107e-06
8.46074764155823e-06
8.46058859158242e-06
8.45952055745677e-06
8.45267993086017e-06
8.41165259593615e-06
8.18803563296519e-06
7.13384792489138e-06
4.11941042812074e-08
7.6520227368849e-10
7.51300307353784e-10
4.02708253227149e-08
7.0610176498368e-06
8.16821761705795e-06
8.40744108161542e-06
8.45191876790433e-06
8.45940144151887e-06
8.46057668816075e-06
8.46075221043012e-06
8.4607772534261e-06
8.46078044280431e-06
8.46078050250616e-06
8.46078011680856e-06
8.46077969633701e-06
8.4607792771202e-06
8.46077885432855e-06
8.46077843114596e-06
8.4607780085485e-06
8.46077759233504e-06
8.46077718331974e-06
8.46077678689404e-06
8.46077640372785e-06
8.46077603806332e-06
8.46077568939595e-06
8.46077536162488e-06
8.46077505361395e-06
8.4607747681711e-06
8.46077450329281e-06
8.4607742611239e-06
8.4607740391248e-06
8.4607738388164e-06
8.46077365754242e-06
8.46077349653519e-06
8.46077335324078e-06
8.46077322868284e-06
8.46077312046537e-06
8.46077302878685e-06
8.46077294573552e-06
8.46077282753699e-06
8.46077234497569e-06
8.46076912029032e-06
8.46074625338049e-06
8.46058722337894e-06
8.45951921031905e-06
8.45267859450116e-06
8.41165122068436e-06
8.18803406275727e-06
7.13384589893748e-06
4.11940778469623e-08
7.65199372217582e-10
7.51300063638811e-10
4.0270802036217e-08
7.06101476679347e-06
8.16821520472237e-06
8.40743894177045e-06
8.45191671275013e-06
8.45939940530417e-06
8.46057465701573e-06
8.4607501834829e-06
8.46077523679594e-06
8.46077844787591e-06
8.46077853280807e-06
8.46077817071686e-06
8.46077777426875e-06
8.46077737946246e-06
8.46077698134608e-06
8.46077658290083e-06
8.46077618506708e-06
8.46077579367378e-06
8.46077540929063e-06
8.46077503713284e-06
8.46077467768737e-06
8.46077433533378e-06
8.46077400962056e-06
8.46077370434524e-06
8.46077341834084e-06
8.46077315441039e-06
8.46077291058135e-06
8.4607726889203e-06
8.46077248693077e-06
8.46077230605143e-06
8.46077214359493e-06
8.46077200068312e-06
8.46077187469414e-06
8.46077176648292e-06
8.46077167372301e-06
8.46077159667098e-06
8.46077152761432e-06
8.46077142272585e-06
8.46077095289602e-06
8.46076774213448e-06
8.46074489189944e-06
8.46058588177676e-06
8.45951789011144e-06
8.45267728724388e-06
8.4116498846108e-06
8.18803257915416e-06
7.13384409556874e-06
4.11940573106512e-08
7.65193590614627e-10
7.51299864702869e-10
4.02707807619771e-08
7.06101201757414e-06
8.16821283140326e-06
8.40743680291771e-06
8.45191464791077e-06
8.45939735706337e-06
8.46057261341668e-06
8.46074814428767e-06
8.46077320881367e-06
8.4607764414418e-06
8.46077654971675e-06
8.46077621054674e-06
8.46077583793685e-06
8.46077546745446e-06
8.46077509395118e-06
8.46077472018757e-06
8.46077434693582e-06
8.46077397970846e-06
8.46077361924957e-06
8.46077327067284e-06
8.46077293439529e-06
8.46077261484621e-06
8.4607723116167e-06
8.4607720284244e-06
8.46077176409634e-06
8.46077152141188e-06
8.46077129842706e-06
8.46077109714325e-06
8.4607709150948e-06
8.46077075363873e-06
8.46077061004891e-06
8.46077048536006e-06
8.46077037687646e-06
8.46077028515769e-06
8.46077020805862e-06
8.46077014597203e-06
8.46077009160738e-06
8.46077000044518e-06
8.46076954237361e-06
8.46076634475038e-06
8.46074351115934e-06
8.4605845212002e-06
8.4595165515206e-06
8.45267596325407e-06
8.41164853889768e-06
8.18803111120188e-06
7.13384239227297e-06
4.11940425360883e-08
7.65192951805019e-10
7.51299691909211e-10
4.02707604574837e-08
7.06100937026649e-06
8.16821052346476e-06
8.40743470860544e-06
8.45191262190644e-06
8.45939534658354e-06
8.46057060741498e-06
8.4607461429511e-06
8.46077122092764e-06
8.46077447556628e-06
8.46077460359991e-06
8.46077428593011e-06
8.4607739361136e-06
8.46077358878055e-06
8.46077323869246e-06
8.46077288840903e-06
8.46077253855514e-06
8.46077219442079e-06
8.46077185683169e-06
8.46077153082698e-06
8.46077121680379e-06
8.46077091918517e-06
8.46077063759771e-06
8.4607703756938e-06
8.46077013231207e-06
8.4607699101964e-06
8.46076970743939e-06
8.46076952600255e-06
8.46076936347207e-06
8.46076922112092e-06
8.46076909614999e-06
8.46076898957699e-06
8.46076889865497e-06
8.46076882331057e-06
8.46076876191901e-06
8.4607687150276e-06
8.46076867640026e-06
8.46076859956244e-06
8.46076815018012e-06
8.46076496321827e-06
8.46074214550449e-06
8.46058317552577e-06
8.45951522800056e-06
8.45267465532731e-06
8.41164721186101e-06
8.18802967327895e-06
7.13384075062819e-06
4.11940297012362e-08
7.65192830235367e-10
7.51299533504989e-10
4.02707401394144e-08
7.06100670052361e-06
8.16820817852601e-06