/*--------------------------------*- C++ -*----------------------------------*\
  =========                 |
  \\      /  F ield         | OpenFOAM: The Open Source CFD Toolbox
   \\    /   O peration     | Website:  https://openfoam.org
    \\  /    A nd           | Version:  10
     \\/     M anipulation  |
\*---------------------------------------------------------------------------*/
FoamFile
{
    format      ascii;
    class       volScalarField;
    location    "0.8";
    object      h;
}
// * * * * * * * * * * * * * * * * * * * * * * * * * * * * * * * * * * * * * //

dimensions      [0 2 -2 0 0 0 0];

internalField   nonuniform List<scalar> 
2500
(
6359.26491800142
6218.51352113264
6201.60861026698
6200.29711993578
6200.20337415173
6200.19463689645
6200.19299970493
6200.19164027925
6200.19022317229
6200.18958418021
6200.18854058223
6200.18783516393
6200.18740696367
6200.18684213467
6200.18632325175
6200.18572417199
6200.18544501517
6200.18504920826
6200.18461509542
6200.1843458871
6200.18395634348
6200.18258526639
6200.18165650581
6200.18234816225
6200.18296673881
6200.18210241064
6200.18176266694
6200.1817491591
6200.18134236177
6200.18225025646
6200.18242570431
6200.18251502254
6200.18267906775
6200.18291125729
6200.18363555144
6200.18386320261
6200.18411898436
6200.18432981289
6200.184729608
6200.18511272365
6200.18557140542
6200.18609226921
6200.1867121762
6200.18736249431
6200.18975681641
6200.20157955523
6200.31803938685
6201.7338304991
6218.97108239681
6359.41076736227
3274.66345186035
3152.44356068298
3087.73898724247
3081.52864943887
3080.96136226269
3080.90689548086
3080.90148836066
3080.90072456241
3080.90043541919
3080.90032184772
3080.90014368862
3080.90001060485
3080.89996853046
3080.89992723263
3080.89987445794
3080.89980531293
3080.89979878219
3080.89976819925
3080.89971927807
3080.89965514064
3080.89901775482
3080.89825976652
3080.89810619769
3080.89835139569
3080.89868647533
3080.89839156809
3080.89836921863
3080.89804591212
3080.89787463011
3080.898490906
3080.89875809523
3080.89861532049
3080.8989357177
3080.89975022223
3080.89998249184
3080.90005448432
3080.90012019244
3080.90017235963
3080.90024668581
3080.90031862528
3080.90040871964
3080.90052136941
3080.90079253806
3080.9022188615
3080.91264871447
3080.99147302545
3081.64688884952
3087.93363847191
3153.27261856577
3282.71132168022
2227.7409755882
2173.99776907405
2144.88244792846
2140.39422827154
2139.95415703171
2139.91053959007
2139.90614478556
2139.9056658176
2139.90559620927
2139.9055848075
2139.90549189531
2139.90527576732
2139.90529470808
2139.90538428709
2139.90532606846
2139.90533447417
2139.90547086708
2139.90559511661
2139.90559793849
2139.90547190833
2139.90522501806
2139.9051336601
2139.90509357621
2139.90508037199
2139.9053039421
2139.90521844023
2139.90504868716
2139.90509398514
2139.90514493606
2139.90526070922
2139.90544573966
2139.90537947334
2139.90539252482
2139.90568831345
2139.90581705406
2139.90584473355
2139.9058648605
2139.90587772452
2139.90589092008
2139.90590324187
2139.90591805573
2139.90594198529
2139.90605565449
2139.90687666733
2139.91318448686
2139.96321774154
2140.40235027862
2144.73716103002
2174.1738369063
2234.73098828497
1943.73431304447
1926.59449709945
1920.37791200594
1918.92562021361
1918.76705814973
1918.75073315249
1918.74905673361
1918.74888813153
1918.74887100853
1918.74887368344
1918.74886018501
1918.74877886935
1918.74877509889
1918.74881434664
1918.74880198737
1918.74882957221
1918.74885523093
1918.74882690402
1918.74882838291
1918.74881051812
1918.74879007317
1918.74878229301
1918.74876340553
1918.74878153029
1918.74882962118
1918.74879960132
1918.74877823406
1918.7487974488
1918.74880659006
1918.74882940896
1918.7488673762
1918.74886550691
1918.74887967393
1918.74892304296
1918.7489543588
1918.74897535492
1918.74899328544
1918.74899686977
1918.74899908007
1918.74900076895
1918.74900241204
1918.74900576458
1918.7490313873
1918.74924426952
1918.75097595846
1918.7657735342
1918.90647024556
1920.30518925237
1926.61769592601
1946.76245348316
1876.39006872156
1871.82731084074
1870.69781803363
1870.32518044098
1870.27980626936
1870.27490189197
1870.27438788826
1870.27433778122
1870.27433361134
1870.27433505362
1870.27433129052
1870.27431076857
1870.27431068852
1870.27432213919
1870.27432114368
1870.2743295944
1870.27433195269
1870.27431741314
1870.27432433871
1870.27432220397
1870.2743196198
1870.2743237447
1870.27431896803
1870.27431909385
1870.27432423703
1870.27432735452
1870.27432994527
1870.2743264532
1870.27432561961
1870.27433327688
1870.274338047
1870.27433997894
1870.27434514319
1870.27434930857
1870.27435472804
1870.27436558605
1870.27437246157
1870.27437346667
1870.27437380069
1870.27437389853
1870.27437387727
1870.27437412379
1870.27437942113
1870.27442932682
1870.27485248004
1870.27864052245
1870.31599685829
1870.67737833975
1871.81948215412
1877.36252090654
1861.80241567275
1860.72185247704
1860.52978316585
1860.44572165575
1860.43441645093
1860.43313067543
1860.43299306443
1860.43297945373
1860.43297851316
1860.43297921461
1860.4329780397
1860.43297384521
1860.43297392857
1860.43297701884
1860.43297812954
1860.4329788081
1860.43297906376
1860.4329771668
1860.43297794349
1860.43297620849
1860.4329762714
1860.43297855096
1860.43297791637
1860.4329772256
1860.43297831082
1860.43297942395
1860.43298023394
1860.43297907809
1860.43297892846
1860.43298061862
1860.43298089689
1860.43298194068
1860.43298314241
1860.43298322203
1860.43298417153
1860.43298734103
1860.43298927149
1860.43298953524
1860.43298958172
1860.43298955435
1860.43298947789
1860.43298943522
1860.43299047922
1860.43300144743
1860.43309731594
1860.4339796771
1860.4428131379
1860.52561907121
1860.71588550856
1862.06498560348
1858.84172150532
1858.60610038151
1858.57397641446
1858.55651960272
1858.55395501877
1858.55364799765
1858.55361433317
1858.55361083583
1858.5536106723
1858.55361097935
1858.55361068029
1858.55360989907
1858.55360993974
1858.5536106952
1858.55361114412
1858.55361102722
1858.55361113666
1858.55361061118
1858.55361047927
1858.55361055886
1858.55361076816
1858.55361117903
1858.55361112985
1858.55361090761
1858.55361110717
1858.5536113071
1858.55361157657
1858.55361124331
1858.55361131881
1858.55361159875
1858.55361157973
1858.55361176824
1858.55361202808
1858.55361205088
1858.55361220652
1858.55361296033
1858.55361341651
1858.55361347973
1858.55361348958
1858.55361347849
1858.55361345056
1858.55361342532
1858.55361362263
1858.55361590233
1858.55363628473
1858.55382713711
1858.55574858592
1858.57326465409
1858.60373783476
1858.90492467993
1858.26963185314
1858.22132568245
1858.21589087798
1858.21246904882
1858.21192561903
1858.21185717398
1858.21184945851
1858.21184862193
1858.21184855809
1858.2118486034
1858.21184853748
1858.21184844146
1858.21184849671
1858.21184866223
1858.21184877517
1858.21184872417
1858.21184875212
1858.211848621
1858.21184853907
1858.211848591
1858.21184866391
1858.21184874494
1858.21184878656
1858.21184876106
1858.21184876903
1858.21184880227
1858.21184883278
1858.21184880148
1858.21184883889
1858.21184885207
1858.21184884707
1858.2118488693
1858.21184896177
1858.21184897184
1858.21184897402
1858.21184911757
1858.21184919233
1858.21184921227
1858.21184923684
1858.21184924393
1858.2118492371
1858.21184922957
1858.21184926556
1858.21184971697
1858.21185382085
1858.21189267874
1858.21228452299
1858.21577645495
1858.22059200563
1858.28364481167
1858.16325203272
1858.15381158681
1858.15287002134
1858.15222723756
1858.15211793315
1858.15210346736
1858.15210178588
1858.15210159855
1858.15210158134
1858.15210158843
1858.15210157517
1858.15210156568
1858.15210158296
1858.1521016135
1858.15210163457
1858.1521016245
1858.15210163143
1858.15210160335
1858.15210158007
1858.15210159468
1858.15210161354
1858.15210162716
1858.15210164454
1858.15210164536
1858.15210163955
1858.15210163543
1858.1521016414
1858.15210164283
1858.15210165145
1858.15210165707
1858.1521016554
1858.15210165138
1858.15210167553
1858.15210167695
1858.1521016742
1858.15210169984
1858.15210171094
1858.15210171522
1858.15210172373
1858.15210172713
1858.1521017258
1858.15210172403
1858.15210173047
1858.15210181631
1858.15210260543
1858.15211013222
1858.15218602894
1858.15285049825
1858.15361401664
1858.16617228165
1858.14407133108
1858.14229569525
1858.1421284389
1858.14201155029
1858.14199045216
1858.14198752355
1858.14198717169
1858.14198713126
1858.14198712716
1858.14198712949
1858.14198712832
1858.14198712708
1858.14198712836
1858.14198713226
1858.14198713613
1858.14198713444
1858.14198713661
1858.141987131
1858.14198712687
1858.14198713082
1858.14198713388
1858.14198713524
1858.14198713889
1858.14198713951
1858.14198713669
1858.14198713492
1858.14198713623
1858.14198713743
1858.14198713895
1858.14198714072
1858.14198713967
1858.14198713781
1858.14198714292
1858.14198714304
1858.1419871421
1858.14198714647
1858.14198714792
1858.14198714861
1858.1419871505
1858.14198715144
1858.1419871514
1858.14198715106
1858.14198715224
1858.14198716809
1858.14198731419
1858.14198871333
1858.14200281086
1858.14212458173
1858.14224747865
1858.14465113123
1858.14069937067
1858.14037565358
1858.14034515076
1858.1403244035
1858.14032046265
1858.14031989012
1858.14031981883
1858.14031981041
1858.14031980943
1858.1403198096
1858.14031980917
1858.14031980875
1858.14031980843
1858.14031980884
1858.14031980929
1858.14031980903
1858.14031980935
1858.14031980798
1858.14031980697
1858.14031980737
1858.14031980783
1858.14031980793
1858.1403198084
1858.14031980839
1858.14031980756
1858.14031980697
1858.14031980705
1858.1403198072
1858.14031980731
1858.14031980752
1858.14031980713
1858.14031980658
1858.14031980739
1858.14031980727
1858.1403198069
1858.14031980753
1858.14031980767
1858.1403198077
1858.14031980799
1858.14031980815
1858.14031980819
1858.14031980812
1858.14031980835
1858.1403198113
1858.14031983766
1858.14032008928
1858.14032262092
1858.14034427936
1858.14036471556
1858.14081008531
1858.14011897701
1858.14006143015
1858.14005550941
1858.14005186695
1858.14005114799
1858.1400510389
1858.14005102462
1858.14005102269
1858.14005102225
1858.14005102202
1858.14005102172
1858.14005102141
1858.14005102112
1858.14005102094
1858.14005102077
1858.14005102052
1858.14005102031
1858.14005101986
1858.14005101947
1858.14005101929
1858.14005101913
1858.14005101891
1858.14005101876
1858.14005101852
1858.14005101818
1858.14005101788
1858.14005101769
1858.14005101751
1858.14005101732
1858.14005101718
1858.14005101694
1858.14005101669
1858.14005101666
1858.14005101649
1858.1400510163
1858.14005101627
1858.14005101619
1858.14005101611
1858.14005101609
1858.14005101607
1858.14005101606
1858.14005101606
1858.14005101615
1858.14005101675
1858.14005102152
1858.14005106587
1858.14005151028
1858.14005529697
1858.14005907937
1858.14013944347
1858.1400208525
1858.1400107935
1858.14000932652
1858.14000866118
1858.14000852996
1858.14000850922
1858.14000850618
1858.14000850553
1858.14000850519
1858.1400085049
1858.1400085046
1858.14000850429
1858.14000850399
1858.14000850371
1858.14000850342
1858.14000850312
1858.14000850283
1858.1400085025
1858.14000850218
1858.1400085019
1858.14000850161
1858.14000850133
1858.14000850106
1858.14000850078
1858.14000850049
1858.14000850021
1858.14000849996
1858.14000849971
1858.14000849947
1858.14000849925
1858.14000849903
1858.14000849881
1858.14000849863
1858.14000849845
1858.14000849828
1858.14000849815
1858.14000849803
1858.14000849792
1858.14000849785
1858.14000849779
1858.14000849777
1858.14000849777
1858.14000849783
1858.14000849801
1858.14000849898
1858.14000850699
1858.140008586
1858.1400092692
1858.14001030149
1858.1400245253
1858.14000451755
1858.14000273929
1858.14000207821
1858.14000192175
1858.14000189521
1858.14000189087
1858.14000188999
1858.1400018896
1858.14000188928
1858.14000188897
1858.14000188865
1858.14000188834
1858.14000188802
1858.14000188771
1858.14000188739
1858.14000188707
1858.14000188675
1858.14000188642
1858.1400018861
1858.14000188578
1858.14000188547
1858.14000188516
1858.14000188485
1858.14000188455
1858.14000188426
1858.14000188397
1858.14000188369
1858.14000188342
1858.14000188317
1858.14000188292
1858.14000188268
1858.14000188246
1858.14000188226
1858.14000188207
1858.14000188189
1858.14000188173
1858.1400018816
1858.14000188148
1858.14000188139
1858.14000188132
1858.14000188129
1858.14000188128
1858.14000188132
1858.14000188142
1858.14000188172
1858.14000188349
1858.14000190015
1858.14000205695
1858.1400026296
1858.14000515023
1858.14000183561
1858.14000147334
1858.14000095663
1858.14000088582
1858.14000087756
1858.14000087621
1858.14000087575
1858.14000087541
1858.14000087509
1858.14000087477
1858.14000087444
1858.14000087412
1858.14000087379
1858.14000087346
1858.14000087312
1858.14000087278
1858.14000087244
1858.14000087211
1858.14000087177
1858.14000087143
1858.1400008711
1858.14000087077
1858.14000087045
1858.14000087014
1858.14000086983
1858.14000086952
1858.14000086923
1858.14000086895
1858.14000086868
1858.14000086842
1858.14000086817
1858.14000086794
1858.14000086772
1858.14000086752
1858.14000086733
1858.14000086717
1858.14000086702
1858.1400008669
1858.1400008668
1858.14000086672
1858.14000086668
1858.14000086666
1858.14000086669
1858.14000086676
1858.14000086692
1858.14000086763
1858.14000087384
1858.14000094315
1858.14000143861
1858.14000193007
1858.14000140162
1858.14000127738
1858.14000078584
1858.14000072923
1858.14000072412
1858.14000072332
1858.14000072294
1858.14000072262
1858.1400007223
1858.14000072197
1858.14000072164
1858.1400007213
1858.14000072096
1858.14000072061
1858.14000072027
1858.14000071991
1858.14000071956
1858.14000071921
1858.14000071886
1858.14000071851
1858.14000071816
1858.14000071782
1858.14000071748
1858.14000071715
1858.14000071683
1858.14000071651
1858.14000071621
1858.14000071592
1858.14000071563
1858.14000071536
1858.1400007151
1858.14000071486
1858.14000071463
1858.14000071442
1858.14000071423
1858.14000071405
1858.1400007139
1858.14000071377
1858.14000071366
1858.14000071358
1858.14000071352
1858.14000071349
1858.1400007135
1858.14000071355
1858.14000071368
1858.14000071418
1858.14000071865
1858.14000077368
1858.14000125635
1858.14000140212
1858.14000133322
1858.14000124838
1858.14000076077
1858.14000070646
1858.1400007019
1858.14000070121
1858.14000070086
1858.14000070054
1858.14000070022
1858.14000069989
1858.14000069955
1858.1400006992
1858.14000069885
1858.14000069849
1858.14000069813
1858.14000069777
1858.1400006974
1858.14000069704
1858.14000069667
1858.14000069631
1858.14000069595
1858.1400006956
1858.14000069525
1858.1400006949
1858.14000069457
1858.14000069424
1858.14000069393
1858.14000069362
1858.14000069333
1858.14000069305
1858.14000069278
1858.14000069252
1858.14000069229
1858.14000069207
1858.14000069187
1858.14000069168
1858.14000069152
1858.14000069138
1858.14000069127
1858.14000069118
1858.14000069111
1858.14000069108
1858.14000069107
1858.14000069111
1858.1400006912
1858.14000069165
1858.14000069582
1858.14000074855
1858.1400012293
1858.14000131709
1858.14000132353
1858.14000124508
1858.14000075773
1858.14000070377
1858.14000069931
1858.14000069865
1858.14000069831
1858.14000069799
1858.14000069767
1858.14000069734
1858.14000069699
1858.14000069664
1858.14000069628
1858.14000069591
1858.14000069554
1858.14000069516
1858.14000069479
1858.14000069441
1858.14000069403
1858.14000069366
1858.14000069329
1858.14000069292
1858.14000069256
1858.14000069221
1858.14000069186
1858.14000069153
1858.1400006912
1858.14000069089
1858.14000069058
1858.14000069029
1858.14000069001
1858.14000068975
1858.14000068951
1858.14000068928
1858.14000068907
1858.14000068888
1858.14000068872
1858.14000068857
1858.14000068845
1858.14000068835
1858.14000068828
1858.14000068823
1858.14000068821
1858.14000068823
1858.14000068831
1858.14000068872
1858.14000069282
1858.14000074519
1858.14000122584
1858.14000130404
1858.14000132306
1858.1400012456
1858.14000075791
1858.14000070397
1858.14000069954
1858.1400006989
1858.14000069857
1858.14000069825
1858.14000069793
1858.14000069759
1858.14000069724
1858.14000069688
1858.14000069652
1858.14000069614
1858.14000069576
1858.14000069537
1858.14000069499
1858.1400006946
1858.14000069421
1858.14000069383
1858.14000069345
1858.14000069307
1858.1400006927
1858.14000069234
1858.14000069199
1858.14000069164
1858.14000069131
1858.14000069098
1858.14000069067
1858.14000069037
1858.14000069009
1858.14000068982
1858.14000068957
1858.14000068933
1858.14000068912
1858.14000068892
1858.14000068875
1858.1400006886
1858.14000068847
1858.14000068836
1858.14000068828
1858.14000068823
1858.1400006882
1858.1400006882
1858.14000068826
1858.14000068865
1858.14000069272
1858.14000074504
1858.14000122586
1858.1400013025
1858.14000132389
1858.14000124654
1858.14000075847
1858.14000070451
1858.14000070009
1858.14000069946
1858.14000069914
1858.14000069883
1858.1400006985
1858.14000069817
1858.14000069781
1858.14000069745
1858.14000069707
1858.14000069669
1858.1400006963
1858.1400006959
1858.14000069551
1858.14000069511
1858.14000069472
1858.14000069433
1858.14000069394
1858.14000069356
1858.14000069318
1858.14000069281
1858.14000069245
1858.14000069209
1858.14000069175
1858.14000069142
1858.1400006911
1858.14000069079
1858.1400006905
1858.14000069023
1858.14000068997
1858.14000068973
1858.14000068951
1858.14000068931
1858.14000068913
1858.14000068897
1858.14000068884
1858.14000068873
1858.14000068864
1858.14000068858
1858.14000068854
1858.14000068853
1858.14000068857
1858.14000068895
1858.14000069299
1858.1400007453
1858.14000122632
1858.14000130273
1858.14000132476
1858.14000124739
1858.14000075899
1858.140000705
1858.1400007006
1858.14000069997
1858.14000069965
1858.14000069934
1858.14000069902
1858.14000069868
1858.14000069832
1858.14000069795
1858.14000069757
1858.14000069718
1858.14000069679
1858.14000069639
1858.14000069599
1858.14000069558
1858.14000069518
1858.14000069478
1858.14000069439
1858.140000694
1858.14000069361
1858.14000069324
1858.14000069287
1858.14000069251
1858.14000069216
1858.14000069182
1858.1400006915
1858.14000069119
1858.14000069089
1858.14000069061
1858.14000069035
1858.1400006901
1858.14000068988
1858.14000068967
1858.14000068949
1858.14000068933
1858.14000068919
1858.14000068907
1858.14000068898
1858.14000068891
1858.14000068886
1858.14000068884
1858.14000068887
1858.14000068923
1858.14000069326
1858.14000074557
1858.14000122676
1858.14000130315
1858.14000132545
1858.14000124805
1858.14000075939
1858.14000070539
1858.14000070099
1858.14000070037
1858.14000070005
1858.14000069975
1858.14000069943
1858.14000069908
1858.14000069872
1858.14000069835
1858.14000069796
1858.14000069757
1858.14000069717
1858.14000069677
1858.14000069636
1858.14000069595
1858.14000069554
1858.14000069514
1858.14000069474
1858.14000069435
1858.14000069396
1858.14000069357
1858.1400006932
1858.14000069284
1858.14000069248
1858.14000069214
1858.14000069181
1858.1400006915
1858.1400006912
1858.14000069091
1858.14000069065
1858.1400006904
1858.14000069017
1858.14000068996
1858.14000068977
1858.14000068961
1858.14000068947
1858.14000068935
1858.14000068925
1858.14000068917
1858.14000068912
1858.14000068909
1858.14000068911
1858.14000068945
1858.14000069347
1858.14000074579
1858.14000122709
1858.14000130349
1858.14000132594
1858.14000124852
1858.14000075968
1858.14000070567
1858.14000070126
1858.14000070065
1858.14000070033
1858.14000070003
1858.14000069971
1858.14000069936
1858.140000699
1858.14000069863
1858.14000069824
1858.14000069784
1858.14000069744
1858.14000069703
1858.14000069662
1858.14000069621
1858.1400006958
1858.14000069539
1858.14000069499
1858.14000069459
1858.1400006942
1858.14000069381
1858.14000069343
1858.14000069307
1858.14000069271
1858.14000069236
1858.14000069203
1858.14000069171
1858.14000069141
1858.14000069113
1858.14000069086
1858.1400006906
1858.14000069037
1858.14000069016
1858.14000068997
1858.14000068981
1858.14000068966
1858.14000068954
1858.14000068944
1858.14000068936
1858.14000068929
1858.14000068926
1858.14000068927
1858.14000068961
1858.14000069362
1858.14000074593
1858.14000122732
1858.14000130373
1858.14000132623
1858.14000124879
1858.14000075985
1858.14000070582
1858.14000070142
1858.14000070081
1858.1400007005
1858.14000070019
1858.14000069987
1858.14000069952
1858.14000069916
1858.14000069878
1858.14000069839
1858.14000069799
1858.14000069759
1858.14000069718
1858.14000069677
1858.14000069635
1858.14000069594
1858.14000069553
1858.14000069513
1858.14000069473
1858.14000069433
1858.14000069394
1858.14000069357
1858.1400006932
1858.14000069284
1858.14000069249
1858.14000069216
1858.14000069184
1858.14000069153
1858.14000069124
1858.14000069097
1858.14000069072
1858.14000069049
1858.14000069028
1858.14000069009
1858.14000068992
1858.14000068977
1858.14000068964
1858.14000068954
1858.14000068946
1858.14000068939
1858.14000068935
1858.14000068936
1858.14000068969
1858.14000069369
1858.14000074601
1858.14000122744
1858.14000130385
1858.1400013263
1858.14000124887
1858.14000075989
1858.14000070587
1858.14000070146
1858.14000070085
1858.14000070054
1858.14000070024
1858.14000069991
1858.14000069957
1858.1400006992
1858.14000069882
1858.14000069843
1858.14000069803
1858.14000069763
1858.14000069722
1858.1400006968
1858.14000069639
1858.14000069598
1858.14000069557
1858.14000069516
1858.14000069476
1858.14000069437
1858.14000069398
1858.1400006936
1858.14000069323
1858.14000069287
1858.14000069252
1858.14000069219
1858.14000069187
1858.14000069156
1858.14000069127
1858.14000069101
1858.14000069075
1858.14000069052
1858.1400006903
1858.14000069011
1858.14000068995
1858.1400006898
1858.14000068967
1858.14000068957
1858.14000068948
1858.14000068941
1858.14000068937
1858.14000068937
1858.1400006897
1858.1400006937
1858.14000074602
1858.14000122745
1858.14000130385
1858.14000132618
1858.14000124875
1858.14000075982
1858.1400007058
1858.14000070139
1858.14000070078
1858.14000070047
1858.14000070016
1858.14000069983
1858.14000069949
1858.14000069912
1858.14000069874
1858.14000069835
1858.14000069795
1858.14000069755
1858.14000069714
1858.14000069673
1858.14000069632
1858.14000069591
1858.1400006955
1858.14000069509
1858.14000069469
1858.1400006943
1858.14000069391
1858.14000069353
1858.14000069316
1858.14000069281
1858.14000069246
1858.14000069213
1858.14000069181
1858.1400006915
1858.14000069121
1858.14000069095
1858.14000069069
1858.14000069046
1858.14000069025
1858.14000069006
1858.14000068989
1858.14000068974
1858.14000068962
1858.14000068951
1858.14000068942
1858.14000068936
1858.14000068931
1858.14000068932
1858.14000068965
1858.14000069365
1858.14000074595
1858.14000122734
1858.14000130374
1858.14000132585
1858.14000124844
1858.14000075963
1858.14000070561
1858.14000070121
1858.14000070059
1858.14000070027
1858.14000069996
1858.14000069964
1858.14000069929
1858.14000069892
1858.14000069855
1858.14000069816
1858.14000069776
1858.14000069736
1858.14000069695
1858.14000069654
1858.14000069613
1858.14000069572
1858.14000069532
1858.14000069491
1858.14000069452
1858.14000069412
1858.14000069374
1858.14000069336
1858.140000693
1858.14000069264
1858.1400006923
1858.14000069197
1858.14000069165
1858.14000069135
1858.14000069106
1858.14000069079
1858.14000069054
1858.14000069031
1858.1400006901
1858.14000068991
1858.14000068975
1858.1400006896
1858.14000068948
1858.14000068937
1858.14000068929
1858.14000068922
1858.14000068918
1858.14000068919
1858.14000068952
1858.14000069352
1858.14000074582
1858.14000122713
1858.14000130352
1858.14000132531
1858.14000124792
1858.14000075931
1858.14000070531
1858.1400007009
1858.14000070028
1858.14000069996
1858.14000069965
1858.14000069932
1858.14000069897
1858.1400006986
1858.14000069823
1858.14000069784
1858.14000069745
1858.14000069705
1858.14000069664
1858.14000069624
1858.14000069583
1858.14000069543
1858.14000069503
1858.14000069463
1858.14000069424
1858.14000069385
1858.14000069347
1858.1400006931
1858.14000069273
1858.14000069238
1858.14000069204
1858.14000069171
1858.1400006914
1858.1400006911
1858.14000069082
1858.14000069055
1858.14000069031
1858.14000069008
1858.14000068987
1858.14000068968
1858.14000068952
1858.14000068937
1858.14000068925
1858.14000068915
1858.14000068907
1858.14000068901
1858.14000068897
1858.14000068898
1858.14000068932
1858.14000069332
1858.14000074562
1858.1400012268
1858.14000130318
1858.14000132457
1858.14000124722
1858.14000075888
1858.1400007049
1858.14000070048
1858.14000069985
1858.14000069952
1858.14000069921
1858.14000069888
1858.14000069853
1858.14000069817
1858.14000069779
1858.14000069741
1858.14000069702
1858.14000069663
1858.14000069623
1858.14000069583
1858.14000069543
1858.14000069503
1858.14000069463
1858.14000069424
1858.14000069385
1858.14000069347
1858.14000069309
1858.14000069273
1858.14000069237
1858.14000069203
1858.14000069169
1858.14000069137
1858.14000069106
1858.14000069076
1858.14000069048
1858.14000069022
1858.14000068998
1858.14000068976
1858.14000068955
1858.14000068937
1858.14000068921
1858.14000068906
1858.14000068895
1858.14000068885
1858.14000068877
1858.14000068872
1858.14000068869
1858.14000068871
1858.14000068905
1858.14000069306
1858.14000074535
1858.14000122636
1858.14000130272
1858.14000132364
1858.14000124633
1858.14000075833
1858.14000070438
1858.14000069995
1858.14000069931
1858.14000069898
1858.14000069866
1858.14000069832
1858.14000069798
1858.14000069762
1858.14000069724
1858.14000069687
1858.14000069648
1858.14000069609
1858.1400006957
1858.14000069531
1858.14000069491
1858.14000069452
1858.14000069413
1858.14000069375
1858.14000069337
1858.14000069299
1858.14000069262
1858.14000069226
1858.14000069191
1858.14000069157
1858.14000069124
1858.14000069093
1858.14000069062
1858.14000069033
1858.14000069006
1858.1400006898
1858.14000068957
1858.14000068935
1858.14000068915
1858.14000068897
1858.14000068881
1858.14000068867
1858.14000068856
1858.14000068847
1858.1400006884
1858.14000068835
1858.14000068833
1858.14000068836
1858.14000068871
1858.14000069274
1858.14000074501
1858.14000122582
1858.14000130215
1858.14000132251
1858.14000124525
1858.14000075767
1858.14000070375
1858.14000069931
1858.14000069866
1858.14000069832
1858.14000069799
1858.14000069766
1858.14000069731
1858.14000069695
1858.14000069658
1858.14000069621
1858.14000069583
1858.14000069545
1858.14000069507
1858.14000069468
1858.14000069429
1858.14000069391
1858.14000069353
1858.14000069315
1858.14000069278
1858.14000069241
1858.14000069205
1858.1400006917
1858.14000069136
1858.14000069103
1858.14000069071
1858.1400006904
1858.1400006901
1858.14000068982
1858.14000068955
1858.1400006893
1858.14000068907
1858.14000068885
1858.14000068866
1858.14000068849
1858.14000068833
1858.1400006882
1858.14000068809
1858.14000068801
1858.14000068795
1858.14000068791
1858.1400006879
1858.14000068794
1858.14000068831
1858.14000069235
1858.14000074461
1858.14000122517
1858.14000130148
1858.14000132121
1858.14000124401
1858.1400007569
1858.14000070301
1858.14000069856
1858.1400006979
1858.14000069754
1858.14000069721
1858.14000069687
1858.14000069653
1858.14000069617
1858.14000069581
1858.14000069544
1858.14000069507
1858.1400006947
1858.14000069432
1858.14000069395
1858.14000069357
1858.1400006932
1858.14000069283
1858.14000069246
1858.1400006921
1858.14000069174
1858.14000069139
1858.14000069105
1858.14000069071
1858.14000069039
1858.14000069008
1858.14000068978
1858.14000068949
1858.14000068921
1858.14000068895
1858.14000068871
1858.14000068848
1858.14000068828
1858.14000068809
1858.14000068792
1858.14000068777
1858.14000068765
1858.14000068755
1858.14000068747
1858.14000068742
1858.14000068739
1858.14000068739
1858.14000068745
1858.14000068784
1858.14000069189
1858.14000074414
1858.14000122443
1858.14000130071
1858.14000131973
1858.14000124259
1858.14000075602
1858.14000070218
1858.14000069771
1858.14000069703
1858.14000069666
1858.14000069633
1858.14000069598
1858.14000069564
1858.14000069529
1858.14000069493
1858.14000069457
1858.14000069421
1858.14000069385
1858.14000069348
1858.14000069312
1858.14000069275
1858.14000069239
1858.14000069203
1858.14000069167
1858.14000069132
1858.14000069097
1858.14000069063
1858.1400006903
1858.14000068998
1858.14000068966
1858.14000068936
1858.14000068907
1858.14000068879
1858.14000068853
1858.14000068827
1858.14000068804
1858.14000068782
1858.14000068762
1858.14000068744
1858.14000068728
1858.14000068714
1858.14000068702
1858.14000068693
1858.14000068686
1858.14000068681
1858.1400006868
1858.14000068681
1858.14000068689
1858.1400006873
1858.14000069138
1858.14000074362
1858.1400012236
1858.14000129985
1858.14000131808
1858.14000124102
1858.14000075505
1858.14000070124
1858.14000069676
1858.14000069606
1858.14000069568
1858.14000069533
1858.14000069499
1858.14000069465
1858.1400006943
1858.14000069395
1858.1400006936
1858.14000069325
1858.14000069289
1858.14000069254
1858.14000069219
1858.14000069183
1858.14000069148
1858.14000069114
1858.14000069079
1858.14000069045
1858.14000069012
1858.14000068979
1858.14000068947
1858.14000068916
1858.14000068885
1858.14000068856
1858.14000068828
1858.14000068801
1858.14000068776
1858.14000068751
1858.14000068729
1858.14000068708
1858.14000068689
1858.14000068671
1858.14000068656
1858.14000068643
1858.14000068632
1858.14000068623
1858.14000068617
1858.14000068614
1858.14000068613
1858.14000068617
1858.14000068626
1858.1400006867
1858.1400006908
1858.14000074303
1858.14000122268
1858.1400012989
1858.14000131629
1858.1400012393
1858.14000075398
1858.14000070021
1858.14000069571
1858.14000069498
1858.14000069459
1858.14000069424
1858.14000069389
1858.14000069355
1858.14000069321
1858.14000069287
1858.14000069253
1858.14000069219
1858.14000069185
1858.1400006915
1858.14000069116
1858.14000069082
1858.14000069049
1858.14000069015
1858.14000068982
1858.1400006895
1858.14000068917
1858.14000068886
1858.14000068855
1858.14000068825
1858.14000068796
1858.14000068768
1858.14000068741
1858.14000068715
1858.14000068691
1858.14000068668
1858.14000068646
1858.14000068626
1858.14000068608
1858.14000068591