/*--------------------------------*- C++ -*----------------------------------*\
  =========                 |
  \\      /  F ield         | OpenFOAM: The Open Source CFD Toolbox
   \\    /   O peration     | Website:  https://openfoam.org
    \\  /    A nd           | Version:  10
     \\/     M anipulation  |
\*---------------------------------------------------------------------------*/
FoamFile
{
    format      ascii;
    class       volScalarField;
    location    "0.8";
    object      k;
}
// * * * * * * * * * * * * * * * * * * * * * * * * * * * * * * * * * * * * * //

dimensions      [0 2 -2 0 0 0 0];

internalField   nonuniform List<scalar> 
2500
(
9.77971927281369e-06
1.08162616253875e-05
1.15095032017925e-05
1.16616325703643e-05
1.1686530777503e-05
1.16901043639843e-05
1.16905798188701e-05
1.16906405884986e-05
1.16906446247549e-05
1.16906473763391e-05
1.16906483562721e-05
1.16906439414459e-05
1.16906427989286e-05
1.16906414441048e-05
1.16906395674972e-05
1.16906377604882e-05
1.16906369673286e-05
1.16906363194088e-05
1.16906357080222e-05
1.16906351165388e-05
1.16906345483257e-05
1.16906339982414e-05
1.1690633475218e-05
1.16906329793799e-05
1.16906325122222e-05
1.16906320671046e-05
1.16906316533752e-05
1.16906312680532e-05
1.16906309140216e-05
1.16906305929128e-05
1.16906303047789e-05
1.16906300491713e-05
1.16906298320015e-05
1.16906296523199e-05
1.16906295183897e-05
1.16906294306011e-05
1.16906294154781e-05
1.16906294317473e-05
1.16906294847325e-05
1.16906295737013e-05
1.16906293476224e-05
1.16906264117001e-05
1.16906045803589e-05
1.16904585713959e-05
1.16895350238908e-05
1.16840120904133e-05
1.16531992761733e-05
1.14962361236232e-05
1.08015318333255e-05
9.7914016814709e-06
1.6092955553019e-05
3.48599699239421e-05
5.59737589450023e-05
6.11259432595217e-05
6.20294069185525e-05
6.21646415003785e-05
6.21830383584631e-05
6.21853695441258e-05
6.21856434265306e-05
6.21857126201549e-05
6.21857215906731e-05
6.21856857337609e-05
6.21856703667909e-05
6.21856400088793e-05
6.21856016121411e-05
6.21855660932602e-05
6.21855496226709e-05
6.21855368394506e-05
6.21855250046371e-05
6.21855136851796e-05
6.21855028714515e-05
6.21854925238889e-05
6.2185482702739e-05
6.21854733850439e-05
6.21854646243168e-05
6.21854564179414e-05
6.21854488074106e-05
6.21854417771389e-05
6.2185435397071e-05
6.21854296459043e-05
6.21854245987234e-05
6.21854202701079e-05
6.2185416738988e-05
6.21854140365623e-05
6.2185412292549e-05
6.21854116357169e-05
6.2185412490756e-05
6.21854141657421e-05
6.21854167643922e-05
6.21854192906047e-05
6.21854085708375e-05
6.21852937780272e-05
6.21844680474177e-05
6.21790462193218e-05
6.2145417946671e-05
6.19494480809475e-05
6.08957028634891e-05
5.58234535527076e-05
3.51868105427775e-05
1.62539378220632e-05
1.87058565896032e-05
7.99711803896504e-05
0.000176111196362277
0.000200115764212568
0.000204659204054075
0.000205385408309334
0.000205489257877314
0.000205502980925664
0.000205504690692382
0.000205504970265692
0.000205504960902255
0.000205504850618701
0.000205504789484035
0.000205504722136874
0.000205504627491376
0.000205504544939992
0.000205504493208969
0.000205504451478468
0.000205504412920186
0.000205504376025386
0.000205504340669423
0.0002055043067628
0.000205504274451524
0.000205504243683629
0.000205504214614217
0.000205504187223765
0.000205504161639754
0.000205504137839332
0.000205504115991563
0.000205504096065412
0.00020550407826055
0.000205504062611158
0.000205504049351565
0.000205504038598142
0.000205504030697448
0.000205504025995776
0.000205504025117793
0.000205504027149606
0.000205504031920868
0.000205504030806743
0.000205503955667982
0.000205503335827363
0.000205499052156567
0.000205471336010481
0.000205301747349225
0.000204331799290824
0.000199263655181205
0.0001759221899694
8.12824032359413e-05
1.89905070734968e-05
1.97551502522735e-05
0.000103546066418142
0.00024299829719119
0.000277915173747587
0.000284824889990185
0.000285981405417923
0.000286154245200266
0.000286178075291166
0.000286181190577431
0.000286181628360507
0.000286181578718233
0.000286181493263285
0.000286181428450154
0.000286181357919283
0.000286181264168184
0.000286181183357494
0.000286181125669081
0.000286181076978062
0.000286181031499002
0.00028618098771381
0.00028618094551234
0.000286180904805162
0.000286180865775934
0.000286180828370636
0.000286180792780129
0.000286180758957947
0.00028618072707007
0.000286180697070374
0.000286180669136674
0.000286180643219879
0.000286180619521866
0.000286180598038426
0.000286180579010186
0.000286180562515626
0.000286180548883802
0.000286180538380273
0.000286180531426675
0.000286180527366649
0.000286180525399662
0.000286180513706421
0.000286180403091692
0.000286179569201573
0.000286173802396324
0.000286135897347852
0.000285899439452571
0.000284519847451317
0.000277181784763066
0.000243024132931841
0.000104960312476202
2.00599336259519e-05
2.01583996158953e-05
0.000114170431427711
0.000277487604887074
0.000318757745902382
0.000327196915471008
0.000328661237324811
0.000328888293472874
0.000328920781160134
0.000328925186814701
0.00032892575216114
0.000328925736646921
0.00032892567457872
0.000328925617645877
0.00032892555642345
0.000328925481377116
0.00032892541438632
0.000328925361208057
0.000328925314202486
0.000328925269714174
0.000328925226625369
0.000328925184917894
0.000328925144521385
0.000328925105648062
0.000328925068252938
0.000328925032540883
0.000328924998455706
0.000328924966176217
0.00032892493563436
0.000328924907003166
0.000328924880212534
0.000328924855444001
0.000328924832658916
0.000328924812065873
0.000328924793684105
0.000328924777781401
0.000328924764491475
0.000328924754084016
0.000328924746064873
0.000328924739117371
0.000328924719962544
0.000328924590808641
0.000328923661994149
0.000328917231660732
0.000328874522113309
0.000328604658325465
0.000327009299734368
0.000318426316688686
0.000278248978672656
0.000115913644610939
2.04873852054673e-05
2.03094340472276e-05
0.000118608060118094
0.000293939305143397
0.000338677279245559
0.000348032694127355
0.000349698690429069
0.000349964373818617
0.000350003525230003
0.000350008981936297
0.000350009684381453
0.000350009709933742
0.000350009665996252
0.000350009617862513
0.000350009567057244
0.000350009509186893
0.000350009455231179
0.000350009408501392
0.000350009365431634
0.000350009324121767
0.00035000928388865
0.000350009244817774
0.000350009206865325
0.000350009170262563
0.000350009134971875
0.000350009101204806
0.000350009068899602
0.000350009038237171
0.000350009009135308
0.000350008981757351
0.000350008956015438
0.000350008932070398
0.000350008909854289
0.000350008889542854
0.000350008871106282
0.000350008854750994
0.000350008840504574
0.000350008828532054
0.000350008818398048
0.000350008808448043
0.000350008784692512
0.000350008645775842
0.000350007674687904
0.00035000095470892
0.000349956077532951
0.000349670521037894
0.000347969977686353
0.000338762746783113
0.000295528811323135
0.000120735964488892
2.06594030254186e-05
2.03651481857955e-05
0.000120379005968299
0.000301340296252734
0.00034785744093711
0.000357725185572248
0.000359513523910777
0.000359804499035752
0.000359848334099587
0.000359854575859579
0.000359855399602769
0.000359855459142128
0.000359855427973204
0.00035985538641433
0.000359855343269518
0.000359855296849836
0.000359855251997007
0.000359855210590576
0.000359855171161959
0.000359855132916662
0.000359855095496933
0.000359855059071529
0.000359855023619678
0.000359854989384022
0.000359854956331812
0.000359854924677024
0.00035985489435474
0.000359854865543997
0.000359854838154185
0.000359854812339638
0.000359854788000021
0.000359854765280384
0.000359854744092227
0.000359854724586445
0.000359854706699701
0.000359854690593533
0.000359854676226369
0.000359854663694992
0.000359854652571351
0.000359854641006221
0.000359854614660621
0.000359854470716493
0.000359853481118579
0.00035984663981354
0.000359800836751892
0.000359508367996737
0.000357760088824877
0.000348262308157633
0.000303583349715992
0.00012279873168027
2.07284739206824e-05
2.03854957354852e-05
0.000121065105349547
0.000304522933970568
0.000351904525918475
0.000362042154294338
0.000363899993666225
0.000364206389499383
0.000364253274948056
0.000364260060446146
0.000364260977392844
0.000364261061579955
0.000364261038228775
0.000364261001130585
0.000364260962845934
0.000364260923132784
0.000364260883878238
0.000364260846149638
0.000364260809429043
0.000364260773521525
0.000364260738272259
0.000364260703905433
0.000364260670416546
0.000364260638054087
0.000364260606788335
0.000364260576833205
0.000364260548122326
0.000364260520831809
0.000364260494866415
0.000364260470373719
0.000364260447245896
0.000364260425617106
0.00036426040538649
0.000364260386688349
0.000364260369439231
0.000364260353772219
0.000364260339605994
0.000364260326995947
0.000364260315506094
0.000364260303184858
0.000364260275526691
0.000364260129128684
0.000364259131672736
0.00036425224184212
0.000364206064088441
0.000363910722292747
0.00036214204475292
0.000352516849893488
0.000307191713333483
0.00012366393667618
2.07560783175849e-05
2.03928720273907e-05
0.000121325508055247
0.000305844149306514
0.000353626874197559
0.000363899649604671
0.000365794838405114
0.000366110087580894
0.000366158836078615
0.000366165973911137
0.000366166957077534
0.000366167058261728
0.000366167037996916
0.000366167003769925
0.000366166968440038
0.00036616693249916
0.000366166896550472
0.000366166861230239
0.000366166826411501
0.000366166792192294
0.000366166758529966
0.000366166725680639
0.000366166693649848
0.000366166662688051
0.000366166632767252
0.00036616660409995
0.000366166576619255
0.000366166550498306
0.000366166525639671
0.000366166502186001
0.000366166480025575
0.000366166459285368
0.000366166439857872
0.000366166421867023
0.000366166405218432
0.000366166390028525
0.000366166376195342
0.000366166363751122
0.000366166352252226
0.000366166339698065
0.000366166311509836
0.000366166164061081
0.000366165163468215
0.000366158255175945
0.000366111933205117
0.000365815455691796
0.000364038482602231
0.000354359995809283
0.000308758204679517
0.000124021313396617
2.0767048443051e-05
2.03955284557219e-05
0.000121422840116523
0.000306377451004333
0.000354339321870452
0.000364676942507465
0.000366591280931241
0.000366911360366991
0.000366961186295425
0.000366968539483327
0.000366969565346091
0.000366969676455523
0.000366969659498345
0.000366969627209995
0.000366969593731544
0.00036696955997481
0.000366969526030932
0.000366969492321882
0.00036696945886789
0.000366969425898125
0.00036696939342663
0.000366969361725442
0.000366969330805726
0.00036696930091754
0.000366969272033906
0.000366969244365208
0.000366969217844638
0.000366969192642487
0.000366969168660674
0.000366969146038104
0.000366969124661475
0.000366969104652833
0.000366969085901605
0.000366969068525102
0.000366969052423669
0.000366969037704176
0.000366969024255132
0.000366969012096728
0.000366969000782099
0.000366968988290218
0.000366968960016286
0.000366968812256981
0.00036696781058815
0.000366960895719211
0.000366914520845647
0.000366617613539605
0.000364837402012444
0.000355137453572693
0.000309421212233924
0.000124166986419863
2.07713798514529e-05
2.03964774907156e-05
0.000121458764480739
0.000306587853557709
0.000354627227453381
0.000364994860178603
0.000366918632518962
0.000367241235117168
0.000367291655713575
0.000367299134108758
0.000367300185515483
0.000367300303294352
0.000367300288843154
0.00036730025796077
0.00036730022576677
0.000367300193422553
0.000367300160831982
0.000367300128315969
0.000367300095942782
0.000367300063994353
0.000367300032510898
0.000367300001770584
0.000367299971787399
0.000367299942809486
0.000367299914810446
0.000367299887998126
0.000367299862306053
0.000367299837901801
0.00036729981468744
0.00036729979279881
0.000367299772122241
0.000367299752776104
0.000367299734648755
0.00036729971785286
0.000367299702286645
0.000367299688051281
0.000367299675031728
0.000367299663242546
0.000367299652237719
0.00036729963999006
0.000367299611892744
0.000367299464225019
0.000367298462395101
0.000367291545498428
0.00036724515223179
0.000366948088458418
0.000365166654884838
0.000355458322276895
0.000309696008807893
0.000124225642122857
2.07730764950803e-05
2.03968125892355e-05
0.000121471868069136
0.000306669289647988
0.000354741319519137
0.000365122425691836
0.000367050689714376
0.000367374561951817
0.000367425297786471
0.000367432845927315
0.000367433912130823
0.000367434034169641
0.000367434021550965
0.000367433991765263
0.000367433960570955
0.000367433929276421
0.00036743389772573
0.00036743386619459
0.000367433834759323
0.000367433803718023
0.000367433773121561
0.000367433743248991
0.000367433714115524
0.000367433685966593
0.000367433658776316
0.000367433632749727
0.000367433607821004
0.000367433584154971
0.000367433561654398
0.000367433540452267
0.000367433520435349
0.000367433501718856
0.000367433484191034
0.000367433467960929
0.000367433452926218
0.0003674334391842
0.000367433426619464
0.000367433415244459
0.000367433404617017
0.000367433392709087
0.000367433364924901
0.00036743321755075
0.000367432215958267
0.000367425298720092
0.000367378899547608
0.00036708178077043
0.000365299898444927
0.000355588367968753
0.00030980790535018
0.000124248979782555
2.0773734684903e-05
2.0396928764506e-05
0.000121476587009918
0.000306700282710765
0.000354785773447039
0.000365172774123981
0.000367103114870521
0.000367427605539932
0.000367478502670162
0.000367486088175043
0.000367487162689868
0.00036748728746392
0.00036748727624028
0.000367487247376702
0.000367487217046203
0.000367487186643063
0.000367487155999957
0.000367487125376927
0.000367487094836593
0.000367487064674586
0.000367487034944482
0.000367487005923286
0.000367486977626487
0.000367486950296414
0.000367486923907453
0.000367486898661754
0.000367486874494182
0.000367486851566853
0.000367486829783405
0.000367486809274094
0.000367486789926415
0.000367486771852621
0.00036748675494132
0.00036748673929833
0.000367486724821453
0.000367486711605035
0.000367486699535034
0.000367486688624517
0.000367486678437809
0.000367486666942562
0.00036748663956423
0.000367486492607432
0.000367485491452255
0.000367478574512561
0.000367432173807643
0.000367135036341457
0.0003653529923571
0.000355640262847229
0.000309852768490235
0.000124258148207021
2.0773986221503e-05
2.03969735323811e-05
0.000121478264050623
0.000306711893740517
0.000354802831641566
0.000365192354233707
0.000367123630685354
0.000367448413976103
0.000367499391024618
0.000367506995807162
0.000367508074846749
0.000367508201420439
0.000367508191296945
0.000367508163221632
0.00036750813365409
0.000367508104039035
0.000367508074219813
0.000367508044462736
0.000367508014795129
0.000367507985498011
0.00036750795662353
0.00036750792844511
0.000367507900978224
0.000367507874461787
0.000367507848870625
0.000367507824403859
0.00036750780099722
0.000367507778810076
0.000367507757747123
0.000367507737935917
0.000367507719264896
0.000367507701843384
0.000367507685560543
0.000367507670519045
0.000367507656617187
0.000367507643946769
0.000367507632396587
0.000367507621984296
0.000367507612286769
0.00036750760124424
0.000367507574320211
0.000367507427844766
0.000367506427222454
0.000367499510825637
0.00036745311008145
0.000367155966547926
0.000365373864744815
0.000355660689664169
0.000309870502568183
0.00012426169881888
2.07740815735977e-05
2.03970336108536e-05
0.00012147887099617
0.000306716174043536
0.000354809275167054
0.000365199855926747
0.000367131544624925
0.000367456462792865
0.000367507478246955
0.000367515092581954
0.000367516174003108
0.000367516301816353
0.000367516292605102
0.000367516265230352
0.000367516236365459
0.000367516207482725
0.000367516178447108
0.0003675161495493
0.000367516120755924
0.000367516092329846
0.000367516064320403
0.00036751603699678
0.00036751601037407
0.000367515984687626
0.000367515959912597
0.000367515936245059
0.000367515913621586
0.000367515892198894
0.000367515871882693
0.000367515852797894
0.000367515834833932
0.000367515818097253
0.00036751580247767
0.000367515788074772
0.000367515774787529
0.00036751576270564
0.000367515751722826
0.000367515741871027
0.000367515732762861
0.000367515722227303
0.000367515695811151
0.000367515549879349
0.000367514549866877
0.000367507634141937
0.000367461233902714
0.000367164088679135
0.000365381966238083
0.00035566862589708
0.000309877416859079
0.000124263053780788
2.07741300136058e-05
2.03971312139795e-05
0.000121479032048192
0.000306717692463902
0.000354811652782605
0.000365202676961224
0.000367134545174973
0.000367459524323482
0.000367510557760436
0.000367518176648903
0.000367519259332254
0.000367519388177488
0.000367519379911602
0.000367519353334303
0.000367519325273797
0.000367519297217407
0.000367519269029023
0.000367519240987442
0.000367519213048444
0.000367519185475224
0.000367519158315951
0.000367519131835389
0.000367519106048201
0.000367519081186012
0.000367519057224398
0.000367519034356316
0.0003675190125193
0.000367518991867342
0.000367518972307389
0.000367518953961775
0.000367518936720957
0.000367518920688597
0.000367518905755291
0.000367518892017677
0.000367518879375624
0.000367518867917196
0.000367518857544659
0.000367518848328659
0.00036751884001263
0.000367518830026625
0.000367518804140875
0.000367518658777428
0.000367517659401787
0.000367510744387801
0.00036746434483264
0.000367167199471032
0.000365385069866744
0.000355671668502897
0.000309880078996886
0.000124263584758576
2.07742944979162e-05
2.0397096890814e-05
0.000121478997532845
0.000306718226620506
0.000354812507018473
0.00036520370526117
0.000367135647910098
0.000367460653625664
0.000367511695133658
0.00036751931602349
0.000367520399374184
0.000367520529173798
0.000367520521916728
0.000367520496239938
0.000367520469092855
0.000367520441970197
0.000367520414705111
0.00036752038752926
0.000367520360454002
0.000367520333747739
0.000367520307457884
0.000367520281844459
0.000367520256921282
0.000367520232916047
0.000367520209804428
0.000367520187776207
0.000367520166769696
0.000367520146936139
0.000367520128183642
0.000367520110631964
0.000367520094172598
0.000367520078906376
0.000367520064724796
0.000367520051721646
0.000367520039797789
0.000367520029040199
0.000367520019364185
0.000367520010934361
0.000367520004004142
0.000367519994630591
0.000367519969253827
0.000367519824419458
0.00036751882561274
0.000367511911201144
0.000367465512224064
0.000367168367117024
0.000365386235130265
0.000355672807808356
0.000309881071494608
0.000124263837974458
2.07743838311866e-05
2.03970895816527e-05
0.000121478993990437
0.000306718420215816
0.00035481277458054
0.000365204039916731
0.000367136016594045
0.000367461034962329
0.000367512080571226
0.000367519702675982
0.000367520786777395
0.000367520917765792
0.000367520911772435
0.000367520887246904
0.000367520861249537
0.000367520835274907
0.00036752080913426
0.000367520783032979
0.000367520757013094
0.000367520731346696
0.000367520706081696
0.000367520681474549
0.000367520657539248
0.000367520634500188
0.000367520612333814
0.000367520591226921
0.000367520571118876
0.000367520552157974
0.000367520534253278
0.000367520517521432
0.000367520501854146
0.000367520487348389
0.000367520473895296
0.00036752046158428
0.000367520450315557
0.000367520440172278
0.000367520431081139
0.000367520423381295
0.000367520419751116
0.000367520411413887
0.000367520386740492
0.000367520242636109
0.000367519244654731
0.000367512331186946
0.000367465933213469
0.000367168788890548
0.0003653866565614
0.00035567322091853
0.000309881419169399
0.000124263938255823
2.077424509429e-05
2.03971302916643e-05
0.000121479025635452
0.00030671843798818
0.000354812809198705
0.000365204111343651
0.000367136104857913
0.000367461129488569
0.000367512177357189
0.000367519800351511
0.000367520885267375
0.00036752101755345
0.000367521012955404
0.000367520989717
0.00036752096499946
0.000367520940292615
0.000367520915395158
0.000367520890497141
0.000367520865652676
0.000367520841134579
0.00036752081699166
0.000367520793477549
0.000367520770606996
0.000367520748601691
0.000367520727439067
0.000367520707303368
0.000367520688135095
0.000367520670079513
0.000367520653046487
0.000367520637149296
0.000367520622279157
0.000367520608528416
0.000367520595786947
0.000367520584138911
0.000367520573482638
0.000367520563894378
0.00036752055529152
0.000367520547977455
0.000367520545050835
0.000367520537066496
0.000367520512970282
0.000367520369501296
0.00036751937227577
0.000367512459717958
0.0003674660626604
0.000367168918495559
0.00036538678381122
0.000355673346673695
0.00030988155676049
0.000124263873197395
2.07742495286294e-05
2.03970536083367e-05
0.000121479048151992
0.000306718347522666
0.000354812774214477
0.000365204096260603
0.000367136097213136
0.000367461124471861
0.000367512173274398
0.000367519796617411
0.000367520882018389
0.000367521015329665
0.000367521011900256
0.000367520989748873
0.000367520966126581
0.00036752094251882
0.00036752091871659
0.000367520894898553
0.000367520871120888
0.000367520847653808
0.000367520824545936
0.000367520802047576
0.000367520780174024
0.00036752075914379
0.000367520738935269
0.000367520719730161
0.000367520701470338
0.000367520684297993
0.000367520668124086
0.000367520653059059
0.000367520638993604
0.000367520626015626
0.000367520614014348
0.000367520603069428
0.00036752059307851
0.000367520584111041
0.000367520576066191
0.000367520569034051
0.000367520563583174
0.000367520555801496
0.000367520532042439
0.0003675203889399
0.000367519392146188
0.000367512480092507
0.000367466083405171
0.000367168938386121
0.000365386797939842
0.000355673345756747
0.000309881562916903
0.000124263775265595
2.07742966250208e-05
2.03970806080658e-05
0.000121479046218065
0.000306718208842738
0.000354812702015444
0.000365204043599312
0.000367136050041871
0.000367461078792937
0.000367512128076173
0.000367519751627353
0.000367520837481664
0.000367520971822527
0.000367520969572587
0.000367520948487156
0.00036752092592407
0.000367520903380795
0.000367520880646788
0.000367520857891625
0.000367520835169657
0.000367520812746903
0.000367520790671172
0.000367520769189345
0.000367520748317172
0.000367520728269676
0.000367520709025963
0.000367520690765512
0.000367520673431822
0.00036752065716361
0.000367520641873035
0.000367520627668317
0.000367520614438676
0.000367520602267423
0.000367520591043083
0.000367520580841062
0.000367520571559055
0.000367520563260279
0.000367520555838503
0.000367520549326491
0.000367520543630651
0.00036752053625748
0.000367520512992918
0.000367520370430337
0.000367519374261098
0.000367512462937624
0.00036746606697517
0.000367168922032824
0.000365386778577007
0.000355673311975986
0.000309881463117294
0.000124263757238861
2.07743098588551e-05
2.03971868097204e-05
0.000121478947037915
0.000306718033404757
0.000354812608112742
0.000365203974188233
0.000367135986674504
0.000367461016761329
0.00036751206641793
0.000367519690177649
0.000367520776539642
0.000367520911974196
0.00036752091096103
0.000367520890960151
0.000367520869462732
0.000367520847989731
0.000367520826332254
0.000367520804652039
0.000367520783000357
0.000367520761638511
0.000367520740613097
0.000367520720167698
0.000367520700318813
0.000367520681277282
0.000367520663022764
0.000367520645732806
0.000367520629353317
0.000367520614018635
0.000367520599642116
0.000367520586330294
0.000367520573969622
0.000367520562638494
0.000367520552224769
0.00036752054279893
0.000367520534258869
0.000367520526660903
0.000367520519897225
0.000367520513983063
0.000367520508635422
0.000367520501767571
0.000367520479049878
0.000367520337080276
0.000367519341593924
0.000367512431066532
0.000367466035910686
0.000367168891169381
0.000365386744835034
0.000355673263654914
0.000309881368540338
0.0001242638067628
2.07744030010389e-05
2.03971128837617e-05
0.00012147871951229
0.000306717860387289
0.000354812504818211
0.00036520389532591
0.000367135913991294
0.000367460945376558
0.000367511995371133
0.000367519619346705
0.000367520706228036
0.000367520842753428
0.000367520842986116
0.000367520824089865
0.000367520803683356
0.000367520783308721
0.000367520762758531
0.000367520742186929
0.000367520721641598
0.000367520701379278
0.000367520681444526
0.00036752066207784
0.000367520643297182
0.000367520625307677
0.000367520608088999
0.000367520591817145
0.000367520576441437
0.000367520562090729
0.000367520548678642
0.000367520536309702
0.000367520524866645
0.00036752051442438
0.000367520504870265
0.000367520496266548
0.000367520488508052
0.000367520481647931
0.000367520475579312
0.000367520470311886
0.000367520465510308
0.000367520459213987
0.000367520437085853
0.000367520295750854
0.000367519300991864
0.000367512391307616
0.00036746599700504
0.000367168852498771
0.000365386703280735
0.000355673207396489
0.000309881273208479
0.000124263746218184
2.07743644781853e-05
2.03969564882431e-05
0.000121478585346763
0.000306717712993306
0.000354812405995027
0.000365203816567055
0.000367135840700915
0.000367460873254976
0.000367511923547032
0.00036751954772321
0.000367520635089022
0.000367520772647843
0.000367520774083998
0.000367520756270744
0.00036752073694164
0.000367520717653794
0.000367520698199799
0.000367520678726088
0.000367520659277385
0.000367520640106946
0.000367520621256124
0.000367520602962617
0.000367520585248063
0.000367520568309178
0.000367520552125049
0.000367520536869899
0.000367520522497001
0.000367520509130253
0.00036752049668044
0.000367520485244174
0.000367520474707983
0.000367520465141647
0.000367520456431105
0.000367520448634786
0.000367520441644578
0.000367520435509968
0.000367520430125316
0.000367520425498842
0.000367520421284356
0.000367520415564812
0.000367520394020716
0.000367520253315565
0.000367519259283577
0.000367512350448179
0.000367465957019128
0.00036716881282899
0.000365386661136444
0.00035567315305566
0.000309881185013097
0.000124263600489461
2.07743588946823e-05
2.03969375050926e-05
0.000121478499690102
0.000306717586703619
0.000354812311683242
0.000365203737873469
0.000367135766553112
0.000367460800098571
0.000367511850647038
0.00036751947501244
0.000367520562835924
0.000367520701378783
0.00036752070397449
0.000367520687223068
0.000367520668961311
0.000367520650754221
0.000367520632391988
0.000367520614012896
0.000367520595659321
0.000367520577583136
0.000367520559819687
0.000367520542603147
0.000367520525962597
0.000367520510082293
0.000367520494940299
0.000367520480705975
0.00036752046732995
0.000367520454934184
0.000367520443431633
0.000367520432915455
0.000367520423275324
0.000367520414577297
0.000367520406705981
0.000367520399714898
0.000367520393493106
0.000367520388085065
0.000367520383386694
0.00036752037940661
0.000367520375801139
0.0003675203706688
0.000367520349709073
0.000367520209636391
0.00036751921634155
0.000367512308372928
0.000367465915856181
0.000367168772119653
0.000365386618652964
0.000355673101644437
0.000309881111642329
0.000124263526617306
2.07742811040561e-05
2.03969318517662e-05
0.000121478435182394
0.00030671747595475
0.000354812223652828
0.000365203662170806
0.000367135694621032
0.000367460729005067
0.000367511779776678
0.000367519404325272
0.000367520492597413
0.000367520632083372
0.000367520635775403
0.000367520620049718
0.000367520602831772
0.000367520585685265
0.000367520568395077
0.000367520551090689
0.000367520533812931
0.000367520516814985
0.000367520500121578
0.000367520483959233
0.000367520468349086
0.000367520453481359
0.000367520439336424
0.000367520426079225
0.000367520413659055
0.000367520402197659
0.00036752039160934
0.000367520381983857
0.000367520373212755
0.000367520365358517
0.000367520358304401
0.000367520352099131
0.000367520346628808
0.000367520341930562
0.000367520337903332
0.000367520334558257
0.000367520331560315
0.00036752032700573
0.000367520306598587
0.000367520167130241
0.000367519174559161
0.000367512267453171
0.000367465875863014
0.000367168732674428
0.000365386577871305
0.000355673053995162
0.000309881047940245
0.000124263470536492
2.07741251211513e-05
2.03969274141356e-05
0.000121478376744717
0.000306717371018892
0.000354812137317159
0.000365203586511186
0.000367135622268191
0.000367460657389119
0.000367511708365285
0.000367519333106021
0.000367520421865736
0.000367520562288124
0.000367520566994487
0.000367520552264777
0.000367520536082596
0.000367520519992909
0.000367520503772065
0.000367520487539962
0.000367520471330128
0.000367520455382002
0.000367520439727888
0.000367520424589903
0.000367520409986144
0.000367520396108998
0.000367520382940687
0.000367520370642685
0.000367520359164027
0.000367520348625429
0.000367520338942436
0.000367520330201974
0.000367520322296926
0.000367520315286227
0.00036752030905145
0.000367520303637532
0.000367520298927363
0.000367520294945245
0.000367520291597987
0.000367520288902644
0.000367520286542521
0.000367520282583771
0.000367520262686938
0.000367520123788806
0.000367519131940147
0.000367512225709155
0.000367465835071266
0.000367168692502325
0.000365386536670871
0.000355673007025678
0.000309880988585098
0.000124263431836191
2.07741087591564e-05
2.03969236862327e-05
0.000121478321232287
0.000306717270509821
0.000354812053821434
0.00036520351278626
0.000367135551602217
0.000367460587413387
0.000367511638587007
0.000367519263531239
0.000367520352875724
0.000367520494254626
0.000367520499819635
0.000367520486024174
0.000367520470832371
0.000367520455748483
0.000367520440544948
0.000367520425332941
0.000367520410139593
0.00036752039519468
0.000367520380534056
0.000367520366376599
0.000367520352739545
0.000367520339815012
0.000367520327586764
0.000367520316213443
0.000367520305644586
0.00036752029599937
0.000367520287194929
0.000367520279316454
0.000367520272259081
0.000367520266078094
0.000367520260651893
0.000367520256024675
0.000367520252077103
0.000367520248805983
0.000367520246140725
0.000367520244105095
0.0003675202424282
0.000367520239091265
0.000367520219571429
0.000367520081135918
0.000367519089976374
0.000367512184612422
0.000367465794934123
0.000367168653027921
0.00036538649628165
0.000355672961360548
0.000309880931907891
0.000124263398987076
2.07741064396256e-05
2.03969203489777e-05
0.000121478265678849
0.000306717169026075
0.000354811968718354