/*--------------------------------*- C++ -*----------------------------------*\
  =========                 |
  \\      /  F ield         | OpenFOAM: The Open Source CFD Toolbox
   \\    /   O peration     | Website:  https://openfoam.org
    \\  /    A nd           | Version:  10
     \\/     M anipulation  |
\*---------------------------------------------------------------------------*/
FoamFile
{
    format      ascii;
    class       volScalarField;
    location    "0.8";
    object      nut;
}
// * * * * * * * * * * * * * * * * * * * * * * * * * * * * * * * * * * * * * //

dimensions      [0 2 -1 0 0 0 0];

internalField   nonuniform List<scalar> 
2500
(
7.61792058876031e-11
8.41980827129082e-11
8.95978421708764e-11
9.07823809361001e-11
9.09762254215122e-11
9.10040470030616e-11
9.10077488943798e-11
9.10082226059253e-11
9.10082547135987e-11
9.10082764368092e-11
9.10082845808871e-11
9.10082505539673e-11
9.10082418669549e-11
9.10082315991518e-11
9.10082172433694e-11
9.10082034723225e-11
9.10081974329257e-11
9.1008192577067e-11
9.10081880324763e-11
9.10081835659295e-11
9.10081792947234e-11
9.10081753495735e-11
9.10081715188951e-11
9.10081675555253e-11
9.10081638398769e-11
9.1008160591015e-11
9.10081574545113e-11
9.10081544768768e-11
9.10081518126334e-11
9.10081491367533e-11
9.10081468542117e-11
9.10081448274943e-11
9.10081430796518e-11
9.10081416009731e-11
9.10081403714238e-11
9.10081395888303e-11
9.10081393550424e-11
9.10081393891285e-11
9.10081396037117e-11
9.10081401129644e-11
9.10081381363993e-11
9.1008115030412e-11
9.10079447827952e-11
9.10068078814725e-11
9.09996175330798e-11
9.09566205658677e-11
9.07167284720762e-11
8.94945404413721e-11
8.40833395331756e-11
7.62701806650435e-11
5.08000708113013e-10
2.47692809656967e-09
3.97799043706793e-09
4.34423940201843e-09
4.40845710564332e-09
4.41806908206903e-09
4.4193766341348e-09
4.4195423237835e-09
4.41956179301295e-09
4.41956671234179e-09
4.41956735252074e-09
4.41956480612655e-09
4.41956371462461e-09
4.41956155769173e-09
4.41955882959716e-09
4.41955630626725e-09
4.41955513578864e-09
4.41955422772019e-09
4.41955338731978e-09
4.41955258376489e-09
4.41955182452363e-09
4.41955110017218e-09
4.41955040440157e-09
4.41954973858428e-09
4.41954911103621e-09
4.4195485320874e-09
4.4195479915022e-09
4.41954749655117e-09
4.41954704558832e-09
4.41954662781528e-09
4.41954626517289e-09
4.41954595958628e-09
4.41954570391017e-09
4.41954549990967e-09
4.41954537252699e-09
4.41954532474952e-09
4.41954538450996e-09
4.41954550273862e-09
4.41954568628462e-09
4.41954586471234e-09
4.41954510147121e-09
4.41953694137549e-09
4.41947825228483e-09
4.41909289958601e-09
4.41670277069467e-09
4.40277395708971e-09
4.32787445477995e-09
3.96730585318556e-09
2.50014446548072e-09
5.13068739803037e-10
5.92530315226507e-10
2.28027046700598e-08
3.48754045150226e-06
3.96296330342318e-06
4.05294456442848e-06
4.06732645360842e-06
4.06938308603338e-06
4.0696548553855e-06
4.06968871554887e-06
4.06969425224411e-06
4.06969406810413e-06
4.06969188705869e-06
4.06969067614867e-06
4.06968934125086e-06
4.06968746774237e-06
4.06968583283446e-06
4.06968480654279e-06
4.06968397845539e-06
4.06968321482383e-06
4.06968248587057e-06
4.06968178901972e-06
4.06968111876968e-06
4.06968047941898e-06
4.06967987026787e-06
4.06967929155587e-06
4.06967875026187e-06
4.06967824587689e-06
4.0696777739098e-06
4.06967734053422e-06
4.06967694433709e-06
4.06967658921268e-06
4.06967628016322e-06
4.06967601736791e-06
4.06967580038624e-06
4.06967564215022e-06
4.06967554862689e-06
4.06967553092466e-06
4.06967557094096e-06
4.06967566519931e-06
4.06967564291439e-06
4.06967415465206e-06
4.06966187931927e-06
4.06957704652491e-06
4.06902816182618e-06
4.06566964699456e-06
4.04646072029461e-06
3.94608857973349e-06
3.483799224271e-06
2.31765686665788e-08
6.01533021407095e-10
6.26357573452307e-10
2.95490013530533e-08
4.81569417592674e-06
5.50769675507055e-06
5.64463583111926e-06
5.66755586420176e-06
5.67098122038232e-06
5.67145348642024e-06
5.6715152253018e-06
5.67152390125908e-06
5.67152291775281e-06
5.67152122577916e-06
5.67151994141438e-06
5.67151854291786e-06
5.67151668520844e-06
5.67151508319264e-06
5.67151393944258e-06
5.6715129750129e-06
5.67151207367205e-06
5.67151120626011e-06
5.6715103702792e-06
5.67150956367052e-06
5.67150879052148e-06
5.67150804885628e-06
5.67150734259023e-06
5.67150667283648e-06
5.67150604125178e-06
5.67150544632129e-06
5.67150489252223e-06
5.67150437843472e-06
5.67150390803182e-06
5.67150348226467e-06
5.67150310485042e-06
5.67150277709632e-06
5.67150250629959e-06
5.67150229769006e-06
5.67150215948663e-06
5.67150207889329e-06
5.6715020398003e-06
5.67150180795688e-06
5.67149961568926e-06
5.67148308956892e-06
5.67136880291427e-06
5.67061759967161e-06
5.66593146393207e-06
5.63859054666326e-06
5.49316286927514e-06
4.81620734502259e-06
2.99525832644154e-08
6.36014657144054e-10
6.39285836780682e-10
3.25868033752626e-08
5.50010324770462e-06
6.31812971364136e-06
6.48540432905932e-06
6.51442891205961e-06
6.51892942706539e-06
6.51957337011261e-06
6.51966069522626e-06
6.51967190105144e-06
6.5196715936751e-06
6.51967036389772e-06
6.51966923545568e-06
6.51966802173031e-06
6.51966653426062e-06
6.51966520624878e-06
6.51966415214175e-06
6.51966322074409e-06
6.51966233877167e-06
6.51966148473048e-06
6.51966065807443e-06
6.51965985725444e-06
6.51965908681505e-06
6.51965834556625e-06
6.51965763756656e-06
6.51965696185482e-06
6.51965632194295e-06
6.51965571660233e-06
6.51965514907355e-06
6.5196546178409e-06
6.51965412674872e-06
6.51965367502976e-06
6.51965326668696e-06
6.51965290219285e-06
6.51965258680616e-06
6.51965232308625e-06
6.51965211658194e-06
6.51965195753875e-06
6.5196518197454e-06
6.51965143998776e-06
6.51964887992148e-06
6.51963046968347e-06
6.51950301314022e-06
6.51865646150526e-06
6.51330745371772e-06
6.48168560183864e-06
6.31156061271985e-06
5.51519486944117e-06
3.30843563930983e-08
6.49716900916811e-10
6.44106776241262e-10
3.38546490866946e-08
5.8263901347945e-06
6.71317675012287e-06
6.89861771485069e-06
6.93164070993353e-06
6.93690702347881e-06
6.93768307346041e-06
6.93779123504368e-06
6.93780515878762e-06
6.9378056653579e-06
6.93780479457589e-06
6.93780384050722e-06
6.937802833405e-06
6.93780168629728e-06
6.9378006167867e-06
6.93779969050951e-06
6.93779883682399e-06
6.93779801795563e-06
6.93779722048343e-06
6.93779644600324e-06
6.93779569363748e-06
6.93779496808864e-06
6.93779426854569e-06
6.93779359915994e-06
6.93779295874782e-06
6.93779235090297e-06
6.93779177403437e-06
6.93779123131127e-06
6.93779072097289e-06
6.93779024628191e-06
6.93778980584133e-06
6.93778940314846e-06
6.93778903764156e-06
6.93778871336602e-06
6.93778843083706e-06
6.93778819340494e-06
6.93778799244875e-06
6.93778779513888e-06
6.93778732417412e-06
6.93778457050694e-06
6.93776532173704e-06
6.93763211983842e-06
6.93674257520273e-06
6.93108234282659e-06
6.89737457391476e-06
6.71487093002065e-06
5.8578970018756e-06
3.44620237955421e-08
6.552053520062e-10
6.45880062089895e-10
3.43603758463358e-08
5.97312932699959e-06
6.89518669873171e-06
7.09078395956909e-06
7.12623218621341e-06
7.13199985972965e-06
7.13286875307401e-06
7.13299247654588e-06
7.13300880473806e-06
7.13300998497759e-06
7.13300936720779e-06
7.1330085434592e-06
7.13300768824755e-06
7.13300676812036e-06
7.13300587905675e-06
7.13300505829499e-06
7.13300427674615e-06
7.1330035186382e-06
7.13300277688481e-06
7.13300205483349e-06
7.13300135207134e-06
7.13300067342398e-06
7.13300001823587e-06
7.1329993907346e-06
7.13299878964357e-06
7.13299821851019e-06
7.1329976755544e-06
7.13299716381151e-06
7.13299668129749e-06
7.13299623089936e-06
7.13299581085074e-06
7.13299542414568e-06
7.13299506953571e-06
7.13299475021372e-06
7.13299446534418e-06
7.13299421686614e-06
7.13299399629646e-06
7.13299376697115e-06
7.13299324466306e-06
7.13299039132426e-06
7.13297077553256e-06
7.13283516791692e-06
7.13192726516425e-06
7.12612998538781e-06
7.09147580926376e-06
6.9032119426085e-06
6.01759086286117e-06
3.50510504085402e-08
6.57402788832514e-10
6.46526596261416e-10
3.45562559021948e-08
6.03622220113595e-06
6.97541531111787e-06
7.17636235099211e-06
7.21318825373967e-06
7.21926160073484e-06
7.22019095939084e-06
7.22032546091443e-06
7.22034363659811e-06
7.22034530539608e-06
7.22034484256979e-06
7.22034410723731e-06
7.22034334837468e-06
7.22034256118922e-06
7.22034178309051e-06
7.22034103523027e-06
7.22034030734846e-06
7.22033959557693e-06
7.2203388968453e-06
7.22033821560065e-06
7.22033755175459e-06
7.22033691023412e-06
7.22033629045118e-06
7.22033569664382e-06
7.22033512749687e-06
7.22033458650203e-06
7.22033407177301e-06
7.22033358623192e-06
7.22033312774374e-06
7.22033269896751e-06
7.22033229790281e-06
7.22033192721048e-06
7.22033158523979e-06
7.22033127462649e-06
7.22033099375471e-06
7.22033074372689e-06
7.22033051590006e-06
7.22033027158807e-06
7.2203297232631e-06
7.2203268212823e-06
7.22030704971007e-06
7.2201704800823e-06
7.21925514926242e-06
7.2134009143239e-06
7.17834236893421e-06
6.98755273701899e-06
6.08912247176519e-06
3.52980542078557e-08
6.5827960301182e-10
6.4676074864991e-10
3.46305909713736e-08
6.06241232016189e-06
7.00955675743738e-06
7.21318269342089e-06
7.25074893796716e-06
7.25699777594797e-06
7.25796406391739e-06
7.25810554939645e-06
7.25812503768052e-06
7.25812704338874e-06
7.25812664173531e-06
7.25812596331403e-06
7.25812526302168e-06
7.25812455061033e-06
7.25812383803757e-06
7.25812313791503e-06
7.25812244772813e-06
7.25812176941982e-06
7.25812110214448e-06
7.25812045098023e-06
7.2581198160375e-06
7.25811920228102e-06
7.25811860915671e-06
7.25811804087672e-06
7.25811749611517e-06
7.25811697830403e-06
7.25811648551241e-06
7.25811602056773e-06
7.25811558125573e-06
7.25811517009328e-06
7.25811478494919e-06
7.25811442827913e-06
7.25811409821312e-06
7.25811379705816e-06
7.25811352279201e-06
7.25811327605427e-06
7.25811304805038e-06
7.25811279912395e-06
7.25811224029481e-06
7.25810931748876e-06
7.25808948373722e-06
7.25795254814619e-06
7.25703435852357e-06
7.25115761056824e-06
7.21593462624904e-06
7.02408862090951e-06
6.12017443537612e-06
3.54000691765429e-08
6.58627762077751e-10
6.46845023289764e-10
3.46583734906276e-08
6.07298344653514e-06
7.02367889671641e-06
7.22859018838445e-06
7.26653601495088e-06
7.27288059788671e-06
7.27386824257985e-06
7.27401399680741e-06
7.27403433141045e-06
7.27403653385186e-06
7.27403619775881e-06
7.27403555776296e-06
7.27403489416819e-06
7.2740342250494e-06
7.27403355221418e-06
7.2740328840273e-06
7.27403222089077e-06
7.27403156734758e-06
7.27403092367646e-06
7.27403029527047e-06
7.27402968235139e-06
7.27402908987609e-06
7.27402851731031e-06
7.27402796882456e-06
7.27402744309468e-06
7.27402694349627e-06
7.27402646808536e-06
7.2740260196154e-06
7.27402559584049e-06
7.27402519917985e-06
7.27402482744156e-06
7.27402448295057e-06
7.27402416373158e-06
7.27402387190256e-06
7.27402360525302e-06
7.27402336418291e-06
7.27402313983394e-06
7.27402289214487e-06
7.27402233162021e-06
7.27401940266221e-06
7.27399954758736e-06
7.27386248163867e-06
7.27294324338291e-06
7.26705797608507e-06
7.23177079958521e-06
7.0394993831529e-06
6.13331657875526e-06
3.54416499099767e-08
6.5876516437092e-10
6.46875113944752e-10
3.46686269774891e-08
6.07715391758989e-06
7.02938560603365e-06
7.2348917902092e-06
7.27302461417644e-06
7.27941921085641e-06
7.28041864297293e-06
7.28056687903813e-06
7.28058771996596e-06
7.28059005460432e-06
7.28058976818134e-06
7.28058915605179e-06
7.28058851791519e-06
7.28058787679344e-06
7.28058723078181e-06
7.28058658624202e-06
7.28058594452805e-06
7.28058531122884e-06
7.28058468714209e-06
7.28058407778213e-06
7.28058348342664e-06
7.28058290899468e-06
7.28058235396331e-06
7.28058182245272e-06
7.28058131314551e-06
7.28058082936342e-06
7.28058036916547e-06
7.28057993524432e-06
7.28057952534679e-06
7.28057914181922e-06
7.2805787824485e-06
7.28057844946767e-06
7.28057814085924e-06
7.28057785862826e-06
7.2805776004941e-06
7.28057736674497e-06
7.28057714853948e-06
7.28057690569442e-06
7.28057634867416e-06
7.28057342153568e-06
7.28055356327312e-06
7.28041645713941e-06
7.27949685432237e-06
7.27360848566336e-06
7.23829708655853e-06
7.04585948373893e-06
6.13876346055508e-06
3.54583917070162e-08
6.58818966342536e-10
6.46885727584815e-10
3.46723664227655e-08
6.07876799800874e-06
7.03164696795456e-06
7.23742021670125e-06
7.2756420734545e-06
7.2820618366405e-06
7.28306751734772e-06
7.28321713589504e-06
7.28323827011781e-06
7.28324068919235e-06
7.28324043909005e-06
7.28323984869606e-06
7.28323923037293e-06
7.28323861005603e-06
7.28323798465522e-06
7.28323735963624e-06
7.28323673651261e-06
7.28323612119362e-06
7.2832355146882e-06
7.2832349225282e-06
7.28323434501555e-06
7.28323378701557e-06
7.2832332480155e-06
7.28323273207982e-06
7.28323223790401e-06
7.28323176875536e-06
7.2832313227067e-06
7.28323090239405e-06
7.283230505573e-06
7.28323013452726e-06
7.28322978704155e-06
7.28322946527721e-06
7.28322916720584e-06
7.28322889475581e-06
7.28322864563915e-06
7.28322842010224e-06
7.28322820938007e-06
7.28322797327233e-06
7.28322742246269e-06
7.28322450114786e-06
7.28320464759738e-06
7.2830675347038e-06
7.28214781485017e-06
7.27625835605482e-06
7.24093806265295e-06
7.0484370764432e-06
6.14098132360741e-06
3.54650522993394e-08
6.58839826775511e-10
6.46889397028654e-10
3.46737125626386e-08
6.07938219681188e-06
7.03252796424189e-06
7.238418048404e-06
7.2766810688617e-06
7.28311309038418e-06
7.2841219682451e-06
7.28427232740903e-06
7.28429362637238e-06
7.28429609966021e-06
7.28429587720672e-06
7.28429530508806e-06
7.28429470388487e-06
7.2842941012351e-06
7.28429349382274e-06
7.2842928868029e-06
7.28429228141749e-06
7.28429168352697e-06
7.28429109419383e-06
7.28429051890929e-06
7.28428995798079e-06
7.28428941621207e-06
7.28428889309576e-06
7.28428839263908e-06
7.28428791355115e-06
7.28428745904559e-06
7.28428702721242e-06
7.28428662063362e-06
7.28428623707918e-06
7.28428587877414e-06
7.28428554351041e-06
7.28428523338535e-06
7.28428494637309e-06
7.28428468434346e-06
7.28428444503566e-06
7.28428422870841e-06
7.2842840267254e-06
7.28428379880125e-06
7.28428325604037e-06
7.28428034300291e-06
7.28426049812646e-06
7.28412339115887e-06
7.28320364095859e-06
7.27731381185894e-06
7.24199031491212e-06
7.04946556611544e-06
6.14187045223598e-06
3.5467668460417e-08
6.58847788968681e-10
6.46890801607615e-10
3.46741904317055e-08
6.07961220609258e-06
7.03286592417022e-06
7.23880599261055e-06
7.27708755960741e-06
7.28352538128018e-06
7.28453584324227e-06
7.28468658451652e-06
7.28470797316367e-06
7.28471048211944e-06
7.28471028146936e-06
7.28470972497265e-06
7.28470913889023e-06
7.28470855185975e-06
7.28470796077664e-06
7.28470737092028e-06
7.28470678283287e-06
7.28470620208528e-06
7.28470562971162e-06
7.28470507113213e-06
7.28470452665388e-06
7.28470400101295e-06
7.28470349371067e-06
7.28470300869423e-06
7.28470254468989e-06
7.2847021048568e-06
7.28470168730598e-06
7.28470129456589e-06
7.28470092442518e-06
7.28470057905086e-06
7.28470025624586e-06
7.28469995804519e-06
7.28469968243275e-06
7.28469943122801e-06
7.28469920222643e-06
7.2846989957777e-06
7.28469880349431e-06
7.28469858454745e-06
7.28469805079579e-06
7.28469514730442e-06
7.28467531299626e-06
7.28453821679907e-06
7.28361846584949e-06
7.27772851663127e-06
7.24240387445034e-06
7.04987029814847e-06
6.14222183049594e-06
3.54686810942088e-08
6.58850797554232e-10
6.46892691732676e-10
3.46743628569597e-08
6.07969690631203e-06
7.03299348105212e-06
7.23895451951016e-06
7.27724425710287e-06
7.28368475213752e-06
7.2846959753402e-06
7.28484690595273e-06
7.2848683418015e-06
7.28487087532325e-06
7.28487069275194e-06
7.28487015013868e-06
7.28486957798155e-06
7.28486900546493e-06
7.28486842991261e-06
7.28486785708719e-06
7.28486728632761e-06
7.28486672284481e-06
7.28486616761724e-06
7.28486562598105e-06
7.28486509823578e-06
7.28486458904689e-06
7.28486409792207e-06
7.28486362874818e-06
7.28486318026818e-06
7.28486275558863e-06
7.28486235284065e-06
7.28486197450032e-06
7.28486161837602e-06
7.28486128657771e-06
7.28486097692126e-06
7.2848606913806e-06
7.28486042795297e-06
7.28486018841623e-06
7.2848599706635e-06
7.28485977532763e-06
7.28485959472973e-06
7.28485938583566e-06
7.28485886215528e-06
7.28485596944476e-06
7.2848361472307e-06
7.28469906436089e-06
7.28377932344956e-06
7.27788934087854e-06
7.24256429045766e-06
7.05002744293689e-06
6.14235873988921e-06
3.54690670110702e-08
6.58852318285106e-10
6.46895771947983e-10
3.46744080082852e-08
6.07972686074721e-06
7.03304044385096e-06
7.23901026684179e-06
7.27730356186125e-06
7.2837452654868e-06
7.28475684511338e-06
7.28490786597489e-06
7.28492932683727e-06
7.28493188081064e-06
7.28493171697459e-06
7.28493119016523e-06
7.28493063394997e-06
7.28493007781091e-06
7.28492951905056e-06
7.28492896319574e-06
7.28492840937039e-06
7.28492786279202e-06
7.28492732441579e-06
7.28492679949028e-06
7.28492628830644e-06
7.28492579545586e-06
7.28492532045465e-06
7.28492486712785e-06
7.28492443423744e-06
7.28492402483601e-06
7.28492363707917e-06
7.28492327339189e-06
7.28492293160289e-06
7.28492261376693e-06
7.28492231771539e-06
7.28492204536373e-06
7.28492179472707e-06
7.28492156755082e-06
7.28492136189756e-06
7.2849211791674e-06
7.28492101427447e-06
7.28492081627736e-06
7.2849203031148e-06
7.28491742167506e-06
7.28489761209014e-06
7.28476054332219e-06
7.28384081599897e-06
7.27795083083883e-06
7.24262563927162e-06
7.05008758671689e-06
6.14241136350774e-06
3.5469217733587e-08
6.58857519358854e-10
6.46894668114721e-10
3.46743973377279e-08
6.07973730519866e-06
7.03305721036492e-06
7.23903047876466e-06
7.27732524831855e-06
7.28376747839425e-06
7.28477921797379e-06
7.28493027849689e-06
7.28495175258181e-06
7.28495432546844e-06
7.28495418162537e-06
7.28495367266267e-06
7.28495313455055e-06
7.28495259691759e-06
7.28495205645697e-06
7.28495151776106e-06
7.28495098105553e-06
7.28495045166097e-06
7.28494993051765e-06
7.28494942278002e-06
7.28494892872235e-06
7.28494845285822e-06
7.28494799470573e-06
7.28494755802694e-06
7.28494714159927e-06
7.28494674842082e-06
7.28494637667019e-06
7.28494602872131e-06
7.28494570242343e-06
7.28494539977524e-06
7.284945118626e-06
7.2849448608347e-06
7.28494462443616e-06
7.28494441115426e-06
7.28494421931011e-06
7.28494405216649e-06
7.28494391474637e-06
7.28494372889309e-06
7.28494322582393e-06
7.28494035487642e-06
7.28492055657453e-06
7.28478349975641e-06
7.28386378392033e-06
7.27797380395269e-06
7.24264856600239e-06
7.05011000346351e-06
6.14243089168286e-06
3.54692891729957e-08
6.58860337012964e-10
6.46894421031031e-10
3.46743955079161e-08
6.0797409990747e-06
7.03306234788657e-06
7.2390369413358e-06
7.27733238448532e-06
7.28377486520295e-06
7.28478668604005e-06
7.28493777063614e-06
7.28495925959631e-06
7.28496185604255e-06
7.28496173724498e-06
7.28496125109926e-06
7.28496073577401e-06
7.28496022089492e-06
7.28495970272095e-06
7.28495918532356e-06
7.28495866953633e-06
7.28495816075298e-06
7.28495765992356e-06
7.28495717213189e-06
7.28495669765559e-06
7.28495624094291e-06
7.28495580152718e-06
7.28495538311126e-06
7.28495498449347e-06
7.28495460861345e-06
7.28495425366878e-06
7.28495392197165e-06
7.28495361137562e-06
7.28495332380279e-06
7.28495305709527e-06
7.28495281302531e-06
7.28495258961497e-06
7.28495238851236e-06
7.28495220826431e-06
7.2849520555934e-06
7.28495198358983e-06
7.28495181828233e-06
7.28495132915962e-06
7.28494847268676e-06
7.28492869075051e-06
7.28479165264973e-06
7.28387195673521e-06
7.27798199245641e-06
7.24265674856077e-06
7.05011802563792e-06
6.14243763823994e-06
3.54693169594663e-08
6.58855921412894e-10
6.46895696876691e-10
3.46744037218177e-08
6.07974120780332e-06
7.03306286801526e-06
7.23903818621347e-06
7.27733396219217e-06
7.28377656688332e-06
7.28478843248255e-06
7.28493953470251e-06
7.28496103980134e-06
7.28496366196571e-06
7.28496357082216e-06
7.28496311018657e-06
7.28496262022724e-06
7.28496213047576e-06
7.28496163694229e-06
7.28496114339435e-06
7.28496065090495e-06
7.28496016488219e-06
7.28495968629392e-06
7.28495922016786e-06
7.2849587667967e-06
7.28495833057503e-06
7.28495791105575e-06
7.28495751189115e-06
7.28495713190203e-06
7.28495677396795e-06
7.28495643630242e-06
7.28495612115089e-06
7.28495582635717e-06
7.28495555375173e-06
7.28495530115171e-06
7.28495507022529e-06
7.28495485895715e-06
7.28495466885859e-06
7.28495449829204e-06
7.28495435327118e-06
7.28495429521701e-06
7.28495413690839e-06
7.28495365923092e-06
7.28495081535774e-06
7.28493104840976e-06
7.28479402835544e-06
7.28387435062418e-06
7.27798438962461e-06
7.24265909988561e-06
7.05012035188856e-06
6.14244022053692e-06
3.54692975521042e-08
6.58856046493511e-10
6.46893249588211e-10
3.46744093301128e-08
6.07973927104926e-06
7.03306200848995e-06
7.23903771629737e-06
7.27733363880606e-06
7.2837762954322e-06
7.28478817951379e-06
7.28493928863663e-06
7.28496080334608e-06
7.28496344582761e-06
7.28496337784499e-06
7.28496293875303e-06
7.28496247050086e-06
7.28496200253305e-06
7.28496153070714e-06
7.28496105856491e-06
7.2849605872203e-06
7.28496012202976e-06
7.28495966395741e-06
7.28495921796506e-06
7.28495878435616e-06
7.28495836746228e-06
7.28495796685538e-06
7.28495758613729e-06
7.284957224156e-06
7.28495688373016e-06
7.28495656309496e-06
7.28495626443971e-06
7.28495598559773e-06
7.28495572831152e-06
7.28495549038532e-06
7.28495527339803e-06
7.2849550753208e-06
7.28495489753009e-06
7.28495473802723e-06
7.28495459859785e-06
7.28495449051172e-06
7.28495433622422e-06
7.28495386523425e-06
7.28495102862965e-06
7.28493127024678e-06
7.28479426019427e-06
7.28387458982938e-06
7.27798461204325e-06
7.24265920893225e-06
7.05012016725572e-06
6.14244019754714e-06
3.5469268761507e-08
6.58857524602206e-10
6.46894090611178e-10
3.46744079593683e-08
6.07973637859218e-06
7.03306041129475e-06
7.23903650150767e-06
7.27733253192877e-06
7.28377521797795e-06
7.28478711155841e-06
7.28493822479882e-06
7.28495974848899e-06
7.28496241137466e-06
7.28496236676766e-06
7.28496194880171e-06
7.28496150154229e-06
7.28496105467229e-06
7.28496060401866e-06
7.28496015294306e-06
7.28495970252312e-06
7.28495925803217e-06
7.28495882041815e-06
7.284958394575e-06
7.28495798081517e-06
7.28495758340105e-06
7.28495720191871e-06
7.28495683992596e-06
7.28495649630301e-06
7.28495617379963e-06
7.2849558706748e-06
7.28495558907369e-06
7.28495532680055e-06
7.28495508550679e-06
7.28495486298282e-06
7.28495466072331e-06
7.28495447670037e-06
7.28495431216706e-06
7.28495416501763e-06
7.28495403590146e-06
7.28495392296333e-06
7.28495377677721e-06
7.2849533155935e-06
7.28495048969678e-06
7.28493074369788e-06
7.28479374812831e-06
7.28387409215961e-06
7.27798411603914e-06
7.24265865411367e-06
7.05011933119842e-06
6.14243807430654e-06
3.5469262778628e-08
6.58857928758543e-10
6.46897443525535e-10
3.46743788311084e-08
6.07973275751914e-06
7.03305838389001e-06
7.239034954704e-06
7.27733110401289e-06
7.28377381638154e-06
7.2847857173335e-06
7.28493683469891e-06
7.28495836844719e-06
7.28496105300768e-06
7.28496103291223e-06
7.28496063644099e-06
7.28496021030238e-06
7.28495978464491e-06
7.28495935532824e-06
7.28495892555856e-06
7.28495849635248e-06
7.28495807288977e-06
7.28495765609437e-06
7.28495725079478e-06
7.28495685731826e-06
7.28495647984432e-06
7.28495611796998e-06
7.28495577521468e-06
7.28495545050647e-06
7.28495514650826e-06
7.28495486150278e-06
7.28495459760181e-06
7.28495435255472e-06
7.2849541279155e-06
7.28495392146132e-06
7.28495373458935e-06
7.28495356527556e-06
7.28495341463632e-06
7.2849532805346e-06
7.28495316327225e-06
7.28495305723974e-06
7.28495292107407e-06
7.28495247073476e-06
7.2849496565969e-06
7.28492992413979e-06
7.28479294435884e-06
7.28387330440617e-06
7.27798333241575e-06
7.24265781427235e-06
7.05011820692336e-06
6.14243605458755e-06
3.54692760770855e-08
6.58860867210516e-10
6.46895083686592e-10
3.46743130685149e-08
6.07972918442425e-06
7.03305617032037e-06
7.23903322055788e-06
7.27732949143869e-06
7.28377222938721e-06
7.28478413700929e-06
7.28493525864478e-06
7.28495680268227e-06
7.28495950886108e-06
7.28495951345716e-06
7.28495913887857e-06
7.28495873436111e-06
7.28495833047301e-06
7.28495792310293e-06
7.28495751530648e-06
7.28495710802911e-06
7.28495670636015e-06
7.28495631118305e-06
7.28495592726519e-06
7.2849555549628e-06
7.28495519834205e-06
7.28495485700027e-06
7.28495453442621e-06
7.28495422961547e-06
7.28495394512237e-06
7.28495367923481e-06
7.28495343402479e-06
7.28495320716805e-06
7.28495300014944e-06
7.28495281073627e-06
7.28495264016246e-06
7.2849524863432e-06
7.28495235033212e-06
7.2849522300108e-06
7.28495212557132e-06
7.28495203036649e-06
7.28495190553366e-06
7.28495146688497e-06
7.284948665331e-06
7.28492894729719e-06
7.2847919842377e-06
7.28387236122586e-06
7.27798239403917e-06
7.24265681957538e-06
7.05011692531418e-06
6.14243401990414e-06
3.54692579580877e-08
6.58859629901453e-10
6.46890108322984e-10
3.46742739541834e-08
6.07972611923446e-06
7.03305404538035e-06
7.23903148846193e-06
7.27732786682858e-06
7.28377062778738e-06
7.284782541277e-06
7.28493366688042e-06
7.28495522051623e-06
7.28495794717541e-06
7.28495797562285e-06
7.28495762250814e-06
7.28495723934415e-06
7.28495685699596e-06
7.28495647135257e-06
7.28495608531682e-06
7.28495569977545e-06
7.28495531974868e-06
7.28495494605645e-06
7.2849545834106e-06
7.28495423224026e-06
7.28495389644483e-06
7.28495357561004e-06
7.28495327318945e-06
7.28495298825699e-06
7.28495272326871e-06
7.28495247645631e-06
7.28495224973494e-06
7.28495204085545e-06
7.28495185120112e-06
7.28495167851111e-06
7.2849515239436e-06
7.28495138535571e-06
7.28495126372835e-06
7.28495115696757e-06
7.28495106523632e-06
7.28495098167246e-06
7.28495086827651e-06
7.28495044120897e-06
7.28494765214466e-06
7.284927948527e-06
7.28479100230198e-06
7.28387139663239e-06
7.27798143585677e-06
7.24265581318319e-06
7.05011568171475e-06
6.1424321266786e-06
3.54692155245363e-08
6.58859437264857e-10
6.46889490996968e-10
3.46742486859919e-08
6.07972347237153e-06
7.03305200986449e-06
7.23902975765947e-06
7.27732622522258e-06
7.28376900567534e-06
7.28478092421849e-06
7.28493205356427e-06
7.28495361626701e-06
7.28495636242755e-06
7.2849564138559e-06
7.28495608178551e-06
7.28495571977563e-06
7.28495535884772e-06
7.28495499484319e-06
7.28495463050327e-06
7.28495426666816e-06
7.28495390833063e-06
7.28495355619151e-06
7.28495321489278e-06
7.28495288501105e-06
7.28495257019876e-06
7.28495227002135e-06
7.28495198783591e-06
7.28495172266405e-06
7.28495147692334e-06
7.28495124888856e-06
7.28495104040635e-06
7.28495084928996e-06
7.28495067684886e-06
7.2849505207958e-06
7.28495038219181e-06
7.28495025883781e-06
7.28495015161516e-06
7.2849500584608e-06
7.28494997954558e-06
7.28494990805724e-06
7.28494980630486e-06
7.28494939082509e-06
7.28494661430235e-06
7.28492692530193e-06
7.28478999626665e-06
7.28387040870796e-06
7.27798045706841e-06
7.24265480006753e-06
7.05011449618552e-06
6.14243052730479e-06
3.54691936013839e-08
6.5885695457711e-10
6.46889296426731e-10
3.46742294544582e-08
6.07972113355696e-06
7.03305009885728e-06
7.23902808614275e-06
7.2773246275364e-06
7.28376742445396e-06
7.28477934739124e-06
7.28493048035983e-06
7.28495205195082e-06
7.28495481680127e-06
7.28495488995721e-06
7.28495457821572e-06
7.28495423689339e-06
7.28495389698592e-06
7.28495355422941e-06
7.28495321119057e-06
7.28495286867893e-06
7.28495253171318e-06
7.28495220078367e-06
7.28495188038066e-06
7.28495157092327e-06
7.28495127618226e-06
7.28495099576871e-06
7.28495073295223e-06
7.28495048672789e-06
7.28495025950905e-06
7.28495004959715e-06
7.28494985877147e-06
7.28494968488238e-06
7.28494952916849e-06
7.28494938931584e-06
7.2849492662903e-06
7.2849491578343e-06
7.28494906468387e-06
7.28494898483584e-06
7.28494891851105e-06
7.2849488590688e-06
7.28494876877267e-06
7.28494836425059e-06
7.28494559971179e-06
7.28492592506324e-06
7.28478901313557e-06
7.28386944397091e-06
7.27797950333729e-06
7.24265382068529e-06
7.05011338522526e-06
6.14242911958266e-06
3.54691767565083e-08
6.58851992019112e-10
6.46889140412374e-10
3.46742119555287e-08
6.07971890996786e-06
7.03304822144368e-06
7.2390264154798e-06
7.2773230215105e-06
7.28376583287726e-06
7.28477775984022e-06
7.28492889660902e-06
7.28495047785964e-06
7.28495326126776e-06
7.28495335452609e-06
7.28495306252352e-06
7.28495274172928e-06
7.28495242276766e-06
7.28495210120562e-06
7.28495177941993e-06
7.28495145807529e-06
7.28495114191801e-06
7.28495083158859e-06
7.28495053148992e-06
7.28495024198089e-06
7.28494996687511e-06
7.28494970582036e-06
7.28494946201747e-06
7.28494923445636e-06
7.28494902553e-06
7.28494883356445e-06
7.28494866028285e-06
7.28494850356206e-06
7.28494836457042e-06
7.28494824096055e-06
7.28494813362329e-06
7.28494804023743e-06
7.28494796128472e-06
7.28494789491805e-06
7.28494784147555e-06
7.28494779467979e-06
7.2849477161983e-06
7.28494732179595e-06
7.28494456856473e-06
7.28492490824153e-06
7.2847880136666e-06
7.28386846340495e-06
7.27797853519853e-06
7.24265283300262e-06
7.05011228774026e-06
6.14242779802553e-06
3.54691648726478e-08
6.58851457542512e-10
6.46889006907136e-10
3.4674195291572e-08
6.07971677412673e-06
7.03304640032384e-06
7.23902478316675e-06
7.27732144892203e-06
7.28376427381326e-06
7.28477620466106e-06
7.2849273454551e-06
7.284948938292e-06
7.28495174065588e-06
7.28495185093057e-06
7.28495157744343e-06
7.28495127627763e-06
7.28495097725053e-06
7.28495067585153e-06
7.28495037428447e-06
7.28495007308727e-06
7.28494977681463e-06
7.28494948617738e-06
7.28494920551422e-06
7.28494893516696e-06
7.28494867894383e-06
7.28494843652318e-06
7.28494821104968e-06
7.28494800152325e-06
7.28494781030628e-06
7.28494763575635e-06
7.28494747956224e-06
7.28494733964546e-06
7.28494721710197e-06
7.28494710952154e-06
7.28494701778033e-06
7.28494693951302e-06
7.28494687465636e-06
7.28494682181125e-06
7.28494678144886e-06
7.28494674819966e-06
7.28494668204776e-06
7.28494629512266e-06
7.28494355106632e-06
7.28492390440826e-06
7.28478702702836e-06
7.28386749581491e-06
7.27797758088998e-06
7.2426518614003e-06
7.05011121611068e-06
6.14242652955088e-06
3.54691546589254e-08
6.58851368423168e-10
6.46888885791444e-10
3.46741786159184e-08
6.07971461896698e-06