/*--------------------------------*- C++ -*----------------------------------*\
  =========                 |
  \\      /  F ield         | OpenFOAM: The Open Source CFD Toolbox
   \\    /   O peration     | Website:  https://openfoam.org
    \\  /    A nd           | Version:  10
     \\/     M anipulation  |
\*---------------------------------------------------------------------------*/
FoamFile
{
    format      ascii;
    class       volScalarField;
    location    "0.8";
    object      omega;
}
// * * * * * * * * * * * * * * * * * * * * * * * * * * * * * * * * * * * * * //

dimensions      [0 0 -1 0 0 0 0];

internalField   nonuniform List<scalar> 
2500
(
128377.805450518
128462.089359777
128457.370433567
128457.002891043
128456.975691801
128456.972507948
128456.971641368
128456.970741207
128456.969772084
128456.969344501
128456.968616759
128456.968135141
128456.96784275
128456.967448796
128456.967091606
128456.966673818
128456.9664831
128456.966217728
128456.965914434
128456.965719678
128456.965504896
128456.965029089
128456.964689053
128456.964835022
128456.964946476
128456.964641243
128456.964522313
128456.964491282
128456.964361722
128456.964610344
128456.964666103
128456.964718167
128456.964798959
128456.964911752
128456.965175617
128456.965315616
128456.965479433
128456.965610087
128456.965889408
128456.966148195
128456.966453933
128456.966807778
128456.967226986
128456.967599848
128456.968730022
128456.972320691
128457.00536655
128457.401612721
128462.212529792
128377.848276929
31679.0022061128
14073.8723793477
14070.8631231047
14070.5742945753
14070.5479110022
14070.5453775445
14070.5451257917
14070.5450900377
14070.5450764015
14070.545070968
14070.5450625625
14070.5450562818
14070.5450542583
14070.545052292
14070.545049812
14070.5450465868
14070.5450462888
14070.5450448854
14070.5450426405
14070.5450396985
14070.545010105
14070.5449749107
14070.5449678335
14070.5449793091
14070.5449949705
14070.5449813378
14070.544980387
14070.544965444
14070.5449575756
14070.5449863405
14070.5449988746
14070.5449923478
14070.545007368
14070.5450453747
14070.5450563104
14070.5450598001
14070.5450630079
14070.5450655974
14070.5450692308
14070.545072769
14070.5450771702
14070.5450826424
14070.5450955141
14070.5451621411
14070.5456475389
14070.549313846
14070.5797961012
14070.8721783787
14073.9109393872
31679.844358288
31569.4507249852
3507.09187996692
50.4972483649378
50.49649691172
50.4964232302386
50.4964159262707
50.4964151894617
50.4964151084497
50.4964150961277
50.4964150936823
50.4964150777039
50.4964150411954
50.4964150441313
50.4964150589711
50.4964150491335
50.4964150505106
50.4964150733693
50.4964150942415
50.4964150948249
50.4964150738715
50.4964150327154
50.4964150176283
50.4964150111518
50.4964150091988
50.4964150469094
50.4964150328922
50.4964150047873
50.4964150127052
50.4964150215867
50.4964150413386
50.496415072704
50.4964150620146
50.4964150646262
50.4964151145991
50.4964151366299
50.4964151417705
50.4964151456816
50.4964151484171
50.4964151512558
50.496415154004
50.4964151572355
50.4964151620717
50.4964151820265
50.4964153205235
50.496416377801
50.4964247560883
50.496498280498
50.497224048901
3507.09392771988
31570.1821806467
31539.7323982029
3504.21542782333
50.4596613310536
50.4594181754342
50.459391626281
50.4593888918292
50.4593886101732
50.4593885811446
50.4593885776269
50.4593885775522
50.4593885748812
50.4593885609534
50.4593885600947
50.4593885665142
50.4593885643601
50.4593885689528
50.4593885732753
50.4593885686053
50.4593885689663
50.4593885661248
50.4593885628832
50.4593885617906
50.4593885588636
50.4593885621562
50.4593885704867
50.4593885657584
50.4593885624965
50.4593885660463
50.4593885679263
50.4593885721132
50.459388578854
50.4593885789438
50.459388581739
50.4593885894462
50.4593885951612
50.4593885991779
50.4593886027153
50.4593886038904
50.4593886048817
50.45938860584
50.4593886068548
50.4593886082317
50.4593886134282
50.4593886500869
50.4593889411717
50.459391420022
50.4594149781039
50.4596491641913
3504.21569817979
31540.0492750097
31532.6860945474
3503.57873747077
50.4513447093706
50.4512823176387
50.4512747192843
50.4512738969933
50.4512738099896
50.4512738008273
50.4512737995004
50.4512737992373
50.4512737982109
50.4512737944738
50.4512737942429
50.4512737960167
50.4512737957722
50.451273797167
50.4512737975932
50.4512737952354
50.4512737965115
50.4512737963061
50.4512737960569
50.4512737969588
50.4512737963952
50.4512737966747
50.4512737978146
50.4512737986338
50.4512737993822
50.4512737991288
50.4512737993369
50.451273800983
50.4512738021629
50.4512738028857
50.4512738041696
50.4512738053084
50.4512738066821
50.451273808995
50.4512738106741
50.4512738114086
50.4512738120753
50.4512738127549
50.451273813476
50.4512738143146
50.4512738160856
50.4512738254298
50.4512738973962
50.4512745329095
50.4512807889309
50.4513412960965
3503.57864707079
31532.7878596934
31531.1603547241
3503.44969798279
50.4496434916067
50.4496294156652
50.4496275214879
50.4496273051091
50.4496272811673
50.4496272781493
50.44962727739
50.4496272770245
50.449627276449
50.4496272754598
50.4496272752682
50.4496272756519
50.4496272757681
50.4496272758684
50.449627275948
50.4496272757114
50.4496272759616
50.4496272758259
50.449627276022
50.4496272766164
50.4496272767471
50.4496272768902
50.4496272773503
50.4496272778331
50.4496272782821
50.449627278418
50.4496272787381
50.4496272793822
50.4496272798064
50.4496272803763
50.4496272809918
50.4496272814407
50.4496272820593
50.4496272830771
50.4496272839191
50.4496272845187
50.4496272851247
50.4496272857682
50.449627286462
50.4496272872301
50.4496272882615
50.4496272910521
50.4496273081779
50.4496274571406
50.4496289375545
50.4496428032982
3503.44962922665
31531.1878362421
31530.8512851432
3503.42518098899
50.4493172265035
50.4493143022646
50.4493138716339
50.4493138192018
50.4493138127166
50.4493138114317
50.4493138108337
50.449313810427
50.4493138100183
50.449313809617
50.4493138094317
50.4493138094357
50.4493138094502
50.4493138094249
50.4493138094862
50.4493138094842
50.4493138095862
50.4493138097574
50.4493138099802
50.4493138102632
50.4493138104927
50.4493138107143
50.4493138110256
50.4493138113544
50.4493138117111
50.4493138119823
50.4493138123373
50.4493138127416
50.4493138131117
50.4493138135333
50.4493138139851
50.4493138144176
50.4493138148954
50.4493138154995
50.4493138160839
50.4493138166375
50.4493138172227
50.4493138178514
50.4493138185323
50.4493138192777
50.4493138201355
50.449313821431
50.4493138258651
50.4493138589751
50.4493141820061
50.4493171161935
3503.42515413889
31530.8579044732
31530.7921644148
3503.42078992006
50.4492584638882
50.4492578897184
50.4492577976204
50.4492577852188
50.4492577831382
50.4492577823437
50.4492577817972
50.4492577813744
50.449257781027
50.4492577807588
50.4492577805909
50.4492577805084
50.449257780477
50.449257780471
50.4492577805254
50.4492577805949
50.4492577807097
50.4492577808794
50.4492577810817
50.4492577813109
50.4492577815563
50.4492577818108
50.4492577820893
50.4492577823887
50.4492577827032
50.4492577830222
50.4492577833673
50.4492577837226
50.44925778409
50.4492577844779
50.4492577848949
50.4492577853174
50.4492577857603
50.4492577862517
50.4492577867601
50.4492577872922
50.4492577878631
50.4492577884753
50.4492577891361
50.4492577898558
50.449257790651
50.4492577915952
50.4492577932438
50.4492578008212
50.4492578676233
50.4492584535633
3503.42078200611
31530.7936363512
31530.7817766618
3503.42008761957
50.4492491032591
50.4492489945742
50.4492489752938
50.4492489720199
50.449248971014
50.4492489703766
50.4492489698756
50.4492489694764
50.4492489691622
50.4492489689282
50.4492489687704
50.4492489686788
50.449248968643
50.449248968653
50.4492489687113
50.449248968804
50.4492489689331
50.4492489691001
50.4492489692958
50.4492489695152
50.4492489697572
50.4492489700158
50.449248970291
50.4492489705824
50.4492489708904
50.4492489712116
50.4492489715477
50.449248971897
50.4492489722592
50.449248972636
50.4492489730338
50.449248973446
50.4492489738779
50.4492489743377
50.4492489748219
50.4492489753356
50.4492489758855
50.4492489764753
50.4492489771112
50.4492489778005
50.4492489785522
50.4492489793864
50.4492489804161
50.4492489826594
50.4492489964341
50.4492491087866
3503.4200859358
31530.7820878031
31530.7805136894
3503.42003641224
50.4492484956686
50.4492484751981
50.4492484708098
50.4492484695569
50.4492484688398
50.4492484682776
50.4492484678186
50.4492484674505
50.4492484671644
50.4492484669531
50.4492484668101
50.4492484667285
50.4492484667018
50.4492484667229
50.4492484667883
50.449248466891
50.4492484670283
50.4492484671972
50.4492484673927
50.4492484676115
50.4492484678517
50.44924846811
50.4492484683844
50.4492484686742
50.4492484689785
50.449248469296
50.4492484696263
50.4492484699695
50.4492484703255
50.4492484706952
50.4492484710813
50.4492484714834
50.4492484719043
50.4492484723478
50.4492484728154
50.4492484733114
50.4492484738401
50.4492484744061
50.4492484750143
50.4492484756705
50.4492484763805
50.4492484771517
50.4492484780079
50.4492484791373
50.4492484824442
50.4492485037713
3503.42003646142
31530.7805798874
31530.7809050414
3503.42009678098
50.4492493879926
50.4492493837566
50.4492493823531
50.4492493815808
50.4492493809767
50.4492493804715
50.4492493800542
50.4492493797191
50.4492493794603
50.4492493792717
50.449249379147
50.4492493790801
50.4492493790654
50.4492493790972
50.4492493791707
50.4492493792808
50.4492493794237
50.4492493795958
50.4492493797935
50.4492493800136
50.4492493802537
50.4492493805114
50.4492493807847
50.4492493810724
50.4492493813733
50.4492493816865
50.4492493820115
50.4492493823485
50.4492493826975
50.4492493830594
50.4492493834354
50.4492493838268
50.4492493842356
50.4492493846644
50.4492493851158
50.4492493855932
50.4492493861003
50.4492493866411
50.44924938722
50.4492493878411
50.4492493885085
50.4492493892253
50.4492493899954
50.4492493908478
50.449249392108
50.4492493965372
3503.4200972594
31530.7809221144
31530.781588563
3503.42017582564
50.449250530444
50.4492505291869
50.4492505284231
50.4492505278094
50.4492505272794
50.4492505268271
50.4492505264517
50.4492505261509
50.4492505259203
50.4492505257551
50.4492505256498
50.449250525599
50.4492505255975
50.4492505256402
50.4492505257224
50.4492505258397
50.4492505259881
50.4492505261641
50.4492505263643
50.4492505265858
50.4492505268262
50.4492505270832
50.449250527355
50.44925052764
50.4492505279373
50.4492505282459
50.4492505285654
50.4492505288958
50.4492505292372
50.4492505295903
50.4492505299562
50.449250530336
50.4492505307317
50.4492505311454
50.4492505315796
50.4492505320373
50.4492505325218
50.4492505330363
50.4492505335845
50.4492505341694
50.4492505347934
50.4492505354572
50.449250536159
50.4492505368963
50.4492505377081
50.4492505390309
3503.42017639911
31530.7815961485
31530.7823225962
3503.42025793946
50.4492517137027
50.449251713041
50.4492517124647
50.4492517119412
50.4492517114753
50.4492517110742
50.4492517107409
50.4492517104749
50.4492517102733
50.4492517101322
50.4492517100471
50.449251710013
50.4492517100254
50.4492517100795
50.4492517101709
50.4492517102955
50.4492517104495
50.4492517106296
50.4492517108325
50.4492517110555
50.4492517112962
50.4492517115523
50.4492517118222
50.4492517121044
50.4492517123978
50.4492517127015
50.4492517130151
50.4492517133385
50.4492517136717
50.4492517140154
50.4492517143705
50.4492517147381
50.4492517151198
50.4492517155176
50.4492517159338
50.4492517163708
50.4492517168315
50.4492517173187
50.4492517178351
50.4492517183829
50.4492517189631
50.4492517195747
50.4492517202134
50.4492517208695
50.4492517215318
50.449251722239
3503.42025852918
31530.7823283755
31530.7830652279
3503.42034055235
50.4492529035242
50.4492529030301
50.4492529025503
50.4492529020992
50.4492529016929
50.4492529013417
50.4492529010503
50.4492529008193
50.4492529006472
50.4492529005308
50.4492529004663
50.4492529004496
50.4492529004763
50.4492529005422
50.4492529006431
50.4492529007753
50.4492529009351
50.4492529011194
50.4492529013251
50.4492529015495
50.4492529017904
50.4492529020456
50.4492529023135
50.4492529025926
50.4492529028818
50.4492529031802
50.4492529034875
50.4492529038033
50.4492529041279
50.4492529044616
50.4492529048052
50.4492529051598
50.4492529055268
50.4492529059079
50.4492529063051
50.4492529067205
50.4492529071566
50.4492529076155
50.4492529080995
50.4492529086098
50.4492529091462
50.4492529097066
50.4492529102853
50.4492529108707
50.449252911444
50.4492529119813
3503.4203411406
31530.7830706355
31530.7838093223
3503.42042324758
50.4492540944103
50.4492540940014
50.4492540935951
50.4492540932085
50.4492540928585
50.4492540925556
50.4492540923054
50.4492540921094
50.449254091967
50.4492540918758
50.4492540918325
50.4492540918335
50.449254091875
50.449254091953
50.4492540920638
50.4492540922038
50.4492540923696
50.4492540925582
50.4492540927667
50.4492540929925
50.4492540932336
50.4492540934877
50.4492540937534
50.4492540940291
50.4492540943138
50.4492540946067
50.4492540949073
50.4492540952151
50.4492540955306
50.4492540958537
50.4492540961854
50.4492540965263
50.4492540968779
50.4492540972415
50.449254097619
50.449254098012
50.4492540984227
50.4492540988528
50.4492540993038
50.4492540997762
50.4492541002693
50.4492541007799
50.4492541013014
50.4492541018224
50.4492541023238
50.4492541027762
3503.42042383028
31530.7838146152
31530.7845536817
3503.42050595832
50.4492552854925
50.4492552851476
50.4492552848047
50.4492552844772
50.4492552841801
50.4492552839238
50.449255283714
50.4492552835528
50.4492552834402
50.4492552833743
50.4492552833526
50.4492552833717
50.4492552834283
50.4492552835188
50.4492552836397
50.4492552837876
50.4492552839596
50.4492552841525
50.4492552843639
50.4492552845912
50.4492552848323
50.4492552850852
50.4492552853485
50.4492552856206
50.4492552859006
50.4492552861876
50.4492552864811
50.4492552867806
50.4492552870864
50.4492552873986
50.4492552877176
50.4492552880444
50.4492552883799
50.4492552887254
50.4492552890824
50.4492552894524
50.4492552898371
50.4492552902378
50.4492552906554
50.44925529109
50.4492552915403
50.4492552920026
50.44925529247
50.4492552929314
50.4492552933696
50.4492552937587
3503.42050653421
31530.7845589013
31530.7852981047
3503.42058867359
50.4492564766305
50.44925647634
50.4492564760539
50.4492564757808
50.4492564755338
50.4492564753223
50.449256475152
50.4492564750252
50.4492564749423
50.449256474902
50.449256474902
50.4492564749395
50.4492564750115
50.4492564751146
50.4492564752459
50.4492564754021
50.4492564755802
50.4492564757777
50.4492564759919
50.4492564762206
50.4492564764617
50.4492564767133
50.4492564769741
50.4492564772425
50.4492564775175
50.4492564777984
50.4492564780844
50.4492564783753
50.4492564786711
50.4492564789717
50.4492564792778
50.4492564795898
50.4492564799087
50.4492564802356
50.4492564805715
50.4492564809179
50.449256481276
50.4492564816468
50.4492564820309
50.4492564824279
50.4492564828361
50.4492564832516
50.4492564836677
50.449256484074
50.4492564844554
50.4492564847904
3503.42058924219
31530.785303256
31530.7860425562
3503.42067139149
50.4492576678015
50.4492576675594
50.4492576673246
50.4492576671019
50.4492576669022
50.4492576667337
50.4492576666018
50.449257666509
50.4492576664556
50.4492576664409
50.4492576664628
50.449257666519
50.4492576666065
50.4492576667226
50.4492576668644
50.4492576670289
50.4492576672134
50.4492576674154
50.4492576676325
50.4492576678626
50.4492576681036
50.4492576683539
50.4492576686119
50.4492576688764
50.4492576691462
50.4492576694206
50.449257669699
50.4492576699809
50.4492576702662
50.449257670555
50.4492576708476
50.4492576711444
50.4492576714462
50.4492576717538
50.4492576720683
50.4492576723906
50.4492576727217
50.4492576730623
50.4492576734128
50.4492576737725
50.4492576741394
50.4492576745097
50.449257674877
50.449257675232
50.4492576755618
50.4492576758489
3503.42067195232
31530.7860476391
31530.7867870272
3503.42075411136
50.4492588589969
50.4492588587984
50.4492588586107
50.4492588584349
50.4492588582799
50.4492588581528
50.4492588580584
50.4492588579989
50.449258857975
50.4492588579858
50.4492588580298
50.4492588581047
50.4492588582081
50.4492588583373
50.4492588584898
50.4492588586627
50.4492588588537
50.4492588590603
50.4492588592803
50.4492588595117
50.4492588597526
50.4492588600014
50.4492588602566
50.449258860517
50.4492588607815
50.4492588610492
50.4492588613196
50.4492588615922
50.4492588618669
50.4492588621434
50.4492588624222
50.4492588627034
50.4492588629877
50.4492588632756
50.4492588635681
50.4492588638659
50.4492588641697
50.44925886448
50.4492588647969
50.4492588651195
50.449258865446
50.4492588657725
50.4492588660934
50.4492588664005
50.4492588666829
50.4492588669268
3503.42075466401
31530.7867920341
31530.7875315143
3503.42083683294
50.4492600502145
50.4492600500557
50.4492600499115
50.4492600497797
50.4492600496672
50.4492600495801
50.4492600495222
50.4492600494956
50.4492600495008
50.4492600495371
50.4492600496032
50.449260049697
50.4492600498163
50.4492600499588
50.449260050122
50.4492600503035
50.449260050501
50.4492600507122
50.4492600509351
50.4492600511679
50.4492600514086
50.4492600516558
50.4492600519081
50.4492600521642
50.4492600524232
50.4492600526841
50.4492600529463
50.4492600532094
50.449260053473
50.449260053737
50.4492600540016
50.4492600542669
50.4492600545332
50.4492600548012
50.4492600550714
50.4492600553443
50.4492600556205
50.4492600559003
50.4492600561837
50.4492600564697
50.4492600567564
50.4492600570405
50.449260057317
50.449260057579
50.4492600578173
50.4492600580219
3503.42083737719
31530.7875364458
31530.7882760142
3503.42091955585
50.4492612414489
50.449261241327
50.4492612412233
50.4492612411331
50.4492612410612
50.4492612410127
50.4492612409906
50.4492612409963
50.4492612410304
50.4492612410922
50.4492612411803
50.4492612412931
50.4492612414285
50.4492612415843
50.4492612417584
50.4492612419485
50.4492612421526
50.4492612423685
50.4492612425944
50.4492612428284
50.449261243069
50.4492612433145
50.4492612435638
50.4492612438156
50.4492612440688
50.4492612443227
50.4492612445766
50.4492612448299
50.4492612450823
50.4492612453335
50.4492612455836
50.4492612458326
50.4492612460808
50.4492612463284
50.449261246576
50.4492612468238
50.4492612470723
50.4492612473216
50.4492612475715
50.4492612478211
50.4492612480688
50.4492612483118
50.4492612485456
50.4492612487647
50.449261248962
50.44926124913
3503.42092009131
31530.7882808654
31530.7890205247
3503.4210022799
50.4492624326985
50.449262432611
50.4492624325456
50.4492624324949
50.4492624324623
50.4492624324512
50.449262432464
50.4492624325017
50.4492624325645
50.4492624326516
50.4492624327618
50.4492624328936
50.449262433045
50.4492624332143
50.4492624333994
50.4492624335982
50.4492624338089
50.4492624340295
50.4492624342583
50.4492624344936
50.4492624347339
50.4492624349777
50.4492624352239
50.4492624354712
50.4492624357187
50.4492624359655
50.4492624362108
50.4492624364541
50.4492624366951
50.4492624369333
50.4492624371687
50.4492624374013
50.4492624376309
50.449262437858
50.4492624380827
50.4492624383052
50.4492624385258
50.4492624387445
50.449262438961
50.4492624391746
50.449262439384
50.4492624395866
50.4492624397792
50.4492624399574
50.4492624401156
50.4492624402495
3503.4210028064
31530.7890252969
31530.7897650428
3503.42108500474
50.4492636239579
50.4492636239032
50.4492636238745
50.4492636238618
50.4492636238671
50.4492636238927
50.4492636239398
50.4492636240091
50.4492636241003
50.4492636242126
50.4492636243449
50.4492636244957
50.4492636246634
50.4492636248461
50.4492636250422
50.4492636252498
50.4492636254671
50.4492636256924
50.4492636259242
50.4492636261607
50.4492636264008
50.4492636266429
50.4492636268859
50.4492636271286
50.4492636273703
50.4492636276097
50.4492636278464
50.4492636280797
50.4492636283091
50.4492636285341
50.4492636287547
50.4492636289705
50.4492636291816
50.4492636293879
50.4492636295895
50.4492636297866
50.4492636299792
50.4492636301672
50.4492636303505
50.4492636305284
50.4492636306998
50.449263630863
50.4492636310155
50.4492636311541
50.449263631275
50.4492636313763
3503.42108552201
31530.7897697307
31530.790509567
3503.42116773024
50.449264815226
50.4492648152029
50.4492648152094
50.4492648152338
50.4492648152762
50.4492648153376
50.4492648154187
50.4492648155192
50.4492648156386
50.4492648157761
50.4492648159305
50.4492648161003
50.4492648162842
50.4492648164805
50.4492648166876
50.4492648169039
50.4492648171279
50.4492648173579
50.4492648175926
50.4492648178305
50.4492648180702
50.4492648183105
50.4492648185502
50.4492648187884
50.449264819024
50.4492648192561
50.4492648194841
50.4492648197072
50.4492648199248
50.4492648201366
50.4492648203422
50.4492648205412
50.4492648207334
50.4492648209188
50.4492648210973
50.4492648212688
50.4492648214333
50.4492648215907
50.4492648217408
50.4492648218832
50.449264822017
50.4492648221413
50.4492648222545
50.4492648223546
50.4492648224393
50.4492648225092
3503.42116823813
31530.7905141702
31530.7912540942
3503.42125045604
50.4492660064977
50.4492660065055
50.4492660065466
50.4492660066072
50.4492660066861
50.4492660067831
50.4492660068978
50.4492660070293
50.4492660071769
50.4492660073395
50.4492660075159
50.4492660077048
50.4492660079048
50.4492660081146
50.4492660083329
50.4492660085579
50.4492660087886
50.4492660090234
50.449266009261
50.4492660095001
50.4492660097395
50.4492660099779
50.4492660102145
50.4492660104479
50.4492660106775
50.4492660109022
50.4492660111214
50.4492660113342
50.4492660115401
50.4492660117386
50.449266011929
50.4492660121111
50.4492660122845
50.4492660124489
50.4492660126042
50.4492660127501
50.4492660128864
50.4492660130132
50.4492660131301
50.449266013237
50.4492660133336
50.4492660134193
50.4492660134937
50.4492660135558
50.4492660136052
50.4492660136443
3503.42125095445
31530.7912586127
31530.7919986221
3503.42133318193
50.4492671977709
50.4492671978091
50.4492671978845
50.4492671979811
50.4492671980962
50.4492671982286
50.4492671983767
50.4492671985392
50.4492671987149
50.4492671989025
50.4492671991009
50.4492671993088
50.4492671995251
50.4492671997484
50.4492671999777
50.4492672002116
50.4492672004489
50.4492672006884
50.4492672009289
50.4492672011692
50.4492672014083
50.4492672016449
50.4492672018781
50.449267202107
50.4492672023305
50.4492672025478
50.4492672027581
50.4492672029606
50.4492672031547
50.4492672033397
50.4492672035151
50.4492672036802
50.4492672038347
50.4492672039781
50.4492672041101
50.4492672042303
50.4492672043386
50.4492672044346
50.4492672045185
50.44926720459
50.4492672046494
50.4492672046967
50.4492672047323
50.4492672047568
50.449267204771
50.4492672047797
3503.4213336708
31530.7920030522
31530.7927431478
3503.42141590756
50.4492683890403
50.4492683891092
50.449268389219
50.4492683893517
50.4492683895033
50.449268389671
50.4492683898526
50.4492683900461
50.4492683902499
50.4492683904626
50.449268390683
50.4492683909099
50.4492683911424
50.4492683913792
50.4492683916195
50.4492683918622
50.4492683921061
50.4492683923503
50.4492683925937
50.4492683928353
50.449268393074
50.4492683933087
50.4492683935388
50.4492683937629
50.4492683939804
50.4492683941903
50.4492683943918
50.4492683945841
50.4492683947664
50.449268394938
50.4492683950983
50.4492683952465
50.4492683953822
50.4492683955046
50.4492683956133
50.4492683957079
50.449268395788
50.4492683958535
50.4492683959042
50.4492683959403
50.4492683959623
50.4492683959712
50.449268395968
50.4492683959547
50.4492683959335
50.4492683959116
3503.42141638686
31530.7927474927
31530.7934876698
3503.42149863282
50.4492695803049
50.449269580405
50.4492695805497
50.4492695807191
50.4492695809074
50.4492695811108
50.4492695813261
50.4492695815507
50.4492695817827
50.4492695820205
50.4492695822628
50.4492695825087
50.4492695827573
50.4492695830077
50.449269583259
50.4492695835103
50.4492695837609
50.4492695840098
50.449269584256
50.4492695844988
50.4492695847371
50.4492695849701
50.4492695851968
50.4492695854163
50.4492695856278
50.4492695858303
50.449269586023
50.449269586205
50.4492695863756
50.449269586534
50.4492695866792
50.4492695868106
50.4492695869274
50.4492695870289
50.4492695871144
50.4492695871835
50.4492695872355
50.4492695872703
50.4492695872878
50.4492695872884
50.449269587273
50.449269587243
50.4492695872007
50.449269587149
50.4492695870918
50.4492695870388
3503.42149910263
31530.7934919288
31530.7942321854
3503.42158135737
50.4492707715597
50.449270771692
50.4492707718728
50.4492707720797
50.4492707723055
50.4492707725451
50.4492707727945
50.4492707730504
50.4492707733107
50.4492707735736
50.4492707738379
50.4492707741028
50.4492707743674
50.4492707746312
50.4492707748934
50.4492707751535
50.4492707754106
50.4492707756641
50.4492707759132
50.4492707761572
50.4492707763952
50.4492707766263
50.4492707768498
50.4492707770647
50.4492707772702
50.4492707774654
50.4492707776494
50.4492707778213
50.4492707779803
50.4492707781254
50.4492707782557
50.4492707783704
50.4492707784686
50.4492707785493
50.4492707786118
50.4492707786553
50.4492707786793
50.4492707786834
50.4492707786677
50.4492707786326
50.4492707785793
50.44927077851
50.4492707784277
50.4492707783368
50.4492707782427
50.4492707781574
3503.42158181773
31530.7942363599
31530.7949766926
3503.42166408104
50.4492719628032
50.4492719629692
50.4492719631874
50.4492719634331
50.4492719636975
50.4492719639741
50.4492719642581
50.4492719645456
50.4492719648343
50.4492719651223
50.4492719654086
50.4492719656924
50.4492719659731
50.4492719662502
50.4492719665233
50.4492719667918
50.4492719670555
50.4492719673136
50.4492719675656
50.4492719678107
50.4492719680483
50.4492719682776
50.449271968498
50.4492719687083
50.4492719689079
50.4492719690958
50.4492719692712
50.4492719694331
50.4492719695806
50.4492719697127
50.4492719698283
50.4492719699264
50.449271970006
50.4492719700661
50.4492719701057
50.4492719701239
50.44927197012
50.4492719700935
50.4492719700444
50.4492719699733
50.4492719698817
50.4492719697723
50.4492719696491
50.4492719695176
50.4492719693849
50.449271969266
3503.42166453209
31530.7949807827
31530.7957211885
3503.42174680348
50.4492731540302
50.4492731542321
50.4492731544899
50.4492731547762
50.4492731550806
50.4492731553952
50.4492731557143
50.4492731560339
50.4492731563512
50.4492731566645
50.4492731569727
50.4492731572753
50.4492731575718
50.4492731578622
50.449273158146
50.4492731584231
50.4492731586932
50.4492731589558
50.4492731592105
50.4492731594569
50.4492731596942
50.4492731599217
50.4492731601388
50.4492731603447
50.4492731605385
50.4492731607194
50.4492731608863
50.4492731610384
50.4492731611745
50.4492731612937
50.4492731613948
50.4492731614766
50.449273161538
50.4492731615777
50.4492731615947
50.4492731615877
50.449273161556
50.4492731614989
50.4492731614163
50.4492731613089
50.4492731611785
50.449273161028
50.4492731608625
50.4492731606887
50.4492731605155
50.4492731603607
3503.42174724531
31530.7957251954
31530.796465671
3503.42182952453
50.4492743452393
50.4492743454796
50.4492743457796
50.4492743461088
50.4492743464548
50.4492743468085
50.4492743471637
50.4492743475158
50.4492743478619
50.4492743482004
50.4492743485305
50.4492743488518
50.4492743491641
50.4492743494675
50.449274349762
50.4492743500474
50.4492743503239
50.4492743505909
50.4492743508484
50.4492743510958
50.4492743513328
50.4492743515586
50.4492743517727
50.4492743519741
50.4492743521623
50.4492743523361
50.4492743524948
50.4492743526372
50.4492743527622
50.4492743528688
50.4492743529556
50.4492743530214
50.4492743530648
50.4492743530844
50.449274353079
50.4492743530471
50.4492743529878
50.4492743529001
50.449274352784
50.44927435264
50.4492743524699
50.4492743522773
50.4492743520678
50.4492743518494
50.4492743516331
50.4492743514397
3503.4218299573
31530.7964695945
31530.7972101371
3503.42191224382
50.4492755364255
50.4492755367078
50.4492755370532
50.449275537428
50.4492755378177
50.4492755382121
50.4492755386041
50.4492755389891
50.4492755393643
50.4492755397281
50.4492755400799
50.4492755404198
50.4492755407477
50.449275541064
50.4492755413689
50.4492755416626
50.4492755419452
50.4492755422167
50.4492755424768
50.4492755427254
50.4492755429621
50.4492755431861
50.4492755433972
50.4492755435944
50.449275543777
50.449275543944
50.4492755440946
50.4492755442276
50.4492755443418
50.449275544436
50.4492755445089
50.449275544559
50.4492755445848
50.4492755445847
50.4492755445572
50.4492755445007
50.449275544414
50.449275544296
50.4492755441462
50.4492755439652
50.4492755437548
50.4492755435187
50.4492755432632
50.4492755429976
50.4492755427349
50.4492755424995
3503.42191266786
31530.7972139823
31530.7979545843
3503.42199496114
50.4492767275866
50.4492767279153
50.4492767283103
50.449276728734
50.4492767291696
50.4492767296062
50.4492767300361
50.4492767304545
50.4492767308589
50.4492767312479
50.4492767316215
50.4492767319796
50.4492767323229
50.4492767326518
50.4492767329671
50.4492767332688
50.4492767335575
50.4492767338332
50.449276734096
50.4492767343457
50.449276734582
50.4492767348044
50.4492767350126
50.4492767352056
50.4492767353828
50.4492767355432
50.4492767356859
50.4492767358097
50.4492767359134
50.4492767359956
50.4492767360549
50.4492767360897
50.4492767360982
50.4492767360789
50.4492767360298
50.4492767359491
50.4492767358353
50.449276735687
50.4492767355036
50.4492767352853
50.4492767350336
50.4492767347526
50.449276734449
50.449276734133
50.4492767338197
50.4492767335379
3503.42199537671
31530.7979583538
31530.7986990091
3503.42207767611
50.4492779187182
50.4492779190987
50.4492779195482
50.4492779200245
50.4492779205089
50.4492779209893
50.449277921458
50.4492779219103
50.449277922344
50.4492779227582
50.4492779231532
50.4492779235295
50.4492779238879
50.4492779242292
50.4492779245544
50.449277924864
50.4492779251586
50.4492779254385
50.4492779257038
50.4492779259546
50.4492779261906
50.4492779264115
50.4492779266168
50.4492779268057
50.4492779269778
50.4492779271318
50.4492779272669
50.4492779273818
50.4492779274753
50.4492779275459
50.449277927592
50.4492779276119
50.4492779276038
50.4492779275655