/*--------------------------------*- C++ -*----------------------------------*\
  =========                 |
  \\      /  F ield         | OpenFOAM: The Open Source CFD Toolbox
   \\    /   O peration     | Website:  https://openfoam.org
    \\  /    A nd           | Version:  10
     \\/     M anipulation  |
\*---------------------------------------------------------------------------*/
FoamFile
{
    format      ascii;
    class       volScalarField;
    location    "0.8";
    object      p;
}
// * * * * * * * * * * * * * * * * * * * * * * * * * * * * * * * * * * * * * //

dimensions      [1 -1 -2 0 0 0 0];

internalField   nonuniform List<scalar> 
2500
(
100039.103980594
100039.103988731
100039.103992391
100039.103995392
100039.10399754
100039.103998989
100039.103999746
100039.103999864
100039.103999398
100039.103998404
100039.103996934
100039.103995036
100039.103992756
100039.103990136
100039.103987218
100039.103984037
100039.10398063
100039.10397703
100039.103973267
100039.103969372
100039.10396537
100039.103961289
100039.103957151
100039.103952977
100039.103948787
100039.1039446
100039.10394043
100039.103936291
100039.103932196
100039.103928155
100039.103924174
100039.10392026
100039.103916417
100039.103912645
100039.103908945
100039.103905312
100039.103901741
100039.103898221
100039.10389474
100039.103891281
100039.103887824
100039.103884342
100039.103880803
100039.103877169
100039.103873396
100039.103869446
100039.103865319
100039.103860901
100039.103856327
100039.103847684
100039.101673896
100039.10167593
100039.101678999
100039.101681989
100039.101684101
100039.101685545
100039.101686297
100039.101686406
100039.101685933
100039.101684933
100039.101683458
100039.101681557
100039.101679275
100039.101676654
100039.101673734
100039.101670554
100039.101667147
100039.101663547
100039.101659786
100039.101655892
100039.101651893
100039.101647813
100039.101643677
100039.101639506
100039.101635319
100039.101631134
100039.101626967
100039.101622832
100039.101618741
100039.101614702
100039.101610725
100039.101606815
100039.101602976
100039.101599209
100039.101595513
100039.101591885
100039.101588319
100039.101584804
100039.10158133
100039.101577878
100039.101574428
100039.101570953
100039.101567424
100039.101563799
100039.101560036
100039.101556091
100039.101552007
100039.101547613
100039.101543649
100039.101540957
100039.099311849
100039.099313274
100039.099318476
100039.099322118
100039.099324343
100039.099325796
100039.099326529
100039.099326618
100039.099326126
100039.09932511
100039.099323623
100039.099321713
100039.099319423
100039.099316797
100039.099313874
100039.099310691
100039.099307283
100039.099303684
100039.099299923
100039.099296031
100039.099292034
100039.099287957
100039.099283825
100039.099279658
100039.099275475
100039.099271295
100039.099267134
100039.099263005
100039.099258919
100039.099254887
100039.099250917
100039.099247015
100039.099243184
100039.099239425
100039.099235738
100039.09923212
100039.099228564
100039.099225062
100039.0992216
100039.099218163
100039.09921473
100039.099211275
100039.099207767
100039.099204167
100039.099200425
100039.099196475
100039.099192281
100039.099187255
100039.09918115
100039.099179315
100039.096931949
100039.09693343
100039.096938667
100039.096942432
100039.096944719
100039.096946144
100039.096946834
100039.096946882
100039.096946357
100039.096945315
100039.096943807
100039.096941881
100039.096939579
100039.096936945
100039.096934016
100039.09693083
100039.096927421
100039.096923821
100039.096920063
100039.096916173
100039.09691218
100039.096908109
100039.096903982
100039.096899822
100039.096895647
100039.096891476
100039.096887323
100039.096883204
100039.096879128
100039.096875108
100039.096871149
100039.096867259
100039.096863441
100039.096859697
100039.096856025
100039.096852424
100039.096848886
100039.096845404
100039.096841964
100039.096838552
100039.096835148
100039.096831727
100039.096828259
100039.096824705
100039.096821013
100039.096817104
100039.096812867
100039.096807738
100039.096801569
100039.096799715
100039.094546426
100039.094547858
100039.094552283
100039.09455583
100039.094558034
100039.094559371
100039.094559989
100039.094559978
100039.094559407
100039.094558329
100039.094556794
100039.094554847
100039.09455253
100039.094549885
100039.094546949
100039.094543759
100039.094540349
100039.09453675
100039.094532995
100039.09452911
100039.094525123
100039.094521059
100039.094516942
100039.094512791
100039.094508627
100039.094504468
100039.094500328
100039.094496222
100039.094492161
100039.094488156
100039.094484213
100039.094480341
100039.094476541
100039.094472816
100039.094469165
100039.094465587
100039.094462074
100039.094458618
100039.094455209
100039.094451832
100039.094448467
100039.094445093
100039.09444168
100039.094438192
100039.094434581
100039.094430769
100039.094426628
100039.094421719
100039.094416359
100039.094414538
100039.092159319
100039.092160588
100039.092164166
100039.092167291
100039.092169298
100039.092170499
100039.092171017
100039.092170932
100039.092170303
100039.092169182
100039.092167614
100039.092165642
100039.092163308
100039.09216065
100039.092157706
100039.092154512
100039.092151101
100039.092147505
100039.092143754
100039.092139876
100039.092135898
100039.092131844
100039.092127738
100039.0921236
100039.09211945
100039.092115306
100039.092111182
100039.092107093
100039.092103051
100039.092099065
100039.092095143
100039.092091292
100039.092087515
100039.092083815
100039.09208019
100039.09207664
100039.092073157
100039.092069736
100039.092066365
100039.09206303
100039.092059714
100039.092056397
100039.092053052
100039.092049649
100039.092046144
100039.092042475
100039.092038532
100039.092034034
100039.092029541
100039.092027866
100039.089771504
100039.089772571
100039.089775341
100039.089777976
100039.089779723
100039.089780753
100039.089781152
100039.089780979
100039.089780284
100039.089779112
100039.089777506
100039.089775507
100039.089773152
100039.089770481
100039.089767529
100039.089764332
100039.08976092
100039.089757328
100039.089753582
100039.089749713
100039.089745745
100039.089741704
100039.089737612
100039.08973349
100039.089729357
100039.089725231
100039.089721127
100039.089717059
100039.089713039
100039.089709076
100039.089705178
100039.089701353
100039.089697603
100039.089693932
100039.089690339
100039.089686822
100039.089683376
100039.089679994
100039.089676667
100039.089673382
100039.089670124
100039.089666874
100039.08966361
100039.089660305
100039.089656928
100039.089653433
100039.089649744
100039.089645723
100039.089642064
100039.089640582
100039.087383136
100039.087384003
100039.087386114
100039.087388272
100039.087389736
100039.087390577
100039.087390842
100039.087390571
100039.087389803
100039.087388576
100039.087386929
100039.087384898
100039.087382522
100039.087379836
100039.087376876
100039.087373674
100039.087370264
100039.087366675
100039.087362938
100039.087359078
100039.087355124
100039.087351097
100039.087347022
100039.087342918
100039.087338806
100039.087334701
100039.08733062
100039.087326576
100039.087322581
100039.087318645
100039.087314776
100039.08731098
100039.087307262
100039.087303624
100039.087300067
100039.087296588
100039.087293183
100039.087289847
100039.087286571
100039.087283343
100039.087280149
100039.087276975
100039.087273801
100039.087270608
100039.087267373
100039.087264069
100039.087260658
100039.087257103
100039.087254127
100039.08725284
100039.084994277
100039.084994966
100039.084996574
100039.084998302
100039.084999485
100039.085000131
100039.085000255
100039.084999879
100039.084999032
100039.084997746
100039.084996053
100039.08499399
100039.08499159
100039.084988889
100039.08498592
100039.084982715
100039.084979306
100039.084975723
100039.084971995
100039.084968148
100039.084964207
100039.084960198
100039.084956142
100039.08495206
100039.08494797
100039.08494389
100039.084939834
100039.084935818
100039.084931852
100039.084927946
100039.084924109
100039.084920347
100039.084916665
100039.084913064
100039.084909547
100039.084906111
100039.084902753
100039.084899467
100039.084896247
100039.084893082
100039.08488996
100039.084886868
100039.084883792
100039.084880719
100039.084877636
100039.084874532
100039.084871399
100039.084868267
100039.084865813
100039.084864703
100039.08260498
100039.082605518
100039.082606745
100039.082608101
100039.082609019
100039.082609472
100039.082609452
100039.082608968
100039.082608038
100039.082606689
100039.082604949
100039.082602851
100039.082600428
100039.08259771
100039.082594732
100039.082591525
100039.082588118
100039.082584542
100039.082580824
100039.082576991
100039.082573067
100039.082569077
100039.082565043
100039.082560984
100039.08255692
100039.082552867
100039.082548841
100039.082544855
100039.082540921
100039.082537049
100039.082533247
100039.082529523
100039.082525879
100039.08252232
100039.082518847
100039.082515458
100039.082512152
100039.082508922
100039.082505763
100039.082502666
100039.082499621
100039.082496618
100039.082493647
100039.0824907
100039.082487773
100039.082484869
100039.082482001
100039.082479239
100039.082477179
100039.082476221
100039.080215294
100039.080215707
100039.080216642
100039.080217683
100039.080218357
100039.080218624
100039.080218461
100039.080217867
100039.080216853
100039.080215439
100039.080213651
100039.080211517
100039.080209068
100039.080206335
100039.080203348
100039.080200138
100039.080196735
100039.080193166
100039.08018946
100039.080185643
100039.080181738
100039.080177769
100039.080173759
100039.080169726
100039.08016569
100039.080161667
100039.080157673
100039.080153721
100039.080149822
100039.080145987
100039.080142224
100039.08013854
100039.08013494
100039.080131426
100039.080128001
100039.080124664
100039.080121412
100039.080118242
100039.080115149
100039.080112125
100039.080109162
100039.080106254
100039.080103392
100039.080100575
100039.080097805
100039.080095095
100039.080092475
100039.08009003
100039.080088271
100039.080087441
100039.07782526
100039.077825571
100039.077826277
100039.07782705
100039.077827504
100039.077827595
100039.077827294
100039.077826592
100039.077825493
100039.077824013
100039.077822175
100039.077820005
100039.07781753
100039.07781478
100039.077811785
100039.077808573
100039.077805174
100039.077801615
100039.077797922
100039.077794121
100039.077790237
100039.077786292
100039.077782308
100039.077778304
100039.077774298
100039.077770308
100039.077766348
100039.077762432
100039.077758572
100039.077754777
100039.077751056
100039.077747416
100039.077743862
100039.077740397
100039.077737024
100039.077733742
100039.07773055
100039.077727444
100039.077724421
100039.077721474
100039.077718598
100039.077715787
100039.077713038
100039.077710352
100039.077707737
100039.077705215
100039.077702821
100039.077700647
100039.077699124
100039.077698399
100039.075434915
100039.075435141
100039.075435664
100039.075436211
100039.075436468
100039.075436395
100039.075435961
100039.075435152
100039.075433969
100039.075432424
100039.075430536
100039.075428328
100039.075425828
100039.075423062
100039.075420058
100039.075416845
100039.075413451
100039.075409902
100039.075406224
100039.075402442
100039.07539858
100039.07539466
100039.075390704
100039.075386731
100039.075382758
100039.075378803
100039.075374881
100039.075371004
100039.075367184
100039.075363432
100039.075359757
100039.075356164
100039.075352659
100039.075349247
100039.075345928
100039.075342705
100039.075339576
100039.075336538
100039.075333589
100039.075330723
100039.075327937
100039.075325227
100039.075322592
100039.075320037
100039.075317575
100039.07531523
100039.075313043
100039.075311101
100039.075309767
100039.075309128
100039.073044291
100039.073044447
100039.073044819
100039.073045173
100039.073045253
100039.073045029
100039.073044469
100039.073043557
100039.073042291
100039.073040681
100039.073038743
100039.073036498
100039.073033972
100039.07303119
100039.073028178
100039.073024965
100039.073021576
100039.073018038
100039.073014376
100039.073010614
100039.073006776
100039.073002884
100039.072998958
100039.072995017
100039.07299108
100039.072987163
100039.07298328
100039.072979445
100039.072975669
100039.072971962
100039.072968334
100039.072964792
100039.07296134
100039.072957982
100039.072954723
100039.072951561
100039.072948498
100039.072945532
100039.072942659
100039.072939878
100039.072937185
100039.072934578
100039.072932059
100039.072929634
100039.07292732
100039.072925143
100039.072923143
100039.072921401
100039.072920222
100039.072919656
100039.070653419
100039.070653514
100039.07065376
100039.070653947
100039.07065387
100039.070653507
100039.070652828
100039.070651816
100039.07065047
100039.070648795
100039.070646808
100039.070644527
100039.070641975
100039.070639177
100039.070636158
100039.070632945
100039.070629563
100039.070626037
100039.070622392
100039.070618652
100039.070614839
100039.070610976
100039.070607082
100039.070603176
100039.070599276
100039.070595398
100039.070591557
100039.070587766
100039.070584036
100039.070580378
100039.0705768
100039.07057331
100039.070569914
100039.070566615
100039.070563416
100039.07056032
100039.070557326
100039.070554434
100039.070551641
100039.070548947
100039.070546349
100039.070543846
100039.070541443
100039.070539148
100039.070536976
100039.070534956
100039.070533127
100039.070531561
100039.070530513
100039.070530009
100039.068262323
100039.068262367
100039.068262504
100039.068262546
100039.068262328
100039.068261837
100039.068261046
100039.068259939
100039.068258515
100039.068256777
100039.068254741
100039.068252424
100039.068249847
100039.068247033
100039.068244008
100039.068240795
100039.068237421
100039.068233908
100039.068230281
100039.068226564
100039.068222779
100039.068218946
100039.068215085
100039.068211216
100039.068207355
100039.068203519
100039.068199722
100039.068195977
100039.068192295
100039.068188688
100039.068185163
100039.068181728
100039.068178389
100039.068175151
100039.068172016
100039.068168988
100039.068166066
100039.06816325
100039.068160541
100039.068157935
100039.068155434
100039.068153038
100039.06815075
100039.068148581
100039.068146548
100039.068144676
100039.068143003
100039.068141591
100039.068140656
100039.068140205
100039.06587103
100039.065871029
100039.065871072
100039.065870986
100039.065870641
100039.065870031
100039.065869135
100039.065867938
100039.065866438
100039.06586464
100039.065862556
100039.065860203
100039.065857601
100039.065854773
100039.065851741
100039.06584853
100039.065845163
100039.065841665
100039.065838058
100039.065834365
100039.065830607
100039.065826806
100039.065822981
100039.06581915
100039.06581533
100039.065811538
100039.065807786
100039.065804089
100039.065800458
100039.065796903
100039.065793433
100039.065790056
100039.065786777
100039.065783602
100039.065780534
100039.065777575
100039.065774727
100039.065771991
100039.065769366
100039.065766852
100039.065764449
100039.065762159
100039.065759987
100039.065757942
100039.065756042
100039.06575431
100039.065752779
100039.065751506
100039.065750671
100039.065750267
100039.063479563
100039.063479522
100039.06347948
100039.06347928
100039.06347882
100039.063478102
100039.063477106
100039.063475823
100039.06347425
100039.063472393
100039.063470262
100039.063467875
100039.063465249
100039.063462406
100039.063459369
100039.06345616
100039.063452802
100039.063449319
100039.063445732
100039.063442064
100039.063438336
100039.063434568
100039.063430779
100039.063426988
100039.063423211
100039.063419463
100039.063415759
100039.063412112
100039.063408533
100039.063405033
100039.06340162
100039.063398302
100039.063395085
100039.063391975
100039.063388975
100039.063386089
100039.063383318
100039.063380663
100039.063378125
100039.063375703
100039.0633734
100039.063371216
100039.063369158
100039.063367235
100039.063365463
100039.063363864
100039.063362466
100039.063361319
100039.063360572
100039.06336021
100039.061087946
100039.061087868
100039.061087751
100039.061087448
100039.061086883
100039.061086063
100039.061084974
100039.061083609
100039.061081966
100039.061080051
100039.061077875
100039.061075454
100039.061072804
100039.061069948
100039.061066906
100039.061063699
100039.061060351
100039.061056883
100039.061053317
100039.061049676
100039.061045978
100039.061042244
100039.061038493
100039.061034743
100039.061031009
100039.061027308
100039.061023653
100039.061020058
100039.061016533
100039.061013088
100039.061009734
100039.061006477
100039.061003325
100039.061000282
100039.060997352
100039.06099454
100039.060991847
100039.060989275
100039.060986825
100039.060984498
100039.060982294
100039.060980218
100039.060978273
100039.06097647
100039.060974822
100039.060973349
100039.060972075
100039.060971042
100039.060970377
100039.060970054
100039.0586962
100039.058696089
100039.058695902
100039.058695505
100039.058694842
100039.058693927
100039.058692751
100039.058691307
100039.058689597
100039.058687626
100039.058685406
100039.058682951
100039.058680279
100039.058677409
100039.058674362
100039.058671159
100039.058667821
100039.058664369
100039.058660826
100039.058657211
100039.058653544
100039.058649846
100039.058646134
100039.058642426
100039.058638737
100039.058635084
100039.058631479
100039.058627936
100039.058624466
100039.05862108
100039.058617786
100039.058614592
100039.058611505
100039.05860853
100039.058605673
100039.058602936
100039.058600323
100039.058597836
100039.058595475
100039.058593242
100039.05859114
100039.05858917
100039.058587338
100039.058585652
100039.058584125
100039.058582772
100039.058581615
100039.058580689
100039.058580099
100039.058579813
100039.056304348
100039.056304205
100039.056303953
100039.056303469
100039.056302716
100039.056301713
100039.056300452
100039.056298933
100039.056297158
100039.056295133
100039.056292869
100039.056290382
100039.056287688
100039.056284806
100039.056281754
100039.056278554
100039.056275227
100039.056271792
100039.056268271
100039.056264684
100039.05626105
100039.056257387
100039.056253715
100039.05625005
100039.056246407
100039.056242802
100039.056239249
100039.05623576
100039.056232347
100039.056229019
100039.056225786
100039.056222657
100039.056219636
100039.056216732
100039.056213948
100039.056211289
100039.056208757
100039.056206354
100039.056204084
100039.056201947
100039.056199946
100039.056198083
100039.056196363
100039.056194792
100039.056193382
100039.056192146
100039.0561911
100039.056190275
100039.056189755
100039.056189503
100039.053912409
100039.053912237
100039.053911925
100039.053911359
100039.05391052
100039.053909432
100039.053908092
100039.053906501
100039.053904662
100039.053902584
100039.053900278
100039.05389776
100039.053895044
100039.053892149
100039.053889094
100039.053885898
100039.053882581
100039.053879164
100039.053875666
100039.053872107
100039.053868505
100039.05386488
100039.053861248
100039.053857626
100039.05385403
100039.053850475
100039.053846974
100039.05384354
100039.053840184
100039.053836916
100039.053833746
100039.053830681
100039.053827729
100039.053824896
100039.053822186
100039.053819605
100039.053817155
100039.053814839
100039.05381266
100039.05381062
100039.05380872
100039.053806964
100039.053805354
100039.053803897
100039.053802602
100039.053801478
100039.053800539
100039.05379981
100039.053799358
100039.053799137
100039.051520407
100039.051520206
100039.051519836
100039.051519193
100039.051518274
100039.051517104
100039.051515687
100039.051514025
100039.051512125
100039.051509995
100039.051507649
100039.051505099
100039.051502362
100039.051499454
100039.051496396
100039.051493204
100039.051489899
100039.051486499
100039.051483025
100039.051479494
100039.051475926
100039.051472337
100039.051468746
100039.051465169
100039.051461621
100039.051458116
100039.051454668
100039.051451289
100039.051447991
100039.051444784
100039.051441677
100039.051438678
100039.051435795
100039.051433034
100039.051430399
100039.051427897
100039.05142553
100039.051423301
100039.051421214
100039.051419271
100039.051417472
100039.051415822
100039.051414323
100039.051412979
100039.051411796
100039.051410782
100039.051409946
100039.051409309
100039.051408922
100039.051408733
100039.049128361
100039.049128132
100039.049127706
100039.049126988
100039.049125991
100039.049124743
100039.049123251
100039.049121521
100039.04911956
100039.04911738
100039.049114992
100039.049112412
100039.049109654
100039.049106735
100039.049103673
100039.049100486
100039.049097192
100039.04909381
100039.049090359
100039.049086857
100039.049083322
100039.049079772
100039.049076222
100039.049072689
100039.049069189
100039.049065735
100039.04906234
100039.049059018
100039.049055778
100039.049052632
100039.049049589
100039.049046657
100039.049043843
100039.049041154
100039.049038595
100039.049036172
100039.049033889
100039.049031748
100039.049029753
100039.049027907
100039.04902621
100039.049024666
100039.049023276
100039.049022044
100039.049020972
100039.049020067
100039.049019331
100039.049018784
100039.04901846
100039.049018302
100039.046736291
100039.046736036
100039.046735556
100039.046734765
100039.046733691
100039.046732367
100039.046730802
100039.046729004
100039.046726983
100039.046724753
100039.046722325
100039.046719714
100039.046716936
100039.046714005
100039.04671094
100039.046707757
100039.046704475
100039.046701112
100039.046697685
100039.046694212
100039.04669071
100039.046687197
100039.046683689
100039.046680201
100039.046676749
100039.046673346
100039.046670005
100039.046666739
100039.046663558
100039.046660474
100039.046657494
100039.046654629
100039.046651885
100039.046649268
100039.046646786
100039.046644443
100039.046642243
100039.046640191
100039.046638288
100039.046636539
100039.046634944
100039.046633506
100039.046632225
100039.046631104
100039.046630143
100039.046629344
100039.046628708
100039.046628249
100039.046627987
100039.046627858
100039.044344219
100039.044343938
100039.044343404
100039.044342541
100039.044341392
100039.044339993
100039.044338354
100039.044336489
100039.04433441
100039.04433213
100039.044329662
100039.044327021
100039.044324221
100039.044321279
100039.044318211
100039.044315033
100039.044311763
100039.044308417
100039.044305014
100039.04430157
100039.044298102
100039.044294626
100039.04429116
100039.044287717
100039.044284313
100039.044280961
100039.044277674
100039.044274464
100039.044271342
100039.044268319
100039.044265404
100039.044262605
100039.044259931
100039.044257387
100039.044254981
100039.044252718
100039.044250602
100039.044248638
100039.044246828
100039.044245176
100039.044243683
100039.044242351
100039.044241179
100039.044240169
100039.044239318
100039.044238625
100039.044238088
100039.044237717
100039.044237516
100039.044237417
100039.041952166
100039.041951859
100039.041951271
100039.041950336
100039.041949112
100039.041947637
100039.041945926
100039.041943994
100039.041941856
100039.041939526
100039.041937018
100039.041934347
100039.041931527
100039.041928573
100039.041925501
100039.041922328
100039.041919069
100039.041915741
100039.041912362
100039.041908946
100039.041905512
100039.041902074
100039.041898649
100039.041895251
100039.041891894
100039.041888593
100039.04188536
100039.041882206
100039.041879143
100039.041876181
100039.04187333
100039.041870598
100039.041867993
100039.041865523
100039.041863193
100039.041861009
100039.041858977
100039.0418571
100039.041855383
100039.041853828
100039.041852437
100039.04185121
100039.041850148
100039.041849249
100039.041848509
100039.041847922
100039.041847484
100039.041847201
100039.041847062
100039.041846994
100039.039560151
100039.039559818
100039.039559175
100039.039558168
100039.039556867
100039.039555315
100039.039553531
100039.039551531
100039.039549334
100039.039546954
100039.039544406
100039.039541704
100039.039538863
100039.039535898
100039.039532823
100039.039529654
100039.039526406
100039.039523096
100039.03951974
100039.039516353
100039.039512952
100039.039509552
100039.039506167
100039.039502814
100039.039499505
100039.039496254
100039.039493074
100039.039489976
100039.039486971
100039.039484071
100039.039481283
100039.039478617
100039.039476081
100039.039473683
100039.039471429
100039.039469324
100039.039467375
100039.039465586
100039.039463961
100039.039462503
100039.039461214
100039.039460093
100039.039459141
100039.039458353
100039.039457724
100039.039457245
100039.039456908
100039.039456714
100039.039456638
100039.0394566
100039.037168196
100039.037167835
100039.037167138
100039.037166055
100039.037164676
100039.037163046
100039.037161186
100039.037159118
100039.037156861
100039.03715443
100039.037151841
100039.037149109
100039.037146247
100039.03714327
100039.037140191
100039.037137026
100039.03713379
100039.037130497
100039.037127164
100039.037123805
100039.037120437
100039.037117073
100039.03711373
100039.03711042
100039.037107158
100039.037103957
100039.037100829
100039.037097787
100039.03709484
100039.037091999
100039.037089275
100039.037086674
100039.037084207
100039.03708188
100039.037079701
100039.037077675
100039.037075809
100039.037074107
100039.037072573
100039.037071212
100039.037070024
100039.03706901
100039.037068167
100039.037067492
100039.037066975
100039.037066606
100039.037066371
100039.037066268
100039.037066256
100039.03706625
100039.034776319
100039.034775931
100039.034775175
100039.034774014
100039.034772554
100039.034770842
100039.034768906
100039.034766768
100039.034764449
100039.034761967
100039.034759337
100039.034756574
100039.03475369
100039.034750701
100039.034747618
100039.034744457
100039.034741231
100039.034737956
100039.034734645
100039.034731314
100039.034727978
100039.034724651
100039.034721347
100039.03471808
100039.034714865
100039.034711713
100039.034708637
100039.034705649
100039.034702759
100039.034699978
100039.034697315
100039.03469478
100039.03469238
100039.034690124
100039.034688018
100039.03468607
100039.034684285
100039.03468267
100039.034681227
100039.034679962
100039.034678875
100039.034677967
100039.034677236
100039.034676674
100039.034676271
100039.034676014
100039.034675885
100039.034675877
100039.034675931
100039.034675957
100039.032384542
100039.032384125
100039.032383309
100039.032382065
100039.032380519
100039.032378722
100039.032376706
100039.032374496
100039.032372114
100039.03236958
100039.032366908
100039.032364113
100039.032361208
100039.032358206
100039.032355119
100039.032351961
100039.032348746
100039.032345487
100039.032342198
100039.032338894
100039.032335589
100039.032332297
100039.032329033
100039.032325809
100039.032322639
100039.032319535
100039.03231651
100039.032313575
100039.032310741
100039.032308018
100039.032305416
100039.032302944
100039.032300611
100039.032298424
100039.032296392
100039.03229452
100039.032292816
100039.032291286
100039.032289933
100039.032288763
100039.032287778
100039.032286976
100039.032286356
100039.032285909
100039.032285623
100039.032285481
100039.032285462
100039.032285553
100039.032285678
100039.032285736
100039.029992884
100039.029992436
100039.029991555
100039.029990223
100039.029988585
100039.029986699
100039.029984599
100039.029982314
100039.029979868
100039.02997728
100039.029974566
100039.029971739
100039.029968811
100039.029965796
100039.029962704
100039.02995955
100039.029956344
100039.029953101
100039.029949834
100039.029946556
100039.029943282
100039.029940025
100039.029936798
100039.029933616
100039.02993049
100039.029927434
100039.029924458
100039.029921575
100039.029918796
100039.02991613
100039.029913588
100039.029911178
100039.02990891
100039.029906791
100039.02990483
100039.029903033
100039.029901409
100039.029899962
100039.029898699
100039.029897624
100039.029896738
100039.029896044
100039.029895535
100039.029895205
100039.029895039
100039.029895017
100039.029895113
100039.02989531
100039.029895507
100039.029895601
100039.027601367
100039.027600886
100039.027599935
100039.027598506
100039.027596769
100039.027594788
100039.0275926
100039.027590237
100039.027587725
100039.027585082
100039.027582324
100039.027579464
100039.027576514
100039.027573485
100039.027570389
100039.027567236
100039.02756404
100039.027560812
100039.027557566
100039.027554314
100039.027551069
100039.027547846
100039.027544657
100039.027541515
100039.027538432
100039.027535421
100039.027532494
100039.027529662
100039.027526936
100039.027524326
100039.027521841
100039.027519492
100039.027517287
100039.027515235
100039.027513343
100039.02751162
100039.027510073
100039.027508709
100039.027507534
100039.027506552
100039.027505767
100039.027505178
100039.027504783
100039.027504572
100039.027504529
100039.027504632
100039.02750485
100039.027505159
100039.027505436
100039.027505568
100039.025210011
100039.025209493
100039.025208464
100039.025206929
100039.025205085
100039.025203001
100039.025200721
100039.025198277
100039.025195695
100039.025192996
100039.025190194
100039.025187301
100039.025184328
100039.025181285
100039.025178183
100039.025175032
100039.025171845
100039.025168632
100039.025165405
100039.025162178
100039.025158962
100039.025155771
100039.025152618
100039.025149515
100039.025146474
100039.025143508
100039.025140628
100039.025137845
100039.02513517
100039.025132614
100039.025130186
100039.025127895
100039.025125752
100039.025123764
100039.02512194
100039.025120289
100039.025118818
100039.025117534
100039.025116445
100039.025115555
100039.025114869
100039.025114387
100039.025114106
100039.025114016
100039.025114101
100039.025114334
100039.025114682
100039.025115114
100039.025115477
100039.025115649
100039.022818837
100039.022818279
100039.022817162
100039.022815508
100039.022813546
100039.022811352
100039.022808973
100039.022806445
100039.022803792
100039.022801035
100039.022798187
100039.02279526
100039.022792264
100039.022789207
100039.022786099
100039.02278295
100039.022779771
100039.022776571
100039.022773364
100039.02277016
100039.022766972
100039.022763813
100039.022760694
100039.022757629
100039.022754629
100039.022751705
100039.02274887
100039.022746135
100039.02274351
100039.022741005
100039.022738631
100039.022736397
100039.022734313
100039.022732388
100039.02273063