/*--------------------------------*- C++ -*----------------------------------*\
  =========                 |
  \\      /  F ield         | OpenFOAM: The Open Source CFD Toolbox
   \\    /   O peration     | Website:  https://openfoam.org
    \\  /    A nd           | Version:  10
     \\/     M anipulation  |
\*---------------------------------------------------------------------------*/
FoamFile
{
    format      ascii;
    class       volScalarField;
    location    "0.8";
    object      p_rgh;
}
// * * * * * * * * * * * * * * * * * * * * * * * * * * * * * * * * * * * * * //

dimensions      [1 -1 -2 0 0 0 0];

internalField   nonuniform List<scalar> 
2500
(
39.2173601039685
39.2174204464536
39.2174303799402
39.2174338674813
39.2174360510398
39.2174375025061
39.2174382610101
39.2174383790843
39.2174379136122
39.2174369197746
39.2174354497547
39.2174335520249
39.2174312722345
39.2174286531226
39.2174257345469
39.2174225542258
39.2174191472586
39.2174155470711
39.2174117847171
39.2174078893731
39.2174038883386
39.2173998073413
39.2173956692859
39.2173914952
39.2173873053544
39.2173831181281
39.2173789483495
39.2173748100031
39.2173707151815
39.2173666730814
39.2173626922886
39.2173587784055
39.2173549350409
39.2173511636211
39.2173474630108
39.2173438301252
39.2173402584303
39.2173367385985
39.2173332576203
39.2173297989211
39.2173263413424
39.2173228587781
39.2173193194467
39.2173156852805
39.2173119121435
39.2173079568893
39.2173037870525
39.2172988438397
39.2172878732672
39.2172271399468
39.2184766488936
39.2185258571553
39.2185539159836
39.2185593049071
39.2185616358911
39.2185631018219
39.2185638552037
39.218563965158
39.2185634921043
39.2185624921694
39.2185610173183
39.2185591160815
39.2185568337882
39.2185542129446
39.2185512933938
39.2185481126799
39.2185447059455
39.2185411063838
39.2185373450484
39.2185334511014
39.2185294519877
39.2185253727948
39.2185212367185
39.2185170653684
39.2185128783458
39.2185086938407
39.2185045270162
39.2185003919876
39.2184963004693
39.2184922620509
39.2184882848669
39.2184843749274
39.2184805355646
39.2184767681902
39.2184730722511
39.2184694441967
39.2184658776532
39.2184623633657
39.2184588884993
39.2184554365085
39.218451986424
39.2184485122852
39.2184449822525
39.2184413574578
39.2184375896613
39.2184336143837
39.2184292773163
39.2184224551456
39.2183932556363
39.2183406049298
39.2187958125287
39.2188185265841
39.2188352651283
39.2188406847999
39.2188430842361
39.2188445549982
39.218845289899
39.2188453783892
39.2188448864617
39.2188438710291
39.218842383998
39.2188404734916
39.2188381841115
39.2188355580729
39.2188326350297
39.2188294521184
39.2188260443218
39.2188224447164
39.2188186842104
39.2188147919514
39.218810795006
39.2188067185198
39.2188025858777
39.2187984186457
39.2187942362216
39.2187900564895
39.2187858950783
39.2187817656813
39.2187776801729
39.218773648463
39.2187696783221
39.2187657758041
39.2187619444449
39.2187581857143
39.2187544989138
39.2187508806965
39.2187473248923
39.2187438224064
39.2187403606658
39.2187369234744
39.2187334902119
39.2187300354417
39.2187265277025
39.2187229276024
39.218719182827
39.2187152132974
39.2187108452199
39.2187041008438
39.2186863324605
39.2186605106108
39.2188065259688
39.2188149380527
39.2188226884027
39.2188270407933
39.2188293927029
39.2188308238547
39.2188315145322
39.2188315627282
39.2188310373604
39.218829995385
39.2188284876902
39.2188265613222
39.2188242601696
39.2188216256909
39.2188186969142
39.2188155105978
39.2188121013896
39.2188085020607
39.2188047432719
39.2188008539379
39.2187968610087
39.2187927896302
39.2187886630127
39.2187845026347
39.2187803279085
39.218776156471
39.2187720040238
39.2187678843038
39.2187638091418
39.2187597884476
39.2187558300793
39.2187519399886
39.2187481219007
39.2187443774746
39.2187407059828
39.2187371043401
39.2187335666531
39.2187300841179
39.2187266446999
39.2187232327706
39.218719828481
39.2187164074276
39.2187129392405
39.2187093853136
39.2187056925031
39.2187017775286
39.2186974843207
39.2186917887448
39.2186830674473
39.2186730671092
39.2187267751578
39.2187300880178
39.2187349782034
39.2187386787264
39.2187409017934
39.2187422410061
39.2187428585457
39.2187428481702
39.2187422766583
39.2187411987979
39.2187396635709
39.2187377164373
39.2187354000198
39.2187327548163
39.2187298190111
39.2187266288383
39.2187232184369
39.2187196201703
39.2187158644083
39.2187119798182
39.2187079931027
39.2187039293058
39.2186998114921
39.2186956609803
39.2186914971244
39.2186873375322
39.2186831977451
39.2186790916167
39.2186750308756
39.2186710254755
39.2186670833325
39.2186632104567
39.2186594106752
39.2186556858069
39.2186520353134
39.2186484563863
39.2186449434521
39.2186414882453
39.2186380793137
39.2186347018724
39.2186313372949
39.218627962633
39.218624549525
39.2186210619693
39.2186174502276
39.2186136369419
39.2186094806966
39.218604423193
39.2185985920951
39.2185944871162
39.2186243259348
39.2186260486633
39.2186297071457
39.2186328680255
39.2186348794494
39.2186360803753
39.2186365986126
39.218636513644
39.2186358851613
39.2186347637762
39.2186331955309
39.2186312237318
39.2186288894445
39.2186262319156
39.2186232883687
39.2186200942961
39.2186166832398
39.2186130870978
39.2186093358614
39.2186054578924
39.2186014796316
39.2185974259191
39.218593319616
39.2185891819536
39.2185850321403
39.2185808876966
39.2185767641495
39.218572675265
39.2185686328157
39.2185646467697
39.2185607250576
39.2185568737914
39.2185530969437
39.2185493965226
39.2185457722226
39.2185422215407
39.2185387393547
39.2185353179812
39.2185319467389
39.2185286119202
39.2185252962954
39.2185219789244
39.2185186343413
39.2185152308666
39.2185117260815
39.2185080564086
39.2185041097837
39.2184995771968
39.2184950037481
39.2184927629132
39.218516422392
39.2185175898776
39.2185203731933
39.2185230159521
39.2185247639864
39.2185257941455
39.2185261925915
39.2185260196129
39.2185253249481
39.2185241534753
39.2185225475114
39.2185205477581
39.2185181934183
39.2185155222687
39.2185125704418
39.2185093725566
39.2185059615003
39.2185023685888
39.2184986233915
39.2184947538917
39.2184907862393
39.2184867450123
39.2184826528974
39.2184785309073
39.2184743981779
39.2184702721133
39.2184661681677
39.2184621000779
39.2184580795874
39.2184541166935
39.2184502194286
39.2184463939629
39.2184426444437
39.2184389730537
39.2184353798075
39.2184318625368
39.2184284166869
39.2184250351856
39.218421708254
39.2184184234211
39.2184151651018
39.2184119148005
39.2184086505295
39.2184053462697
39.2184019691922
39.2183984734293
39.2183947843878
39.2183907555009
39.2183870839508
39.2183854727045
39.2184069708455
39.2184078590217
39.2184099722945
39.2184121312312
39.2184135958814
39.2184144372586
39.218414702118
39.2184144310595
39.2184136628784
39.2184124359483
39.2184107883513
39.218408757908
39.2184063816967
39.2184036959225
39.2184007354663
39.2183975340304
39.2183941236726
39.2183905351412
39.2183867975109
39.2183829383139
39.2183789833798
39.2183749569958
39.2183708816156
39.2183667780919
39.2183626653714
39.2183585607854
39.2183544796862
39.2183504357527
39.2183464407572
39.218342504726
39.218338635721
39.2183348400577
39.2183311220142
39.2183274840645
39.218323926485
39.2183204475587
39.2183170432254
39.2183137072279
39.2183104307333
39.2183072025946
39.2183040090895
39.2183008343709
39.218297660409
39.218294467355
39.218291232668
39.2182879288157
39.2182845175994
39.2182809613441
39.2182779834402
39.218276668762
39.2182968309353
39.2182975244214
39.218299132408
39.2183008605207
39.2183020441444
39.2183026902931
39.2183028139989
39.2183024381375
39.2183015910559
39.2183003044629
39.2182986121043
39.2182965487445
39.218294149221
39.2182914480363
39.2182884787908
39.2182852740953
39.2182818652363
39.2182782822638
39.2182745536702
39.2182707065658
39.2182667663874
39.218262757131
39.2182587009884
39.218254618565
39.218250528691
39.2182464485377
39.2182423933991
39.2182383769104
39.2182344108151
39.2182305051392
39.2182266680611
39.2182229060127
39.2182192234468
39.2182156230847
39.2182121055521
39.2182086695684
39.2182053116849
39.2182020264008
39.218198805931
39.2181956405548
39.2181925185287
39.2181894266978
39.2181863511214
39.218183278077
39.2181801949773
39.2181770907482
39.2181739574007
39.2181708254793
39.2181683712697
39.2181672559964
39.2181862155412
39.2181867546897
39.2181879812997
39.2181893376401
39.2181902556913
39.2181907086051
39.2181906885817
39.2181902042648
39.2181892746594
39.2181879253912
39.2181861859135
39.2181840879348
39.2181816640077
39.2181789468887
39.2181759687955
39.2181727612769
39.2181693547318
39.2181657784677
39.2181620603951
39.2181582271442
39.2181543037295
39.2181503138127
39.2181462792796
39.2181422205758
39.2181381562841
39.2181341034448
39.2181300772791
39.218126091364
39.2181221573846
39.2181182854692
39.2181144838396
39.2181107590586
39.2181071157684
39.2181035569665
39.2181000836281
39.2180966949527
39.2180933881027
39.2180901583924
39.218086999128
39.2180839020002
39.2180808572011
39.2180778543843
39.2180748834653
39.2180719364551
39.2180690094974
39.2180661050807
39.2180632373784
39.2180604751047
39.2180584154121
39.2180574564554
39.2180752039567
39.2180756175949
39.2180765523372
39.218077592901
39.2180782670184
39.2180785339442
39.2180783714721
39.2180777775211
39.2180767635
39.2180753496214
39.2180735613947
39.2180714275892
39.2180689784727
39.2180662450992
39.2180632582604
39.2180600483989
39.2180566449824
39.2180530765909
39.2180493704946
39.2180455527705
39.2180416480551
39.2180376795877
39.2180336689926
39.218029636424
39.2180256003048
39.2180215775297
39.2180175832036
39.2180136308307
39.2180097321252
39.2180058971862
39.218002134352
39.2179984503018
39.2179948499106
39.2179913364234
39.2179879111936
39.217984573901
39.2179813223484
39.2179781526793
39.2179750592768
39.2179720352142
39.2179690726916
39.2179661638365
39.2179633021879
39.2179604848061
39.21795771498
39.2179550054716
39.2179523850937
39.2179499399936
39.2179481815838
39.2179473505093
39.2179638430971
39.2179641538096
39.2179648598685
39.2179656333901
39.217966087177
39.2179661785922
39.2179658776004
39.2179651748302
39.2179640758986
39.2179625964491
39.2179607584985
39.2179585880804
39.217956113338
39.2179533635644
39.2179503682128
39.2179471565614
39.2179437571613
39.2179401977774
39.2179365050397
39.2179327045014
39.2179288203188
39.2179248753382
39.2179208908638
39.2179168868024
39.2179128813732
39.2179088912962
39.2179049315309
39.2179010155669
39.2178971550748
39.2178933602117
39.2178896393452
39.2178859993292
39.2178824452421
39.2178789806203
39.2178756071808
39.2178723251127
39.2178691328299
39.2178660272912
39.2178630039562
39.2178600572952
39.217857181211
39.2178543702612
39.2178516210988
39.2178489349753
39.2178463206947
39.2178437981784
39.2178414045338
39.2178392304486
39.2178377074888
39.2178369818139
39.2178521712631
39.2178523972398
39.2178529201483
39.217853467213
39.2178537236323
39.2178536514257
39.2178532175749
39.2178524083283
39.2178512251121
39.2178496799606
39.2178477918787
39.2178455844842
39.2178430839122
39.2178403178114
39.2178373142669
39.2178341014223
39.2178307068825
39.2178271576267
39.2178234796011
39.2178196978057
39.2178158358874
39.2178119163145
39.2178079600417
39.217803986714
39.2178000143031
39.217796059369
39.2177921367693
39.2177882599062
39.2177844404214
39.2177806885011
39.2177770126145
39.2177734197321
39.2177699151653
39.2177665027266
39.217763184497
39.217759961175
39.2177568317857
39.217753794117
39.217750844633
39.2177479790116
39.2177451928728
39.2177424828405
39.2177398481726
39.2177372934384
39.2177348313853
39.2177324863442
39.2177302990312
39.2177283572382
39.2177270230022
39.2177263843332
39.2177402202506
39.2177403754467
39.2177407476265
39.2177411013981
39.217741181681
39.2177409581345
39.217740398075
39.2177394857135
39.2177382197115
39.217736609382
39.2177346712997
39.2177324269142
39.2177299005707
39.2177271183464
39.2177241070167
39.2177208936046
39.2177175047982
39.2177139667474
39.2177103047434
39.2177065431606
39.2177027051657
39.2176988128194
39.2176948867273
39.2176909462141
39.2176870090479
39.2176830915851
39.2176792085811
39.2176753733365
39.2176715974783
39.2176678912219
39.2176642631384
39.2176607203146
39.2176572682656
39.2176539110951
39.2176506512769
39.2176474899752
39.2176444268116
39.2176414603455
39.2176385880011
39.2176358066354
39.2176331133232
39.2176305064204
39.2176279873529
39.217625563062
39.2176232488564
39.2176210712787
39.2176190712926
39.2176173301268
39.217616151218
39.217615585163
39.2176280200802
39.2176281155407
39.2176283613808
39.2176285485621
39.2176284714806
39.2176281084976
39.2176274293306
39.2176264178124
39.21762507112
39.2176233966602
39.2176214090723
39.2176191279868
39.2176165761048
39.2176137780771
39.2176107594132
39.217607546103
39.2176041638595
39.2176006380614
39.2175969932723
39.2175932532846
39.2175894407701
39.2175855773385
39.2175816832314
39.2175777774683
39.2175738775841
39.2175699997606
39.2175661585934
39.2175623673102
39.2175586375379
39.2175549794774
39.2175514017581
39.217547911685
39.2175445149187
39.2175412158686
39.217538017343
39.2175349210302
39.2175319271046
39.2175290348678
39.217526242559
39.2175235481554
39.2175209499401
39.2175184477674
39.2175160446059
39.2175137490412
39.2175115777791
39.2175095577841
39.21750772823
39.217506162182
39.217505114153
39.2175046098564
39.2175155967852
39.2175156406738
39.2175157779566
39.2175158200407
39.2175156020094
39.2175151107513
39.2175143195491
39.2175132131961
39.2175117883162
39.2175100511522
39.217508014859
39.2175056975684
39.2175031205406
39.2175003071461
39.2174972817156
39.2174940691621
39.217490694311
39.2174871817406
39.2174835553014
39.2174798382039
39.2174760525959
39.217472219636
39.2174683591875
39.2174644899933
39.2174606292974
39.2174567930924
39.2174529958429
39.2174492507038
39.2174455692293
39.2174419616786
39.2174384367681
39.217435001905
39.2174316629826
39.2174284246576
39.2174252901459
39.2174222614995
39.2174193395331
39.2174165241595
39.2174138144328
39.2174112092616
39.217408707962
39.2174063115235
39.2174040240789
39.2174018551304
39.2173998217331
39.217397950124
39.2173962763045
39.2173948648851
39.2173939298082
39.2173934788298
39.2174029763555
39.2174029752205
39.2174030179594
39.2174029321177
39.2174025870918
39.2174019776576
39.2174010812596
39.2173998844373
39.2173983841058
39.2173965858674
39.2173945018731
39.2173921490321
39.217389547397
39.2173867191013
39.2173836874426
39.2173804763006
39.2173771095986
39.217373611129
39.2173700041021
39.2173663110734
39.2173625536525
39.2173587525904
39.217354927343
39.2173510963185
39.217347276528
39.2173434837459
39.2173397323204
39.2173360352754
39.2173324041651
39.217328849234
39.2173253793007
39.217322001874
39.2173187230801
39.2173155478376
39.2173124796973
39.2173095211474
39.2173066735268
39.2173039373301
39.2173013123538
39.2172987982922
39.2172963953199
39.217294105285
39.2172919329751
39.2172898882563
39.2172879877908
39.217286256142
39.2172847255133
39.2172834524536
39.217282616708
39.2172822128632
39.2172901817248
39.2172901402664
39.2172900987644
39.2172898988501
39.2172894387186
39.2172887200868
39.2172877248231
39.2172864418244
39.217284868806
39.2172830112686
39.2172808807081
39.2172784931026
39.2172758674278
39.2172730247985
39.2172699874354
39.2172667783161
39.2172634204908
39.2172599369951
39.2172563502972
39.2172526823997
39.2172489543736
39.2172451864753
39.2172413977969
39.2172376064264
39.2172338290984
39.2172300813982
39.2172263774846
39.2172227303236
39.217219151411
39.2172156510205
39.2172122380143
39.2172089200612
39.2172057034768
39.2172025934124
39.2171995937824
39.2171967074682
39.2171939362888
39.2171912812919
39.2171887429286
39.2171863215481
39.2171840179944
39.2171818346687
39.2171797767078
39.2171778538177
39.2171760816855
39.2171744825901
39.2171730846167
39.2171719368926
39.2171711903356
39.2171708287497
39.2171772367146
39.217177158891
39.2171770416026
39.2171767386753
39.2171761732752
39.2171753532748
39.217174264908
39.21717289972
39.2171712566924
39.2171693416458
39.2171671656833
39.2171647441282
39.2171620950394
39.2171592385857
39.2171561960713
39.2171529895568
39.2171496412775
39.2171461734688
39.2171426079585
39.2171389661235
39.2171352684963
39.2171315348824
39.2171277839807
39.2171240335447
39.2171203000325
39.2171165988257
39.2171129439375
39.2171093482175
39.2171058231179
39.2171023789269
39.2170990245795
39.2170957678754
39.2170926152903
39.2170895722666
39.2170866430097
39.2170838307939
39.2170811378746
39.2170785658091
39.2170761155867
39.2170737881534
39.2170715847897
39.2170695082605
39.2170675637462
39.2170657603419
39.2170641123521
39.2170626393781
39.2170613653288
39.2170603327104
39.2170596673968
39.2170593446062
39.2170641625999
39.2170640511322
39.2170638641692
39.2170634671056
39.2170628046442
39.2170618899836
39.2170607135777
39.2170592698531
39.2170575593773
39.2170555885241
39.2170533683529
39.2170509136486
39.2170482417569
39.2170453720173
39.2170423248463
39.2170391214604
39.2170357832947
39.2170323318423
39.2170287882618
39.2170251732896
39.2170215069782
39.217017808638
39.2170140965754
39.2170103881945
39.2170066996914
39.2170030462439
39.2169994416763
39.2169958987361
39.216992428861
39.2169890423393
39.2169857481495
39.2169825542369
39.2169794672518
39.2169764928549
39.2169736356009
39.216970899055
39.2169682859385
39.216965798274
39.2169634375168
39.2169612050202
39.2169591024431
39.2169571326813
39.2169553006679
39.2169536146394
39.2169520871103
39.2169507348153
39.2169495775743
39.2169486519124
39.2169480619486
39.2169477751449
39.216950982096
39.2169508393854
39.216950587972
39.2169501037133
39.2169493507972
39.2169483470789
39.2169470869994
39.2169455679541
39.2169437923003
39.2169417672267
39.2169395039236
39.2169370168267
39.2169343227288
39.216931440169
39.2169283887779
39.2169251889864
39.216921861429
39.2169184268714
39.2169149058172
39.2169113184209
39.2169076841528
39.2169040218869
39.2169003495364
39.2168966841418
39.2168930416374
39.2168894369388
39.2168858837831
39.2168823947868
39.2168789813149
39.2168756536703
39.2168724209041
39.2168692910636
39.2168662709882
39.2168633665569
39.2168605826155
39.2168579231075
39.2168553910888
39.216852988975
39.2168507187016
39.2168485819275
39.2168465805589
39.2168447174336
39.2168429970188
39.2168414264452
39.2168400162482
39.2168387801357
39.216837733984
39.2168369089923
39.2168363896781
39.2168361369986
39.2168377156049
39.2168375431502
39.216837230837
39.2168366648402
39.2168358268245
39.2168347386032
39.2168333985028
39.2168318068725
39.2168299680343
39.2168278901372
39.2168255846773
39.2168230659008
39.2168203500769
39.2168174551189
39.2168143999152
39.2168112040818
39.2168078875402
39.2168044703576
39.2168009723246
39.216797413028
39.2167938114289
39.2167901859066
39.2167865539523
39.2167829323153
39.2167793366243
39.2167757815623
39.2167722807062
39.2167688465706
39.2167654904624
39.2167622226989
39.216759052375
39.2167559876689
39.2167530355655
39.2167502022057
39.2167474926828
39.2167449112603
39.2167424613726
39.2167401457991
39.2167379667953
39.2167359263694
39.2167340264714
39.2167322698224
39.2167306602205
39.2167292035447
39.2167279081186
39.2167267845798
39.2167258450208
39.216725115868
39.2167246638419
39.2167244437587
39.2167243852746
39.2167241844872
39.2167238144175
39.2167231708008
39.2167222516873
39.2167210825428
39.2167196653027
39.2167180033284
39.2167161029211
39.2167139733647
39.2167116265628
39.2167090766598
39.2167063395609
39.2167034325394
39.2167003737995
39.2166971822444
39.2166938770097
39.2166904775077
39.2166870028595
39.2166834720847
39.2166799035767
39.2166763152782
39.2166727242729
39.2166691469465
39.2166655986512
39.216662093866
39.2166586459789
39.2166552674025
39.2166519693856
39.2166487622453
39.216645655164
39.2166426563635
39.2166397730762
39.2166370115883
39.2166343772988
39.2166318747913
39.2166295077914
39.2166272794566
39.2166251923481
39.2166232486634
39.2166214504396
39.2166198000632
39.2166183006193
39.2166169565317
39.2166157738684
39.2166147601529
39.2166139238252
39.2166132868733
39.2166128995887
39.216612711316
39.2166110106918
39.2166107820958
39.2166103560012
39.2166096377186
39.216608640505
39.2166073931003
39.2166059009178
39.2166041702876
39.2166022095771
39.2166000292636
39.21659764176
39.2165950612252
39.2165923031716
39.216589384363
39.2165863223199
39.2165831352322
39.2165798415517
39.2165764599486
39.2165730089764
39.2165695069998
39.2165659719321
39.2165624211921
39.2165588714852
39.2165553388622
39.216551838399
39.2165483843273
39.2165449898894
39.2165416673524
39.2165384279506
39.216535281972
39.2165322386572
39.216529306359
39.2165264924261
39.2165238034213
39.2165212449472
39.2165188219224
39.2165165383776
39.2165143977909
39.2165124029998
39.2165105563472
39.2165088598995
39.2165073156502
39.2165059258696
39.2165046934533
39.2165036221268
39.21650271627
39.2165019807871
39.2165014333732
39.2165011093457
39.216500951472
39.2164976125932
39.2164973574691
39.2164968769939
39.2164960859518
39.2164950125152
39.2164936885674
39.2164921228978
39.2164903247613
39.2164883045916
39.2164860741759
39.2164836464071
39.2164810355316
39.2164782567706
39.2164753263205
39.2164722611051
39.2164690786012
39.2164657965768
39.216462433018
39.2164590058092
39.2164555327618
39.2164520312508
39.2164485182584
39.2164450100681
39.2164415223669
39.2164380699251
39.2164346668287
39.2164313260582
39.2164280598518
39.2164248793124
39.2164217947866
39.2164188155439
39.2164159500389
39.2164132058097
39.2164105895936
39.2164081072551
39.2164057640039
39.2164035642054
39.2164015116432
39.2163996093732
39.2163978599274
39.2163962652558
39.2163948270463
39.2163935465942
39.2163924252527
39.2163914643606
39.2163906651986
39.216390029178
39.2163895699632
39.2163893079269
39.2163891793462
39.216384211235
39.2163839305285
39.2163833962404
39.2163825333846
39.2163813847146
39.2163799850678
39.216378346624
39.2163764815487
39.2163744024001
39.2163721221586
39.2163696543867
39.2163670133014
39.2163642139058
39.2163612718869
39.2163582035137
39.2163550256082
39.2163517552399
39.2163484096964
39.2163450062799
39.2163415621908
39.2163380942657
39.2163346190064
39.2163311523327
39.2163277095678
39.2163243052055
39.2163209530845
39.2163176660397
39.2163144561782
39.2163113345887
39.2163083115593
39.2163053964468
39.216302597808
39.2162999233406
39.2162973799714
39.2162949738558
39.21629271048
39.2162905945006
39.2162886300357
39.216286820345
39.2162851681205
39.2162836752832
39.2162823430408
39.2162811718299
39.2162801613595
39.2162793105963
39.2162786176923
39.2162780805957
39.2162777090998
39.2162775086181
39.2162774096942
39.2162708293763
39.216270522782
39.2162699350156
39.2162690003024
39.2162677762826
39.2162663009076
39.2162645896897
39.2162626577046
39.2162605195626
39.2162581895536
39.2162556817493
39.2162530104688
39.2162501903949
39.216247236749
39.2162441651599
39.216240991751
39.2162377329078
39.2162344052922
39.2162310255226
39.2162276102317
39.2162241757178
39.2162207380607
39.216217312729
39.2162139147258
39.2162105582684
39.2162072569481
39.2162040234543
39.2162008697633
39.2161978069198
39.2161948452122
39.2161919940409
39.2161892620788
39.2161866571696
39.2161841864727
39.2161818564055
39.2161796727014
39.2161776403955
39.2161757638532
39.2161740466254
39.2161724915495
39.2161711004737
39.2161698742129
39.2161688122724
39.216167912833
39.216167172417
39.2161665860476
39.2161661482387
39.2161658648401
39.2161657260585
39.21616565765
39.2161574860511
39.2161571526376
39.216156510447
39.2161555028288
39.2161542024551
39.2161526504788
39.2161508657737
39.2161488663696
39.2161466688995
39.2161442888464
39.2161417408206
39.2161390391848
39.2161361983162
39.2161332328978
39.2161301579326
39.2161269888747
39.2161237413966
39.2161204314762
39.2161170751206
39.2161136883515
39.2161102870014
39.2161068866408
39.2161035023601
39.2161001487984
39.2160968398966
39.2160935890279
39.2160904087214
39.2160873108223
39.216084306332
39.2160814055387
39.2160786179011
39.2160759521939
39.2160734164208
39.2160710179887
39.2160687635187
39.216066659108
39.2160647100682
39.2160629211139
39.2160612960579
39.2160598378978
39.2160585484962
39.2160574282752
39.2160564759106
39.2160556879826
39.2160550586996
39.2160545799416
39.2160542426282
39.2160540485056
39.2160539724719
39.216053934666
39.2160442017921
39.2160438414139
39.2160431436932
39.2160420610744
39.2160406822368
39.2160390518111
39.2160371922218
39.2160351242928
39.2160328667378
39.2160304361023
39.2160278474767
39.2160251151945
39.2160222532693
39.2160192758602
39.2160161972861
39.2160130323173
39.2160097959131
39.2160065033822
39.2160031700769
39.2159998114803
39.2159964428574
39.2159930793423
39.2159897356178
39.2159864259593
39.2159831640747
39.2159799631045
39.2159768353886
39.2159737926704
39.2159708459076
39.2159680053883
39.2159652806149
39.2159626804932
39.2159602131869
39.2159578863066
39.2159557067644
39.2159536809631
39.2159518145781
39.2159501126298
39.2159485792508
39.2159472176572
39.2159460297844
39.2159450157051
39.2159441733384
39.2159434977948
39.2159429809544
39.2159426115541
39.2159423768899
39.2159422742989
39.21594226241
39.215942255847
39.2159309960407
39.2159306077374
39.2159298521728
39.215928691352
39.2159272309364
39.2159255193692
39.2159235826985
39.215921444702
39.2159191258979
39.2159166438942
39.2159140141157
39.2159112507798
39.2159083674778
39.2159053777723
39.2159022952983
39.2158991340984
39.2158959084045
39.2158926328557
39.215889322164
39.2158859912306
39.2158826547966
39.2158793275303
39.2158760237216
39.2158727573551
39.2158695417893
39.2158663899609
39.2158633140498
39.2158603257267
39.2158574358618
39.2158546547435
39.2158519919612
39.2158494565228
39.2158470567665
39.2158448005212
39.2158426950045
39.2158407469251
39.2158389623073
39.2158373465791
39.2158359042078
39.2158346387296
39.2158335521381
39.2158326443459
39.2158319125738
39.2158313506079
39.2158309481165
39.2158306906786
39.215830561734
39.2158305538906
39.2158306084893
39.2158306339552
39.2158178899263
39.2158174727083
39.2158166564914
39.2158154129575
39.2158138665545
39.2158120701351
39.2158100535744
39.2158078433858
39.2158054618631
39.2158029274578
39.2158002558135
39.2157974608999
39.2157945558138
39.2157915534481
39.2157884667249
39.2157853088866
39.2157820934663
39.2157788344048
39.2157755457738
39.2157722418924
39.2157689369778
39.2157656452473
39.2157623805833
39.2157591566356
39.2157559864863
39.215752882883
39.2157498578163
39.215746922855
39.2157440888259
39.215741366017
39.2157387641055
39.2157362922007
39.2157339588157
39.2157317720412
39.2157297393569
39.2157278678205
39.2157261638786
39.2157246333372
39.2157232811296
39.2157221110974
39.215721125438
39.2157203240495
39.215719703614
39.2157192567538
39.2157189710415
39.215718828942
39.2157188099081
39.2157189013087
39.2157190253638
39.2157190842699
39.2157049030502
39.2157044549676
39.2157035737619
39.215702241534
39.2157006035413
39.2156987175986
39.2156966175244
39.215694332539
39.2156918865076
39.2156892985076
39.2156865841825
39.2156837571529
39.215680829846
39.2156778144272
39.2156747230329
39.2156715681485
39.2156683625217
39.2156651193945
39.2156618521985
39.2156585746561
39.2156553004752
39.2156520434219
39.2156488169712
39.2156456344674
39.215642508716
39.2156394522026
39.2156364768452
39.2156335940526
39.2156308146077
39.2156281488569
39.2156256064627
39.2156231967238
39.215620928313
39.2156188095832
39.2156168483198
39.215615051944
39.21561342731
39.2156119807187
39.2156107175542
39.2156096421531
39.2156087569892
39.2156080620916
39.2156075538514
39.2156072239159
39.2156070579658
39.2156070354686
39.2156071317149
39.2156073281512
39.2156075259263
39.2156076199608
39.215592056702
39.2155915755138
39.2155906240077
39.2155891953007
39.2155874585587
39.2155854773009
39.2155832894205
39.2155809266551
39.2155784140632
39.2155757711007
39.2155730132217
39.2155701534357
39.2155672034569
39.2155641746067
39.2155610781338
39.2155579257233
39.2155547293514
39.2155515015183
39.2155482550297
39.2155450030259
39.2155417586764
39.2155385353108
39.2155353460112
39.215532203787
39.2155291212111
39.2155261105509
39.215523183535
39.2155203514994
39.2155176251981
39.2155150149629
39.215512530558
39.2155101813842
39.2155079763179
39.2155059239594
39.2155040324433
39.2155023095547
39.2155007626279
39.2154993984586
39.2154982230277
39.2154972411663
39.2154964558868
39.2154958674655
39.2154954722937
39.2154952613346
39.2154952186829
39.2154953209829
39.2154955392325
39.2154958482861
39.2154961251072
39.2154962567729
39.2154793709051
39.2154788531479
39.2154778238473
39.2154762887512
39.2154744445288
39.2154723611311
39.2154700804676
39.2154676365171
39.2154650551529
39.2154623558599
39.2154595535249
39.2154566604149
39.2154536873131
39.2154506446095
39.2154475426651
39.2154443922336
39.2154412045493
39.2154379913554
39.2154347648029
39.2154315374355
39.2154283219425
39.2154251311877
39.2154219778749
39.2154188746936
39.2154158339399
39.2154128676775
39.2154099875188
39.2154072046542
39.2154045298521
39.2154019734298
39.2153995452391
39.2153972548113
39.2153951112414
39.2153931233624
39.2153912996582
39.2153896483505
39.2153881772829
39.2153868937603
39.215385804433
39.2153849148453
39.2153842286061
39.2153837465885
39.2153834653582
39.2153833756311
39.2153834603232
39.2153836935759
39.2153840420506
39.2153844732529
39.2153848363523
39.2153850087925
39.2153668676474
39.2153663090139
39.2153651924455
39.2153635384457
39.2153615760908
39.2153593825205
39.2153570035298
39.2153544747125
39.2153518222767
39.2153490652126
39.2153462176066
39.2153432906198
39.2153402940312
39.2153372371395
39.2153341293015
39.215330980398
39.21532780079
39.2153246015223
39.2153213940474
39.2153181903705
39.2153150026425
39.2153118432761
39.2153087246552
39.2153056590905
39.2153026586602
39.2152997352096
39.21529690022
39.2152941648092
39.2152915396728
39.2152890351572
39.2152866612159
39.2152844274824
39.2152823432989
39.2152804177604
39.2152786596998