/*--------------------------------*- C++ -*----------------------------------*\
  =========                 |
  \\      /  F ield         | OpenFOAM: The Open Source CFD Toolbox
   \\    /   O peration     | Website:  https://openfoam.org
    \\  /    A nd           | Version:  10
     \\/     M anipulation  |
\*---------------------------------------------------------------------------*/
FoamFile
{
    format      ascii;
    class       surfaceScalarField;
    location    "0.8";
    object      phi;
}
// * * * * * * * * * * * * * * * * * * * * * * * * * * * * * * * * * * * * * //

dimensions      [1 0 -1 0 0 0 0];

internalField   nonuniform List<scalar> 
4900
(
-1.1910028579808e-11
1.15288569084718e-11
-7.11415397545943e-12
-5.38920896215687e-12
-7.31141837210524e-12
-4.32958776791491e-13
-6.64406098245956e-12
-1.27511406798011e-12
-5.81104661557083e-12
-1.42625227898568e-12
-4.98243752616525e-12
-1.41823162004146e-12
-4.24665054865454e-12
-1.32463350028497e-12
-3.61445246475577e-12
-1.21866911892381e-12
-3.07415267575624e-12
-1.12161525760963e-12
-2.60992651010127e-12
-1.03769108349253e-12
-2.20839230400408e-12
-9.65116548710927e-13
-1.85875458024376e-12
-9.01814929794066e-13
-1.55206298192442e-12
-8.46537372792014e-13
-1.28146407291672e-12
-7.97440466821455e-13
-1.04156825856528e-12
-7.53454169318974e-13
-8.2768943506441e-13
-7.13926490881902e-13
-6.3612379436556e-13
-6.78163278826607e-13
-4.63562532286192e-13
-6.45723366672608e-13
-3.07273022735112e-13
-6.1627751192335e-13
-1.64636376907729e-13
-5.89617921165934e-13
-3.35205403033643e-14
-5.65489090020365e-13
8.82159720826696e-14
-5.43778912159024e-13
2.02477240034257e-13
-5.24467748332246e-13
3.11109268966842e-13
-5.07355799550646e-13
4.15809662667627e-13
-4.92497449017835e-13
5.18532715636245e-13
-4.79991469091937e-13
6.20865789630256e-13
-4.69657007902265e-13
7.24697348807384e-13
-4.61627391896467e-13
8.3190456292057e-13
-4.56062576926972e-13
9.44423745689777e-13
-4.5285326920515e-13
1.06436895643088e-12
-4.52338690070594e-13
1.19412224315305e-12
-4.54626754674824e-13
1.33617117199396e-12
-4.59978953417723e-13
1.49350191557853e-12
-4.68747158710401e-13
1.66933774857983e-12
-4.81315894891289e-13
1.86769565284182e-12
-4.98337450029849e-13
2.0931574646412e-12
-5.20493815076746e-13
2.35145055212399e-12
-5.48759582764537e-13
2.64953344146658e-12
-5.84396687915235e-13
2.99637664304258e-12
-6.29137334457338e-13
3.4033073714862e-12
-6.85186729560504e-13
3.88468386637849e-12
-7.55119179379427e-13
4.45726231311572e-12
-8.41098819151811e-13
5.13521796672564e-12
-9.40453656136175e-13
5.91107018753483e-12
-1.03253563592753e-12
6.69758335834824e-12
-1.03978095714401e-12
7.32512373050684e-12
-8.82284392393081e-13
7.20199417638677e-12
-1.36761095273574e-13
1.20289548233709e-11
-5.08761469094325e-12
1.18458468273198e-11
-1.60918531753445e-11
2.70891717086234e-11
-9.54623980570306e-12
-1.26970905519034e-11
-9.62197055750788e-12
-1.09784825615051e-12
-9.62468267600658e-12
-1.97762077857628e-12
-8.61528914726395e-12
-3.12414136755591e-12
-7.54605046086457e-12
-3.17171717711496e-12
-6.61688461642715e-12
-2.93651196484384e-12
-5.83713650322544e-12
-2.67764473004401e-12
-5.18330595997306e-12
-2.44807836087095e-12
-4.63027266987447e-12
-2.25380618825463e-12
-4.15759727028123e-12
-2.08910120316094e-12
-3.74923898958667e-12
-1.94805886791029e-12
-3.39253196049466e-12
-1.8266987051699e-12
-3.07770843885128e-12
-1.72057064765649e-12
-2.79718578857498e-12
-1.62683736329346e-12
-2.54453702526646e-12
-1.54376564932344e-12
-2.31470740877825e-12
-1.46959064402548e-12
-2.10328248526671e-12
-1.40320099034985e-12
-1.90665713095441e-12
-1.34371305832526e-12
-1.72158063784927e-12
-1.29048379057932e-12
-1.54528289649792e-12
-1.24301207557199e-12
-1.3751003771932e-12
-1.2009684507533e-12
-1.20880879883098e-12
-1.16411323977543e-12
-1.04412311702578e-12
-1.13217339325279e-12
-8.7908416127813e-13
-1.10507911414024e-12
-7.1147888526561e-13
-1.08303034372541e-12
-5.39381813643085e-13
-1.06574120749109e-12
-3.60585538178569e-13
-1.05346352742179e-12
-1.72955871059983e-13
-1.04645077726483e-12
2.59465440997497e-14
-1.04473416785147e-12
2.3860852081769e-13
-1.04885787812374e-12
4.67980694820328e-13
-1.0592378596796e-12
7.17184315097418e-13
-1.076459111458e-12
9.89944948800191e-13
-1.10133570849485e-12
1.29046339137469e-12
-1.13487051004386e-12
1.62387209724873e-12
-1.17850689323884e-12
1.99626682544755e-12
-1.23399623414594e-12
2.41527649035379e-12
-1.30366251398919e-12
2.89033583960253e-12
-1.3905718987906e-12
3.43381523528248e-12
-1.49906788847574e-12
4.06166473696341e-12
-1.63471343487371e-12
4.7947027300687e-12
-1.80442701302519e-12
5.65861881482174e-12
-2.01499307300883e-12
6.67905594265215e-12
-2.26377400228919e-12
7.84999212458643e-12
-2.49997398815642e-12
8.97017029257984e-12
-2.45375475468119e-12
9.07335193123152e-12
-1.28289012119258e-12
9.21594380437321e-12
-5.85371225796828e-13
1.60179213760147e-11
-1.22076387427514e-11
2.76521622479619e-11
-1.37020016918992e-11
4.02292480351172e-11
-1.21804440315441e-11
-1.49788811923561e-11
-9.71170368606007e-12
-4.22677214068674e-12
-8.8042938542506e-12
-3.5024500935611e-12
-7.67056223481768e-12
-4.85960696116047e-12
-6.72529023471834e-12
-4.71466681389647e-12
-5.96464287586337e-12
-4.29309118531389e-12
-5.3462396617717e-12
-3.88854824571875e-12
-4.83624160343066e-12
-3.54450683060759e-12
-4.40983571337565e-12
-3.25806608573764e-12
-4.04822313451627e-12
-3.01811040446068e-12
-3.73707373879848e-12
-2.81474444657311e-12
-3.46600772734324e-12
-2.64059146394016e-12
-3.22656838955553e-12
-2.4895184274476e-12
-3.01219320036523e-12
-2.35715675717106e-12
-2.81765357755884e-12
-2.24049904626234e-12
-2.63869051974474e-12
-2.13707476870133e-12
-2.47165328405894e-12
-2.04513372068924e-12
-2.31360078221517e-12
-1.96330806545049e-12
-2.16186325931523e-12
-1.89060881345595e-12
-2.01422628617501e-12
-1.82628799037825e-12
-1.86861550071628e-12
-1.76977536105748e-12
-1.72330032800273e-12
-1.72068189009762e-12
-1.57647011761746e-12
-1.67869431793506e-12
-1.42661030388956e-12
-1.64362478592134e-12
-1.27210236141537e-12
-1.61564111854899e-12
-1.11141689841408e-12
-1.59452976105994e-12
-9.42869850503299e-13
-1.58055182793342e-12
-7.6485480819426e-13
-1.5740308802584e-12
-5.75415863683737e-13
-1.57520149750067e-12
-3.72664675604717e-13
-1.58468035563257e-12
-1.54262150647687e-13
-1.60319611274356e-12
8.22718282882304e-14
-1.63161053873788e-12
3.3991894668417e-13
-1.67111367209838e-12
6.22082784790131e-13
-1.72325667225815e-12
9.32900926541915e-13
-1.79009193741136e-12
1.27737791013591e-12
-1.874330239385e-12
1.6617396630019e-12
-1.97935181544604e-12
2.09377599032075e-12
-2.10978130277809e-12
2.58386033624241e-12
-2.27225168999283e-12
3.14553039848656e-12
-2.47528440057593e-12
3.7970557005111e-12
-2.73005594957552e-12
4.56319262777059e-12
-3.04961573164983e-12
5.47790776227714e-12
-3.44065585951072e-12
6.58402207427168e-12
-3.86274256831803e-12
7.88452398913908e-12
-4.00922138081473e-12
8.96543289734178e-12
-2.62424557694072e-12
1.17366134712858e-11
-3.63233800196756e-12
1.35249805169579e-11
-1.43077520215147e-11
4.09709613045181e-11
-8.67869472123767e-12
4.83385058834116e-11
-1.25095748380801e-11
-1.18983344002711e-11
-9.93513402322753e-12
-7.41791483572367e-12
-8.22666770339187e-12
-5.7829857232109e-12
-6.99086180250083e-12
-6.65204355606958e-12
-6.09612997614635e-12
-6.1619974756624e-12
-5.41373486872906e-12
-5.52619866171954e-12
-4.87009329756429e-12
-4.97948334297639e-12
-4.42488524885212e-12
-4.5312152541387e-12
-4.05321883980428e-12
-4.16317886271291e-12
-3.73792396681612e-12
-3.8571017521124e-12
-3.46640378530245e-12
-3.59893754550469e-12
-3.22944994799011e-12
-3.37842757254226e-12
-3.01973159241322e-12
-3.1877716726882e-12
-2.83154280216631e-12
-3.02131378671673e-12
-2.66026143510756e-12
-2.87500997813203e-12
-2.50216304019416e-12
-2.74574107074727e-12
-2.35403182349252e-12
-2.63121363316449e-12
-2.21326959682678e-12
-2.52965625394445e-12
-2.07750697805794e-12
-2.4397764896135e-12
-1.94481391080477e-12
-2.36058544569076e-12
-1.81334114889582e-12
-2.29133344211192e-12
-1.68156239551285e-12
-2.23149380134497e-12
-1.54789282010085e-12
-2.18069490066417e-12
-1.41096701959437e-12
-2.13869960741972e-12
-1.26939896536399e-12
-2.1055647889945e-12
-1.12182757613763e-12
-2.08120686596824e-12
-9.66766759508817e-13
-2.06587179496392e-12
-8.0282165412707e-13
-2.05993402709194e-12
-6.28266931378432e-13
-2.06381856438576e-12
-4.41421916177772e-13
-2.07823141169387e-12
-2.40249622287072e-13
-2.1041258136955e-12
-2.25777049335495e-14
-2.14262891552298e-12
2.14225841939081e-13
-2.19527008429381e-12
4.73108075235353e-13
-2.26403646393989e-12
7.57680785437728e-13
-2.35152606132315e-12
1.07230193892412e-12
-2.4612841581909e-12
1.42231140274453e-12
-2.59751667116609e-12
1.81443373213765e-12
-2.76622887298202e-12
2.25765000615367e-12
-2.97603295520368e-12
2.76371059962129e-12
-3.23802518453725e-12
3.34897598901896e-12
-3.56753904348176e-12
4.0371558641416e-12
-3.9847496792925e-12
4.86623565520005e-12
-4.51072270603961e-12
5.90514520760145e-12
-5.13744316002517e-12
7.28066629554443e-12
-5.61925974551896e-12
9.17065356009117e-12
-4.75544129485545e-12
1.21586167456175e-11
-6.88013826936433e-12
8.51468628880923e-12
-1.09700453843693e-11
4.92827419541161e-11
-6.02548996708598e-12
5.38013659837317e-11
-1.12014229100714e-11
-7.45519133764646e-12
-9.46868461453143e-12
-9.74016596000681e-12
-7.79148408563225e-12
-8.00500607987512e-12
-6.63928384091357e-12
-8.33414427630327e-12
-5.81264669278404e-12
-7.51447181859015e-12
-5.1868795673102e-12
-6.67573119701971e-12
-4.6906216407371e-12
-5.9959933933117e-12
-4.28459228665583e-12
-5.45177022115257e-12
-3.94516643613076e-12
-5.00928949687867e-12
-3.65657527328873e-12
-4.64295134974432e-12
-3.40744196184871e-12
-4.33470400471995e-12
-3.18941118944308e-12
-4.07174746986999e-12
-2.9958611700749e-12
-3.84474009648998e-12
-2.82162489526875e-12
-3.64689521029144e-12
-2.66244904835483e-12
-3.47329455411086e-12
-2.51491847646972e-12
-3.32022271174816e-12
-2.37605962189636e-12
-3.18490685748516e-12
-2.24345977849848e-12
-3.06522410904335e-12
-2.11491834680349e-12
-2.95959379699227e-12
-1.98864370099437e-12
-2.86681284955756e-12
-1.86290824082929e-12
-2.78596842665852e-12
-1.73628545740221e-12
-2.71641502347003e-12
-1.60731203361322e-12
-2.65770120050031e-12
-1.47472376662277e-12
-2.6095581575756e-12
-1.33721433670139e-12
-2.57195464751688e-12
-1.1935431751219e-12
-2.5448937282017e-12
-1.04231992464881e-12
-2.5286328190372e-12
-8.82245086021999e-13
-2.52359579089943e-12
-7.1173667021072e-13
-2.5303517118722e-12
-5.29220199246998e-13
-2.54973162987347e-12
-3.32824109077689e-13
-2.58285589607318e-12
-1.20542825402939e-13
-2.63111411361179e-12
1.10048078383851e-13
-2.69633570468541e-12
3.61638249927776e-13
-2.7808927159793e-12
6.37520460377292e-13
-2.88786872410916e-12
9.41594676440357e-13
-3.02150396153848e-12
1.27867920125732e-12
-3.1867702236883e-12
1.65477477600787e-12
-3.39085339609174e-12
2.07781004825432e-12
-3.64402422632137e-12
2.55823163758381e-12
-3.95970865807462e-12
3.11070875803579e-12
-4.35701518272907e-12
3.75694542847395e-12
-4.86291713993473e-12
4.53250678217851e-12
-5.51240014577285e-12
5.50213231281842e-12
-6.32806454566658e-12
6.79074463628858e-12
-7.12780461684601e-12
8.66760390610031e-12
-6.859661248246e-12
1.08704255257317e-11
-9.33010677139297e-12
5.82416063888785e-12
-6.21900666945708e-12
5.49128418964655e-11
-4.70009751654036e-12
5.79482389754637e-11
-9.41868284925057e-12
-3.45396908058702e-12
-8.49311501571057e-12
-1.12390245895356e-11
-7.24238547313009e-12
-9.7848829072654e-12
-6.28787036488931e-12
-9.80301499700085e-12
-5.5663277946946e-12
-8.7462413720573e-12
-5.00621507763175e-12
-7.74382462157717e-12
-4.55663583866785e-12
-6.94991940685155e-12
-4.1860734272885e-12
-6.32094933900724e-12
-3.87447858327027e-12
-5.8117652063916e-12
-3.60821624681185e-12
-5.39085435016071e-12
-3.3773374162223e-12
-5.03683689197928e-12
-3.17443627475339e-12
-4.73483070957916e-12
-2.99359355789492e-12
-4.4741843572873e-12
-2.83015093562009e-12
-4.24716623541053e-12
-2.68020837908913e-12
-4.04813284122638e-12
-2.54062720233391e-12
-3.87284590966072e-12
-2.40864168923997e-12
-3.71811883643788e-12
-2.28200255452016e-12
-3.58151997932333e-12
-2.15864557691613e-12
-3.46120609657514e-12
-2.03688695253101e-12
-3.35578718881442e-12
-1.91509762695252e-12
-3.26419578751112e-12
-1.79193661070576e-12
-3.18567940294243e-12
-1.66602330764883e-12
-3.11970932377182e-12
-1.53618027037192e-12
-3.06598032901021e-12
-1.40115312438308e-12
-3.02440794251019e-12
-1.25979480083845e-12
-2.99503955963284e-12
-1.11079453602691e-12
-2.97815874061958e-12
-9.52925785499997e-13
-2.97424429082252e-12
-7.84710973367104e-13
-2.98397923906629e-12
-6.04675874857231e-13
-3.00832287906275e-12
-4.1106684729611e-13
-3.04854597649275e-12
-2.02024358246501e-13
-3.10627141228933e-12
2.46939512910866e-14
-3.1835938780918e-12
2.71554236540204e-13
-3.28322775669676e-12
5.41556607545768e-13
-3.40867443362611e-12
8.38191650166418e-13
-3.56475180010218e-12
1.16576227288442e-12
-3.75709374650051e-12
1.52953648287347e-12
-3.99385136816768e-12
1.93637450621723e-12
-4.28662383068399e-12
2.39522010657187e-12
-4.65073713061837e-12
2.91847323220787e-12
-5.10831174259029e-12
3.52403215557351e-12
-5.6915683735929e-12
4.23974113874742e-12
-6.44545611214954e-12
5.11100680744776e-12
-7.41153222136342e-12
6.2128923665067e-12
-8.440800532221e-12
7.67512314535947e-12
-8.54080971503581e-12
9.05194530673094e-12
-1.09459231950525e-11
4.47025311983232e-12
-1.92407071798829e-12
5.91939203682557e-11
-3.82971955729942e-12
6.12395029867332e-11
-7.64218000116268e-12
-3.371575737804e-13
-7.40661409011291e-12
-1.2027742039638e-11
-6.61383983759067e-12
-1.10881687618596e-11
-5.88752563713165e-12
-1.10257736086334e-11
-5.28931276349721e-12
-9.83674064875134e-12
-4.80267850818491e-12
-8.72029717169086e-12
-4.40169849266215e-12
-7.83695201669384e-12
-4.06581714847112e-12
-7.13711007319058e-12
-3.78019037322111e-12
-6.56999345472941e-12
-3.53402438474636e-12
-6.10051560114951e-12
-3.31911121601192e-12
-5.7050437042399e-12
-3.12914968262968e-12
-5.36723139407677e-12
-2.95899687875111e-12
-5.07543307663993e-12
-2.80453201850903e-12
-4.82120263985279e-12
-2.66223527444195e-12
-4.59832297333641e-12
-2.529247600695e-12
-4.40213018860336e-12
-2.40301105993573e-12
-4.2290932944001e-12
-2.28143983127912e-12
-4.07651419077824e-12
-2.16259246611767e-12
-3.94232653735788e-12
-2.04489127016558e-12
-3.82496870955637e-12
-1.92679039655508e-12
-3.72324108644861e-12
-1.80702372096644e-12
-3.63629137754049e-12
-1.68427805889171e-12
-3.5635205648042e-12
-1.55744897203896e-12
-3.50458098008606e-12
-1.42533238320833e-12
-3.45935734505303e-12
-1.28684816012661e-12
-3.42792438650322e-12
-1.14075371588059e-12
-3.41059094126157e-12
-9.85887530191758e-13
-3.40789347306752e-12
-8.20856197946984e-13
-3.42060997945035e-12
-6.44279970603332e-13
-3.44981772779302e-12
-4.54509141655728e-13
-3.49692866694014e-12
-2.4982099076987e-13
-3.56376580711193e-12
-2.81451712163548e-14
-3.65265440816057e-12
2.12761327211575e-13
-3.76659951867439e-12
4.75608589773402e-13
-3.90945427574691e-12
7.63477671811974e-13
-4.08649464158743e-12
1.08012303229128e-12
-4.30387946169163e-12
1.43002054814188e-12
-4.57048295664459e-12
1.81886783369853e-12
-4.89886703149403e-12
2.25385529758397e-12
-5.30567165927096e-12
2.74455241160319e-12
-5.81495544135768e-12
3.30380218260664e-12
-6.46195107754337e-12
3.94930125457772e-12
-7.29643985599574e-12
4.70359942050872e-12
-8.366166588978e-12
5.58871617397082e-12
-9.52514903511643e-12
6.59599043642455e-12
-9.75508331330428e-12
7.22682695208692e-12
-1.18034382848963e-11
3.58775710379572e-12
1.44257478910807e-12
6.26037798773095e-11
-3.15325742266306e-12
6.38674988626698e-11
-6.16450994199017e-12
1.99635333573048e-12
-6.38905593349169e-12
-1.23424720806349e-11
-5.96934057071393e-12
-1.2005863916732e-11
-5.4582185871241e-12
-1.2021024379901e-11
-4.98577526228704e-12
-1.07890958183296e-11
-4.57647984211574e-12
-9.60687802347353e-12
-4.22644781965609e-12
-8.66034043603907e-12
-3.92627882918097e-12
-7.90481231556315e-12
-3.66689578959539e-12
-7.28927127932874e-12
-3.44071812130535e-12
-6.77758892189711e-12
-3.24147607520094e-12
-6.3451304350634e-12
-3.06409534662137e-12
-5.97477977696866e-12
-2.90426219214578e-12
-5.65428247112724e-12
-2.75843135390922e-12
-5.37472431018845e-12
-2.6234875387104e-12
-5.12948133935908e-12
-2.4968629691178e-12
-4.91357374776678e-12
-2.37621893248449e-12
-4.72319713039149e-12
-2.25963667427778e-12
-4.55543740348976e-12
-2.14530025978404e-12
-4.40804636658144e-12
-2.03173790578661e-12
-4.27930926025862e-12
-1.91748827593368e-12
-4.16791542088947e-12
-1.80136171023733e-12
-4.07292011711797e-12
-1.68211207182505e-12
-3.99366388297064e-12
-1.55869502731915e-12
-3.92976236331754e-12
-1.42996336080479e-12
-3.88107351172488e-12
-1.29489924139534e-12
-3.84769313421628e-12
-1.15232634314723e-12
-3.82995181896785e-12
-1.00114633936078e-12
-3.82844645279031e-12
-8.40047237635616e-13
-3.84403254610362e-12
-6.67741732806829e-13
-3.87789331567863e-12
-4.82687575571119e-13
-3.93156804059418e-12
-2.83298548185394e-13
-4.00704961128277e-12
-6.76782159573974e-14
-4.1068576630613e-12
1.661881561584e-13
-4.23423247712006e-12
4.20707468071109e-13
-4.39330508127707e-12
6.98539092036134e-13
-4.58969034937942e-12
1.002859510586e-12
-4.82991788337523e-12
1.33730765418697e-12
-5.12332727138192e-12
1.70633782885753e-12
-5.48304174568617e-12
2.11522939519201e-12
-5.92635188047588e-12
2.57045901328876e-12
-6.47807847244907e-12
3.07944429631567e-12
-7.17412616455383e-12
3.64966429814448e-12
-8.06428527253475e-12
4.28346321088438e-12
-9.19243961608114e-12
4.96232837387184e-12
-1.03952178543036e-11
5.59471712263073e-12
-1.05862942389442e-11
5.70711208365702e-12
-1.21337674636989e-11
2.90554202698344e-12
3.98249716807716e-12
6.53375735104326e-11
-2.60850312122229e-12
6.59689091916728e-11
-5.01726097327019e-12
3.75290623908629e-12
-5.49695605848981e-12
-1.23803655498209e-11
-5.34950241034239e-12
-1.26316368959193e-11
-5.02186223585522e-12
-1.28139856928474e-11
-4.66706188408695e-12
-1.16049908441933e-11
-4.33427044585951e-12
-1.03979477567412e-11
-4.03600830512835e-12
-9.41280647705812e-12
-3.77248144921542e-12
-8.61667417723601e-12
-3.54008946643861e-12
-7.96240799390765e-12
-3.33447900724371e-12
-7.4150649495181e-12
-3.15135571263342e-12
-6.95023695991717e-12
-2.98692637558032e-12
-6.5507148372176e-12
-2.83772760011372e-12
-6.20405405964351e-12
-2.70081194152576e-12
-5.90111660768844e-12
-2.57348128396574e-12
-5.63504706698171e-12
-2.45347274045203e-12
-5.40065891890704e-12
-2.33867418358779e-12
-5.19395020484733e-12
-2.22733722802396e-12
-5.01184516930838e-12
-2.11778437530786e-12
-4.85194527291472e-12
-2.00864970364935e-12
-4.71241326176016e-12
-1.89856278267423e-12
-4.59184281655723e-12
-1.78640697004129e-12
-4.48921275992239e-12
-1.6710100844444e-12
-4.40380309308843e-12
-1.55139083996399e-12
-4.3352018711291e-12
-1.42646234061545e-12
-4.28324417886338e-12
-1.29526979890222e-12
-4.248042883219e-12
-1.15670217190815e-12
-4.22994913315771e-12
-1.00973241647621e-12
-4.22961296536021e-12
-8.53133076918618e-13
-4.24795540198677e-12
-6.85709101986327e-13
-4.28625671450021e-12
-5.06028715356594e-13
-4.34616631158334e-12
-3.12649627262914e-13
-4.42981268412027e-12
-1.03855369958974e-13
-4.53987463350742e-12
1.22135177534549e-13
-4.67977298924352e-12
3.67415165171812e-13
-4.85383785333601e-12
6.34216832207069e-13
-5.06790919349297e-12
9.25122875363739e-13
-5.3287229629835e-12
1.24291698428301e-12
-5.64582403785948e-12
1.59078747371255e-12
-6.03249189001491e-12
1.97208843536505e-12
-6.50601364747061e-12
2.39023396273418e-12
-7.09084256218289e-12
2.84755643120869e-12
-7.82152971236808e-12
3.34270638420599e-12
-8.74410474935735e-12
3.86283863177353e-12
-9.89215660343031e-12
4.36408917863347e-12
-1.10747467378857e-11
4.71967638747354e-12
-1.11273660191962e-11
4.52957959395748e-12
-1.21472614090604e-11
2.35563530336147e-12
5.91207506508378e-12
6.75348362655598e-11
-2.16958327025531e-12
6.76472449464139e-11
-4.13866662589298e-12
5.09084427193886e-12
-4.73675897705874e-12
-1.22841211518194e-11
-4.77530918573571e-12
-1.30572472235606e-11
-4.59457367155552e-12
-1.34461136448638e-11
-4.34349383894503e-12
-1.23031892778897e-11
-4.08260113105278e-12
-1.11029860849657e-11
-3.83497002201831e-12
-1.01003884699088e-11
-3.60813671025815e-12
-9.27755901872741e-12
-3.40316726628749e-12
-8.59389545324819e-12
-3.21865670496528e-12
-8.01733674977264e-12
-3.05219743115241e-12
-7.52474129252721e-12
-2.90124279071758e-12
-7.0994287855891e-12
-2.76317393938991e-12
-6.7291554919089e-12
-2.63563670904901e-12
-6.40480273165228e-12
-2.51635263705308e-12
-6.11945361386111e-12
-2.4033687173062e-12
-5.86782015444745e-12
-2.29480260064104e-12
-5.64578311456734e-12
-2.18908373759723e-12
-5.45015440629368e-12
-2.08467454534605e-12
-5.27842350080351e-12
-1.98031846528345e-12
-5.12865947582432e-12
-1.87474123439641e-12
-4.99937431005257e-12
-1.76690895872715e-12
-4.88948220294754e-12
-1.65572172684331e-12
-4.79821411552889e-12
-1.54026519901131e-12
-4.72513450103078e-12
-1.41951885788932e-12
-4.67005735303817e-12
-1.29259358423652e-12
-4.63311181469779e-12
-1.15844943928172e-12
-4.61466567359742e-12
-1.0161331925644e-12
-4.61541791775106e-12
-8.64501942936405e-13
-4.63634592122334e-12
-7.02459549487283e-13
-4.67881117202084e-12
-5.28695559187351e-13
-4.74455201184225e-12
-3.41909192015319e-13
-4.83581114769956e-12
-1.40568999139097e-13
-4.95538404280093e-12
7.68718017600272e-14
-5.10682155738774e-12
3.12187626769064e-13
-5.29456990485477e-12
5.6718211072293e-13
-5.52458316835531e-12
8.43855382122634e-13
-5.80365264111867e-12
1.14415313614557e-12
-6.14127439468746e-12
1.47003544813008e-12
-6.55050014595953e-12
1.82304532184507e-12
-7.04803673489886e-12
2.20381094748756e-12
-7.65700525973197e-12
2.61033245916734e-12
-8.40905698504632e-12
3.03448228184791e-12
-9.34399602737787e-12
3.45346631495389e-12
-1.04818801755495e-11
3.81091723370739e-12
-1.16014607612777e-11
3.97502915811517e-12
-1.14675972594292e-11
3.63306674313069e-12
-1.19986553507052e-11
1.91399008884407e-12
7.39957451618926e-12
6.92976528942434e-11
-1.81795955658192e-12
6.89952977179136e-11
-3.4613878563068e-12
6.13283372308591e-12
-4.09620113381449e-12
-1.2126212227933e-11
-4.25463495571101e-12
-1.33402837181507e-11
-4.18640572164179e-12
-1.39439655621091e-11
-4.02299810378461e-12
-1.28919561276174e-11
-3.82703915956752e-12
-1.17211691310673e-11
-3.62725154884292e-12
-1.07180941888267e-11
-3.43616882737031e-12
-9.88064896326804e-12
-3.25849242004318e-12
-9.1761276100742e-12
-3.09531162095673e-12
-8.57647001895296e-12
-2.94590561585929e-12
-8.06058592834593e-12
-2.80887615190795e-12
-7.61284479880589e-12
-2.68240779080114e-12
-7.22153640822527e-12
-2.56471286851456e-12
-6.87778958681725e-12
-2.45392475312364e-12
-6.5747756820956e-12
-2.34839548380165e-12
-6.3072081266872e-12
-2.2464706194685e-12
-6.07092585659365e-12
-2.14675916943272e-12
-5.86267404406515e-12
-2.04786591396054e-12
-5.67986785539909e-12
-1.94864936190027e-12
-5.52050694996453e-12
-1.84793409672796e-12
-5.38303921316753e-12
-1.74477079271861e-12
-5.26632609264158e-12
-1.638134654429e-12
-5.16955998758795e-12
-1.5271859592056e-12
-5.09228045351713e-12
-1.41097197147369e-12
-5.03428840342801e-12
-1.28867455865251e-12
-4.99572449536447e-12
-1.15932734561182e-12
-4.97697204122022e-12
-1.02205676136666e-12
-4.9787715279422e-12
-8.75810086947262e-13
-5.00214719581982e-12
-7.19591241276552e-13
-5.04853045577079e-12
-5.52211547381195e-13
-5.11972870652684e-12
-3.72515136755589e-13
-5.21807343172306e-12
-1.79158457509535e-13
-5.34643549928325e-12
2.91718779347276e-14
-5.50844882622672e-12
2.53939615836562e-13
-5.70859994124251e-12
4.96529284739832e-13
-5.95284809937485e-12
7.58391365225124e-13
-6.24791230635558e-12
1.04068117451835e-12
-6.6030007801501e-12
1.34422501252824e-12
-7.03060161975531e-12
1.66896204934886e-12
-7.54637865280521e-12
2.01316670296447e-12
-8.171382191875e-12
2.37146469308599e-12
-8.93334680028405e-12
2.7310883800948e-12
-9.86456912725765e-12
3.06377970443502e-12
-1.09706736357117e-11
3.30977371632242e-12
-1.20020976981208e-11
3.34831963370377e-12
-1.16671018323897e-11
2.94679391461047e-12
-1.17740486510499e-11
1.5600393848181e-12
8.57449593477848e-12
7.0721616290623e-11
-1.53515727578827e-12
7.00789725857697e-11
-2.92969948181462e-12
6.95018591258469e-12
-3.55703623750871e-12
-1.19575916256201e-11
-3.7881310839515e-12
-1.35341469253416e-11
-3.80285508914194e-12
-1.43425694046408e-11
-3.71108753656392e-12
-1.33927514768453e-11
-3.57194202107436e-12
-1.22660787716357e-11
-3.41608628475317e-12
-1.12753238858846e-11
-3.25899214851611e-12
-1.0433213282658e-11
-3.10793287956184e-12
-9.7152993997507e-12
-2.965959786653e-12
-9.09811160574778e-12
-2.83376853596294e-12
-8.56313422698372e-12
-2.71097109726187e-12
-8.09617537202171e-12
-2.59647964580889e-12
-7.68632943320312e-12
-2.4890317009908e-12
-7.32516597193958e-12
-2.38715052641009e-12
-7.00607719503548e-12
-2.28947784721089e-12
-6.7238731243252e-12
-2.19458457130329e-12
-6.47441531113044e-12
-2.10125566313489e-12
-6.25442878574067e-12
-2.00824047697652e-12
-6.06128634196118e-12
-1.91451000563945e-12
-5.89294854172667e-12
-1.81899243967567e-12
-5.74780912255159e-12
-1.72082512964859e-12
-5.62469144389921e-12
-1.61906441915435e-12
-5.52275695407168e-12
-1.51294703317659e-12
-5.44152271481823e-12
-1.40159306252237e-12
-5.38078221753122e-12
-1.28425778726081e-12
-5.34068489181538e-12
-1.1600524604956e-12
-5.32162748553582e-12
-1.02818642274156e-12
-5.32438455516649e-12
-8.87697309360003e-13
-5.35002187268042e-12
-7.37695147456476e-13
-5.4000231215174e-12
-5.77113967062604e-13
-5.47624946946436e-12
-4.04945875886315e-13
-5.58109416597996e-12
-2.20025548557348e-13
-5.71747483783566e-12
-2.12719393164392e-14
-5.88905231680672e-12
1.92487670329909e-13
-6.10029663659988e-12
4.22231457849123e-13
-6.35705562242826e-12
6.68915279648331e-13
-6.66589139642618e-12
9.32984865241535e-13
-7.03551080246111e-12
1.2142597725532e-12
-7.47754951966625e-12
1.51134078084946e-12
-8.00630429574829e-12
1.82065758951388e-12
-8.64026256221098e-12
2.13443791432848e-12
-9.40269492393464e-12
2.43718128447904e-12
-1.03180447507575e-11
2.69860008753461e-12
-1.13781410047389e-11
2.86131555939036e-12
-1.23092742567226e-11
2.82210861410407e-12
-1.17782794228281e-11
2.41321673105363e-12
-1.15305334869297e-11
1.27662050259186e-12
9.51361721489063e-12
7.18701425987455e-11
-1.30694920294201e-12
7.09586541043628e-11
-2.50490862201766e-12
7.60439073597203e-12
-3.10142088112465e-12
-1.1791784038221e-11
-3.37222760606339e-12
-1.36626765231449e-11
-3.44600013294945e-12
-1.46574640761374e-11
-3.41119303993325e-12
-1.38119512106699e-11
-3.32050525050378e-12
-1.27377617342455e-11
-3.20404585301046e-12
-1.17683148993935e-11
-3.07858605198801e-12
-1.09293297248251e-11
-2.95301289984151e-12
-1.020429395631e-11
-2.83179533376839e-12
-9.57449989723779e-12
-2.71674891864379e-12
-9.02428290855199e-12
-2.60832817519866e-12
-8.54114793060019e-12
-2.50607443324612e-12
-8.11519584843891e-12
-2.40919423190586e-12
-7.73858811482927e-12
-2.31656707125702e-12
-7.40504534045475e-12
-2.22710671554281e-12
-7.10955428778009e-12
-2.13959943534164e-12
-6.84805435770837e-12
-2.05299931462101e-12
-6.61729357387494e-12
-1.96619323514792e-12
-6.41463439858319e-12
-1.87827194897309e-12
-6.23801345581212e-12
-1.78826774861948e-12
-6.0857866835129e-12
-1.69540512045221e-12
-5.95675456374801e-12
-1.598825679876e-12
-5.85005008635543e-12
-1.49784287238483e-12
-5.76517470800419e-12
-1.3916523664378e-12
-5.70191713303177e-12
-1.27958889021503e-12
-5.66042977875091e-12
-1.16084320713114e-12
-5.64112457738426e-12
-1.03470960368687e-12
-5.64480264881748e-12
-9.00321942876988e-13
-5.6725618353478e-12
-7.56894508671027e-13
-5.72592791989554e-12
-6.03482390656323e-13
-5.80680087666588e-12
-4.39224464643517e-13
-5.91760792428509e-12
-2.63128270984176e-13
-6.06128873660211e-12
-7.43320364852123e-14
-6.24148279487646e-12
1.28066341964213e-13
-6.46259417386595e-12
3.44651508839825e-13
-6.73023545628446e-12
5.75978874248631e-13
-7.0508084587221e-12
8.21874217343723e-13
-7.43230174355627e-12
1.08128519370337e-12
-7.8852551944373e-12
1.35179272427332e-12
-8.42245972766439e-12
1.6284847493449e-12
-9.05953329616786e-12
1.90208804946068e-12
-9.81513127433252e-12
2.15589117994999e-12
-1.07061244424076e-11
2.3600123076598e-12
-1.17120841965448e-11
2.46253814196966e-12
-1.25401240854396e-11
2.37901525654684e-12
-1.18284407828471e-11
1.99068455927867e-12
-1.12894686903423e-11
1.04949817029339e-12
1.02789543753762e-11
7.28079550961863e-11
-1.11995788108583e-12
7.1671969462727e-11
-2.15781079297409e-12
8.1253933915623e-12
-2.71330587513186e-12
-1.16467132976339e-11
-3.00187871460382e-12
-1.37548827250089e-11
-3.11589725971777e-12
-1.49137522304652e-11
-3.12517437786577e-12
-1.41686761293943e-11
-3.07491376848138e-12
-1.31505227887451e-11
-2.9930967275268e-12
-1.22081180771319e-11
-2.89657027780145e-12
-1.13780110669627e-11
-2.79503044148426e-12
-1.06508840356997e-11
-2.69386086751162e-12
-1.00126645382285e-11
-2.59569587668665e-12
-9.45061256485716e-12
-2.50165057018521e-12
-8.95407049720585e-12
-2.41178541392237e-12
-8.51427595637436e-12
-2.32571264929964e-12
-8.12408645175467e-12
-2.24262554381619e-12
-7.77763977418774e-12
-2.16168450155064e-12
-7.4701618092916e-12
-2.0818754047612e-12
-7.19771675302039e-12
-2.00231467405966e-12
-6.95710989651453e-12
-1.92202581590685e-12
-6.74572047162412e-12
-1.84021530509378e-12
-6.56147932293158e-12
-1.75601628484508e-12
-6.40272128076936e-12
-1.6687440591615e-12
-6.26823145249606e-12
-1.5776275230941e-12
-6.15712013827709e-12
-1.48205855798523e-12
-6.06887961690281e-12
-1.38131409429685e-12
-6.00329321896121e-12
-1.27481018237881e-12
-5.96051391271055e-12
-1.16181821716817e-12
-5.94097179525631e-12
-1.04171897170837e-12
-5.94548663262055e-12
-9.137436001294e-13
-5.97517955971166e-12
-7.77210569642431e-13
-6.03160934783071e-12
-6.31298294781555e-13
-6.11669719322549e-12