/*--------------------------------*- C++ -*----------------------------------*\
  =========                 |
  \\      /  F ield         | OpenFOAM: The Open Source CFD Toolbox
   \\    /   O peration     | Website:  https://openfoam.org
    \\  /    A nd           | Version:  10
     \\/     M anipulation  |
\*---------------------------------------------------------------------------*/
FoamFile
{
    format      ascii;
    class       volScalarField;
    location    "0.8";
    object      rho;
}
// * * * * * * * * * * * * * * * * * * * * * * * * * * * * * * * * * * * * * //

dimensions      [1 -3 0 0 0 0 0];

internalField   nonuniform List<scalar> 
2500
(
1.14431131902335
1.14483822046486
1.14490153649717
1.14490644890845
1.1449068000802
1.14490683283438
1.14490683898967
1.14490684410055
1.144906849424
1.14490685182987
1.14490685574864
1.14490685839839
1.14490686000777
1.14490686212714
1.14490686407286
1.14490686631758
1.14490686736277
1.14490686884382
1.1449068704674
1.14490687147246
1.14490687292751
1.14490687805839
1.14490688153191
1.14490687893536
1.14490687661206
1.14490687984278
1.14490688110816
1.14490688115116
1.1449068826669
1.14490687925786
1.14490687859189
1.14490687824809
1.1449068776239
1.14490687674393
1.1449068740201
1.14490687315582
1.14490687218536
1.14490687138235
1.14490686987043
1.14490686841969
1.14490686668437
1.14490686471431
1.1449068623711
1.14490685991135
1.14490685091604
1.14490680660149
1.14490637034831
1.14490106726447
1.14483650659661
1.14431077308052
1.1559707519113
1.15643762547105
1.15668494627245
1.15670868969652
1.15671085863185
1.15671106690221
1.15671108759832
1.15671109053757
1.15671109165856
1.15671109210525
1.15671109279624
1.15671109331258
1.15671109347893
1.15671109364054
1.15671109384446
1.15671109410958
1.15671109413408
1.15671109424946
1.156711094434
1.15671109467587
1.15671109710869
1.15671110000194
1.15671110058372
1.15671109964036
1.15671109835287
1.15671109947355
1.15671109955175
1.15671110078019
1.156711101427
1.15671109906234
1.15671109803192
1.15671109856847
1.15671109733369
1.15671109420925
1.15671109331025
1.15671109302334
1.15671109275965
1.15671109254678
1.15671109224809
1.15671109195722
1.15671109159541
1.15671109114553
1.15671109008739
1.15671108461013
1.15671104470652
1.15671074330694
1.15670823742926
1.15668420189081
1.15643445703548
1.15594002249004
1.15998217134065
1.16018884823949
1.16030084602952
1.16031811280757
1.16031980587713
1.16031997370961
1.1603199906402
1.16031999250172
1.16031999278486
1.16031999284105
1.1603199932082
1.16031999404711
1.16031999397964
1.16031999363865
1.1603199938647
1.16031999383306
1.16031999330781
1.1603199928282
1.16031999281479
1.16031999329626
1.16031999424196
1.16031999458863
1.16031999473745
1.16031999478233
1.16031999391581
1.1603199942379
1.1603199948837
1.16031999470176
1.16031999449768
1.16031999404382
1.16031999332309
1.16031999356872
1.16031999350871
1.16031999236042
1.16031999185419
1.16031999173606
1.16031999164619
1.16031999158334
1.16031999151811
1.16031999145496
1.16031999138071
1.16031999126958
1.16031999081105
1.16031998762863
1.16031996333423
1.16031977081577
1.16031808135553
1.16030140475168
1.16018817081819
1.15995529548922
1.16107516505392
1.16114119485408
1.16116514567135
1.1611707411348
1.16117135208351
1.16117141500871
1.16117142149018
1.16117142215818
1.16117142223913
1.16117142224085
1.16117142230232
1.16117142262282
1.16117142264258
1.16117142249486
1.16117142254443
1.16117142243874
1.16117142233927
1.16117142244674
1.16117142243843
1.16117142250382
1.16117142257841
1.16117142260356
1.16117142267091
1.16117142259514
1.16117142240344
1.16117142251225
1.16117142258731
1.16117142250562
1.16117142246236
1.16117142236601
1.16117142221089
1.16117142220883
1.1611714221445
1.16117142196714
1.16117142183563
1.1611714217432
1.1611714216618
1.16117142163476
1.16117142161194
1.16117142158989
1.16117142156654
1.16117142153485
1.16117142141527
1.16117142057168
1.16117141387324
1.16117135682994
1.16117081471169
1.16116542565222
1.16114110526998
1.1610634999551
1.16133461926456
1.16135220406841
1.1613565572439
1.16135799346205
1.16135816837159
1.16135818730024
1.16135818930301
1.16135818951392
1.16135818954447
1.16135818955052
1.16135818957415
1.16135818966018
1.16135818966549
1.16135818962466
1.16135818963029
1.16135818959818
1.16135818958837
1.16135818964265
1.16135818961327
1.161358189618
1.16135818962374
1.16135818960297
1.16135818961595
1.16135818960951
1.16135818958327
1.16135818956442
1.16135818954719
1.16135818955302
1.16135818954823
1.16135818951034
1.16135818948318
1.16135818946654
1.16135818943698
1.16135818941077
1.16135818937915
1.16135818932591
1.16135818928726
1.16135818927035
1.161358189255
1.16135818923936
1.16135818922276
1.16135818920345
1.16135818916269
1.16135818894759
1.16135818729096
1.16135817266183
1.16135802865197
1.16135663581522
1.16135223403383
1.1613308713122
1.16139081429375
1.1613949791349
1.1613957194712
1.161396043512
1.16139608711767
1.16139609209891
1.16139609265007
1.16139609271955
1.16139609273703
1.16139609274544
1.16139609275869
1.16139609278146
1.16139609278587
1.16139609277704
1.16139609277436
1.16139609277205
1.16139609277022
1.16139609277567
1.16139609276991
1.16139609277303
1.16139609276852
1.16139609275484
1.16139609275182
1.16139609274853
1.16139609273794
1.16139609272682
1.16139609271649
1.16139609271336
1.16139609270599
1.16139609269116
1.1613960926814
1.16139609266828
1.16139609265411
1.16139609264378
1.16139609262953
1.1613960926061
1.16139609258672
1.16139609257292
1.16139609255897
1.16139609254415
1.16139609252818
1.1613960925105
1.16139609248675
1.16139609242251
1.16139609202826
1.161396088599
1.16139605451854
1.16139573531667
1.16139500192759
1.16138980206473
1.16140219840036
1.16140310658505
1.16140323043299
1.16140329775245
1.16140330766608
1.16140330887313
1.16140330902243
1.16140330905201
1.16140330906578
1.16140330907514
1.16140330908455
1.16140330909379
1.16140330909805
1.16140330909796
1.16140330909762
1.16140330909821
1.1614033090968
1.16140330909684
1.16140330909449
1.16140330909055
1.16140330908542
1.16140330907891
1.16140330907363
1.16140330906852
1.16140330906136
1.16140330905379
1.16140330904558
1.16140330903933
1.16140330903116
1.16140330902185
1.16140330901333
1.16140330900363
1.16140330899323
1.16140330898327
1.16140330897227
1.16140330895836
1.16140330894491
1.16140330893217
1.16140330891869
1.16140330890422
1.16140330888855
1.16140330887139
1.16140330885164
1.16140330882181
1.16140330871973
1.1614033079575
1.16140330052094
1.16140323297246
1.16140311548599
1.16140195458507
1.16140437604764
1.16140456224836
1.1614045832198
1.1614045964379
1.16140459855811
1.16140459884361
1.16140459889151
1.1614045989098
1.16140459892238
1.16140459893212
1.16140459894011
1.16140459894629
1.16140459895015
1.16140459895205
1.16140459895278
1.16140459895291
1.16140459895166
1.16140459895006
1.16140459894742
1.16140459894351
1.16140459893885
1.16140459893358
1.16140459892793
1.16140459892207
1.16140459891566
1.16140459890876
1.16140459890152
1.16140459889418
1.16140459888624
1.16140459887806
1.1614045988696
1.16140459886067
1.16140459885107
1.16140459884134
1.16140459883115
1.16140459881983
1.16140459880813
1.16140459879588
1.16140459878274
1.16140459876864
1.16140459875343
1.16140459873686
1.16140459871856
1.16140459869682
1.16140459865887
1.16140459848443
1.16140459694656
1.16140458345749
1.16140456487188
1.16140432183039
1.16140475866999
1.16140479506514
1.16140479871315
1.16140480121521
1.16140480165907
1.16140480173444
1.1614048017576
1.16140480177227
1.1614048017838
1.16140480179299
1.16140480180022
1.16140480180561
1.16140480180924
1.16140480181135
1.16140480181218
1.16140480181195
1.1614048018106
1.16140480180847
1.1614048018055
1.16140480180165
1.16140480179715
1.1614048017921
1.16140480178653
1.16140480178057
1.16140480177424
1.16140480176753
1.16140480176044
1.16140480175304
1.16140480174531
1.16140480173727
1.16140480172893
1.16140480172025
1.16140480171109
1.16140480170161
1.16140480169166
1.16140480168108
1.16140480166993
1.1614048016581
1.16140480164545
1.16140480163187
1.16140480161723
1.16140480160136
1.16140480158405
1.16140480156485
1.16140480154115
1.1614048014895
1.16140480117239
1.1614047985859
1.16140479562331
1.16140474720939
1.16140480519031
1.16140481204067
1.16140481270064
1.1614048131719
1.16140481327292
1.16140481330176
1.16140481331827
1.16140481333121
1.16140481334178
1.16140481335025
1.16140481335684
1.16140481336171
1.161404813365
1.16140481336688
1.16140481336749
1.16140481336701
1.1614048133655
1.16140481336313
1.16140481335997
1.16140481335609
1.16140481335159
1.16140481334655
1.16140481334102
1.16140481333507
1.16140481332876
1.16140481332208
1.16140481331508
1.16140481330777
1.16140481330016
1.16140481329226
1.16140481328407
1.16140481327556
1.16140481326667
1.16140481325741
1.16140481324772
1.16140481323751
1.16140481322675
1.16140481321533
1.16140481320316
1.16140481319013
1.16140481317613
1.16140481316102
1.16140481314468
1.16140481312692
1.16140481310721
1.16140481308121
1.16140481300508
1.16140481251411
1.16140481202437
1.16140480275195
1.16140479077526
1.16140479202807
1.16140479215822
1.16140479225574
1.16140479228805
1.16140479230583
1.16140479231974
1.16140479233137
1.16140479234098
1.16140479234869
1.16140479235465
1.16140479235899
1.16140479236186
1.1614047923634
1.16140479236374
1.16140479236301
1.16140479236132
1.16140479235878
1.16140479235549
1.16140479235153
1.16140479234698
1.16140479234191
1.16140479233638
1.16140479233045
1.16140479232416
1.16140479231754
1.16140479231061
1.1614047923034
1.16140479229592
1.16140479228816
1.16140479228012
1.16140479227179
1.16140479226314
1.16140479225413
1.16140479224472
1.16140479223485
1.16140479222445
1.16140479221346
1.16140479220179
1.16140479218934
1.16140479217601
1.16140479216171
1.16140479214635
1.16140479212985
1.16140479211212
1.16140479209249
1.16140479206348
1.16140479196152
1.16140479186948
1.16140479014636
1.16140476559842
1.16140476582429
1.16140476585757
1.16140476588651
1.16140476590409
1.16140476591822
1.16140476593042
1.16140476594083
1.16140476594947
1.1614047659564
1.16140476596171
1.16140476596551
1.16140476596793
1.1614047659691
1.16140476596914
1.16140476596816
1.16140476596626
1.16140476596356
1.16140476596015
1.1614047659561
1.16140476595149
1.16140476594639
1.16140476594085
1.16140476593494
1.16140476592868
1.16140476592212
1.16140476591527
1.16140476590817
1.16140476590081
1.16140476589321
1.16140476588535
1.16140476587722
1.1614047658688
1.16140476586005
1.16140476585094
1.16140476584142
1.16140476583142
1.16140476582089
1.16140476580973
1.16140476579789
1.16140476578527
1.1614047657718
1.16140476575744
1.16140476574216
1.161404765726
1.16140476570903
1.16140476569034
1.16140476565988
1.16140476563419
1.16140476531899
1.16140473856104
1.16140473860307
1.16140473861747
1.16140473863271
1.16140473864597
1.16140473865803
1.16140473866875
1.16140473867799
1.16140473868566
1.16140473869178
1.16140473869642
1.16140473869967
1.16140473870163
1.16140473870241
1.16140473870213
1.16140473870088
1.16140473869878
1.16140473869591
1.16140473869236
1.16140473868822
1.16140473868355
1.16140473867842
1.16140473867287
1.16140473866698
1.16140473866076
1.16140473865427
1.16140473864751
1.16140473864052
1.1614047386333
1.16140473862586
1.16140473861819
1.16140473861027
1.1614047386021
1.16140473859364
1.16140473858485
1.16140473857569
1.16140473856611
1.16140473855605
1.16140473854544
1.16140473853423
1.16140473852234
1.16140473850973
1.16140473849637
1.16140473848229
1.16140473846759
1.16140473845248
1.16140473843724
1.16140473842096
1.16140473840758
1.16140473834814
1.16140471120695
1.16140471121641
1.1614047112263
1.16140471123767
1.16140471124872
1.1614047112591
1.16140471126846
1.16140471127654
1.16140471128325
1.16140471128857
1.16140471129253
1.16140471129521
1.16140471129669
1.16140471129708
1.16140471129646
1.16140471129495
1.16140471129262
1.16140471128958
1.1614047112859
1.16140471128166
1.16140471127692
1.16140471127176
1.16140471126621
1.16140471126034
1.16140471125417
1.16140471124775
1.16140471124109
1.16140471123422
1.16140471122714
1.16140471121987
1.1614047112124
1.16140471120472
1.16140471119681
1.16140471118864
1.1614047111802
1.16140471117142
1.16140471116228
1.16140471115272
1.16140471114268
1.16140471113211
1.16140471112097
1.16140471110922
1.16140471109687
1.16140471108397
1.16140471107065
1.16140471105717
1.16140471104397
1.1614047110316
1.1614047110214
1.16140471100774
1.16140468379898
1.16140468380245
1.16140468381061
1.16140468382003
1.16140468382938
1.16140468383828
1.16140468384634
1.16140468385331
1.16140468385907
1.16140468386358
1.16140468386686
1.16140468386896
1.16140468386996
1.16140468386994
1.16140468386898
1.16140468386719
1.16140468386464
1.16140468386141
1.16140468385759
1.16140468385325
1.16140468384845
1.16140468384325
1.16140468383771
1.16140468383186
1.16140468382574
1.16140468381939
1.16140468381284
1.16140468380609
1.16140468379918
1.16140468379209
1.16140468378483
1.16140468377739
1.16140468376975
1.1614046837619
1.16140468375381
1.16140468374544
1.16140468373675
1.1614046837277
1.16140468371824
1.16140468370834
1.16140468369796
1.16140468368709
1.16140468367573
1.16140468366398
1.16140468365197
1.16140468363998
1.16140468362844
1.16140468361802
1.16140468360928
1.16140468360399
1.16140465638125
1.16140465638335
1.16140465639042
1.16140465639836
1.16140465640626
1.16140465641379
1.16140465642063
1.16140465642653
1.16140465643136
1.16140465643507
1.16140465643767
1.16140465643918
1.16140465643968
1.16140465643924
1.16140465643794
1.16140465643586
1.16140465643307
1.16140465642967
1.16140465642571
1.16140465642127
1.1614046564164
1.16140465641117
1.16140465640562
1.1614046563998
1.16140465639374
1.16140465638747
1.16140465638102
1.16140465637442
1.16140465636766
1.16140465636076
1.16140465635373
1.16140465634654
1.16140465633919
1.16140465633167
1.16140465632395
1.16140465631599
1.16140465630778
1.16140465629926
1.1614046562904
1.16140465628118
1.16140465627156
1.16140465626156
1.16140465625119
1.16140465624055
1.16140465622979
1.16140465621917
1.16140465620908
1.16140465620012
1.16140465619242
1.16140465618893
1.16140462896118
1.16140462896275
1.16140462896894
1.16140462897563
1.16140462898221
1.1614046289885
1.16140462899419
1.16140462899906
1.16140462900298
1.1614046290059
1.16140462900781
1.16140462900873
1.16140462900873
1.16140462900787
1.16140462900621
1.16140462900384
1.16140462900082
1.16140462899722
1.16140462899312
1.16140462898857
1.16140462898364
1.16140462897838
1.16140462897283
1.16140462896703
1.16140462896103
1.16140462895485
1.16140462894852
1.16140462894206
1.16140462893547
1.16140462892877
1.16140462892197
1.16140462891504
1.161404628908
1.16140462890081
1.16140462889347
1.16140462888595
1.16140462887821
1.16140462887024
1.161404628862
1.16140462885346
1.16140462884462
1.16140462883548
1.16140462882608
1.16140462881652
1.16140462880694
1.16140462879758
1.1614046287888
1.16140462878109
1.16140462877425
1.16140462877137
1.16140460154006
1.16140460154127
1.1614046015467
1.16140460155228
1.16140460155768
1.16140460156281
1.16140460156741
1.16140460157129
1.16140460157432
1.16140460157646
1.16140460157769
1.16140460157803
1.16140460157752
1.16140460157623
1.16140460157421
1.16140460157154
1.16140460156828
1.16140460156449
1.16140460156024
1.16140460155559
1.16140460155059
1.1614046015453
1.16140460153975
1.16140460153399
1.16140460152805
1.16140460152196
1.16140460151575
1.16140460150943
1.16140460150302
1.16140460149653
1.16140460148996
1.16140460148332
1.16140460147658
1.16140460146975
1.1614046014628
1.16140460145572
1.16140460144848
1.16140460144106
1.16140460143344
1.16140460142559
1.16140460141752
1.16140460140924
1.1614046014008
1.16140460139227
1.16140460138382
1.16140460137564
1.16140460136805
1.16140460136144
1.16140460135535
1.16140460135286
1.16140457411823
1.16140457411915
1.16140457412391
1.16140457412848
1.1614045741328
1.16140457413684
1.16140457414041
1.16140457414334
1.16140457414551
1.16140457414688
1.16140457414743
1.16140457414718
1.16140457414617
1.16140457414445
1.16140457414206
1.16140457413909
1.16140457413558
1.1614045741316
1.1614045741272
1.16140457412245
1.16140457411738
1.16140457411206
1.16140457410651
1.16140457410078
1.16140457409491
1.16140457408891
1.16140457408282
1.16140457407666
1.16140457407043
1.16140457406416
1.16140457405784
1.16140457405147
1.16140457404505
1.16140457403858
1.16140457403203
1.1614045740254
1.16140457401867
1.16140457401182
1.16140457400482
1.16140457399768
1.16140457399038
1.16140457398296
1.16140457397544
1.16140457396792
1.16140457396054
1.16140457395347
1.16140457394697
1.16140457394135
1.16140457393593
1.16140457393374
1.1614045466958
1.16140454669646
1.1614045467006
1.16140454670425
1.16140454670757
1.16140454671061
1.1614045467132
1.1614045467152
1.16140454671654
1.16140454671715
1.16140454671703
1.16140454671619
1.16140454671467
1.16140454671251
1.16140454670977
1.16140454670649
1.16140454670273
1.16140454669855
1.161404546694
1.16140454668914
1.16140454668401
1.16140454667865
1.16140454667311
1.16140454666742
1.16140454666161
1.16140454665571
1.16140454664975
1.16140454664375
1.16140454663771
1.16140454663165
1.16140454662558
1.16140454661951
1.16140454661342
1.16140454660731
1.16140454660118
1.16140454659501
1.16140454658879
1.16140454658251
1.16140454657615
1.1614045465697
1.16140454656318
1.1614045465566
1.16140454655
1.16140454654346
1.16140454653709
1.16140454653106
1.16140454652557
1.16140454652086
1.16140454651605
1.16140454651413
1.1614045192729
1.16140451927333
1.1614045192769
1.16140451927971
1.1614045192821
1.16140451928418
1.16140451928583
1.16140451928695
1.16140451928746
1.16140451928732
1.16140451928654
1.16140451928512
1.16140451928309
1.16140451928049
1.16140451927738
1.16140451927379
1.16140451926978
1.1614045192654
1.16140451926071
1.16140451925574
1.16140451925054
1.16140451924515
1.16140451923961
1.16140451923396
1.16140451922822
1.16140451922242
1.16140451921659
1.16140451921075
1.1614045192049
1.16140451919907
1.16140451919326
1.16140451918748
1.16140451918172
1.16140451917599
1.16140451917027
1.16140451916457
1.16140451915887
1.16140451915317
1.16140451914745
1.16140451914171
1.16140451913596
1.16140451913021
1.16140451912451
1.16140451911891
1.16140451911353
1.16140451910849
1.16140451910395
1.16140451910008
1.16140451909582
1.16140451909415
1.16140449184962
1.16140449184982
1.16140449185287
1.16140449185488
1.16140449185638
1.16140449185755
1.1614044918583
1.16140449185856
1.16140449185826
1.16140449185739
1.16140449185595
1.16140449185395
1.16140449185141
1.16140449184837
1.16140449184489
1.16140449184099
1.16140449183673
1.16140449183215
1.1614044918273
1.16140449182222
1.16140449181696
1.16140449181154
1.16140449180601
1.16140449180039
1.16140449179473
1.16140449178903
1.16140449178334
1.16140449177766
1.16140449177201
1.16140449176641
1.16140449176086
1.16140449175537
1.16140449174995
1.1614044917446
1.16140449173931
1.16140449173409
1.16140449172891
1.16140449172379
1.16140449171871
1.16140449171368
1.16140449170869
1.16140449170378
1.16140449169896
1.16140449169429
1.16140449168986
1.16140449168576
1.16140449168211
1.16140449167903
1.1614044916753
1.16140449167385
1.16140446442605
1.16140446442606
1.1614044644286
1.16140446442986
1.16140446443052
1.16140446443081
1.16140446443069
1.1614044644301
1.16140446442901
1.16140446442742
1.16140446442532
1.16140446442274
1.16140446441969
1.16140446441622
1.16140446441236
1.16140446440815
1.16140446440364
1.16140446439886
1.16140446439386
1.16140446438867
1.16140446438333
1.16140446437789
1.16140446437236
1.16140446436679
1.16140446436119
1.1614044643556
1.16140446435004
1.16140446434453
1.16140446433908
1.16140446433371
1.16140446432843
1.16140446432325
1.16140446431817
1.1614044643132
1.16140446430834
1.16140446430359
1.16140446429895
1.16140446429441
1.16140446428998
1.16140446428565
1.16140446428143
1.16140446427734
1.16140446427339
1.16140446426964
1.16140446426612
1.16140446426293
1.16140446426015
1.16140446425782
1.16140446425458
1.16140446425335
1.16140443700227
1.16140443700208
1.16140443700413
1.16140443700467
1.16140443700452
1.16140443700396
1.16140443700298
1.16140443700156
1.1614044369997
1.16140443699738
1.16140443699463
1.16140443699147
1.16140443698792
1.16140443698401
1.16140443697977
1.16140443697525
1.16140443697049
1.16140443696551
1.16140443696035
1.16140443695505
1.16140443694965
1.16140443694418
1.16140443693866
1.16140443693312
1.1614044369276
1.16140443692212
1.1614044369167
1.16140443691135
1.16140443690611
1.16140443690097
1.16140443689596
1.16140443689108
1.16140443688635
1.16140443688177
1.16140443687735
1.16140443687308
1.16140443686897
1.16140443686502
1.16140443686123
1.16140443685761
1.16140443685415
1.16140443685088
1.1614044368478
1.16140443684493
1.16140443684233
1.16140443684003
1.16140443683807
1.16140443683647
1.16140443683371
1.16140443683268
1.16140440957837
1.16140440957799
1.16140440957959
1.16140440957941
1.16140440957846
1.16140440957707
1.16140440957525
1.16140440957302
1.16140440957038
1.16140440956735
1.16140440956395
1.16140440956021
1.16140440955615
1.1614044095518
1.16140440954719
1.16140440954236
1.16140440953734
1.16140440953216
1.16140440952685
1.16140440952144
1.16140440951597
1.16140440951047
1.16140440950496
1.16140440949947
1.16140440949402
1.16140440948865
1.16140440948336
1.16140440947819
1.16140440947314
1.16140440946824
1.1614044094635
1.16140440945894
1.16140440945455
1.16140440945036
1.16140440944637
1.16140440944258
1.16140440943901
1.16140440943565
1.16140440943251
1.16140440942959
1.1614044094269
1.16140440942444
1.16140440942222
1.16140440942024
1.16140440941853
1.1614044094171
1.16140440941597
1.16140440941506
1.16140440941277
1.16140440941195
1.16140438215444
1.16140438215388
1.16140438215501
1.16140438215413
1.16140438215239
1.16140438215017
1.16140438214752
1.16140438214447
1.16140438214106
1.16140438213732
1.16140438213328
1.16140438212896
1.16140438212439
1.1614043821196
1.16140438211462
1.16140438210948
1.1614043821042
1.16140438209882
1.16140438209336
1.16140438208784
1.16140438208231
1.16140438207677
1.16140438207127
1.16140438206582
1.16140438206045
1.16140438205519
1.16140438205004
1.16140438204504
1.1614043820402
1.16140438203553
1.16140438203107
1.16140438202681
1.16140438202277
1.16140438201897
1.16140438201541
1.16140438201211
1.16140438200907
1.1614043820063
1.16140438200381
1.1614043820016
1.16140438199967
1.16140438199802
1.16140438199666
1.16140438199557
1.16140438199475
1.16140438199418
1.16140438199386
1.16140438199366
1.16140438199182
1.1614043819912
1.16140435473061
1.16140435472986
1.16140435473052
1.16140435472893
1.1614043547264
1.16140435472335
1.16140435471986
1.161404354716
1.16140435471182
1.16140435470736
1.16140435470267
1.16140435469777
1.1614043546927
1.16140435468748
1.16140435468212
1.16140435467667
1.16140435467114
1.16140435466555
1.16140435465994
1.16140435465432
1.16140435464871
1.16140435464315
1.16140435463766
1.16140435463225
1.16140435462696
1.1614043546218
1.16140435461679
1.16140435461196
1.16140435460732
1.16140435460289
1.1614043545987
1.16140435459474
1.16140435459105
1.16140435458764
1.16140435458452
1.1614043545817
1.1614043545792
1.16140435457702
1.16140435457518
1.16140435457367
1.1614043545725
1.16140435457167
1.16140435457116
1.16140435457096
1.16140435457103
1.16140435457134
1.16140435457183
1.16140435457233
1.16140435457096
1.16140435457054
1.1614043273069
1.16140432730596
1.16140432730614
1.16140432730383
1.1614043273005
1.1614043272966
1.16140432729227
1.16140432728758
1.16140432728263
1.16140432727746
1.16140432727212
1.16140432726664
1.16140432726106
1.1614043272554
1.16140432724968
1.16140432724392
1.16140432723813
1.16140432723234
1.16140432722658
1.16140432722085
1.16140432721518
1.16140432720959
1.1614043272041
1.16140432719874
1.16140432719352
1.16140432718847
1.1614043271836
1.16140432717894
1.1614043271745
1.16140432717031
1.16140432716638
1.16140432716274
1.16140432715939
1.16140432715637
1.16140432715368
1.16140432715134
1.16140432714937
1.16140432714778
1.16140432714659
1.16140432714579
1.16140432714538
1.16140432714537
1.16140432714572
1.16140432714641
1.16140432714739
1.16140432714858
1.16140432714989
1.16140432715111
1.16140432715022
1.16140432715
1.16140429988344
1.1614042998823
1.16140429988199
1.16140429987894
1.16140429987478
1.16140429987002
1.16140429986482
1.1614042998593
1.16140429985356
1.16140429984767
1.16140429984168
1.16140429983562
1.16140429982954
1.16140429982344
1.16140429981735
1.16140429981128
1.16140429980524
1.16140429979925
1.16140429979333
1.1614042997875
1.16140429978176
1.16140429977615
1.16140429977067
1.16140429976535
1.1614042997602
1.16140429975525
1.16140429975052
1.16140429974603
1.16140429974179
1.16140429973783
1.16140429973418
1.16140429973083
1.16140429972783
1.16140429972519
1.16140429972294
1.16140429972108
1.16140429971964
1.16140429971864
1.16140429971808
1.16140429971799
1.16140429971835
1.16140429971916
1.16140429972039
1.16140429972198
1.16140429972387
1.16140429972597
1.16140429972813
1.1614042997301
1.16140429972969
1.16140429972969
1.16140427246028
1.16140427245893
1.1614042724581
1.16140427245427
1.16140427244925
1.16140427244359
1.16140427243751
1.16140427243114
1.1614042724246
1.16140427241798
1.16140427241134
1.16140427240471
1.16140427239811
1.16140427239158
1.16140427238512
1.16140427237874
1.16140427237245
1.16140427236627
1.1614042723602
1.16140427235426
1.16140427234846
1.16140427234282
1.16140427233735
1.16140427233207
1.16140427232699
1.16140427232215
1.16140427231756
1.16140427231323
1.16140427230919
1.16140427230546
1.16140427230207
1.16140427229903
1.16140427229637
1.16140427229411
1.16140427229228
1.16140427229089
1.16140427228998
1.16140427228956
1.16140427228965
1.16140427229026
1.16140427229139
1.16140427229303
1.16140427229514
1.16140427229766
1.16140427230049
1.16140427230352
1.16140427230657
1.16140427230931
1.16140427230942
1.16140427230964
1.16140424503755
1.16140424503597
1.16140424503458
1.16140424502994
1.161404245024
1.16140424501741
1.1614042450104
1.16140424500316
1.16140424499581
1.16140424498846
1.16140424498115
1.16140424497394
1.16140424496685
1.16140424495988
1.16140424495305
1.16140424494637
1.16140424493983
1.16140424493346
1.16140424492724
1.16140424492119
1.16140424491533
1.16140424490966
1.16140424490419
1.16140424489896
1.16140424489396
1.16140424488922
1.16140424488476
1.16140424488059
1.16140424487675
1.16140424487325
1.16140424487011
1.16140424486737
1.16140424486504
1.16140424486316
1.16140424486175
1.16140424486083
1.16140424486044
1.1614042448606
1.16140424486133
1.16140424486265
1.16140424486455
1.16140424486702
1.16140424487002
1.16140424487349
1.1614042448773
1.1614042448813
1.16140424488529
1.16140424488885
1.1614042448895
1.16140424488997
1.1614042176153
1.16140421761347
1.16140421761149
1.16140421760596
1.16140421759905
1.16140421759147
1.16140421758351
1.16140421757536
1.16140421756719
1.16140421755908
1.16140421755111
1.16140421754332
1.16140421753572
1.16140421752833
1.16140421752113
1.16140421751415
1.16140421750737
1.1614042175008
1.16140421749444
1.16140421748829
1.16140421748236
1.16140421747666
1.16140421747121
1.16140421746601
1.16140421746108
1.16140421745644
1.16140421745211
1.16140421744811
1.16140421744446
1.16140421744118
1.1614042174383
1.16140421743585
1.16140421743385
1.16140421743234
1.16140421743134
1.16140421743088
1.16140421743101
1.16140421743174
1.16140421743311
1.16140421743513
1.1614042174378
1.16140421744112
1.16140421744503
1.16140421744947
1.16140421745429
1.16140421745932
1.1614042174643
1.16140421746875
1.16140421746999
1.16140421747072
1.16140419019367
1.16140419019156
1.16140419018892
1.16140419018242
1.16140419017447
1.16140419016584
1.16140419015687
1.16140419014779
1.16140419013877
1.1614041901299
1.16140419012127
1.16140419011289
1.16140419010479
1.16140419009697
1.16140419008942
1.16140419008214
1.16140419007512
1.16140419006836
1.16140419006185
1.1614041900556
1.16140419004961
1.16140419004389
1.16140419003844
1.16140419003328
1.16140419002842
1.16140419002388
1.16140419001968
1.16140419001583
1.16140419001237
1.16140419000931
1.16140419000668
1.16140419000451
1.16140419000283
1.16140419000168
1.16140419000108
1.16140419000109
1.16140419000172
1.16140419000302
1.16140419000502
1.16140419000773
1.16140419001118
1.16140419001535
1.16140419002019
1.16140419002563
1.16140419003151
1.16140419003762
1.16140419004367
1.16140419004909
1.16140419005099
1.16140419005201
1.16140416277273
1.1614041627703
1.16140416276693
1.16140416275936
1.16140416275027
1.16140416274052
1.16140416273049
1.16140416272044
1.16140416271054
1.16140416270091
1.1614041626916
1.16140416268264
1.16140416267404
1.1614041626658
1.1614041626579
1.16140416265032
1.16140416264307
1.16140416263612
1.16140416262948
1.16140416262313
1.16140416261708
1.16140416261133
1.16140416260589
1.16140416260077
1.16140416259598
1.16140416259153
1.16140416258745
1.16140416258376
1.16140416258048
1.16140416257763
1.16140416257524
1.16140416257335
1.16140416257198
1.16140416257118
1.16140416257098
1.16140416257143
1.16140416257256
1.16140416257442
1.16140416257704
1.16140416258045
1.16140416258467
1.1614041625897
1.16140416259549
1.16140416260196
1.16140416260895
1.16140416261623
1.16140416262344
1.16140416262993
1.16140416263255
1.1614041626339
1.16140413535261
1.16140413534982
1.16140413534563
1.16140413533686
1.16140413532652
1.16140413531555
1.1614041353044
1.16140413529334
1.16140413528255
1.16140413527214
1.16140413526215
1.16140413525262
1.16140413524352
1.16140413523486
1.16140413522661
1.16140413521875
1.16140413521127
1.16140413520414
1.16140413519736
1.16140413519091
1.16140413518481
1.16140413517903
1.1614041351736
1.16140413516852
1.16140413516379
1.16140413515944
1.16140413515548
1.16140413515193
1.16140413514882
1.16140413514618
1.16140413514403
1.1614041351424
1.16140413514134
1.16140413514088
1.16140413514107
1.16140413514195