/*--------------------------------*- C++ -*----------------------------------*\
  =========                 |
  \\      /  F ield         | OpenFOAM: The Open Source CFD Toolbox
   \\    /   O peration     | Website:  https://openfoam.org
    \\  /    A nd           | Version:  10
     \\/     M anipulation  |
\*---------------------------------------------------------------------------*/
FoamFile
{
    format      ascii;
    class       volScalarField;
    location    "0.8";
    object      T;
}
// * * * * * * * * * * * * * * * * * * * * * * * * * * * * * * * * * * * * * //

dimensions      [0 0 0 1 0 0 0];

internalField   nonuniform List<scalar> 
2500
(
304.481406728396
304.341271924664
304.324441069561
304.323135324508
304.323041989398
304.323033290419
304.323031660399
304.323030306929
304.32302889603
304.323028259837
304.323027220811
304.323026518483
304.323026092158
304.323025529803
304.323025013194
304.323024416738
304.323024138804
304.323023744731
304.32302331252
304.323023044491
304.323022656654
304.323021291583
304.323020366891
304.323021055518
304.323021671385
304.323020810843
304.323020472588
304.323020459139
304.323020054124
304.323020958041
304.32302113272
304.323021221647
304.323021384974
304.323021616146
304.323022337267
304.323022563921
304.323022818583
304.323023028488
304.323023426531
304.323023807969
304.323024264641
304.323024783223
304.323025400414
304.323026047884
304.323028431717
304.323040202663
304.323156152317
304.324565741238
304.341727481478
304.481551938831
301.41031805243
301.288633572962
301.224212452452
301.218029320429
301.217464518382
301.217410290204
301.217404906771
301.217404146319
301.217403858442
301.217403745368
301.217403567989
301.217403435489
301.217403393599
301.217403352482
301.217403299938
301.217403231096
301.217403224594
301.217403194145
301.217403145438
301.217403081582
301.217402446988
301.21740169232
301.217401539424
301.217401783548
301.21740211716
301.217401823544
301.217401801293
301.217401479403
301.217401308871
301.217401922447
301.217402188466
301.217402046317
301.21740236531
301.217403176247
301.217403407499
301.217403479176
301.217403544596
301.217403596535
301.217403670535
301.21740374216
301.217403831859
301.217403944016
301.217404213996
301.217405634072
301.217416018234
301.217494497238
301.218147041865
301.224406250968
301.28945899897
301.418330666746
300.367981855424
300.314474083108
300.285486308172
300.281017750171
300.280579606762
300.280536180396
300.280531804844
300.280531327974
300.280531258671
300.280531247319
300.280531154814
300.280530939633
300.280530958491
300.280531047677
300.280530989714
300.280530998083
300.280531133878
300.280531257583
300.280531260393
300.280531134915
300.280530889106
300.280530798148
300.28053075824
300.280530745094
300.280530967684
300.280530882557
300.280530713548
300.280530758647
300.280530809375
300.280530924641
300.280531108861
300.280531042885
300.280531055879
300.280531350372
300.280531478548
300.280531506107
300.280531526145
300.280531538953
300.280531552091
300.280531564359
300.280531579108
300.280531602932
300.280531716104
300.28053253352
300.280538813707
300.280588627779
300.281025836598
300.285341657736
300.314649379636
300.374941246799
300.085219347914
300.068154616786
300.061965264841
300.060519335139
300.060361467692
300.06034521421
300.060343545135
300.060343377272
300.060343360224
300.060343362887
300.060343349447
300.060343268488
300.060343264734
300.06034330381
300.060343291505
300.060343318969
300.060343344515
300.060343316312
300.060343317785
300.060343299998
300.060343279643
300.060343271897
300.060343253092
300.060343271137
300.060343319017
300.060343289129
300.060343267856
300.060343286986
300.060343296087
300.060343318806
300.060343356607
300.060343354746
300.060343368851
300.06034341203
300.060343443209
300.060343464113
300.060343481965
300.060343485533
300.060343487734
300.060343489416
300.060343491051
300.060343494389
300.0603435199
300.060343731849
300.060345455952
300.060360188704
300.060500269062
300.061892860665
300.068177713984
300.088234222902
300.018170120193
300.013627350498
300.012502805689
300.012131800519
300.012086625119
300.012081742226
300.012081230474
300.012081180587
300.012081176435
300.012081177871
300.012081174124
300.012081153692
300.012081153613
300.012081165013
300.012081164022
300.012081172436
300.012081174784
300.012081160308
300.012081167203
300.012081165078
300.012081162505
300.012081166612
300.012081161856
300.012081161981
300.012081167102
300.012081170206
300.012081172785
300.012081169308
300.012081168478
300.012081176102
300.012081180851
300.012081182775
300.012081187916
300.012081192063
300.012081197459
300.01208120827
300.012081215115
300.012081216116
300.012081216448
300.012081216546
300.012081216525
300.01208121677
300.012081222044
300.012081271731
300.012081693031
300.012085464479
300.012122657167
300.012482455535
300.013619556107
300.019138312332
300.003646371638
300.002570542092
300.002379314183
300.002295620924
300.002284365244
300.002283085101
300.002282948093
300.002282934542
300.002282933605
300.002282934304
300.002282933134
300.002282928958
300.002282929041
300.002282932118
300.002282933223
300.002282933899
300.002282934153
300.002282932265
300.002282933038
300.002282931311
300.002282931373
300.002282933643
300.002282933011
300.002282932323
300.002282933404
300.002282934512
300.002282935319
300.002282934168
300.002282934019
300.002282935701
300.002282935979
300.002282937018
300.002282938214
300.002282938294
300.002282939239
300.002282942394
300.002282944317
300.002282944579
300.002282944625
300.002282944598
300.002282944522
300.002282944479
300.002282945519
300.002282956439
300.002283051888
300.002283930383
300.002292725147
300.002375168331
300.002564601263
300.003907791322
300.000698647456
300.000464058524
300.000432075283
300.000414694945
300.000412141596
300.00041183592
300.000411802403
300.000411798921
300.000411798758
300.000411799063
300.000411798766
300.000411797988
300.000411798028
300.000411798781
300.000411799227
300.000411799111
300.00041179922
300.000411798697
300.000411798566
300.000411798645
300.000411798853
300.000411799262
300.000411799213
300.000411798992
300.000411799191
300.00041179939
300.000411799658
300.000411799326
300.000411799401
300.00041179968
300.000411799661
300.000411799849
300.000411800108
300.00041180013
300.000411800285
300.000411801036
300.00041180149
300.000411801553
300.000411801563
300.000411801552
300.000411801524
300.000411801499
300.000411801695
300.000411803965
300.000411824258
300.000412014274
300.000413927306
300.000431366641
300.000461706327
300.000761573755
300.000129063972
300.000080969417
300.000075558421
300.000072151582
300.000071610533
300.000071542387
300.000071534706
300.000071533873
300.000071533809
300.000071533854
300.000071533789
300.000071533693
300.000071533748
300.000071533913
300.000071534025
300.000071533975
300.000071534002
300.000071533872
300.00007153379
300.000071533842
300.000071533915
300.000071533995
300.000071534037
300.000071534011
300.000071534019
300.000071534052
300.000071534083
300.000071534052
300.000071534089
300.000071534102
300.000071534097
300.000071534119
300.000071534211
300.000071534221
300.000071534223
300.000071534366
300.000071534441
300.000071534461
300.000071534485
300.000071534492
300.000071534485
300.000071534478
300.000071534514
300.000071534963
300.000071539049
300.000071577737
300.000071967864
300.000075444499
300.000080238954
300.000143015543
300.000023150172
300.000013751082
300.000012813641
300.000012173673
300.000012064848
300.000012050445
300.000012048771
300.000012048585
300.000012048568
300.000012048575
300.000012048561
300.000012048552
300.000012048569
300.0000120486
300.000012048621
300.000012048611
300.000012048617
300.00001204859
300.000012048566
300.000012048581
300.0000120486
300.000012048613
300.000012048631
300.000012048631
300.000012048626
300.000012048621
300.000012048627
300.000012048629
300.000012048637
300.000012048643
300.000012048641
300.000012048637
300.000012048661
300.000012048663
300.00001204866
300.000012048686
300.000012048697
300.000012048701
300.000012048709
300.000012048713
300.000012048711
300.00001204871
300.000012048716
300.000012048802
300.000012049587
300.000012057081
300.000012132645
300.000012794204
300.000013554377
300.000026057628
300.000004053496
300.000002285638
300.000002119115
300.000002002738
300.000001981733
300.000001978817
300.000001978466
300.000001978426
300.000001978422
300.000001978424
300.000001978423
300.000001978422
300.000001978423
300.000001978427
300.000001978431
300.000001978429
300.000001978431
300.000001978426
300.000001978422
300.000001978426
300.000001978429
300.00000197843
300.000001978434
300.000001978434
300.000001978432
300.00000197843
300.000001978431
300.000001978432
300.000001978434
300.000001978436
300.000001978435
300.000001978433
300.000001978438
300.000001978438
300.000001978437
300.000001978441
300.000001978443
300.000001978443
300.000001978445
300.000001978446
300.000001978446
300.000001978446
300.000001978447
300.000001978463
300.000001978608
300.000001980001
300.000001994037
300.000002115275
300.000002237633
300.000004630756
300.000000696307
300.000000374008
300.000000343639
300.000000322982
300.000000319059
300.000000318489
300.000000318418
300.000000318409
300.000000318408
300.000000318409
300.000000318408
300.000000318408
300.000000318407
300.000000318408
300.000000318408
300.000000318408
300.000000318408
300.000000318407
300.000000318406
300.000000318406
300.000000318407
300.000000318407
300.000000318407
300.000000318407
300.000000318407
300.000000318406
300.000000318406
300.000000318406
300.000000318406
300.000000318407
300.000000318406
300.000000318406
300.000000318406
300.000000318406
300.000000318406
300.000000318407
300.000000318407
300.000000318407
300.000000318407
300.000000318407
300.000000318407
300.000000318407
300.000000318407
300.00000031841
300.000000318436
300.000000318687
300.000000321208
300.000000342771
300.000000363118
300.000000806537
300.000000118456
300.000000061161
300.000000055266
300.00000005164
300.000000050924
300.000000050815
300.000000050801
300.000000050799
300.000000050799
300.000000050798
300.000000050798
300.000000050798
300.000000050798
300.000000050797
300.000000050797
300.000000050797
300.000000050797
300.000000050796
300.000000050796
300.000000050796
300.000000050796
300.000000050795
300.000000050795
300.000000050795
300.000000050795
300.000000050794
300.000000050794
300.000000050794
300.000000050794
300.000000050794
300.000000050793
300.000000050793
300.000000050793
300.000000050793
300.000000050793
300.000000050793
300.000000050793
300.000000050793
300.000000050793
300.000000050793
300.000000050793
300.000000050793
300.000000050793
300.000000050793
300.000000050798
300.000000050842
300.000000051285
300.000000055055
300.000000058821
300.000000138833
300.000000020761
300.000000010746
300.000000009286
300.000000008623
300.000000008493
300.000000008472
300.000000008469
300.000000008468
300.000000008468
300.000000008468
300.000000008467
300.000000008467
300.000000008467
300.000000008466
300.000000008466
300.000000008466
300.000000008466
300.000000008465
300.000000008465
300.000000008465
300.000000008464
300.000000008464
300.000000008464
300.000000008464
300.000000008463
300.000000008463
300.000000008463
300.000000008462
300.000000008462
300.000000008462
300.000000008462
300.000000008462
300.000000008461
300.000000008461
300.000000008461
300.000000008461
300.000000008461
300.000000008461
300.000000008461
300.000000008461
300.000000008461
300.000000008461
300.000000008461
300.000000008461
300.000000008462
300.00000000847
300.000000008548
300.000000009229
300.000000010256
300.000000024418
300.000000004498
300.000000002727
300.000000002069
300.000000001913
300.000000001887
300.000000001883
300.000000001882
300.000000001881
300.000000001881
300.000000001881
300.00000000188
300.00000000188
300.00000000188
300.000000001879
300.000000001879
300.000000001879
300.000000001878
300.000000001878
300.000000001878
300.000000001877
300.000000001877
300.000000001877
300.000000001877
300.000000001876
300.000000001876
300.000000001876
300.000000001875
300.000000001875
300.000000001875
300.000000001875
300.000000001874
300.000000001874
300.000000001874
300.000000001874
300.000000001874
300.000000001873
300.000000001873
300.000000001873
300.000000001873
300.000000001873
300.000000001873
300.000000001873
300.000000001873
300.000000001873
300.000000001873
300.000000001875
300.000000001892
300.000000002048
300.000000002618
300.000000005128
300.000000001828
300.000000001467
300.000000000952
300.000000000882
300.000000000874
300.000000000872
300.000000000872
300.000000000872
300.000000000871
300.000000000871
300.000000000871
300.00000000087
300.00000000087
300.00000000087
300.000000000869
300.000000000869
300.000000000869
300.000000000868
300.000000000868
300.000000000868
300.000000000867
300.000000000867
300.000000000867
300.000000000866
300.000000000866
300.000000000866
300.000000000865
300.000000000865
300.000000000865
300.000000000865
300.000000000864
300.000000000864
300.000000000864
300.000000000864
300.000000000864
300.000000000863
300.000000000863
300.000000000863
300.000000000863
300.000000000863
300.000000000863
300.000000000863
300.000000000863
300.000000000863
300.000000000863
300.000000000864
300.00000000087
300.000000000939
300.000000001432
300.000000001922
300.000000001395
300.000000001272
300.000000000782
300.000000000726
300.000000000721
300.00000000072
300.00000000072
300.000000000719
300.000000000719
300.000000000719
300.000000000718
300.000000000718
300.000000000718
300.000000000717
300.000000000717
300.000000000717
300.000000000716
300.000000000716
300.000000000716
300.000000000715
300.000000000715
300.000000000715
300.000000000714
300.000000000714
300.000000000714
300.000000000713
300.000000000713
300.000000000713
300.000000000712
300.000000000712
300.000000000712
300.000000000712
300.000000000711
300.000000000711
300.000000000711
300.000000000711
300.000000000711
300.000000000711
300.00000000071
300.00000000071
300.00000000071
300.00000000071
300.00000000071
300.00000000071
300.000000000711
300.000000000711
300.000000000715
300.00000000077
300.000000001251
300.000000001396
300.000000001327
300.000000001243
300.000000000757
300.000000000703
300.000000000699
300.000000000698
300.000000000698
300.000000000697
300.000000000697
300.000000000697
300.000000000696
300.000000000696
300.000000000696
300.000000000695
300.000000000695
300.000000000695
300.000000000694
300.000000000694
300.000000000694
300.000000000693
300.000000000693
300.000000000693
300.000000000692
300.000000000692
300.000000000692
300.000000000691
300.000000000691
300.000000000691
300.00000000069
300.00000000069
300.00000000069
300.000000000689
300.000000000689
300.000000000689
300.000000000689
300.000000000689
300.000000000688
300.000000000688
300.000000000688
300.000000000688
300.000000000688
300.000000000688
300.000000000688
300.000000000688
300.000000000688
300.000000000689
300.000000000693
300.000000000745
300.000000001224
300.000000001311
300.000000001318
300.00000000124
300.000000000754
300.000000000701
300.000000000696
300.000000000696
300.000000000695
300.000000000695
300.000000000695
300.000000000694
300.000000000694
300.000000000694
300.000000000693
300.000000000693
300.000000000692
300.000000000692
300.000000000692
300.000000000691
300.000000000691
300.000000000691
300.00000000069
300.00000000069
300.00000000069
300.000000000689
300.000000000689
300.000000000688
300.000000000688
300.000000000688
300.000000000688
300.000000000687
300.000000000687
300.000000000687
300.000000000686
300.000000000686
300.000000000686
300.000000000686
300.000000000686
300.000000000686
300.000000000685
300.000000000685
300.000000000685
300.000000000685
300.000000000685
300.000000000685
300.000000000685
300.000000000686
300.00000000069
300.000000000742
300.00000000122
300.000000001298
300.000000001317
300.00000000124
300.000000000755
300.000000000701
300.000000000696
300.000000000696
300.000000000695
300.000000000695
300.000000000695
300.000000000695
300.000000000694
300.000000000694
300.000000000693
300.000000000693
300.000000000693
300.000000000692
300.000000000692
300.000000000692
300.000000000691
300.000000000691
300.00000000069
300.00000000069
300.00000000069
300.000000000689
300.000000000689
300.000000000689
300.000000000688
300.000000000688
300.000000000688
300.000000000687
300.000000000687
300.000000000687
300.000000000686
300.000000000686
300.000000000686
300.000000000686
300.000000000686
300.000000000686
300.000000000685
300.000000000685
300.000000000685
300.000000000685
300.000000000685
300.000000000685
300.000000000685
300.000000000686
300.00000000069
300.000000000742
300.00000000122
300.000000001297
300.000000001318
300.000000001241
300.000000000755
300.000000000701
300.000000000697
300.000000000696
300.000000000696
300.000000000696
300.000000000695
300.000000000695
300.000000000695
300.000000000694
300.000000000694
300.000000000694
300.000000000693
300.000000000693
300.000000000692
300.000000000692
300.000000000692
300.000000000691
300.000000000691
300.00000000069
300.00000000069
300.00000000069
300.000000000689
300.000000000689
300.000000000689
300.000000000688
300.000000000688
300.000000000688
300.000000000687
300.000000000687
300.000000000687
300.000000000687
300.000000000686
300.000000000686
300.000000000686
300.000000000686
300.000000000686
300.000000000686
300.000000000686
300.000000000686
300.000000000685
300.000000000685
300.000000000686
300.000000000686
300.00000000069
300.000000000742
300.000000001221
300.000000001297
300.000000001319
300.000000001242
300.000000000756
300.000000000702
300.000000000698
300.000000000697
300.000000000697
300.000000000696
300.000000000696
300.000000000696
300.000000000695
300.000000000695
300.000000000695
300.000000000694
300.000000000694
300.000000000693
300.000000000693
300.000000000693
300.000000000692
300.000000000692
300.000000000691
300.000000000691
300.000000000691
300.00000000069
300.00000000069
300.000000000689
300.000000000689
300.000000000689
300.000000000688
300.000000000688
300.000000000688
300.000000000688
300.000000000687
300.000000000687
300.000000000687
300.000000000687
300.000000000686
300.000000000686
300.000000000686
300.000000000686
300.000000000686
300.000000000686
300.000000000686
300.000000000686
300.000000000686
300.000000000686
300.00000000069
300.000000000742
300.000000001221
300.000000001297
300.00000000132
300.000000001243
300.000000000756
300.000000000702
300.000000000698
300.000000000697
300.000000000697
300.000000000697
300.000000000696
300.000000000696
300.000000000696
300.000000000695
300.000000000695
300.000000000695
300.000000000694
300.000000000694
300.000000000693
300.000000000693
300.000000000692
300.000000000692
300.000000000692
300.000000000691
300.000000000691
300.000000000691
300.00000000069
300.00000000069
300.000000000689
300.000000000689
300.000000000689
300.000000000688
300.000000000688
300.000000000688
300.000000000688
300.000000000687
300.000000000687
300.000000000687
300.000000000687
300.000000000687
300.000000000686
300.000000000686
300.000000000686
300.000000000686
300.000000000686
300.000000000686
300.000000000686
300.000000000686
300.00000000069
300.000000000742
300.000000001222
300.000000001298
300.00000000132
300.000000001243
300.000000000756
300.000000000703
300.000000000698
300.000000000698
300.000000000697
300.000000000697
300.000000000697
300.000000000696
300.000000000696
300.000000000696
300.000000000695
300.000000000695
300.000000000694
300.000000000694
300.000000000694
300.000000000693
300.000000000693
300.000000000692
300.000000000692
300.000000000692
300.000000000691
300.000000000691
300.00000000069
300.00000000069
300.00000000069
300.000000000689
300.000000000689
300.000000000689
300.000000000688
300.000000000688
300.000000000688
300.000000000688
300.000000000687
300.000000000687
300.000000000687
300.000000000687
300.000000000687
300.000000000686
300.000000000686
300.000000000686
300.000000000686
300.000000000686
300.000000000686
300.000000000687
300.000000000691
300.000000000743
300.000000001222
300.000000001298
300.00000000132
300.000000001243
300.000000000756
300.000000000703
300.000000000698
300.000000000698
300.000000000697
300.000000000697
300.000000000697
300.000000000696
300.000000000696
300.000000000696
300.000000000695
300.000000000695
300.000000000695
300.000000000694
300.000000000694
300.000000000693
300.000000000693
300.000000000692
300.000000000692
300.000000000692
300.000000000691
300.000000000691
300.00000000069
300.00000000069
300.00000000069
300.000000000689
300.000000000689
300.000000000689
300.000000000688
300.000000000688
300.000000000688
300.000000000688
300.000000000687
300.000000000687
300.000000000687
300.000000000687
300.000000000687
300.000000000687
300.000000000686
300.000000000686
300.000000000686
300.000000000686
300.000000000686
300.000000000687
300.000000000691
300.000000000743
300.000000001222
300.000000001298
300.00000000132
300.000000001243
300.000000000757
300.000000000703
300.000000000698
300.000000000698
300.000000000697
300.000000000697
300.000000000697
300.000000000697
300.000000000696
300.000000000696
300.000000000695
300.000000000695
300.000000000695
300.000000000694
300.000000000694
300.000000000693
300.000000000693
300.000000000693
300.000000000692
300.000000000692
300.000000000691
300.000000000691
300.000000000691
300.00000000069
300.00000000069
300.000000000689
300.000000000689
300.000000000689
300.000000000688
300.000000000688
300.000000000688
300.000000000688
300.000000000687
300.000000000687
300.000000000687
300.000000000687
300.000000000687
300.000000000687
300.000000000686
300.000000000686
300.000000000686
300.000000000686
300.000000000686
300.000000000687
300.000000000691
300.000000000743
300.000000001222
300.000000001298
300.00000000132
300.000000001243
300.000000000756
300.000000000703
300.000000000698
300.000000000698
300.000000000697
300.000000000697
300.000000000697
300.000000000696
300.000000000696
300.000000000696
300.000000000695
300.000000000695
300.000000000694
300.000000000694
300.000000000694
300.000000000693
300.000000000693
300.000000000692
300.000000000692
300.000000000692
300.000000000691
300.000000000691
300.00000000069
300.00000000069
300.00000000069
300.000000000689
300.000000000689
300.000000000689
300.000000000688
300.000000000688
300.000000000688
300.000000000688
300.000000000687
300.000000000687
300.000000000687
300.000000000687
300.000000000687
300.000000000687
300.000000000686
300.000000000686
300.000000000686
300.000000000686
300.000000000686
300.000000000687
300.000000000691
300.000000000743
300.000000001222
300.000000001298
300.00000000132
300.000000001243
300.000000000756
300.000000000702
300.000000000698
300.000000000697
300.000000000697
300.000000000697
300.000000000697
300.000000000696
300.000000000696
300.000000000695
300.000000000695
300.000000000695
300.000000000694
300.000000000694
300.000000000693
300.000000000693
300.000000000693
300.000000000692
300.000000000692
300.000000000691
300.000000000691
300.000000000691
300.00000000069
300.00000000069
300.00000000069
300.000000000689
300.000000000689
300.000000000689
300.000000000688
300.000000000688
300.000000000688
300.000000000688
300.000000000687
300.000000000687
300.000000000687
300.000000000687
300.000000000687
300.000000000686
300.000000000686
300.000000000686
300.000000000686
300.000000000686
300.000000000686
300.000000000686
300.00000000069
300.000000000743
300.000000001222
300.000000001298
300.00000000132
300.000000001242
300.000000000756
300.000000000702
300.000000000698
300.000000000697
300.000000000697
300.000000000697
300.000000000696
300.000000000696
300.000000000696
300.000000000695
300.000000000695
300.000000000694
300.000000000694
300.000000000694
300.000000000693
300.000000000693
300.000000000692
300.000000000692
300.000000000692
300.000000000691
300.000000000691
300.00000000069
300.00000000069
300.00000000069
300.000000000689
300.000000000689
300.000000000689
300.000000000688
300.000000000688
300.000000000688
300.000000000688
300.000000000687
300.000000000687
300.000000000687
300.000000000687
300.000000000686
300.000000000686
300.000000000686
300.000000000686
300.000000000686
300.000000000686
300.000000000686
300.000000000686
300.000000000686
300.00000000069
300.000000000742
300.000000001221
300.000000001297
300.000000001319
300.000000001242
300.000000000756
300.000000000702
300.000000000697
300.000000000697
300.000000000696
300.000000000696
300.000000000696
300.000000000695
300.000000000695
300.000000000695
300.000000000694
300.000000000694
300.000000000694
300.000000000693
300.000000000693
300.000000000692
300.000000000692
300.000000000692
300.000000000691
300.000000000691
300.00000000069
300.00000000069
300.00000000069
300.000000000689
300.000000000689
300.000000000689
300.000000000688
300.000000000688
300.000000000688
300.000000000687
300.000000000687
300.000000000687
300.000000000687
300.000000000686
300.000000000686
300.000000000686
300.000000000686
300.000000000686
300.000000000686
300.000000000686
300.000000000686
300.000000000686
300.000000000686
300.000000000686
300.00000000069
300.000000000742
300.000000001221
300.000000001297
300.000000001318
300.000000001241
300.000000000755
300.000000000701
300.000000000697
300.000000000696
300.000000000696
300.000000000696
300.000000000695
300.000000000695
300.000000000695
300.000000000694
300.000000000694
300.000000000693
300.000000000693
300.000000000693
300.000000000692
300.000000000692
300.000000000691
300.000000000691
300.000000000691
300.00000000069
300.00000000069
300.00000000069
300.000000000689
300.000000000689
300.000000000689
300.000000000688
300.000000000688
300.000000000688
300.000000000687
300.000000000687
300.000000000687
300.000000000686
300.000000000686
300.000000000686
300.000000000686
300.000000000686
300.000000000686
300.000000000686
300.000000000685
300.000000000685
300.000000000685
300.000000000685
300.000000000685
300.000000000686
300.00000000069
300.000000000742
300.00000000122
300.000000001296
300.000000001317
300.00000000124
300.000000000754
300.000000000701
300.000000000696
300.000000000696
300.000000000695
300.000000000695
300.000000000695
300.000000000694
300.000000000694
300.000000000693
300.000000000693
300.000000000693
300.000000000692
300.000000000692
300.000000000692
300.000000000691
300.000000000691
300.00000000069
300.00000000069
300.00000000069
300.000000000689
300.000000000689
300.000000000689
300.000000000688
300.000000000688
300.000000000688
300.000000000687
300.000000000687
300.000000000687
300.000000000686
300.000000000686
300.000000000686
300.000000000686
300.000000000686
300.000000000685
300.000000000685
300.000000000685
300.000000000685
300.000000000685
300.000000000685
300.000000000685
300.000000000685
300.000000000685
300.000000000685
300.000000000689
300.000000000741
300.00000000122
300.000000001296
300.000000001315
300.000000001239
300.000000000754
300.0000000007
300.000000000695
300.000000000695
300.000000000694
300.000000000694
300.000000000694
300.000000000693
300.000000000693
300.000000000693
300.000000000692
300.000000000692
300.000000000692
300.000000000691
300.000000000691
300.000000000691
300.00000000069
300.00000000069
300.000000000689
300.000000000689
300.000000000689
300.000000000688
300.000000000688
300.000000000688
300.000000000687
300.000000000687
300.000000000687
300.000000000686
300.000000000686
300.000000000686
300.000000000686
300.000000000685
300.000000000685
300.000000000685
300.000000000685
300.000000000685
300.000000000685
300.000000000685
300.000000000684
300.000000000684
300.000000000684
300.000000000684
300.000000000684
300.000000000685
300.000000000689
300.000000000741
300.000000001219
300.000000001295
300.000000001314
300.000000001237
300.000000000753
300.000000000699
300.000000000695
300.000000000694
300.000000000694
300.000000000693
300.000000000693
300.000000000693
300.000000000692
300.000000000692
300.000000000692
300.000000000691
300.000000000691
300.00000000069
300.00000000069
300.00000000069
300.000000000689
300.000000000689
300.000000000689
300.000000000688
300.000000000688
300.000000000688
300.000000000687
300.000000000687
300.000000000687
300.000000000686
300.000000000686
300.000000000686
300.000000000685
300.000000000685
300.000000000685
300.000000000685
300.000000000685
300.000000000684
300.000000000684
300.000000000684
300.000000000684
300.000000000684
300.000000000684
300.000000000684
300.000000000684
300.000000000684
300.000000000684
300.000000000684
300.000000000688
300.00000000074
300.000000001218
300.000000001294
300.000000001312
300.000000001236
300.000000000752
300.000000000698
300.000000000694
300.000000000693
300.000000000693
300.000000000692
300.000000000692
300.000000000692
300.000000000691
300.000000000691
300.000000000691
300.00000000069
300.00000000069
300.00000000069
300.000000000689
300.000000000689
300.000000000688
300.000000000688
300.000000000688
300.000000000687
300.000000000687
300.000000000687
300.000000000686
300.000000000686
300.000000000686
300.000000000686
300.000000000685
300.000000000685
300.000000000685
300.000000000684
300.000000000684
300.000000000684
300.000000000684
300.000000000684
300.000000000684
300.000000000683
300.000000000683
300.000000000683
300.000000000683
300.000000000683
300.000000000683
300.000000000683
300.000000000683
300.000000000684
300.000000000688
300.00000000074
300.000000001217
300.000000001293
300.000000001311
300.000000001234
300.000000000751
300.000000000697
300.000000000693
300.000000000692
300.000000000692
300.000000000691
300.000000000691
300.00000000069
300.00000000069
300.00000000069
300.000000000689
300.000000000689
300.000000000689
300.000000000688
300.000000000688
300.000000000688
300.000000000687
300.000000000687
300.000000000687
300.000000000686
300.000000000686
300.000000000686
300.000000000686
300.000000000685
300.000000000685
300.000000000685
300.000000000684
300.000000000684
300.000000000684
300.000000000684
300.000000000683