/*--------------------------------*- C++ -*----------------------------------*\
  =========                 |
  \\      /  F ield         | OpenFOAM: The Open Source CFD Toolbox
   \\    /   O peration     | Website:  https://openfoam.org
    \\  /    A nd           | Version:  10
     \\/     M anipulation  |
\*---------------------------------------------------------------------------*/
FoamFile
{
    format      ascii;
    class       volVectorField;
    location    "0.8";
    object      U;
}
// * * * * * * * * * * * * * * * * * * * * * * * * * * * * * * * * * * * * * //

dimensions      [0 1 -1 0 0 0 0];

internalField   nonuniform List<vector> 
2500
(
(-3.86935468292553e-06 2.46860000342665e-05 4.92920935601315e-25)
(-2.96861652630764e-06 2.72784158676829e-05 1.98585597262604e-23)
(-3.08827755768582e-06 2.95383654651208e-05 5.2803009018787e-25)
(-3.20072888585709e-06 2.96424721636978e-05 -6.58836191337512e-28)
(-2.88207016419247e-06 2.96657108675296e-05 -1.34304430976663e-24)
(-2.57329093627729e-06 2.96697499468944e-05 7.3287727241908e-29)
(-2.28955110628427e-06 2.96780365790584e-05 0)
(-2.0489717235526e-06 2.96873249170842e-05 3.3855623610522e-28)
(-1.84898290988168e-06 2.96961659216424e-05 2.76155739634797e-25)
(-1.68221356676334e-06 2.97042961811014e-05 1.15902055346347e-23)
(-1.5416485362094e-06 2.97116873299074e-05 8.02916340081398e-25)
(-1.42179244647501e-06 2.9718462048175e-05 1.89085512163745e-23)
(-1.31819493701942e-06 2.97247405435971e-05 2.03859784440967e-23)
(-1.22736697403722e-06 2.97305845448669e-05 8.02906119279666e-25)
(-1.14668874182454e-06 2.97360468932554e-05 1.01147022415964e-23)
(-1.07402464035686e-06 2.97411782285775e-05 5.50496828861952e-25)
(-1.00764127473914e-06 2.97460093025667e-05 1.03883780215899e-23)
(-9.46104259957582e-07 2.97505637094618e-05 1.03889029022656e-23)
(-8.88234505689982e-07 2.97548505949579e-05 8.03449790078177e-25)
(-8.33001630420196e-07 2.97588307223119e-05 1.83815405136204e-23)
(-7.79495964334409e-07 2.97626414353141e-05 5.28365511669829e-25)
(-7.26990389931049e-07 2.97662320853677e-05 2.75957829530509e-25)
(-6.74830470411386e-07 2.97695086070338e-05 1.01129562125832e-23)
(-6.22328878209257e-07 2.97725841873795e-05 2.75413125426212e-25)
(-5.6885809470495e-07 2.97754148406892e-05 5.28910950377715e-25)
(-5.13906403695089e-07 2.97779445316438e-05 1.8380178080702e-23)
(-4.56936588671346e-07 2.97802343395554e-05 5.29430304060908e-25)
(-3.97335194081869e-07 2.97822909540734e-05 2.74886298253984e-25)
(-3.3454060550436e-07 2.9784049479763e-05 1.01129571739753e-23)
(-2.67900812601572e-07 2.97855491237263e-05 2.76146273293375e-25)
(-1.96704701510221e-07 2.97867545764937e-05 -1.96729671391199e-28)
(-1.20234601048235e-07 2.97876543353405e-05 5.35255697284251e-28)
(-3.76117472971589e-08 2.97882033930624e-05 -1.07051136654034e-27)
(5.21540414047324e-08 2.97883830754144e-05 -1.96704741094667e-28)
(1.50229850582623e-07 2.97882101673725e-05 2.75277716273976e-25)
(2.57972415233596e-07 2.9787583549578e-05 9.58492649314815e-24)
(3.77028059422693e-07 2.97864516284767e-05 -1.81051025601236e-23)
(5.09420227624079e-07 2.9784732780466e-05 -5.27689109390445e-25)
(6.57703782777488e-07 2.97823477116849e-05 -2.15075693523501e-28)
(8.2514213623895e-07 2.97791482737793e-05 1.06921342338265e-24)
(1.015988956387e-06 2.97749799133695e-05 -1.18634175565659e-23)
(1.2357831918376e-06 2.97696552234806e-05 -1.03883775089629e-23)
(1.49154559098788e-06 2.97630265735333e-05 7.6492357041946e-25)
(1.79076578495001e-06 2.97552095127768e-05 -1.21177010449703e-23)
(2.13659515806775e-06 2.97474935455267e-05 -1.86542626119635e-23)
(2.51078367432044e-06 2.97426288799449e-05 1.87828364256163e-24)
(2.89733248376943e-06 2.97156773155542e-05 -1.00180213459767e-23)
(2.90047007596877e-06 2.95975773266023e-05 -1.03651727507446e-23)
(2.94196151246547e-06 2.7313799730609e-05 2.32964203471606e-24)
(3.89026940570947e-06 2.46490763549636e-05 -9.43822021398598e-24)
(-6.7144969665052e-06 5.6101799646198e-05 4.80482341889754e-27)
(-8.36740956166885e-07 5.67336872099294e-05 4.91846091789744e-24)
(-3.09759521395145e-06 5.50701900517192e-05 4.99176978204777e-27)
(-4.51519046530363e-06 5.45898084464095e-05 -4.42530033621423e-25)
(-4.15643164103173e-06 5.44161439349217e-05 -2.56013608237656e-23)
(-3.77573506927556e-06 5.44110643369813e-05 3.93382825936471e-25)
(-3.42082752047479e-06 5.44487756952676e-05 5.53442330214665e-28)
(-3.12895222860201e-06 5.44909308753907e-05 7.39195801774861e-28)
(-2.89337877519084e-06 5.4528838184073e-05 8.40070416318877e-25)
(-2.70204531700156e-06 5.45609952018109e-05 2.27654581034621e-24)
(-2.54439192952698e-06 5.45887756233585e-05 -8.18342893637185e-25)
(-2.41223004959078e-06 5.46131241526738e-05 2.78730810626034e-24)
(-2.29923776506695e-06 5.46339449447653e-05 3.62215396154814e-24)
(-2.20053343891417e-06 5.46525875444622e-05 -8.17234011478175e-25)
(-2.11242876395431e-06 5.4669496767054e-05 1.46641308062223e-24)
(-2.03199532096522e-06 5.46845531514477e-05 8.9494761061295e-27)
(-1.95687961217477e-06 5.46982174116175e-05 1.45391780391215e-24)
(-1.88517055227458e-06 5.47106683106578e-05 1.46221809239952e-24)
(-1.81531678647803e-06 5.47220385636334e-05 9.3190962124392e-27)
(-1.74600152928573e-06 5.47324484210981e-05 3.61842360704046e-24)
(-1.67613987961241e-06 5.47419146488449e-05 5.21384741227623e-27)
(-1.60481601800372e-06 5.47504493004104e-05 8.31030311002574e-25)
(-1.53121403070507e-06 5.475817841226e-05 1.4498132259749e-24)
(-1.45458129280287e-06 5.47651479708428e-05 4.47463553014789e-27)
(-1.37424183483307e-06 5.47713041831338e-05 8.31030296271217e-25)
(-1.28961201300672e-06 5.47765945259087e-05 2.78394543993303e-24)
(-1.2000750667719e-06 5.47810949247376e-05 8.39330478500084e-25)
(-1.10500253088832e-06 5.47847540321365e-05 -8.22080594539843e-25)
(-1.00377595483349e-06 5.4787511538955e-05 1.44981379575765e-24)
(-8.95621178303074e-07 5.47894100826723e-05 8.39330516307317e-25)
(-7.79728499351913e-07 5.47902839957489e-05 -8.25816298419096e-25)
(-6.55277569730212e-07 5.47900889441368e-05 8.2581630027686e-25)
(-5.21201028640209e-07 5.47887315944047e-05 -8.35595113366694e-25)
(-3.76235514741769e-07 5.47860640490928e-05 -8.2729468626367e-25)
(-2.18953428067733e-07 5.47819411427207e-05 8.30660793132333e-25)
(-4.76620127931064e-08 5.47760949314576e-05 1.44570887027333e-24)
(1.39785886513561e-07 5.47682476704127e-05 -2.77873267927861e-24)
(3.46052213203039e-07 5.47580034154437e-05 -4.2889739112628e-27)
(5.74528190470638e-07 5.47448538748691e-05 -3.83597943554105e-25)
(8.29619967455237e-07 5.47280716681989e-05 1.16970423177966e-23)
(1.11719684852503e-06 5.47067429220741e-05 -1.01022218974758e-24)
(1.44506558935814e-06 5.46796754732623e-05 -1.019678965906e-24)
(1.82345793790663e-06 5.46458861446955e-05 2.71247345165407e-23)
(2.26418706634569e-06 5.46060109767207e-05 -1.01967636735564e-24)
(2.7738382439509e-06 5.45682396288535e-05 -1.91032353033309e-24)
(3.31321748929221e-06 5.45726324924643e-05 3.80060436112048e-23)
(3.83149258732997e-06 5.47514509950247e-05 -4.60954851866409e-25)
(2.6397113509645e-06 5.52035041005911e-05 -5.08517763950453e-25)
(6.21133254197808e-07 5.68295353440692e-05 4.17186953287809e-23)
(6.63420070608194e-06 5.60049670237128e-05 -3.96587396428703e-25)
(-5.88131666125602e-06 2.46632342289216e-05 4.46497014464008e-25)
(-2.6197248180191e-06 1.20128956809905e-05 2.81547403142503e-23)
(-3.90245164804888e-06 8.77241730461784e-06 4.55924977325093e-25)
(-4.30890336732111e-06 8.03002831912346e-06 1.95791735226024e-25)
(-3.70502704478768e-06 7.6641451062429e-06 1.59595073912057e-23)
(-3.3321393826784e-06 7.65990346138099e-06 1.11634993563129e-23)
(-3.03430577144467e-06 7.72824719042344e-06 1.98946880456268e-25)
(-2.80357203333523e-06 7.79898535850518e-06 1.98957042550498e-25)
(-2.62306606379545e-06 7.8605203512009e-06 1.76929287382904e-23)
(-2.47963942822489e-06 7.91255866492074e-06 1.10470668327641e-23)
(-2.36354244096671e-06 7.95671571323107e-06 -1.07463684180927e-23)
(-2.26739390066161e-06 7.99467076326296e-06 1.05756116362563e-25)
(-2.18578960142683e-06 8.02780277978153e-06 1.08749149542222e-23)
(-2.11466436741559e-06 8.05707494648839e-06 -1.7268564673848e-23)
(-2.05085129875706e-06 8.08323032668346e-06 1.30125929134872e-23)
(-1.99188484214893e-06 8.10679609986456e-06 4.29154047413071e-27)
(-1.93581901873305e-06 8.12817720756854e-06 1.05840018647895e-25)
(-1.88106457793849e-06 8.1476494234132e-06 1.31848842760195e-23)
(-1.8263485808876e-06 8.16542700977278e-06 2.0105089192955e-25)
(-1.77062065023776e-06 8.18165972433833e-06 1.75999166509683e-23)
(-1.71301474576317e-06 8.19645334911289e-06 3.95656581064558e-25)
(-1.65278529469331e-06 8.20988498799782e-06 1.74718533967784e-23)
(-1.58931281723072e-06 8.22205810656366e-06 3.00399986344022e-25)
(-1.5220585768371e-06 8.23299053254876e-06 1.9689128243183e-25)
(-1.45050427156849e-06 8.2426800209977e-06 1.09435760653739e-23)
(-1.37421394743124e-06 8.25109801906648e-06 4.99126532966322e-25)
(-1.29276985216496e-06 8.25825923775057e-06 1.07713210103134e-23)
(-1.2056951482154e-06 8.26409652454298e-06 -1.7272688532114e-23)
(-1.11250823452548e-06 8.26858236757614e-06 1.05713375432367e-25)
(-1.01268396326124e-06 8.27167128788771e-06 1.07712764692987e-23)
(-9.05602712645302e-07 8.27318356743672e-06 -1.70762018686012e-23)
(-7.90590007025099e-07 8.27300678682811e-06 1.05478756445544e-23)
(-6.66847712515191e-07 8.27102467209662e-06 -1.74962340227992e-23)
(-5.33403494146527e-07 8.26699603565591e-06 -1.094541011956e-23)
(-3.89106045968001e-07 8.26060876414785e-06 1.07466413654255e-23)
(-2.32589488743975e-07 8.25150420246907e-06 3.00223870110226e-25)
(-6.21241512526071e-08 8.23921255808835e-06 -1.03515846976799e-25)
(1.24443160681409e-07 8.2230774874529e-06 -1.96751238897321e-25)
(3.29889835307219e-07 8.20230441325472e-06 -1.07430684009149e-23)
(5.57860267708399e-07 8.17572564054766e-06 1.24871539006798e-23)
(8.13271806424382e-07 8.1417575891239e-06 1.89270280203772e-25)
(1.10281560321351e-06 8.09844940212675e-06 9.31577789971446e-26)
(1.43572832088824e-06 8.04364260659394e-06 1.26232492868468e-23)
(1.82459984360722e-06 7.97710119699735e-06 9.31610096648446e-26)
(2.28540017070356e-06 7.91068095350728e-06 9.66724412041934e-26)
(2.82340825851987e-06 7.92038656471836e-06 1.4369329038968e-23)
(3.58921688739152e-06 8.30721963837938e-06 1.08002487583695e-25)
(3.42120086329837e-06 9.00623160324899e-06 3.50488749313203e-25)
(2.2622725824826e-06 1.22668176574084e-05 3.15791960461993e-23)
(5.68061841830373e-06 2.4833960127442e-05 2.57140480704288e-26)
(-2.63002377933871e-06 4.8006252896156e-06 1.1142925016438e-25)
(-3.98193566297649e-06 -1.0153670551261e-05 8.8077024907295e-24)
(-4.51172040502877e-06 -7.88049860139982e-06 1.08280975258421e-25)
(-4.09035983851441e-06 -7.51915263064058e-06 3.34117361511633e-28)
(-3.40955383913754e-06 -7.77704538106929e-06 6.95548339233614e-25)
(-3.02459331460148e-06 -7.71747697070841e-06 7.49724996329359e-25)
(-2.75142281325414e-06 -7.60738548146592e-06 6.82646648450035e-28)
(-2.54866070567992e-06 -7.50706873747751e-06 6.826753147141e-28)
(-2.39281560391901e-06 -7.42288552790081e-06 7.71518474019869e-25)
(-2.26990065717649e-06 -7.35275296906131e-06 2.73551062179963e-24)
(-2.17069572482027e-06 -7.29360599137802e-06 -6.97216362443486e-25)
(-2.08861819253854e-06 -7.24294967626936e-06 2.02187072989098e-24)
(-2.0189155799164e-06 -7.1989604214171e-06 2.7705760533011e-24)
(-1.95801945838501e-06 -7.160234437504e-06 -6.95728201635929e-25)
(-1.90317782632127e-06 -7.12574837367787e-06 2.01446370250008e-24)
(-1.85222688706545e-06 -7.09479718915193e-06 4.52187412493981e-26)
(-1.8034597644833e-06 -7.06681688548261e-06 2.02188138592201e-24)
(-1.75549390500293e-06 -7.04143013473474e-06 2.02930881938802e-24)
(-1.70720844791641e-06 -7.01834075827172e-06 4.55600994008908e-26)
(-1.65766638182024e-06 -6.9973454905186e-06 2.74864630031027e-24)
(-1.60610797539738e-06 -6.97825902648173e-06 2.32966729914334e-26)
(-1.55188387605759e-06 -6.96098017367997e-06 7.63903918383216e-25)
(-1.49445142868255e-06 -6.94542842613399e-06 1.99960843463102e-24)
(-1.43333967782081e-06 -6.93154781761085e-06 2.26140483955579e-26)
(-1.36811039764653e-06 -6.9193089410671e-06 7.63893993210141e-25)
(-1.29838564684094e-06 -6.90876431143043e-06 2.00029133646088e-24)
(-1.22378509042338e-06 -6.89989881872956e-06 7.71301349284631e-25)
(-1.14390816035306e-06 -6.89276419411082e-06 -7.18664776203917e-25)
(-1.05834521173587e-06 -6.88744079561643e-06 1.99960888193825e-24)
(-9.66637132005588e-07 -6.8840292789699e-06 7.71291537847655e-25)
(-8.68251014830108e-07 -6.88266473757008e-06 -7.40586916937003e-25)
(-7.62595088532348e-07 -6.88354727799211e-06 7.40596948555514e-25)
(-6.48967627097963e-07 -6.88688065318818e-06 -7.49370206697519e-25)
(-5.26537192067597e-07 -6.89295060128255e-06 -7.41952304888043e-25)
(-3.94305877239902e-07 -6.90215742983761e-06 7.63532883524581e-25)
(-2.51088970882697e-07 -6.91498417987035e-06 1.97734602063033e-24)
(-9.53880751852192e-08 -6.93211750261343e-06 -1.97700433203989e-24)
(7.46488226962257e-08 -6.95432477849039e-06 -2.25943729237625e-26)
(2.61390005849668e-07 -6.98274888115588e-06 -7.40948216961825e-25)
(4.67977072683051e-07 -7.01905085577111e-06 7.9526787831603e-25)
(6.98651875920016e-07 -7.06528637040071e-06 -1.51551094687732e-24)
(9.59284534850338e-07 -7.12428995590745e-06 -1.99939155875585e-24)
(1.25834929886076e-06 -7.19958566541246e-06 7.40790331178473e-25)
(1.60869148299794e-06 -7.29400778877718e-06 -2.02121195709511e-24)
(2.03152702493796e-06 -7.40154731495993e-06 -2.02100986402188e-24)
(2.56341347636799e-06 -7.45902236776466e-06 7.52272634727628e-25)
(3.38512334018278e-06 -7.19724659570305e-06 -2.02310168348551e-24)
(4.04941606607275e-06 -7.64257684187602e-06 -2.08464587492899e-24)
(3.68440307621964e-06 -9.82646395217691e-06 1.90265311601747e-24)
(2.49210960218225e-06 5.27273606220915e-06 -6.39362878993291e-24)
(-1.3351673967405e-06 -6.0523241318116e-07 1.09060732891493e-28)
(-3.90014759340235e-06 -1.53093519958907e-05 5.08554145884651e-25)
(-4.31083791819222e-06 -1.18699966403912e-05 1.07061659894807e-28)
(-3.84873429669576e-06 -1.11874520481624e-05 -1.08281148394294e-26)
(-3.24597585408433e-06 -1.12844325426194e-05 -5.88808321265139e-25)
(-2.88421185436776e-06 -1.11454856759289e-05 1.2120268508478e-26)
(-2.63440525163061e-06 -1.09903519587696e-05 7.47375990041172e-30)
(-2.45158771144466e-06 -1.0860628290705e-05 9.95529389542393e-30)
(-2.31216900743038e-06 -1.07549031516587e-05 2.29240540163421e-26)
(-2.20258030164313e-06 -1.06677838273958e-05 1.07956728119513e-25)
(-2.11419208295465e-06 -1.05947030389667e-05 -2.21648593089231e-26)
(-2.04100244002059e-06 -1.05323179652424e-05 8.76148335273917e-26)
(-1.97870572915077e-06 -1.04782459119144e-05 1.10518974095535e-25)
(-1.92405962978252e-06 -1.04307355517534e-05 -2.20760587440431e-26)
(-1.87456880381103e-06 -1.03885263246436e-05 1.10440170314755e-25)
(-1.82825731257701e-06 -1.03507089409138e-05 1.67631263080036e-28)
(-1.78356325940716e-06 -1.03166155054334e-05 8.76149004052993e-26)
(-1.73921253483677e-06 -1.02857523808766e-05 1.0985859392147e-25)
(-1.69416754277387e-06 -1.0257738747063e-05 1.72608949721724e-28)
(-1.64756114454691e-06 -1.02323130831655e-05 9.96436137231484e-26)
(-1.59869008388268e-06 -1.02092676028821e-05 9.37693898822364e-29)
(-1.54696168096649e-06 -1.01884551218616e-05 1.1651853108239e-26)
(-1.49186751837932e-06 -1.01697818925412e-05 8.75461023457229e-26)
(-1.43297532433576e-06 -1.01531786341611e-05 8.38143363433121e-29)
(-1.36989853700446e-06 -1.01386151271099e-05 1.15358740436512e-26)
(-1.30228158236669e-06 -1.01261140699145e-05 8.75361560620024e-26)
(-1.22977842733497e-06 -1.01156844219003e-05 1.21913291748442e-26)
(-1.15203375121119e-06 -1.01073941380268e-05 -1.13732169073956e-26)
(-1.0686677193273e-06 -1.01013415114361e-05 8.75262219421138e-26)
(-9.79263990740315e-07 -1.00976476165394e-05 1.21913295396879e-26)
(-8.83341278426557e-07 -1.00964800989249e-05 -1.14470790215246e-26)
(-7.80356973414227e-07 -1.00980753277642e-05 1.14470792098552e-26)
(-6.69665980394072e-07 -1.01027016436865e-05 -1.21174710727314e-26)
(-5.50519608318782e-07 -1.01107231847945e-05 -1.14570348250391e-26)
(-4.22010334523273e-07 -1.01226119908081e-05 1.15308970975426e-26)
(-2.83062048312602e-07 -1.01389749074399e-05 8.7452380186655e-26)
(-1.32338565527023e-07 -1.01606294938992e-05 -8.74473642165685e-26)
(3.18163204454705e-08 -1.01885690863919e-05 -8.2574606495578e-29)
(2.11511576465444e-07 -1.02241902254176e-05 9.96636836795433e-27)
(4.09513582057197e-07 -1.02694981246254e-05 6.21861517575044e-25)
(6.29579346048298e-07 -1.03271149253709e-05 8.82728512210966e-27)
(8.76940615681557e-07 -1.04006946845142e-05 -7.68610847279326e-26)
(1.15928000021372e-06 -1.04952429182299e-05 4.40836198034681e-25)
(1.48864211409265e-06 -1.06166434715185e-05 -7.68612954939219e-26)
(1.88569738485613e-06 -1.07664451261351e-05 -7.68608770734027e-26)
(2.39016918260978e-06 -1.0901719015847e-05 6.22207902630032e-25)
(3.1303683411448e-06 -1.08128384915386e-05 -7.51416087983085e-26)
(3.83746298296712e-06 -1.16208386137887e-05 -6.26303323213695e-26)
(3.64390988179063e-06 -1.48809870858574e-05 7.36495239417794e-25)
(1.2439629899856e-06 -1.15875692344939e-07 -3.84189757311994e-25)
(-9.38699631011141e-07 -1.4490412369121e-06 6.94516124468722e-27)
(-3.34735512990271e-06 -1.58539092969814e-05 4.59498164674011e-25)
(-3.7617893779028e-06 -1.32469737520149e-05 6.6227183316936e-27)
(-3.52074779838354e-06 -1.25091241258779e-05 5.30074606455854e-27)
(-3.0653578153224e-06 -1.24956734643853e-05 1.75090472942708e-25)
(-2.75958389143363e-06 -1.22920886981987e-05 2.18537924752955e-25)
(-2.54224507152492e-06 -1.20974809088564e-05 5.35914887346005e-27)
(-2.38130430586826e-06 -1.19415409006165e-05 5.36065226727248e-27)
(-2.25795215617227e-06 -1.18165912417587e-05 2.1861246491342e-25)
(-2.16066969925526e-06 -1.17143069452e-05 3.13047380240465e-25)
(-2.08194718268262e-06 -1.16287228626705e-05 -2.07865336043821e-25)
(-2.0165139365093e-06 -1.15557419742095e-05 1.10025013065397e-26)
(-1.96055443910211e-06 -1.14925028040594e-05 2.18889776485001e-25)
(-1.91116856925419e-06 -1.14369640625648e-05 -2.02509658927535e-25)
(-1.86610744186814e-06 -1.13876568667055e-05 2.18881301040465e-25)
(-1.82357444281666e-06 -1.13435181232318e-05 5.37285231984502e-27)
(-1.78213606641336e-06 -1.13037673852261e-05 1.62412646392139e-26)
(-1.74060899575805e-06 -1.12678205525552e-05 2.24128143303304e-25)
(-1.69803666118819e-06 -1.12352417456488e-05 8.04698833864338e-27)
(-1.6536132232375e-06 -1.12057043947246e-05 1.61985398247941e-25)
(-1.6066776823533e-06 -1.11789801755166e-05 5.39187486089583e-27)
(-1.55667681586646e-06 -1.1154888402446e-05 1.51473821454164e-25)
(-1.50314382116772e-06 -1.11333099195748e-05 3.0962742786244e-27)
(-1.44567546527905e-06 -1.11141685153008e-05 2.69022307180912e-27)
(-1.38391468945808e-06 -1.10974327851471e-05 1.51111621432216e-25)
(-1.31753733423325e-06 -1.10831077472295e-05 1.09320702134032e-26)
(-1.24622034909374e-06 -1.10712228338055e-05 5.94661666637857e-26)
(-1.16964258061346e-06 -1.10618528671413e-05 -1.48421485635809e-25)
(-1.08745637496487e-06 -1.10551057128952e-05 5.57466789800117e-27)
(-9.99274049572604e-07 -1.10511320767779e-05 1.48431950673505e-25)
(-9.04658588466666e-07 -1.10501392906244e-05 -1.45748608533007e-25)
(-8.0310920023988e-07 -1.10523817822664e-05 1.45747993688784e-25)
(-6.94031984374252e-07 -1.10581952960294e-05 -6.21397330677399e-26)
(-5.76744890454322e-07 -1.10679989281338e-05 -1.06622223060837e-25)
(-4.50424549465502e-07 -1.10823371810577e-05 1.03948197923525e-25)
(-3.14095976135411e-07 -1.11019176616897e-05 8.24805908741644e-27)
(-1.665670176157e-07 -1.11276948806068e-05 -5.56964922796066e-27)
(-6.37641387354735e-09 -1.11608010931526e-05 -3.31709418298916e-29)
(1.68333601467653e-07 -1.12028690890414e-05 -8.66347583936823e-26)
(3.59954641165554e-07 -1.12562099017398e-05 1.49233596050198e-25)
(5.71708843766024e-07 -1.13238769534122e-05 -2.83289833215751e-27)
(8.08060705267174e-07 -1.14102517642714e-05 -2.88756911422388e-27)
(1.07549727534076e-06 -1.15216019888032e-05 1.49255049486576e-25)
(1.38397157118718e-06 -1.16664297381121e-05 -2.88755566443366e-27)
(1.74964974052173e-06 -1.18521071798419e-05 -2.83276468726278e-27)
(2.2005521169872e-06 -1.20489559089803e-05 1.93838614794437e-25)
(2.79770742975893e-06 -1.20796231032294e-05 -2.67842612500515e-27)
(3.27336309635282e-06 -1.29842883233315e-05 1.0217960731574e-27)
(3.09479420599281e-06 -1.53133579128196e-05 4.21594908849281e-25)
(8.61849409538764e-07 -9.43177564529209e-07 2.76786541937447e-28)
(-7.55769951642083e-07 -1.20702325463433e-06 6.88167966376799e-27)
(-2.73861400097328e-06 -1.55339895793954e-05 3.32315585312479e-25)
(-3.17256157635113e-06 -1.37214897036445e-05 6.54903724425555e-27)
(-3.15905701143308e-06 -1.30511704053006e-05 -9.91062281644644e-30)
(-2.85637573194106e-06 -1.29922504165608e-05 1.03256105441247e-26)
(-2.6203852023996e-06 -1.27472253146021e-05 2.13773689550801e-26)
(-2.44153412624851e-06 -1.25224981824976e-05 9.86691308152775e-30)
(-2.30463024686393e-06 -1.23447461068406e-05 1.11023072624327e-29)
(-2.1977377352503e-06 -1.22030917838147e-05 2.40769674853093e-26)
(-2.11241535608503e-06 -1.20873121443427e-05 1.72252788094039e-25)
(-2.04272638233355e-06 -1.19904030336086e-05 -1.59739564715397e-26)
(-1.98432215040349e-06 -1.19076912421357e-05 1.53567193783346e-25)
(-1.93396757806821e-06 -1.18359486948115e-05 1.74933615423899e-25)
(-1.88914694394321e-06 -1.17729027046426e-05 -1.59641048261681e-26)
(-1.84787800799144e-06 -1.17169091611029e-05 8.37447985979149e-26)
(-1.80855150300637e-06 -1.16667926851609e-05 5.38285837337973e-27)
(-1.76986774057277e-06 -1.162166481882e-05 1.08946625951514e-25)
(-1.73074549378395e-06 -1.1580877538184e-05 1.30312452213851e-25)
(-1.69029502502078e-06 -1.15439443033076e-05 5.3589771616081e-27)
(-1.6477715652082e-06 -1.15104878930514e-05 1.16957473734211e-25)
(-1.60256295755194e-06 -1.14802462900719e-05 2.68777358845926e-27)
(-1.55414894038306e-06 -1.14530147159208e-05 1.08664998052973e-26)
(-1.50209110908344e-06 -1.14286606252129e-05 4.49687159474015e-26)
(-1.44601866839656e-06 -1.14070929311224e-05 6.31817693501286e-29)
(-1.3856032504294e-06 -1.13882731571795e-05 1.20447033873686e-26)
(-1.3205372907134e-06 -1.13722077503558e-05 7.54425643777088e-26)
(-1.25052726267774e-06 -1.13589288365696e-05 1.20391170637717e-26)
(-1.17527485087319e-06 -1.13485249772628e-05 -9.33728841173951e-27)
(-1.09445614096027e-06 -1.1341116375508e-05 7.54327033993442e-26)
(-1.0077226878343e-06 -1.13368809840581e-05 1.20385046770136e-26)
(-9.14663757277256e-07 -1.13360471104727e-05 -1.06826720382282e-26)
(-8.14820270300801e-07 -1.13389072228368e-05 1.06832899469645e-26)
(-7.07649707188456e-07 -1.13458386409142e-05 -1.06882140580221e-26)
(-5.92529054333806e-07 -1.13573238970849e-05 -1.06875965240104e-26)
(-4.68718097188281e-07 -1.13739687618053e-05 1.20329708327032e-26)
(-3.35347990727096e-07 -1.13965578105543e-05 7.40873410359064e-26)
(-1.91367323208615e-07 -1.14261602049153e-05 -5.19601741001169e-26)
(-3.55118241694513e-08 -1.14640306602208e-05 -1.35461396096145e-27)
(1.33794507941766e-07 -1.15119771814926e-05 -1.11096565521333e-28)
(3.18545799804392e-07 -1.1572556565455e-05 1.47689795331583e-26)
(5.21365583795515e-07 -1.16491547900308e-05 -5.44723040600724e-26)
(7.45795127835631e-07 -1.17466730876494e-05 -5.46371179675896e-26)
(9.96762382221364e-07 -1.18722808185015e-05 8.12200736165459e-27)
(1.2813378690696e-06 -1.2036135004172e-05 -5.46374835506397e-26)
(1.60952191715175e-06 -1.22486520342511e-05 -5.44784271400876e-26)
(1.99391190741836e-06 -1.24848777224147e-05 1.33852901140647e-26)
(2.44260037411551e-06 -1.25701345439425e-05 -5.46557912911167e-26)
(2.67482935391905e-06 -1.34415093178866e-05 -7.93666242493626e-26)
(2.4740622250987e-06 -1.48887293726217e-05 3.38810539060798e-26)
(6.8264760472426e-07 -6.55535412937062e-07 -1.587158393734e-25)
(-6.24713009369519e-07 -7.85864682447226e-07 1.21139855369347e-29)
(-2.22041600872509e-06 -1.51488907410052e-05 4.47134598840529e-26)
(-2.66227746236767e-06 -1.39264588365482e-05 1.08414916490445e-29)
(-2.80701172841581e-06 -1.3373600493122e-05 -2.69733530227687e-27)
(-2.63503425033978e-06 -1.33155262908912e-05 -1.39899575511964e-25)
(-2.4693445336641e-06 -1.30511352988805e-05 8.14532921139912e-27)
(-2.3312447664764e-06 -1.28067828241039e-05 8.6415678036034e-30)
(-2.21992074756339e-06 -1.26125176180199e-05 0)
(-2.1302829237535e-06 -1.24571585798637e-05 1.06218160587303e-26)
(-2.05725855436447e-06 -1.23297526455208e-05 2.1611726199489e-26)
(-1.99670117414339e-06 -1.22227977799756e-05 -1.08029597865622e-26)
(-1.94530904114436e-06 -1.21312587475011e-05 1.07939633074873e-26)
(-1.90048561654987e-06 -1.20516898838603e-05 2.14964634780806e-26)
(-1.86013311291609e-06 -1.19816426920529e-05 -1.08029524588641e-26)
(-1.8225594061567e-06 -1.19193729184274e-05 2.14865961440753e-26)
(-1.78635324046777e-06 -1.18635957234998e-05 1.97417789154062e-29)
(-1.75035285368665e-06 -1.18133593021891e-05 1.06837495354074e-26)
(-1.71358347387336e-06 -1.17679579544322e-05 2.13862409493444e-26)
(-1.67523111528087e-06 -1.17268535443112e-05 1.97452882416301e-29)
(-1.63460933912473e-06 -1.16896404435771e-05 1.60901618483716e-26)
(-1.59115046248725e-06 -1.16560222844494e-05 1.48105286551523e-29)
(-1.54437304621272e-06 -1.16257743646129e-05 5.43600823002044e-27)
(-1.49387419910494e-06 -1.1598746945247e-05 2.35273821943624e-28)
(-1.43930483988359e-06 -1.1574844826241e-05 1.48072137255294e-29)
(-1.38036378490556e-06 -1.15540225125326e-05 5.42121181188889e-27)
(-1.31676928916716e-06 -1.1536277030872e-05 5.4044058170201e-27)
(-1.24824655007684e-06 -1.1521655565958e-05 5.41627302499415e-27)
(-1.17452565650298e-06 -1.15102517203165e-05 -5.40640365773011e-27)
(-1.09531092371162e-06 -1.15022060983646e-05 5.39453156404298e-27)
(-1.01027609287967e-06 -1.14977076107965e-05 5.416272573153e-27)
(-9.19048886080512e-07 -1.14970113069952e-05 -5.40640003407818e-27)
(-8.2121073480536e-07 -1.15004496319521e-05 5.40393039488978e-27)
(-7.16270773674597e-07 -1.15084298691194e-05 -5.35617938791106e-27)
(-6.03669537743405e-07 -1.152148276904e-05 -5.35864837671711e-27)
(-4.82743608407646e-07 -1.15402724768442e-05 5.36111445126876e-27)
(-3.52736261415214e-07 -1.15656501990765e-05 5.39206672484297e-27)
(-2.1274657336778e-07 -1.15987636853442e-05 -5.38959511512685e-27)
(-6.17167233783912e-08 -1.16409739855457e-05 -6.78650285829171e-30)
(1.01639569597602e-07 -1.16942016033509e-05 1.27407015641576e-27)
(2.78887685210287e-07 -1.17611624224724e-05 5.85910543682541e-26)
(4.72008480774279e-07 -1.18454627812648e-05 -3.98983176387271e-27)
(6.83526152120719e-07 -1.1952279789527e-05 -5.36510190207139e-27)
(9.16664832559357e-07 -1.20892014011651e-05 2.51401879673711e-26)
(1.17538926690267e-06 -1.22669909437264e-05 -5.36543320649339e-27)
(1.46355063742942e-06 -1.24964859316915e-05 -4.00458486217714e-27)
(1.78036793222514e-06 -1.27510744269643e-05 5.84386525317003e-26)
(2.10078680391308e-06 -1.28433303608186e-05 -4.01197584181628e-27)
(2.15993363008005e-06 -1.36205463563254e-05 -3.90074258071858e-27)
(1.94232228624602e-06 -1.44107764741733e-05 8.33179914227378e-26)
(5.52194913737162e-07 -1.74694976250026e-07 -4.73000861013434e-27)
(-5.18888635721142e-07 -4.06559118213014e-07 3.5095398424394e-27)
(-1.81368661243442e-06 -1.48454897178272e-05 3.71078814538903e-25)
(-2.24807731177225e-06 -1.40306127535424e-05 3.33680577024238e-27)
(-2.48548983069904e-06 -1.36038898832892e-05 2.70908087731534e-27)
(-2.41490081013977e-06 -1.35738852242283e-05 1.53369733492993e-25)
(-2.31268734842744e-06 -1.33073941623563e-05 1.64063928273284e-25)
(-2.21429515066034e-06 -1.30530567817607e-05 2.70796898522391e-27)
(-2.12884872891721e-06 -1.28476489685449e-05 2.65172508974059e-27)
(-2.05691688810609e-06 -1.26817418611456e-05 1.6334535104721e-25)
(-1.99656881744533e-06 -1.25447150958856e-05 1.61306182332205e-25)
(-1.9454368776715e-06 -1.24290582233161e-05 -1.58646615792647e-25)
(-1.90127907568501e-06 -1.23296530318822e-05 -1.3922733614611e-29)
(-1.86216548028479e-06 -1.2242954935821e-05 6.99587202909425e-26)
(-1.82643523870936e-06 -1.21664472895216e-05 -1.56007856929239e-25)
(-1.7926908914784e-06 -1.20983132893043e-05 1.58185332205087e-25)
(-1.75972177453999e-06 -1.20372110381172e-05 2.67242198939178e-27)
(-1.72652053172672e-06 -1.19821419165478e-05 2.68360803394348e-27)
(-1.69221546449321e-06 -1.19323515986889e-05 1.16769604408537e-25)
(-1.65606949627644e-06 -1.18872696206383e-05 4.02647238241962e-27)
(-1.61746136000885e-06 -1.18464670919791e-05 8.06881213933269e-26)
(-1.57587199219273e-06 -1.18096168456357e-05 2.70682291841026e-27)
(-1.53085710761874e-06 -1.17764788710145e-05 8.06776412131724e-26)
(-1.48204572181961e-06 -1.17468906755028e-05 1.37374220275979e-27)
(-1.42912185346357e-06 -1.17207468566076e-05 1.35404822379052e-27)
(-1.37180595651556e-06 -1.16979975547708e-05 8.59566507933715e-26)
(-1.30983953244636e-06 -1.16786404546009e-05 2.71607298487751e-27)
(-1.2429800808742e-06 -1.16627298952308e-05 7.93242206470091e-26)
(-1.17097874933557e-06 -1.1650363908089e-05 -7.93230233689831e-26)
(-1.09356205767751e-06 -1.16416967788392e-05 9.89964285330205e-30)
(-1.01044157618778e-06 -1.16369371571924e-05 3.52109439156584e-26)
(-9.21281185127569e-07 -1.16363640033069e-05 -3.38603251206886e-26)
(-8.2570083245073e-07 -1.16403284553042e-05 3.38097088987372e-26)
(-7.23260163515677e-07 -1.16492878224856e-05 -8.04819248558124e-26)
(-6.13467721916268e-07 -1.16637937246715e-05 -8.04928880726649e-26)
(-4.95746804263348e-07 -1.16845646241464e-05 7.91591576418942e-26)
(-3.69450448112751e-07 -1.1712495203348e-05 1.34855906107099e-27)
(-2.33832704144781e-07 -1.17488066563124e-05 -9.86696563855711e-30)
(-8.80429708295287e-08 -1.17949018677815e-05 -1.90304248270093e-29)
(6.89066525015552e-08 -1.18527857939341e-05 -2.62926073968239e-26)
(2.38138428320424e-07 -1.19252440113247e-05 8.31702975896788e-26)
(4.20984527442136e-07 -1.20159485952922e-05 1.33654172220623e-27)
(6.18943262543589e-07 -1.21301358249205e-05 6.74549797524778e-28)