/*--------------------------------*- C++ -*----------------------------------*\
  =========                 |
  \\      /  F ield         | OpenFOAM: The Open Source CFD Toolbox
   \\    /   O peration     | Website:  https://openfoam.org
    \\  /    A nd           | Version:  10
     \\/     M anipulation  |
\*---------------------------------------------------------------------------*/
FoamFile
{
    format      ascii;
    class       volScalarField;
    location    "0.8";
    object      wallHeatFlux;
}
// * * * * * * * * * * * * * * * * * * * * * * * * * * * * * * * * * * * * * //

dimensions      [1 0 -3 0 0 0 0];

internalField   uniform 0;

boundaryField
{
    back
    {
        type            calculated;
        value           uniform 0;
    }
    bottom
    {
        type            calculated;
        value           nonuniform List<scalar> 
50
(
920.014587412826
956.568613939485
960.95596980657
961.293657726341
961.316075981399
961.316962713822
961.316630013684
961.31601754801
961.315320927003
961.315025454714
961.314485972396
961.314140643859
961.313931129493
961.313638678645
961.31337850348
961.313067758529
961.312930148543
961.31274424602
961.312517408883
961.312363933473
961.312266784221
961.312448385066
961.312537964154
961.31226954143
961.311993742728
961.312097591136
961.312139408136
961.31209058525
961.312164702542
961.311918367831
961.31188362197
961.31190902394
961.311929559875
961.311956463995
961.311881034283
961.31196185428
961.312064906344
961.312141063665
961.312346497834
961.312526432598
961.312734575094
961.312983437041
961.313276320919
961.313458709442
961.313691329817
961.311157136182
961.281924003466
960.916400654572
956.441338584494
919.969304321585
)
;
    }
    left
    {
        type            calculated;
        value           uniform 0;
    }
    front
    {
        type            calculated;
        value           uniform 0;
    }
    right
    {
        type            calculated;
        value           uniform 0;
    }
    top
    {
        type            calculated;
        value           uniform 0;
    }
}


// ************************************************************************* //
