/*--------------------------------*- C++ -*----------------------------------*\
  =========                 |
  \\      /  F ield         | OpenFOAM: The Open Source CFD Toolbox
   \\    /   O peration     | Website:  https://openfoam.org
    \\  /    A nd           | Version:  10
     \\/     M anipulation  |
\*---------------------------------------------------------------------------*/
FoamFile
{
    format      ascii;
    class       volScalarField;
    location    "0.1";
    object      T;
}
// * * * * * * * * * * * * * * * * * * * * * * * * * * * * * * * * * * * * * //

dimensions      [0 0 0 1 0 0 0];

internalField   nonuniform List<scalar> 
500
(
228.917130905219
222.294333809937
222.012355776394
222.000522254364
222.000022135988
222
222
222
222
222
227.222331481548
222.177860893816
222.006248518051
222.000229229438
222.000008732244
222
222
222
222
222
227.054535164972
222.160831705956
222.005125354539
222.000166680414
222.000005557658
222
222
222
222
222
226.990006282886
222.156732927924
222.004883096893
222.000152928657
222.000004823254
222
222
222
222
222
226.521038502923
222.140539827297
222.004361912889
222.000135548203
222.0000042173
222
222
222
222
222
226.534385725292
222.129426538604
222.00593158724
222.002496419178
222.002121296759
222.002372710897
222.002422760394
222.002427683186
222.002494373854
222.003383609185
227.004011960546
222.174569920571
222.025791723631
222.021180887754
222.019048992479
222.020743151565
222.021176144809
222.021203871388
222.021582785298
222.027616518803
227.15948368571
222.338933125384
222.187311420954
222.181976905204
222.168854002898
222.178783827019
222.182475275555
222.182627165157
222.184488572613
222.221670164132
228.183705216498
223.716314688461
223.574066937505
223.567032449545
223.494066818095
223.537774363489
223.569188591964
223.570071087235
223.577300139654
223.775091538371
237.702977047231
235.525954960301
235.471085351956
235.464305215943
235.193480070779
235.198853492883
235.465618622188
235.471621757285
235.486220479609
236.180322921593
228.299927768572
222.246455655198
222.009570220807
222.000375162078
222.000014799972
222
222
222
222
222
226.841953787726
222.152806143677
222.004973819402
222.00016891651
222.000005963307
222
222
222
222
222
226.704930154789
222.139770095579
222.004165423351
222.000126579962
222.000003940116
222
222
222
222
222
226.653517263223
222.136753758799
222.003998046855
222.00011762476
222.000003488114
222
222
222
222
222
226.246965469373
222.123703282995
222.003605025444
222.000105381823
222.000003089907
222
222
222
222
222
226.246657114274
222.113610377928
222.004559243442
222.001699108823
222.001447229426
222.001604032883
222.001636210088
222.001638931914
222.0016775452
222.002228548635
226.662058804043
222.149593312664
222.019322101137
222.015545391145
222.014075008128
222.015219214126
222.015521804533
222.015538643688
222.015776856058
222.019840340847
226.791442806878
222.282280207856
222.149664597287
222.145368871244
222.135611204341
222.142879877889
222.145694542614
222.145797177185
222.147076887394
222.174466950806
227.710989664499
223.496657981703
223.371451473259
223.365846699116
223.306692009637
223.34124811091
223.367432051763
223.368100296546
223.373584104637
223.533970489336
237.008814934863
234.889088757704
234.838963718119
234.833370593141
234.591019112098
234.59072843492
234.834306117476
234.839366764766
234.852114889923
235.487229783578
228.283557598608
222.244280240452
222.009393077675
222.000363340971
222.000014095149
222
222
222
222
222
226.832907405779
222.151775719759
222.004899214019
222.000164357582
222.000005708269
222
222
222
222
222
226.697250809359
222.138990735963
222.004115546318
222.000123895878
222.000003807294
222
222
222
222
222
226.646097809238
222.136026454597
222.003953654515
222.000115383225
222.000003385736
222
222
222
222
222
226.240184860729
222.123047472126
222.003565458574
222.000103419361
222.000003002593
222
222
222
222
222
226.241221230379
222.113140978687
222.004534420872
222.001698406448
222.001447449938
222.001604502383
222.001636663166
222.001639398212
222.001678056274
222.002229388607
226.654993975187
222.148925803736
222.019279402598
222.015539095274
222.014070323714
222.015215341138
222.015517523423
222.015534447521
222.015772603138
222.019834620828
226.78403086484
222.281481911122
222.149530743295
222.145274139919
222.135522780048
222.142793993092
222.145603168498
222.145706499827
222.146984140728
222.174343171499
227.703128032934
223.494885812845
223.37029612348
223.364720882479
223.30561727227
223.340197405075
223.366319830362
223.366994884647
223.372459225863
223.532544341056
236.99684087474
234.877745527108
234.827663552818
234.821985391658
234.579932888965
234.580095021366
234.823041741654
234.82817272694
234.840785622741
235.473718492968
228.304232296911
222.246457595385
222.009527798907
222.00037056203
222.000014452588
222
222
222
222
222
226.84271693681
222.152599921024
222.004942666419
222.00016639476
222.000005798611
222
222
222
222
222
226.706126297835
222.139680784905
222.004148585872
222.000125283567
222.000003862136
222
222
222
222
222
226.654523125503
222.136672678458
222.003983836855
222.000116602143
222.000003431406
222
222
222
222
222
226.24676916403
222.123560456847
222.003589521562
222.000104384585
222.000003038232
222
222
222
222
222
226.248348700028
222.11367414488
222.004593664794
222.001737042446
222.001479748566
222.001641927677
222.001675122406
222.001678007197
222.001718439474
222.002289068122
226.663704354108
222.149797571529
222.019544835076
222.015774644356
222.014274664697
222.015445708016
222.015754534739
222.015772127931
222.016018345572
222.02017942926
226.793483765437
222.283397591743
222.150831057172
222.146537188963
222.136648648655
222.144026367605
222.146873619692
222.146979581337
222.148287315755
222.176069276562
227.714707623122
223.500849420017
223.375736543291
223.370120389341
223.310552949995
223.345426973398
223.371731361525
223.372415425337
223.377965097711
223.539389440077
237.009512845182
234.890044508835
234.839854314597
234.834243734584
234.591432500222
234.591735971097
234.835211128684
234.840364279365
234.853145204199
235.487789006682
228.895374802434
222.303459230199
222.013194519184
222.000575426725
222.000025078737
222
222
222
222
222
227.233568714199
222.18375417378
222.006667396191
222.000252245277
222.000009888854
222
222
222
222
222
227.057993999499
222.165347618083
222.005419449408
222.000181054262
222.00000619601
222
222
222
222
222
226.994049248086
222.161033506956
222.005152170509
222.00016538463
222.000005338212
222
222
222
222
222
226.53364708984
222.144689742545
222.00460946531
222.000146710573
222.000004666409
222
222
222
222
222
226.523901591913
222.131894854577
222.005893654935
222.002307847725
222.001952796801
222.002178078729
222.002224915295
222.002229331188
222.002289098904
222.003094963957
227.002443782761
222.177080339179
222.024662246061
222.019837085809
222.017852836943
222.019395871347
222.019808620696
222.01983408868
222.020179711029
222.025749101924
227.155622527652
222.334835423651
222.179292826274
222.173764477803
222.161428658788
222.170603446734
222.174194474579
222.174338299243
222.176071824938
222.211125006279
228.159897464819
223.682913790761
223.536784501783
223.529680010944
223.459737197871
223.500389719412
223.531633479116
223.532499742077
223.539412484773
223.730707558289
237.709356097159
235.529066209877
235.472974527061
235.466415099598
235.200141159666
235.195393438606
235.467213274407
235.473310285093
235.487997397052
236.187514274616
)
;

boundaryField
{
    patch0
    {
        type            zeroGradient;
    }
    patch1
    {
        type            zeroGradient;
    }
    patch2
    {
        type            fixedValue;
        value           nonuniform List<scalar> 
50
(
300.011666666667
300.013
300.013
300.014666666667
300.015
300.016666666667
300.018
300.018333333333
300.019666666667
300.020666666667
300.013666666667
300.015
300.015666666667
300.016666666667
300.017666666667
300.019
300.019666666667
300.021
300.021666666667
300.022666666667
300.015666666667
300.017
300.017666666667
300.018666666667
300.019666666667
300.020666666667
300.021666666667
300.023
300.023666666667
300.024666666667
300.017
300.018333333333
300.019
300.02
300.021
300.022
300.023333333333
300.024333333333
300.025
300.026
300.019666666667
300.021
300.021666666667
300.022666666667
300.023666666667
300.024666666667
300.026
300.027
300.027666666667
300.028666666667
)
;
    }
    patch3
    {
        type            zeroGradient;
    }
    patch4
    {
        type            fixedValue;
        value           nonuniform List<scalar> 
50
(
300.022666666667
300.024
300.026666666667
300.028
300.030666666667
300.032
300.034666666667
300.036666666667
300.038
300.04
300.024666666667
300.026
300.028666666667
300.030666666667
300.032666666667
300.034
300.036666666667
300.037333333333
300.04
300.041333333333
300.026666666667
300.028666666667
300.030666666667
300.032
300.034666666667
300.036
300.038666666667
300.04
300.042
300.044
300.028
300.03
300.032
300.034
300.036
300.037333333333
300.04
300.041333333333
300.044
300.045333333333
300.030666666667
300.032666666667
300.034666666667
300.036666666667
300.038666666667
300.04
300.042666666667
300.044
300.046666666667
300.048
)
;
    }
    patch5
    {
        type            zeroGradient;
    }
}


// ************************************************************************* //
