/*--------------------------------*- C++ -*----------------------------------*\
  =========                 |
  \\      /  F ield         | OpenFOAM: The Open Source CFD Toolbox
   \\    /   O peration     | Website:  https://openfoam.org
    \\  /    A nd           | Version:  10
     \\/     M anipulation  |
\*---------------------------------------------------------------------------*/
FoamFile
{
    format      ascii;
    class       volScalarField;
    location    "5";
    object      alphat;
}
// * * * * * * * * * * * * * * * * * * * * * * * * * * * * * * * * * * * * * //

dimensions      [1 -1 -1 0 0 0 0];

internalField   nonuniform List<scalar> 
2500
(
1.24836279413211e-14
2.43368632008008e-13
1.02870374313762e-12
1.74810806258374e-12
2.31980920905779e-12
2.72961768690065e-12
2.99632256397395e-12
3.15473168642358e-12
3.24106176817483e-12
3.28446596832615e-12
3.30470477267973e-12
3.31350114693936e-12
3.31708129440619e-12
3.31845135121654e-12
3.31894580820193e-12
3.31911423648878e-12
3.31916807699202e-12
3.31918381556705e-12
3.31918758492713e-12
3.31918786691325e-12
3.31918727347869e-12
3.31918656520341e-12
3.31918593448183e-12
3.31918542064388e-12
3.31918503887597e-12
3.31918479814278e-12
3.31918472221666e-12
3.31918475780965e-12
3.31918479774609e-12
3.31918487984918e-12
3.31918467620726e-12
3.3191829418458e-12
3.31917593560074e-12
3.31915242173736e-12
3.31907934387938e-12
3.31886483323222e-12
3.31826658917091e-12
3.31668099380512e-12
3.31269571405384e-12
3.30322843023454e-12
3.28205707354165e-12
3.23769015634187e-12
3.15099305498864e-12
2.99385238935359e-12
2.7311194526652e-12
2.32814553789986e-12
1.76416052785153e-12
1.04823416703393e-12
2.52376951899436e-13
1.3268125581552e-14
1.23354395233834e-12
6.31123682283643e-11
2.72471633823232e-10
4.63678153013035e-10
6.16252316107974e-10
7.26273663948056e-10
7.98394675907961e-10
8.41582586570464e-10
8.65328717995491e-10
8.7737918470178e-10
8.83052151475606e-10
8.85541746168427e-10
8.86564859283335e-10
8.86960162452048e-10
8.87104199800689e-10
8.87153744050659e-10
8.87169756301028e-10
8.87174510165885e-10
8.87175690978837e-10
8.87175816912206e-10
8.87175671186059e-10
8.87175483667717e-10
8.87175314974742e-10
8.87175177440539e-10
8.8717507515151e-10
8.87175011081558e-10
8.87174991975787e-10
8.87175001687567e-10
8.87175011583255e-10
8.87175031405624e-10
8.87174957355173e-10
8.87174415868409e-10
8.87172307974098e-10
8.87165328691527e-10
8.87143843236373e-10
8.87081303748672e-10
8.86908311586899e-10
8.86453581712509e-10
8.85320224293188e-10
8.8265077063407e-10
8.7673246576641e-10
8.64436520175089e-10
8.40612268843191e-10
7.97782964999737e-10
7.26723099741623e-10
6.18486461158517e-10
4.67891411616101e-10
2.7754134279314e-10
6.53859281897276e-11
1.30744224565932e-12
4.36743568103799e-12
1.1319283767249e-09
3.83020009170528e-07
6.49491885069013e-07
8.60483337046604e-07
1.0122245336774e-06
1.11175574836573e-06
1.17154858518111e-06
1.20459190080722e-06
1.22146704579888e-06
1.22946820890561e-06
1.23300638398645e-06
1.23447194873233e-06
1.23504279815942e-06
1.2352525283209e-06
1.23532529858993e-06
1.23534905398552e-06
1.23535620990646e-06
1.23535804675189e-06
1.2353582930627e-06
1.23535812254112e-06
1.23535787609655e-06
1.23535765148326e-06
1.23535746747389e-06
1.23535733007781e-06
1.23535724369773e-06
1.23535721769754e-06
1.23535722804765e-06
1.23535723909877e-06
1.235357259312e-06
1.23535712986949e-06
1.23535630409509e-06
1.23535318991038e-06
1.23534297871991e-06
1.23531175770721e-06
1.23522139903722e-06
1.23497281498476e-06
1.23432294415969e-06
1.23271219943234e-06
1.22893964291882e-06
1.22062260521531e-06
1.2034367836842e-06
1.17030323008037e-06
1.11098039998696e-06
1.01280977775759e-06
8.63341562653697e-07
6.54867502001457e-07
3.89487892897778e-07
1.16845337699732e-09
4.58456546226501e-12
7.70962994178596e-12
2.01216673414488e-09
6.81118569781279e-07
1.14824859684908e-06
1.51482940585849e-06
1.77693610347801e-06
1.94830016686773e-06
2.05111966177346e-06
2.107955853955e-06
2.13702018257679e-06
2.15082887252316e-06
2.15695079514013e-06
2.15949405260146e-06
2.16048791077056e-06
2.16085436826495e-06
2.16098203284404e-06
2.1610239153376e-06
2.16103662784514e-06
2.16103994624595e-06
2.16104043298123e-06
2.16104016962102e-06
2.16103976810856e-06
2.16103939461327e-06
2.16103908711287e-06
2.161038856079e-06
2.16103870869016e-06
2.16103866062189e-06
2.16103867064553e-06
2.16103869169353e-06
2.16103872020434e-06
2.16103848761193e-06
2.16103707542413e-06
2.16103177947245e-06
2.16101439833187e-06
2.16096118088796e-06
2.16080691691039e-06
2.1603818702593e-06
2.15926913001021e-06
2.15650785122889e-06
2.15003424204871e-06
2.13575083626629e-06
2.10621480049964e-06
2.04922267126048e-06
1.94705563455023e-06
1.77763103604134e-06
1.51878409505673e-06
1.15581476760375e-06
6.90224175954742e-07
2.06303892813595e-09
8.00791515214192e-12
1.09348634061346e-11
2.85562483482816e-09
9.62102448980061e-07
1.61357996286585e-06
2.12113483693423e-06
2.48234651024024e-06
2.71790087253096e-06
2.8591042344987e-06
2.937180071872e-06
2.97715150196651e-06
2.99617582619246e-06
3.00462886842478e-06
3.00814969968024e-06
3.00952961704797e-06
3.01004009787926e-06
3.01021861057715e-06
3.0102774560618e-06
3.01029545431851e-06
3.01030023586817e-06
3.01030100162538e-06
3.01030068816432e-06
3.01030017255492e-06
3.01029968283567e-06
3.01029927691079e-06
3.0102989695419e-06
3.01029876928522e-06
3.01029869357644e-06
3.01029869861558e-06
3.01029873053993e-06
3.0102987526395e-06
3.01029841255617e-06
3.01029647951812e-06
3.01028928942376e-06
3.01026568286214e-06
3.01019331501668e-06
3.00998320484038e-06
3.00940333680514e-06
3.00788295717638e-06
3.0041049764687e-06
2.99523743664848e-06
2.97565265726285e-06
2.93511853096733e-06
2.85683410325621e-06
2.71633531231871e-06
2.48293892752816e-06
2.12537338983191e-06
1.62185945351588e-06
9.72118225908399e-07
2.91234888284089e-09
1.12733663651872e-11
1.39213305551159e-11
3.63661918445031e-09
1.21941077658869e-06
2.03598197371073e-06
2.66836552358958e-06
3.11673056680419e-06
3.40854457930543e-06
3.58336575413293e-06
3.6800673748014e-06
3.72962954572255e-06
3.75325747809228e-06
3.76377769187973e-06
3.76817008369932e-06
3.76989628824043e-06
3.77053684303508e-06
3.77076164983169e-06
3.77083610278664e-06
3.77085904861714e-06
3.77086525614223e-06
3.77086633975417e-06
3.77086602400457e-06
3.77086543567727e-06
3.77086486486415e-06
3.77086438754615e-06
3.77086402268867e-06
3.77086377890805e-06
3.77086366851623e-06
3.77086366621306e-06
3.77086370962405e-06
3.77086370601768e-06
3.77086325086645e-06
3.77086085076755e-06
3.77085202213313e-06
3.77082306360417e-06
3.77073422812606e-06
3.77047598023875e-06
3.76976225425108e-06
3.76788835970008e-06
3.76322623923814e-06
3.75227197404554e-06
3.72805704407476e-06
3.67790154662258e-06
3.58096207598313e-06
3.40682212571524e-06
3.11714727794246e-06
2.67240679354757e-06
2.04404207997673e-06
1.22924978623646e-06
3.69390750010431e-09
1.4273824717001e-11
1.66022553519715e-11
4.33885022698139e-09
1.44892671172139e-06
2.41002041739307e-06
3.1506943718494e-06
3.67427951812169e-06
4.01454530175485e-06
4.21832029676874e-06
4.33109088927387e-06
4.38895152441569e-06
4.41657824680433e-06
4.42890241641935e-06
4.43405945007761e-06
4.43609128350018e-06
4.43684741957926e-06
4.43711369373626e-06
4.43720227674736e-06
4.43722978042539e-06
4.43723735643346e-06
4.4372387889e-06
4.43723851549973e-06
4.43723789498595e-06
4.4372372769185e-06
4.43723675433294e-06
4.43723635040635e-06
4.43723607354326e-06
4.43723593112518e-06
4.43723591739646e-06
4.43723594795285e-06
4.43723591563915e-06
4.43723533806489e-06
4.43723251728018e-06
4.43722228098255e-06
4.43718877456639e-06
4.43708597034382e-06
4.4367868307066e-06
4.43595911205012e-06
4.4337833703827e-06
4.42836450125279e-06
4.41562049095541e-06
4.38742773863254e-06
4.32899544907162e-06
4.21598997190336e-06
4.01284362977969e-06
3.67456427679184e-06
3.15433440065377e-06
2.41737287928699e-06
1.45798496636303e-06
4.39360841524979e-09
1.69522289244953e-11
1.89438327510083e-11
4.95374888322473e-09
1.64875458206122e-06
2.73375946617936e-06
3.56663092085746e-06
4.15402506557212e-06
4.53534494619562e-06
4.7636699648388e-06
4.89009371663187e-06
4.95502730482423e-06
4.98607581390937e-06
4.99995084838766e-06
5.00576872910425e-06
5.0080662714426e-06
5.0089235669701e-06
5.0092264243244e-06
5.00932760618048e-06
5.00935924506174e-06
5.00936811232551e-06
5.00936991324472e-06
5.00936972010268e-06
5.00936910312787e-06
5.00936846760722e-06
5.00936792290854e-06
5.0093674964011e-06
5.00936719642278e-06
5.00936702790355e-06
5.00936698913419e-06
5.00936699674066e-06
5.00936692509598e-06
5.00936621874144e-06
5.00936302415889e-06
5.00935158807926e-06
5.00931426215165e-06
5.00919976900311e-06
5.00886638983649e-06
5.00794302559338e-06
5.00551342588483e-06
4.99945673338383e-06
4.98520146231556e-06
4.95364494968717e-06
4.88820590427181e-06
4.76158821996392e-06
4.53384615307827e-06
4.15430857586972e-06
3.56988081283857e-06
2.74026181319877e-06
1.65679628556678e-06
5.00451160764662e-09
1.9282063613028e-11
2.09374808222205e-11
5.47896310196948e-09
1.8187893282103e-06
3.00795568495868e-06
3.91792603993374e-06
4.55855306597179e-06
4.97411211747487e-06
5.22293719038129e-06
5.36078920224967e-06
5.43166281973595e-06
5.46559671451889e-06
5.48078565089188e-06
5.48716636536698e-06
5.48969154138046e-06
5.49063607745291e-06
5.49097073415033e-06
5.49108298300571e-06
5.49111831656558e-06
5.49112837962612e-06
5.49113055511156e-06
5.49113047299766e-06
5.49112988826437e-06
5.491129259654e-06
5.4911287118882e-06
5.49112827648122e-06
5.49112796188245e-06
5.49112777099417e-06
5.49112769818981e-06
5.49112767313675e-06
5.49112755059167e-06
5.49112671452745e-06
5.49112319519947e-06
5.4911107450593e-06
5.49107025085799e-06
5.49094611195763e-06
5.49058447937545e-06
5.48958205866769e-06
5.48694219462235e-06
5.48035616829294e-06
5.46484461161946e-06
5.4304882795773e-06
5.35921183691085e-06
5.22124652815753e-06
4.9729900688204e-06
4.55901761623264e-06
3.92094319800432e-06
3.01370920725826e-06
1.82584226091471e-06
5.52545340396679e-09
2.12602844913769e-11
2.25938549089654e-11
5.91695887278687e-09
1.96028530680614e-06
3.23533005218294e-06
4.20863424572471e-06
4.89293377643126e-06
5.33659485231163e-06
5.60227434118195e-06
5.74954774993222e-06
5.82533549561954e-06
5.86166641525409e-06
5.8779520661285e-06
5.88480506951754e-06
5.88752238164092e-06
5.88854104100783e-06
5.88890292777672e-06
5.88902475220314e-06
5.88906333594994e-06
5.88907448585535e-06
5.88907702965701e-06
5.88907707883329e-06
5.88907654719568e-06
5.88907594383521e-06
5.88907540761991e-06
5.88907497397725e-06
5.88907465173593e-06
5.8890744422272e-06
5.88907433580563e-06
5.88907427450012e-06
5.88907408520635e-06
5.8890731290218e-06
5.88906932434271e-06
5.88905602601143e-06
5.88901293872096e-06
5.88888095638673e-06
5.88849636433962e-06
5.88742961417127e-06
5.88461833770726e-06
5.87760001300356e-06
5.86106092398835e-06
5.82441197035705e-06
5.74835188142154e-06
5.60108295116465e-06
5.33600202671255e-06
4.89377797644341e-06
4.21165539607527e-06
3.24058288984372e-06
1.96654447147536e-06
5.95969586745496e-09
2.29014821337365e-11
2.39375755634259e-11
6.27376360430701e-09
2.0754766100204e-06
3.41996825533438e-06
4.44437044579567e-06
5.16389264373835e-06
5.63024261290294e-06
5.90955909775226e-06
6.0644782590648e-06
6.14426873179612e-06
6.1825605093054e-06
6.19974765270997e-06
6.2069909490993e-06
6.20986797463066e-06
6.21094865551232e-06
6.2113335039036e-06
6.21146348566209e-06
6.21150488315933e-06
6.21151700237236e-06
6.21151989670859e-06
6.21152008707252e-06
6.21151962158647e-06
6.21151905583002e-06
6.211518541318e-06
6.21151811715505e-06
6.21151779273066e-06
6.2115175683893e-06
6.21151743257055e-06
6.21151733023854e-06
6.21151707439184e-06
6.21151600715265e-06
6.21151195015202e-06
6.21149795082244e-06
6.21145277185233e-06
6.21131451089112e-06
6.21091156157821e-06
6.20979332264227e-06
6.20684462132872e-06
6.19947914501044e-06
6.18211377039203e-06
6.14361931134794e-06
6.06370589218842e-06
5.90893989561459e-06
5.63029898548872e-06
5.16530096738203e-06
4.4476536948807e-06
3.42503185930655e-06
2.08122087038164e-06
6.31371523512706e-09
2.42327301227571e-11
2.50024571840491e-11
6.55781083374709e-09
2.16723870703907e-06
3.56680909069833e-06
4.63169150909203e-06
5.37913000508857e-06
5.86349154431857e-06
6.15366111018485e-06
6.31468506587105e-06
6.397683977159e-06
6.43755447993226e-06
6.45547101147062e-06
6.46303179713314e-06
6.46603951309994e-06
6.46717127983678e-06
6.46757518743016e-06
6.46771200833161e-06
6.46775580162461e-06
6.4677687683721e-06
6.46777198712823e-06
6.46777232076165e-06
6.46777192713634e-06
6.46777140616566e-06
6.46777091971641e-06
6.46777051026217e-06
6.46777018785746e-06
6.46776995227865e-06
6.46776979079803e-06
6.4677696485098e-06
6.46776933079897e-06
6.46776816064169e-06
6.46776388570123e-06
6.4677493154138e-06
6.46770247561339e-06
6.46755927157669e-06
6.46714189334087e-06
6.46598315128922e-06
6.46292618408186e-06
6.45528679937008e-06
6.43726863538e-06
6.39731478377578e-06
6.31435235452362e-06
6.15365232698339e-06
5.86427733847255e-06
5.38125026979128e-06
4.63547196403946e-06
3.57199324635125e-06
2.17276464770046e-06
6.59610728783692e-09
2.52890190007179e-11
2.58272201915609e-11
6.77887773100345e-09
2.23878381994824e-06
3.68119515269726e-06
4.7775598383088e-06
5.54673444721403e-06
6.04514971849116e-06
6.34381190143204e-06
6.50962973778309e-06
6.59515841260712e-06
6.63627940056323e-06
6.65477658260026e-06
6.66259150200689e-06
6.66570445401775e-06
6.66687762889224e-06
6.66729710388988e-06
6.66743956611073e-06
6.6674853648538e-06
6.66749905733628e-06
6.66750257009457e-06
6.66750304435688e-06
6.66750272028655e-06
6.66750224690355e-06
6.66750179171286e-06
6.66750140009889e-06
6.66750108281037e-06
6.6675008393228e-06
6.66750065613519e-06
6.66750047761052e-06
6.66750010393865e-06
6.66749884195665e-06
6.66749438327653e-06
6.66747935568451e-06
6.66743121918799e-06
6.66728419084875e-06
6.66685567155614e-06
6.66566563678024e-06
6.66252490889348e-06
6.65467331124498e-06
6.63614878109645e-06
6.59506186504913e-06
6.50973083593689e-06
6.3444196711449e-06
6.04670289087372e-06
5.54966462308097e-06
4.78202065725559e-06
3.68676364485998e-06
2.24435897426578e-06
6.81659910688325e-09
2.61092563342879e-11
2.64518228392879e-11
6.94715517531746e-09
2.29339724627282e-06
3.76848934296939e-06
4.88888813019378e-06
5.67468580451401e-06
6.18387633623863e-06
6.48907082876509e-06
6.65858990326931e-06
6.74608010060649e-06
6.78817527997671e-06
6.80712715478397e-06
6.81514219150374e-06
6.81833851249603e-06
6.81954470949452e-06
6.8199766942624e-06
6.82012373370148e-06
6.82017118261536e-06
6.82018548440222e-06
6.82018925408976e-06
6.82018985588973e-06
6.82018960336991e-06
6.82018917733223e-06
6.82018875416478e-06
6.82018838186952e-06
6.82018807187794e-06
6.82018782352229e-06
6.82018762274653e-06
6.82018741300399e-06
6.82018699060766e-06
6.82018564974508e-06
6.82018104003451e-06
6.82016565288792e-06
6.82011652184103e-06
6.8199665878268e-06
6.81952962263585e-06
6.81831585456839e-06
6.81511151972139e-06
6.80709855192273e-06
6.78818852622364e-06
6.74623825930416e-06
6.65910142644989e-06
6.49027372408747e-06
6.1861947164373e-06
5.67846996026176e-06
4.89414656213256e-06
3.77463559392979e-06
2.29923242619891e-06
6.98519726977177e-09
2.67329233503636e-11
2.69145854935842e-11
7.07250275350354e-09
2.33422712366769e-06
3.83377227025276e-06
4.97218164559504e-06
5.77046502844984e-06
6.28777281452785e-06
6.59790550432918e-06
6.77023380383178e-06
6.85921944442879e-06
6.90206097347153e-06
6.92136304406392e-06
6.92953308495097e-06
6.93279437646832e-06
6.93402648043141e-06
6.93446835453717e-06
6.93461904683893e-06
6.93466783056708e-06
6.93468263562994e-06
6.9346866236936e-06
6.93468733950527e-06
6.93468715388929e-06
6.93468677263271e-06
6.93468638050142e-06
6.93468602778088e-06
6.9346857265339e-06
6.93468547604297e-06
6.93468526183869e-06
6.93468502651954e-06
6.93468456346291e-06
6.9346831573282e-06
6.93467842673555e-06
6.93466276251436e-06
6.9346128827428e-06
6.93446078177075e-06
6.93401753288215e-06
6.93278610117027e-06
6.92953436962923e-06
6.92140099982843e-06
6.90220302122862e-06
6.85960730184977e-06
6.77111964259363e-06
6.59966053893999e-06
6.29082002923065e-06
5.77509693039508e-06
4.97828777814415e-06
3.840612049335e-06
2.34046542065682e-06
7.11151403706959e-09
2.71975079483571e-11
2.72502003741393e-11
7.1639199402145e-09
2.3641354651022e-06
3.88163051959793e-06
5.03328953854629e-06
5.84078378428355e-06
6.36409961292267e-06
6.67790120328673e-06
6.85232550563403e-06
6.94243212081051e-06
6.98583593966283e-06
7.00540327755415e-06
7.01369141367707e-06
7.01700251310171e-06
7.01825461215453e-06
7.01870417719646e-06
7.01885773695119e-06
7.01890758219056e-06
7.01892279641666e-06
7.01892696683603e-06
7.01892778048888e-06
7.0189276545516e-06
7.0189273141521e-06
7.01892695096818e-06
7.01892661726112e-06
7.01892632566349e-06
7.01892607545698e-06
7.01892585186078e-06
7.01892559675854e-06
7.01892510132574e-06
7.01892364323606e-06
7.01891881862891e-06
7.01890294549761e-06
7.0188525129791e-06
7.01869882657441e-06
7.01825099103808e-06
7.01700666182519e-06
7.01372028169912e-06
7.00549878012653e-06
6.98608978738273e-06
6.94302065910565e-06
6.8535416206505e-06
6.68015056982113e-06
6.36781344722855e-06
5.84621587179926e-06
5.04023433461082e-06
3.88920741963546e-06
2.37085402412012e-06
7.20429487228159e-09
2.75367666424298e-11
2.74885988680285e-11
7.22923259140085e-09
2.38561011017127e-06
3.91603462343237e-06
5.07726387397985e-06
5.89143259720088e-06
6.41911793101934e-06
6.73559866587794e-06
6.9115603704102e-06
7.00249320442742e-06
7.04631362739943e-06
7.06607860053287e-06
7.07445524466739e-06
7.07780390921441e-06
7.079071191528e-06
7.07952664139727e-06
7.07968241555951e-06
7.07973309087943e-06
7.07974863155306e-06
7.07975295057318e-06
7.07975384664596e-06
7.07975377314502e-06
7.07975346909303e-06
7.07975313219875e-06
7.0797528164625e-06
7.07975253502519e-06
7.07975228719758e-06
7.07975205796669e-06
7.07975178865236e-06
7.07975126881174e-06
7.07974977111122e-06
7.07974487569245e-06
7.07972884880347e-06
7.07967801660572e-06
7.0795231929116e-06
7.07907207390017e-06
7.07781850756229e-06
7.07450728171794e-06
7.06622249882059e-06
7.04666181425753e-06
7.00325205041432e-06
6.91305919035559e-06
6.73827642685922e-06
6.42341964678384e-06
5.89758781152338e-06
5.08499270808846e-06
3.92433351895376e-06
2.39283021455568e-06
7.2711428482182e-09
2.77797681981371e-11
2.76545466291559e-11
7.27496633329328e-09
2.40072988562671e-06
3.94029520966862e-06
5.10831263396448e-06
5.92723272896067e-06
6.45804093231581e-06
6.77644472565372e-06
6.95351513605274e-06
7.04504681199265e-06
7.08917081910378e-06
7.10908063698405e-06
7.11752254118206e-06
7.12089908196369e-06
7.12217770933095e-06
7.12263759026984e-06
7.12279504720192e-06
7.12284636109026e-06
7.1228621574855e-06
7.12286659550053e-06
7.12286755996195e-06
7.12286753159964e-06
7.12286725925698e-06
7.12286694582645e-06
7.1228666468102e-06
7.12286637578933e-06
7.12286613212313e-06
7.12286590063107e-06
7.12286562220298e-06
7.12286508523547e-06
7.12286355888319e-06
7.12285861213197e-06
7.12284247520085e-06
7.12279136051822e-06
7.12263573780384e-06
7.12218231489226e-06
7.12092226214527e-06
7.11759356464912e-06
7.10926421719948e-06
7.08959657079095e-06
7.04594636865744e-06
6.95524925765153e-06
6.7794827917396e-06
6.46284423167677e-06
5.93401690784826e-06
5.11674085440733e-06
3.94925927481052e-06
2.40843114402815e-06
7.31841199859747e-09
2.7950589389983e-11
2.77677852503356e-11
7.30636267953901e-09
2.41117090487705e-06
3.95707954513045e-06
5.12982543048274e-06
5.95206846249568e-06
6.48507003932659e-06
6.80483071386501e-06
6.98268726381783e-06
7.07464578876887e-06
7.11898739678447e-06
7.13900164816031e-06
7.1474908975228e-06
7.15088779480373e-06
7.15217476505005e-06
7.15263792989274e-06
7.1527966455384e-06
7.15284844298363e-06
7.15286443659383e-06
7.15286896853873e-06
7.15286998885584e-06
7.15286999862137e-06
7.1528697535641e-06
7.15286946087027e-06
7.15286917729521e-06
7.15286891679028e-06
7.15286867877059e-06
7.15286844793971e-06
7.15286816487508e-06
7.15286761715694e-06
7.15286607153239e-06
7.1528610893938e-06
7.15284487641254e-06
7.15279356732898e-06
7.15263739603195e-06
7.15218239089551e-06
7.15091787665234e-06
7.14757713931234e-06
7.13921702784383e-06
7.1194754310458e-06
7.07565879088674e-06
6.98461227979012e-06
6.80816366432095e-06
6.4902887246801e-06
5.95938157121319e-06
5.13885325281368e-06
3.96662734522509e-06
2.41930617188291e-06
7.3512288890093e-09
2.80684910611439e-11
2.7843522356575e-11
7.32748967027923e-09
2.41824053674306e-06
3.96846862346321e-06
5.14444803524385e-06
5.96897344390789e-06
6.50348851632102e-06
6.8241900658037e-06
7.00259456785117e-06
7.09485225424201e-06
7.13934725751757e-06
7.15943557819518e-06
7.16795862227629e-06
7.17137014784397e-06
7.17266315643639e-06
7.17312871700573e-06
7.1732883596562e-06
7.17334051776551e-06
7.17335666135986e-06
7.17336126656688e-06
7.17336233196536e-06
7.17336237357435e-06
7.17336215184405e-06
7.17336187743741e-06
7.17336160812345e-06
7.17336135815903e-06
7.17336112701054e-06
7.17336089930912e-06
7.1733606154122e-06
7.17336006234379e-06
7.17335850525301e-06
7.17335350050126e-06
7.17333723748575e-06
7.17328579920031e-06
7.17312926170448e-06
7.17267319676799e-06
7.1714056845412e-06
7.16805683331274e-06
7.15967593764501e-06
7.13988427633428e-06
7.09595476705553e-06
7.00467098771086e-06
6.82775862240012e-06
6.50904233818359e-06
5.97671860813227e-06
5.15397305904306e-06
3.97850899460288e-06
2.42674929807937e-06
7.37359874428762e-09
2.8148399587422e-11
2.78930975838193e-11
7.34140316143936e-09
2.42292655237812e-06
3.9760363005993e-06
5.15418334172229e-06
5.98024626592786e-06
6.51578607054684e-06
6.83712803703759e-06
7.01590759636758e-06
7.10837125725459e-06
7.15297252633656e-06
7.17311248997687e-06
7.18165925498759e-06
7.18508112056691e-06
7.18637842929423e-06
7.18684571008074e-06
7.18700602496958e-06
7.18705844816811e-06
7.18707470434013e-06
7.18707936610416e-06
7.18708046768656e-06
7.18708053582906e-06
7.18708033406505e-06
7.18708007585018e-06
7.18707981977269e-06
7.18707958033219e-06
7.1870793570488e-06
7.18707913450907e-06
7.18707885292386e-06
7.18707829895421e-06
7.18707673673338e-06
7.18707171943643e-06
7.18705542608761e-06
7.18700390640828e-06
7.18684713413702e-06
7.1863903829932e-06
7.18512091621473e-06
7.18176674701229e-06
7.17337217152012e-06
7.15354744689293e-06
7.10954319377316e-06
7.01810194339825e-06
6.84088123201314e-06
6.52160466380757e-06
5.98833623399666e-06
5.16410993370031e-06
3.98647989745944e-06
2.43174559709634e-06
7.38855690570999e-09
2.82015405448854e-11
2.79246920564935e-11
7.35032373772742e-09
2.42595124502689e-06
3.98093527104922e-06
5.1605002570297e-06
5.98757468849698e-06
6.5237925858542e-06
6.84556090291415e-06
7.02459173499913e-06
7.11719430552579e-06
7.16186773306128e-06
7.18204301372895e-06
7.1906061201867e-06
7.19403516352419e-06
7.19533548142839e-06
7.19580397677377e-06
7.19596477143992e-06
7.19601738668377e-06
7.19603372634967e-06
7.19603843142748e-06
7.1960395620386e-06
7.19603965246024e-06
7.19603946791905e-06
7.19603922417278e-06
7.19603898048561e-06
7.19603875154801e-06
7.19603853692951e-06
7.19603832119349e-06
7.19603804446191e-06
7.19603749317505e-06
7.19603593087788e-06
7.19603090889529e-06
7.19601460011585e-06
7.19596303417264e-06
7.19580612193717e-06
7.19534895142003e-06
7.19407827122817e-06
7.1907207632686e-06
7.18231752564223e-06
7.16247172513687e-06
7.11841957478022e-06
7.02687698473208e-06
6.84945714957411e-06
6.52981770691308e-06
5.99593586972156e-06
5.17074580418694e-06
3.9917026071575e-06
2.43502233099205e-06
7.39833439521687e-09
2.82361068385461e-11
2.79439891646923e-11
7.35580456918902e-09
2.42782311842951e-06
3.98397876720197e-06
5.16443691562233e-06
5.9921532698906e-06
6.52880475597605e-06
6.85084781576124e-06
7.03004187749652e-06
7.12273544322415e-06
7.16745654265363e-06
7.18765535926389e-06
7.1962294530569e-06
7.19966336651828e-06
7.20096574562892e-06
7.20143508163778e-06
7.20159621262638e-06
7.20164896492887e-06
7.2016653658857e-06
7.20167010399581e-06
7.20167125803959e-06
7.20167136737184e-06
7.20167119783985e-06
7.20167096716454e-06
7.20167073517686e-06
7.20167051671018e-06
7.20167031137421e-06
7.20167010372793e-06
7.20166983384503e-06
7.2016692880573e-06
7.20166772964454e-06
7.20166270908844e-06
7.2016463962951e-06
7.20159481048681e-06
7.20143782832471e-06
7.20098043298767e-06
7.19970907449981e-06
7.19634964610147e-06
7.18794132070829e-06
7.16808294283277e-06
7.12400185450955e-06
7.03239744094272e-06
6.85485518080407e-06
6.53499121784581e-06
6.00072782110462e-06
5.17493544557396e-06
3.99500519706492e-06
2.43709793673451e-06
7.40451543188482e-09
2.82578804606409e-11
2.79547311201979e-11
7.35887481840535e-09
2.42888135122027e-06
3.98571072098688e-06
5.16668926993339e-06
5.99478434416648e-06
6.53169484209477e-06
6.85390411580651e-06
7.03319821611195e-06
7.12594829925619e-06
7.1706993963984e-06
7.1909132185514e-06
7.19949440984138e-06
7.20293151068496e-06
7.20423525687047e-06
7.20470515846834e-06
7.20486651965693e-06
7.20491936807341e-06
7.20493581366585e-06
7.2049405770671e-06
7.20494175029236e-06
7.20494187585861e-06
7.20494171954648e-06
7.20494150079991e-06
7.20494127994892e-06
7.20494107189642e-06
7.20494087628873e-06
7.20494067768844e-06
7.20494041615417e-06
7.20493987800125e-06
7.20493832651332e-06
7.20493331215673e-06
7.20491700439212e-06
7.20486541966827e-06
7.20470842258784e-06
7.20425095292201e-06
7.20297932369037e-06
7.19961904002088e-06
7.1912082788749e-06
7.17134356466039e-06
7.12724734227717e-06
7.03560967240375e-06
6.85800011401712e-06
6.53801061015796e-06
6.00353091559655e-06
5.17739316805307e-06
3.99694912695078e-06
2.43832440116267e-06
7.40817278682966e-09
2.82707589096513e-11
2.79591432200198e-11
7.36015045588996e-09
2.42933035385777e-06
3.98646026229778e-06
5.1676797733602e-06
5.99595632962018e-06
6.53299511031007e-06
6.85528940692897e-06
7.03463632939075e-06
7.12741721954434e-06
7.17218514932598e-06
7.19240763457367e-06
7.20099303804515e-06
7.20443208239016e-06
7.20573668578687e-06
7.20620695365791e-06
7.20636847054161e-06
7.20642138838032e-06
7.20643786943147e-06
7.20644265514959e-06
7.20644384659753e-06
7.20644398792006e-06
7.20644384458698e-06
7.20644363759273e-06
7.20644342780746e-06
7.20644323008243e-06
7.20644304409499e-06
7.20644285441086e-06
7.20644260109165e-06
7.2064420705068e-06
7.20644052617792e-06
7.20643551930332e-06
7.20641922120001e-06
7.20636765233636e-06
7.20621068446559e-06
7.20575326586412e-06
7.20448170585147e-06
7.20112144473121e-06
7.19271039911567e-06
7.17284433188594e-06
7.12874384009969e-06
7.03709511860821e-06
6.85946065994227e-06
6.53942107781844e-06
6.00485019070237e-06
5.1785604640242e-06
3.99788226310774e-06
2.4389204092312e-06
7.40997311589033e-09
2.82771608532498e-11
2.79582095200896e-11
7.35990627842107e-09
2.42926287948625e-06
3.98637863449557e-06
5.16760430439487e-06
5.99589733496714e-06
6.53295558421015e-06
6.85526772353228e-06
7.03462866167598e-06
7.12741934012299e-06
7.17219345500873e-06
7.19241952909574e-06
7.20100686151686e-06
7.20444687762311e-06
7.20575194690165e-06
7.2062224325912e-06
7.20638405305571e-06
7.20643702439644e-06
7.20645353775772e-06
7.20645834689434e-06
7.20645955833669e-06
7.20645971679406e-06
7.20645958775152e-06
7.20645939309345e-06
7.20645919468238e-06
7.2064590071064e-06
7.20645883005816e-06
7.20645864810821e-06
7.2064584013299e-06
7.2064578762039e-06
7.20645633672663e-06
7.20645133562056e-06
7.20643504849168e-06
7.20638350687889e-06
7.20622660914493e-06
7.2057693632191e-06
7.20449820246509e-06
7.20113880405669e-06
7.192729493924e-06
7.17286666053555e-06
7.12877171268755e-06
7.03713165692118e-06
6.85950939083235e-06
6.53948492133548e-06
6.00492978850223e-06
5.17865198964356e-06
3.99797494312255e-06
2.43899391582239e-06
7.4102485002041e-09
2.82783011558979e-11
2.79518247720335e-11
7.35811672463424e-09
2.42867236478895e-06
3.98545795866918e-06
5.16645569589677e-06
5.99460191418389e-06
6.53157288506075e-06
6.85383764386025e-06
7.03317537675323e-06
7.12595595290568e-06
7.17072634357112e-06
7.19095135735773e-06
7.19953856221993e-06
7.20297868953056e-06
7.20428388332078e-06
7.20475445859001e-06
7.20491613743396e-06
7.20496914781366e-06
7.20498568979862e-06
7.20499052228294e-06
7.20499175422931e-06
7.20499193042193e-06
7.20499181592707e-06
7.20499163380793e-06
7.20499144672587e-06
7.20499126899398e-06
7.20499110031383e-06
7.20499092526416e-06
7.20499068395395e-06
7.20499016306443e-06
7.20498862737985e-06
7.20498363214623e-06
7.20496736024458e-06
7.20491586273588e-06
7.204759087443e-06
7.20430216076826e-06
7.20303178392781e-06
7.19967420338034e-06
7.19126887674338e-06
7.17141428413156e-06
7.12733540341145e-06
7.03572481692419e-06
6.85815331614842e-06
6.53821089627611e-06
6.00378014293621e-06
5.17767923549111e-06
3.99723834511571e-06
2.43855331176518e-06
7.40902963615277e-09
2.82743052275152e-11
2.79388164528586e-11
7.35445974823783e-09
2.42745327254319e-06
3.98353134885039e-06
5.16402358097881e-06
5.99183083372956e-06
6.52859003469587e-06
6.85073216765833e-06
7.03000431449815e-06
7.12275255077317e-06
7.16750828732596e-06
7.18772720958292e-06
7.1963121071148e-06
7.19975145291307e-06
7.20105642412589e-06
7.20152696035135e-06
7.20168865198414e-06
7.20174168589552e-06
7.20175825142691e-06
7.20176310564693e-06
7.20176435741965e-06
7.20176455086507e-06
7.20176445053101e-06
7.2017642805721e-06
7.20176410444667e-06
7.20176393617293e-06
7.20176377546109e-06
7.20176360691252e-06
7.20176337071456e-06
7.20176285388325e-06
7.20176132242089e-06
7.20175633543051e-06
7.20174008698245e-06
7.20168865866301e-06
7.2015320772068e-06
7.20107566265668e-06
7.19980656608132e-06
7.19645201957587e-06
7.18805350745785e-06
7.16821339798504e-06
7.12416358049427e-06
7.03260792887465e-06
6.85513402809791e-06
6.53535434465839e-06
6.00117808257435e-06
5.17545058114023e-06
3.99552446873459e-06
2.43750773981701e-06
7.40605036080796e-09
2.82642565031984e-11
2.79167722582836e-11
7.34827394256975e-09
2.42538928448816e-06