/*--------------------------------*- C++ -*----------------------------------*\
  =========                 |
  \\      /  F ield         | OpenFOAM: The Open Source CFD Toolbox
   \\    /   O peration     | Website:  https://openfoam.org
    \\  /    A nd           | Version:  10
     \\/     M anipulation  |
\*---------------------------------------------------------------------------*/
FoamFile
{
    format      ascii;
    class       volScalarField;
    location    "5";
    object      h;
}
// * * * * * * * * * * * * * * * * * * * * * * * * * * * * * * * * * * * * * //

dimensions      [0 2 -2 0 0 0 0];

internalField   nonuniform List<scalar> 
2500
(
6659.30820164774
6647.14679326723
6630.33372238077
6620.04164902528
6614.65815223627
6611.99218597932
6610.72011354154
6610.13744278468
6609.88299335235
6609.77822550716
6609.73592946715
6609.71965202609
6609.71352533699
6609.71061847991
6609.70895366914
6609.70757578805
6609.70687434666
6609.70608080468
6609.70520537056
6609.70458661474
6609.70404917963
6609.7035724979
6609.70317441993
6609.70293299384
6609.70268301761
6609.7024560601
6609.70236869291
6609.70231577465
6609.70231843271
6609.70240399841
6609.70255702549
6609.70284925919
6609.7032321519
6609.70372319319
6609.70429522882
6609.70508590532
6609.70644009772
6609.70911521452
6609.71629245089
6609.73403769291
6609.77906819693
6609.89005491696
6610.15210600308
6610.74213299282
6612.0159217043
6614.66307008572
6620.01663568463
6630.34006242118
6647.33735218213
6659.17323329231
5464.78346325205
5415.60314171239
5368.03532686181
5338.7466996408
5322.68840565618
5314.29931611782
5310.0764480928
5308.04374328093
5307.11559354031
5306.71540685218
5306.55180692632
5306.488493999
5306.46520737737
5306.45671292874
5306.45349685221
5306.45203689553
5306.45139537956
5306.4508802245
5306.45036430739
5306.44996658672
5306.44960065223
5306.44924477659
5306.44893534124
5306.44874100644
5306.44857193454
5306.44841132625
5306.44833649457
5306.44828101556
5306.44822807161
5306.44825529477
5306.44832551016
5306.44844865594
5306.44876634286
5306.44923986214
5306.44985588145
5306.45118055299
5306.45471811578
5306.46439153143
5306.49096437546
5306.5605348499
5306.73537435712
5307.15371208284
5308.1038554788
5310.15254526344
5314.36427673447
5322.6912458668
5338.67623013399
5368.10518333357
5416.32412149285
5464.57788319401
4323.02891554955
4248.90139998655
4186.33507728166
4148.69015837406
4128.17690825213
4117.48479134111
4112.10183607214
4109.50477916464
4108.31431453497
4107.79825490161
4107.58657947251
4107.50445374824
4107.47428850299
4107.46362088463
4107.45991081546
4107.45856131128
4107.45807452604
4107.45779299307
4107.45754227507
4107.45733814421
4107.4571298114
4107.45689941028
4107.45668466453
4107.45654946691
4107.45644975017
4107.4563503787
4107.45630150425
4107.4562577893
4107.4561928084
4107.45617758937
4107.45617343539
4107.45617830372
4107.45642749667
4107.45685073669
4107.45739898931
4107.45883033899
4107.4630955657
4107.47531000893
4107.50910889731
4107.59822662091
4107.82231154484
4108.35770295427
4109.57129594564
4112.18395558079
4117.55223799831
4128.18095287634
4148.65136663922
4186.5958226379
4250.28977489055
4324.30366050319
3396.72855033253
3319.56579161239
3262.12123437026
3228.84811529477
3211.34862250071
3202.52583446742
3198.20727309773
3196.16870731724
3195.24929450817
3194.85541562554
3194.69532570646
3194.63367174726
3194.61120608825
3194.60338395865
3194.60075885698
3194.5999014405
3194.59964746436
3194.59953899603
3194.59945142048
3194.59937397256
3194.59927798341
3194.5991487251
3194.59901411061
3194.59892847589
3194.59887723591
3194.59882483736
3194.59879889153
3194.59877182089
3194.59872177966
3194.59870198661
3194.59867774962
3194.59861632089
3194.59876244887
3194.59904429983
3194.5993653452
3194.60030112556
3194.6032624809
3194.61199603079
3194.63655280694
3194.70224236956
3194.86963506974
3195.27524815132
3196.20944544579
3198.25944153371
3202.57284596576
3211.36861502564
3228.89783137659
3262.58169989005
3321.3716600562
3399.67104376392
2740.33333482097
2676.33547773415
2633.24036676271
2609.2163210044
2597.02535398838
2591.08059558435
2588.25000309053
2586.94063732999
2586.35812118265
2586.11069734404
2586.01064297966
2585.97222978257
2585.95828206529
2585.95346443161
2585.95188735347
2585.95142356683
2585.95132533515
2585.95130629447
2585.95129515983
2585.95128122422
2585.95125136029
2585.95119176549
2585.95111595107
2585.95106696233
2585.9510464363
2585.95102583895
2585.95101522899
2585.9510013135
2585.95097158545
2585.9509543357
2585.95092570956
2585.95085405679
2585.95092443229
2585.95107125823
2585.95121942454
2585.95174460994
2585.95347772292
2585.95868578051
2585.97351981546
2586.01360439473
2586.11671788455
2586.36922464928
2586.95834560461
2588.27301539807
2591.10193749539
2597.04122953699
2609.29391630544
2633.72233176248
2678.10919831557
2744.02034965278
2325.77990144337
2280.78832410861
2252.94766255637
2237.98109752936
2230.63694860326
2227.16597570605
2225.55538765289
2224.82387131759
2224.50208329385
2224.36620156095
2224.3113682343
2224.29031973347
2224.28268241433
2224.28005635808
2224.27921717976
2224.27900366165
2224.2789844692
2224.27899464763
2224.27900429579
2224.27900668247
2224.2790055371
2224.2789877078
2224.27894904985
2224.27892410593
2224.27891993353
2224.27891614836
2224.27891321151
2224.27890692924
2224.27889245368
2224.27888019601
2224.2788565403
2224.27880038406
2224.27882679889
2224.27888615485
2224.27893590561
2224.27920211183
2224.28010808861
2224.28285456921
2224.29076216714
2224.31227746875
2224.36795974314
2224.50530884627
2224.82893435203
2225.56144687694
2227.17002811564
2230.64096178292
2238.04002835094
2253.32168430296
2282.20147214102
2329.19500732986
2088.80423710764
2061.03748674197
2045.06837240882
2036.7702963408
2032.82173353525
2031.0084788783
2030.18698103591
2029.82000338538
2029.66008719526
2029.59281657358
2029.56566968027
2029.55522955952
2029.55143724971
2029.55013788203
2029.54973684445
2029.54965057286
2029.54965410736
2029.54966968246
2029.54968324812
2029.54968772341
2029.54969226865
2029.54969102232
2029.54967355116
2029.54966310286
2029.54966586205
2029.54966707088
2029.54966620368
2029.54966416921
2029.54965794893
2029.54965034766
2029.54963443112
2029.54959848314
2029.54960486786
2029.54961924738
2029.54962783594
2029.54975615084
2029.55018955326
2029.55150767399
2029.55534027104
2029.56581346912
2029.59300509709
2029.66037059728
2029.82023672332
2030.18636931013
2031.00517981069
2032.81734618581
2036.80007004298
2045.3036320474
2061.99333337146
2091.3938357092
1964.66563379286
1949.27271265752
1940.96981307173
1936.78999845534
1934.85603404943
1933.99093868375
1933.60759424209
1933.4389373019
1933.36603165363
1933.33543469975
1933.32306879791
1933.31829788806
1933.3165611291
1933.31596806871
1933.31579288351
1933.31576217088
1933.31576863811
1933.31578067428
1933.31579105703
1933.31579621315
1933.31579929083
1933.31580009579
1933.31579443007
1933.31579147219
1933.31579506857
1933.31579719114
1933.31579698092
1933.31579593003
1933.31579343332
1933.31578919771
1933.31577998725
1933.31576013948
1933.31575979288
1933.31576096142
1933.31575964287
1933.31581533719
1933.31600585287
1933.31659236753
1933.31831278881
1933.32302452159
1933.33526667167
1933.36565090671
1933.43809711755
1933.60561437171
1933.98639734233
1934.84905835778
1936.79932577095
1941.09530025068
1949.8388147483
1966.35655069246
1904.46491065588
1896.67280341135
1892.69970495043
1890.75812016797
1889.88244342669
1889.50000440511
1889.33398757406
1889.26197477211
1889.23106495149
1889.21810966273
1889.21286068205
1889.21082738229
1889.21008516441
1889.20983271107
1889.20976140564
1889.20975185105
1889.20975686429
1889.20976415282
1889.20977042636
1889.20977407114
1889.20977574221
1889.20977630966
1889.20977532417
1889.20977554807
1889.20977772255
1889.20977915593
1889.2097792099
1889.20977878373
1889.20977766487
1889.20977543789
1889.20977073081
1889.2097618341
1889.2097602527
1889.20975921958
1889.20975688499
1889.20977770602
1889.20985583214
1889.21010090739
1889.21082529794
1889.2128101159
1889.21796019444
1889.23073709646
1889.26127940172
1889.33244147946
1889.49655959241
1889.87644123021
1890.7580297717
1892.75788808142
1896.97290229865
1905.44501252193
1877.20844867903
1873.56152956145
1871.79122594202
1870.94993329608
1870.5792914571
1870.42091653016
1870.35346947544
1870.32460068615
1870.31228841955
1870.30713115294
1870.30503516267
1870.30421959657
1870.30392099847
1870.30381994811
1870.30379293973
1870.30379045834
1870.30379314407
1870.3037969529
1870.30380024196
1870.3038023328
1870.30380341875
1870.30380393545
1870.30380399925
1870.30380453057
1870.3038056246
1870.30380636115
1870.30380643022
1870.30380624149
1870.30380573608
1870.30380465892
1870.30380245822
1870.3037986271
1870.3037973449
1870.30379638642
1870.30379484007
1870.30380207755
1870.30383222443
1870.30392941531
1870.30421820642
1870.30500868222
1870.3070534432
1870.31211450081
1870.32422020468
1870.35258979928
1870.418859429
1870.57530433676
1870.94728630542
1871.81494658567
1873.70626725494
1877.72315228451
1865.60420056708
1864.01060556734
1863.26932607544
1862.9261931371
1862.77825417037
1862.71628930597
1862.69036643047
1862.67941023266
1862.67476521597
1862.67281995158
1862.67202667612
1862.67171657579
1862.67160270709
1862.67156446972
1862.67155472995
1862.67155418889
1862.67155555554
1862.67155735146
1862.67155890854
1862.67155996365
1862.67156059284
1862.67156093354
1862.67156111398
1862.67156146999
1862.67156196271
1862.67156229005
1862.67156232528
1862.67156224206
1862.67156201932
1862.67156152742
1862.67156057057
1862.6715589898
1862.6715582534
1862.67155766806
1862.67155691789
1862.67155923283
1862.67157026562
1862.67160710358
1862.67171689784
1862.67201675065
1862.67278892937
1862.67469265182
1862.67924134513
1862.68994516279
1862.71522929124
1862.77600239143
1862.92380274327
1863.2778164018
1864.07491217388
1865.85274270642
1860.93017938367
1860.27488538169
1859.9810266984
1859.84832383305
1859.79224489157
1859.7691812029
1859.75969107459
1859.75572801747
1859.75405729284
1859.75335761991
1859.75307129835
1859.75295885966
1859.75291745874
1859.75290367563
1859.75290031512
1859.75290025938
1859.75290089084
1859.75290167111
1859.75290235069
1859.75290283366
1859.75290314938
1859.75290333613
1859.75290345955
1859.75290363916
1859.75290384354
1859.75290397567
1859.75290398883
1859.75290395527
1859.75290386017
1859.752903646
1859.75290325508
1859.75290263419
1859.75290227571
1859.75290197846
1859.75290166985
1859.75290234595
1859.75290619989
1859.75291961541
1859.75295964669
1859.75306862057
1859.75334770229
1859.75403215168
1859.75566339276
1859.75951182375
1859.76868994762
1859.79111432115
1859.84680941278
1859.98363544664
1860.30146249602
1861.04178248555
1859.13972737478
1858.8845025528
1858.77355426755
1858.72459854416
1858.70429227606
1858.69607948103
1858.69275159829
1858.69137765239
1858.69080157448
1858.69056030936
1858.6904612407
1858.69042216533
1858.69040774032
1858.69040297795
1858.69040186534
1858.69040189465
1858.69040216226
1858.69040247837
1858.69040275502
1858.69040295875
1858.69040310015
1858.69040318951
1858.69040325299
1858.69040333163
1858.69040341083
1858.69040346039
1858.69040346423
1858.69040345023
1858.69040341121
1858.69040332432
1858.69040317328
1858.69040294102
1858.69040278458
1858.69040264977
1858.69040252428
1858.69040270148
1858.69040400747
1858.69040872294
1858.69042278256
1858.69046090345
1858.6905579218
1858.69079438463
1858.69135581192
1858.69268182497
1858.69586972986
1858.70377432575
1858.72379561096
1858.77419039338
1858.89479896846
1859.18674094615
1858.48449119353
1858.38982395866
1858.34973155141
1858.33241815117
1858.32536033107
1858.3225492609
1858.3214262039
1858.32096751626
1858.32077620576
1858.32069608265
1858.32066307533
1858.32065000194
1858.32064516342
1858.32064357781
1858.32064322205
1858.32064324702
1858.32064335183
1858.32064347183
1858.32064357739
1858.32064365718
1858.32064371472
1858.32064375289
1858.32064378092
1858.32064381213
1858.32064384093
1858.3206438583
1858.32064385904
1858.32064385335
1858.32064383829
1858.32064380518
1858.32064374981
1858.32064366697
1858.32064360438
1858.32064354874
1858.32064350386
1858.32064354693
1858.32064397423
1858.32064557796
1858.32065035194
1858.32066323652
1858.32069580817
1858.32077464944
1858.32096094422
1858.32140086395
1858.32246539973
1858.32514003786
1858.3320395729
1858.34981477551
1858.39358642821
1858.50320409711
1858.25450255438
1858.22090806446
1858.206985188
1858.20109125691
1858.19872710032
1858.19779860963
1858.19743244725
1858.19728440285
1858.19722297005
1858.19719724284
1858.19718661164
1858.19718238367
1858.19718081425
1858.19718030286
1858.19718019131
1858.19718020237
1858.19718023999
1858.19718028239
1858.19718031988
1858.19718034874
1858.19718037002
1858.19718038461
1858.1971803955
1858.19718040679
1858.19718041654
1858.19718042213
1858.19718042215
1858.19718042002
1858.19718041456
1858.19718040277
1858.1971803836
1858.19718035557
1858.19718033259
1858.19718031168
1858.19718029564
1858.19718030649
1858.19718044537
1858.19718097492
1858.19718254731
1858.1971867684
1858.19719736397
1858.1972228236
1858.19728264745
1858.19742372382
1858.1977668354
1858.19863903413
1858.20092767229
1858.20695665902
1858.22221131625
1858.26158179195
1858.17680888037
1858.16535791158
1858.16069564532
1858.15875758846
1858.15799177341
1858.15769485013
1858.15757912903
1858.15753277887
1858.1575136384
1858.15750562305
1858.15750230052
1858.15750097313
1858.15750047808
1858.15750031624
1858.15750028041
1858.15750028349
1858.15750029528
1858.15750030864
1858.15750032054
1858.15750032977
1858.1575003366
1858.15750034134
1858.15750034488
1858.15750034844
1858.15750035136
1858.15750035292
1858.15750035284
1858.15750035212
1858.15750035033
1858.15750034654
1858.15750034047
1858.15750033174
1858.15750032429
1858.15750031751
1858.15750031217
1858.15750031605
1858.15750036212
1858.15750053342
1858.15750103786
1858.15750238252
1858.15750573199
1858.15751371833
1858.15753236778
1858.15757624049
1858.15768333433
1858.15795837319
1858.15869163944
1858.16066486881
1858.16578753222
1858.17936688773
1858.15147193856
1858.14771007592
1858.14620030021
1858.14558296099
1858.1453423786
1858.14525018753
1858.14521463811
1858.14520052054
1858.14519471615
1858.14519228459
1858.14519127253
1858.14519086531
1858.14519071167
1858.14519066018
1858.14519064706
1858.14519064623
1858.14519064877
1858.14519065179
1858.14519065452
1858.1451906566
1858.14519065803
1858.14519065894
1858.14519065961
1858.14519066036
1858.14519066094
1858.14519066119
1858.14519066111
1858.14519066092
1858.14519066045
1858.14519065953
1858.14519065803
1858.14519065586
1858.14519065414
1858.14519065273
1858.14519065195
1858.14519065481
1858.145190671
1858.14519072613
1858.14519088519
1858.14519130379
1858.14519233627
1858.14519477681
1858.14520043611
1858.1452137035
1858.14524616422
1858.14533027309
1858.14555785913
1858.14618286796
1858.1478452865
1858.15235849535
1858.14347398352
1858.1422793467
1858.14180539729
1858.14161443835
1858.14154095881
1858.14151309982
1858.14150245803
1858.14149826297
1858.1414965437
1858.14149582183
1858.14149551889
1858.14149539491
1858.14149534643
1858.14149532866
1858.14149532251
1858.14149532029
1858.14149531936
1858.14149531882
1858.14149531839
1858.14149531795
1858.14149531748
1858.14149531701
1858.1414953166
1858.14149531634
1858.14149531616
1858.141495316
1858.14149531589
1858.14149531587
1858.14149531593
1858.14149531599
1858.14149531603
1858.14149531604
1858.14149531635
1858.14149531695
1858.141495318
1858.14149532046
1858.14149532718
1858.14149534601
1858.14149539659
1858.1414955255
1858.14149583788
1858.1414965674
1858.14149824421
1858.1415021559
1858.14151173433
1858.14153674008
1858.14160534048
1858.14179740842
1858.14232006891
1858.1437697584
1858.14102436867
1858.14065670286
1858.14051218091
1858.14045470135
1858.14043283504
1858.14042462298
1858.14042151062
1858.14042028999
1858.14041978951
1858.14041957741
1858.14041948632
1858.14041944717
1858.14041943019
1858.14041942241
1858.14041941829
1858.14041941559
1858.14041941351
1858.14041941178
1858.1404194103
1858.140419409
1858.14041940787
1858.14041940691
1858.14041940612
1858.14041940552
1858.14041940509
1858.14041940481
1858.14041940469
1858.14041940474
1858.14041940497
1858.14041940536
1858.14041940592
1858.14041940664
1858.14041940764
1858.14041940894
1858.14041941061
1858.14041941295
1858.14041941684
1858.14041942459
1858.14041944202
1858.14041948273
1858.14041957719
1858.14041979255
1858.1404202803
1858.14042140869
1858.14042416756
1858.14043141232
1858.14045154014
1858.1405089272
1858.14066845721
1858.1411196505
1858.1402948474
1858.14018495199
1858.14014208259
1858.14012521783
1858.14011886448
1858.14011649709
1858.14011560422
1858.14011525373
1858.14011510821
1858.14011504446
1858.14011501513
1858.14011500076
1858.14011499296
1858.14011498808
1858.14011498453
1858.14011498165
1858.1401149792
1858.14011497707
1858.14011497523
1858.14011497364
1858.14011497229
1858.14011497115
1858.14011497023
1858.14011496952
1858.14011496901
1858.14011496869
1858.14011496856
1858.14011496865
1858.14011496894
1858.14011496944
1858.14011497016
1858.14011497112
1858.14011497236
1858.1401149739
1858.14011497578
1858.14011497811
1858.14011498117
1858.14011498563
1858.14011499318
1858.14011500771
1858.14011503785
1858.14011510247
1858.14011524385
1858.14011556481
1858.14011634386
1858.14011839547
1858.14012415773
1858.14014085913
1858.14018820428
1858.1403245638
1858.140083191
1858.14005124409
1858.14003887281
1858.1400340441
1858.14003223699
1858.14003156653
1858.14003131284
1858.14003121125
1858.14003116686
1858.14003114535
1858.14003113362
1858.14003112633
1858.14003112116
1858.1400311171
1858.14003111369
1858.14003111074
1858.14003110815
1858.1400311059
1858.14003110393
1858.14003110224
1858.1400311008
1858.1400310996
1858.14003109863
1858.14003109788
1858.14003109734
1858.14003109701
1858.14003109689
1858.14003109698
1858.1400310973
1858.14003109784
1858.14003109863
1858.14003109967
1858.14003110099
1858.14003110262
1858.14003110457
1858.14003110692
1858.14003110974
1858.14003111324
1858.14003111792
1858.14003112486
1858.14003113645
1858.14003115787
1858.14003120064
1858.1400312928
1858.14003151093
1858.14003208223
1858.14003369757
1858.14003843871
1858.14005210412
1858.14009218212
1858.14002326327
1858.14001423535
1858.14001077716
1858.14000942845
1858.14000892269
1858.14000873391
1858.14000866038
1858.14000862853
1858.1400086124
1858.14000860269
1858.14000859589
1858.14000859059
1858.14000858616
1858.14000858232
1858.14000857895
1858.14000857596
1858.14000857333
1858.14000857102
1858.14000856901
1858.14000856728
1858.1400085658
1858.14000856458
1858.14000856358
1858.14000856281
1858.14000856226
1858.14000856193
1858.14000856181
1858.14000856191
1858.14000856224
1858.1400085628
1858.14000856361
1858.14000856468
1858.14000856604
1858.1400085677
1858.1400085697
1858.14000857205
1858.14000857481
1858.14000857805
1858.14000858191
1858.14000858668
1858.14000859303
1858.14000860231
1858.14000861759
1858.14000864629
1858.14000870905
1858.14000886826
1858.14000931547
1858.14001062897
1858.14001444974
1858.14002590484
1858.14000667868
1858.14000421621
1858.14000329962
1858.14000293411
1858.14000279278
1858.14000273789
1858.14000271414
1858.1400027015
1858.14000269313
1858.14000268668
1858.14000268125
1858.1400026765
1858.14000267228
1858.1400026685
1858.14000266513
1858.14000266213
1858.14000265948
1858.14000265714
1858.14000265511
1858.14000265336
1858.14000265188
1858.14000265064
1858.14000264964
1858.14000264886
1858.14000264831
1858.14000264797
1858.14000264785
1858.14000264796
1858.14000264829
1858.14000264886
1858.14000264969
1858.14000265078
1858.14000265215
1858.14000265383
1858.14000265584
1858.1400026582
1858.14000266095
1858.14000266411
1858.14000266773
1858.1400026719
1858.14000267678
1858.14000268271
1858.14000269045
1858.14000270189
1858.1400027225
1858.14000276948
1858.14000289509
1858.14000324937
1858.1400042636
1858.14000743042
1858.14000218638
1858.14000155956
1858.14000135115
1858.14000125745
1858.1400012161
1858.14000119771
1858.14000118747
1858.14000118003
1858.14000117378
1858.14000116822
1858.14000116318
1858.14000115859
1858.14000115442
1858.14000115066
1858.14000114729
1858.14000114429
1858.14000114163
1858.14000113929
1858.14000113725
1858.14000113549
1858.140001134
1858.14000113276
1858.14000113175
1858.14000113097
1858.14000113042
1858.14000113008
1858.14000112997
1858.14000113008
1858.14000113041
1858.14000113099
1858.14000113182
1858.14000113292
1858.1400011343
1858.14000113599
1858.14000113801
1858.14000114038
1858.14000114312
1858.14000114626
1858.14000114981
1858.14000115381
1858.14000115828
1858.14000116328
1858.14000116898
1858.1400011758
1858.14000118519
1858.14000120223
1858.14000124118
1858.14000133298
1858.14000156567
1858.14000239058
1858.14000099399
1858.1400008689
1858.14000085352
1858.14000083341
1858.14000081892
1858.14000081028
1858.14000080365
1858.1400007976
1858.14000079191
1858.14000078659
1858.14000078166
1858.14000077712
1858.14000077298
1858.14000076923
1858.14000076586
1858.14000076286
1858.14000076019
1858.14000075786
1858.14000075582
1858.14000075406
1858.14000075257
1858.14000075133
1858.14000075032
1858.14000074955
1858.14000074899
1858.14000074866
1858.14000074855
1858.14000074866
1858.140000749
1858.14000074958
1858.14000075042
1858.14000075152
1858.1400007529
1858.1400007546
1858.14000075662
1858.14000075899
1858.14000076173
1858.14000076486
1858.14000076839
1858.14000077233
1858.14000077668
1858.14000078144
1858.14000078659
1858.1400007922
1858.14000079867
1858.14000080789
1858.14000082398
1858.1400008455
1858.14000086537
1858.14000104354
1858.14000068377
1858.14000069294
1858.14000072903
1858.14000072836
1858.1400007209
1858.14000071477
1858.14000070905
1858.14000070333
1858.14000069779
1858.14000069253
1858.14000068762
1858.1400006831
1858.14000067897
1858.14000067523
1858.14000067187
1858.14000066888
1858.14000066622
1858.14000066389
1858.14000066186
1858.14000066011
1858.14000065862
1858.14000065738
1858.14000065638
1858.14000065561
1858.14000065506
1858.14000065473
1858.14000065462
1858.14000065474
1858.14000065508
1858.14000065567
1858.1400006565
1858.1400006576
1858.14000065899
1858.14000066068
1858.1400006627
1858.14000066507
1858.1400006678
1858.14000067093
1858.14000067445
1858.14000067838
1858.1400006827
1858.14000068739
1858.14000069242
1858.14000069773
1858.14000070349
1858.14000071076
1858.14000072101
1858.14000072418
1858.14000068739
1858.14000069073
1858.14000060499
1858.14000064939
1858.14000069878
1858.14000070301
1858.14000069724
1858.14000069167
1858.14000068611
1858.14000068044
1858.1400006749
1858.14000066964
1858.14000066473
1858.14000066022
1858.1400006561
1858.14000065237
1858.14000064902
1858.14000064604
1858.1400006434
1858.14000064108
1858.14000063906
1858.14000063733
1858.14000063585
1858.14000063462
1858.14000063363
1858.14000063287
1858.14000063232
1858.140000632
1858.14000063189
1858.14000063201
1858.14000063236
1858.14000063294
1858.14000063377
1858.14000063487
1858.14000063625
1858.14000063794
1858.14000063995
1858.14000064231
1858.14000064504
1858.14000064816
1858.14000065168
1858.1400006556
1858.14000065992
1858.14000066462
1858.14000066965
1858.14000067494
1858.14000068059
1858.14000068746
1858.14000069637
1858.14000069499
1858.14000064355
1858.14000060057
1858.14000058599
1858.14000063948
1858.14000069204
1858.14000069727
1858.14000069174
1858.14000068616
1858.14000068053
1858.1400006748
1858.1400006692
1858.14000066392
1858.140000659
1858.14000065449
1858.14000065038
1858.14000064667
1858.14000064334
1858.14000064038
1858.14000063776
1858.14000063546
1858.14000063346
1858.14000063174
1858.14000063028
1858.14000062907
1858.14000062809
1858.14000062733
1858.1400006268
1858.14000062648
1858.14000062638
1858.1400006265
1858.14000062684
1858.14000062742
1858.14000062825
1858.14000062934
1858.14000063072
1858.14000063239
1858.1400006344
1858.14000063674
1858.14000063946
1858.14000064257
1858.14000064609
1858.14000065002
1858.14000065435
1858.14000065908
1858.14000066416
1858.14000066953
1858.14000067526
1858.14000068219
1858.14000069096
1858.14000068869
1858.14000063375
1858.1400005787
1858.14000058237
1858.14000063817
1858.14000069119
1858.14000069633
1858.14000069059
1858.14000068481
1858.14000067901
1858.14000067316
1858.14000066748
1858.14000066215
1858.14000065722
1858.1400006527
1858.1400006486
1858.14000064491
1858.14000064161
1858.14000063868
1858.14000063609
1858.14000063381
1858.14000063184
1858.14000063014
1858.1400006287
1858.14000062751
1858.14000062654
1858.1400006258
1858.14000062528
1858.14000062497
1858.14000062487
1858.14000062499
1858.14000062533
1858.14000062591
1858.14000062673
1858.14000062781
1858.14000062918
1858.14000063084
1858.14000063282
1858.14000063516
1858.14000063786
1858.14000064096
1858.14000064447
1858.14000064841
1858.14000065277
1858.14000065755
1858.14000066272
1858.14000066821
1858.14000067411
1858.14000068126
1858.14000069027
1858.14000068814
1858.14000063265
1858.14000057448
1858.14000058286
1858.14000063925
1858.14000069194
1858.14000069661
1858.14000069047
1858.14000068438
1858.14000067835
1858.14000067233
1858.14000066655
1858.14000066116
1858.14000065619
1858.14000065168
1858.14000064759
1858.14000064393
1858.14000064066
1858.14000063776
1858.14000063521
1858.14000063297
1858.14000063103
1858.14000062936
1858.14000062794
1858.14000062677
1858.14000062583
1858.1400006251
1858.14000062459
1858.14000062428
1858.14000062419
1858.14000062431
1858.14000062466
1858.14000062523
1858.14000062604
1858.14000062711
1858.14000062845
1858.1400006301
1858.14000063206
1858.14000063437
1858.14000063706
1858.14000064014
1858.14000064365
1858.1400006476
1858.140000652
1858.14000065685
1858.14000066212
1858.14000066778
1858.14000067392
1858.14000068138
1858.1400006908
1858.14000068915
1858.14000063397
1858.140000575
1858.14000058469
1858.14000064123
1858.14000069327
1858.14000069727
1858.14000069059
1858.1400006841
1858.14000067778
1858.14000067156
1858.14000066565
1858.14000066018
1858.14000065519
1858.14000065067
1858.14000064661
1858.14000064298
1858.14000063975
1858.14000063689
1858.14000063438
1858.14000063218
1858.14000063028
1858.14000062864
1858.14000062726
1858.14000062611
1858.14000062519
1858.14000062448
1858.14000062398
1858.14000062369
1858.1400006236
1858.14000062373
1858.14000062406
1858.14000062463
1858.14000062543
1858.14000062648
1858.14000062781
1858.14000062943
1858.14000063136
1858.14000063365
1858.14000063631
1858.14000063937
1858.14000064287
1858.14000064683
1858.14000065127
1858.1400006562
1858.14000066161
1858.14000066748
1858.14000067391
1858.14000068177
1858.14000069173
1858.14000069077
1858.14000063622
1858.14000057703
1858.14000058723
1858.14000064379
1858.14000069497
1858.1400006981
1858.14000069075
1858.14000068377
1858.14000067711
1858.14000067065
1858.1400006646
1858.14000065905
1858.14000065402
1858.14000064951
1858.14000064547
1858.14000064188
1858.1400006387
1858.14000063589
1858.14000063343
1858.14000063128
1858.14000062942
1858.14000062782
1858.14000062648
1858.14000062536
1858.14000062447
1858.14000062378
1858.1400006233
1858.14000062302
1858.14000062293
1858.14000062306
1858.14000062339
1858.14000062394
1858.14000062473
1858.14000062576
1858.14000062706
1858.14000062865
1858.14000063056
1858.14000063281
1858.14000063544
1858.14000063848
1858.14000064197
1858.14000064594
1858.14000065042
1858.14000065543
1858.140000661
1858.1400006671
1858.14000067389
1858.14000068224
1858.14000069287
1858.14000069278
1858.14000063908
1858.14000057982
1858.1400005904
1858.14000064692
1858.14000069701
1858.14000069906
1858.14000069091
1858.14000068335
1858.14000067628
1858.14000066956
1858.14000066334
1858.1400006577
1858.14000065265
1858.14000064814
1858.14000064414
1858.1400006406
1858.14000063747
1858.14000063473
1858.14000063232
1858.14000063023
1858.14000062842
1858.14000062687
1858.14000062557
1858.14000062449
1858.14000062362
1858.14000062296
1858.14000062249
1858.14000062222
1858.14000062215
1858.14000062227
1858.1400006226
1858.14000062314
1858.1400006239
1858.14000062491
1858.14000062618
1858.14000062774
1858.14000062961
1858.14000063182
1858.14000063441
1858.14000063742
1858.14000064089
1858.14000064486
1858.14000064938
1858.14000065449
1858.14000066023
1858.1400006666
1858.14000067379
1858.14000068273
1858.14000069417
1858.14000069515
1858.14000064252
1858.14000058327
1858.14000059426
1858.14000065069
1858.14000069941
1858.14000070015
1858.14000069102
1858.14000068279
1858.14000067526
1858.14000066824
1858.14000066185
1858.14000065613
1858.14000065106
1858.14000064657
1858.14000064261
1858.14000063913
1858.14000063607
1858.14000063339
1858.14000063106
1858.14000062903
1858.14000062728
1858.14000062578
1858.14000062452
1858.14000062348
1858.14000062265
1858.14000062201
1858.14000062157
1858.14000062131
1858.14000062124
1858.14000062136
1858.14000062168
1858.14000062221
1858.14000062295
1858.14000062393
1858.14000062517
1858.14000062669
1858.14000062851
1858.14000063068
1858.14000063322
1858.14000063619
1858.14000063963
1858.1400006436
1858.14000064815
1858.14000065336
1858.14000065927
1858.14000066595
1858.1400006736
1858.14000068321
1858.14000069563
1858.14000069792
1858.14000064663
1858.14000058743
1858.14000059895
1858.1400006552
1858.14000070221
1858.14000070135
1858.14000069107
1858.14000068206
1858.14000067402
1858.14000066669
1858.14000066012
1858.14000065432
1858.14000064924
1858.14000064479
1858.14000064089
1858.14000063748
1858.1400006345
1858.1400006319
1858.14000062964
1858.14000062768
1858.14000062599
1858.14000062456
1858.14000062335
1858.14000062235
1858.14000062155
1858.14000062094
1858.14000062052
1858.14000062028
1858.14000062021
1858.14000062033
1858.14000062065
1858.14000062115
1858.14000062188
1858.14000062283
1858.14000062402
1858.14000062549
1858.14000062727
1858.14000062938