/*--------------------------------*- C++ -*----------------------------------*\
  =========                 |
  \\      /  F ield         | OpenFOAM: The Open Source CFD Toolbox
   \\    /   O peration     | Website:  https://openfoam.org
    \\  /    A nd           | Version:  10
     \\/     M anipulation  |
\*---------------------------------------------------------------------------*/
FoamFile
{
    format      ascii;
    class       volScalarField;
    location    "5";
    object      k;
}
// * * * * * * * * * * * * * * * * * * * * * * * * * * * * * * * * * * * * * //

dimensions      [0 2 -2 0 0 0 0];

internalField   nonuniform List<scalar> 
2500
(
1.39823816642484e-09
2.72603264566902e-08
1.15217121330877e-07
1.95781043869792e-07
2.59801647483523e-07
3.05692758088331e-07
3.35558993026992e-07
3.53298152263316e-07
3.62965746889873e-07
3.67826362599179e-07
3.70092813845251e-07
3.71077883295861e-07
3.71478809964275e-07
3.71632235663232e-07
3.71687605815943e-07
3.71706464617382e-07
3.7171249249494e-07
3.71714253063762e-07
3.71714672980785e-07
3.7171470302598e-07
3.71714635236466e-07
3.71714554745838e-07
3.71714483134994e-07
3.71714425007166e-07
3.71714381633215e-07
3.71714354114066e-07
3.71714345406335e-07
3.71714349270781e-07
3.7171435376747e-07
3.71714363188088e-07
3.71714340779548e-07
3.71714147313407e-07
3.71713363635662e-07
3.71710731535016e-07
3.71702548987379e-07
3.71678527920503e-07
3.71611533873377e-07
3.71433969275488e-07
3.70987674289114e-07
3.69927472674853e-07
3.67556590120626e-07
3.625881721923e-07
3.52879488210738e-07
3.35282393915148e-07
3.05860978964656e-07
2.60735258881595e-07
1.97578825221906e-07
1.17404574835682e-07
2.82693996561709e-08
1.48610525344774e-09
3.4258975540402e-08
7.78774280115003e-07
3.36111126004343e-06
5.71866645880216e-06
7.59960352082579e-06
8.9558901683607e-06
9.84496236035593e-06
1.03773717667138e-05
1.06701151566395e-05
1.08186775229748e-05
1.08886173421513e-05
1.09193111552968e-05
1.09319251411932e-05
1.09367988784114e-05
1.09385747222664e-05
1.09391855304564e-05
1.09393829259208e-05
1.0939441507204e-05
1.09394560303671e-05
1.09394575546609e-05
1.09394557314971e-05
1.09394533937304e-05
1.09394512914264e-05
1.09394495815938e-05
1.09394483081705e-05
1.09394475066207e-05
1.09394472656668e-05
1.09394473814412e-05
1.09394474996646e-05
1.09394477460462e-05
1.09394468380003e-05
1.09394401699589e-05
1.09394142010546e-05
1.09393281759369e-05
1.0939063290461e-05
1.09382922328001e-05
1.09361593802686e-05
1.09305529574749e-05
1.09165798222128e-05
1.08836686742674e-05
1.08107044586949e-05
1.06591163929143e-05
1.0365411078964e-05
9.83742429826881e-06
8.96143611107709e-06
7.62715506718015e-06
5.77062703380558e-06
3.42365092052116e-06
8.06832660907106e-07
3.63112894629039e-08
1.20389294302565e-07
3.46518013414104e-06
1.68776458469675e-05
2.86125421946123e-05
3.79023811001846e-05
4.45831035080167e-05
4.89651872849874e-05
5.15977672842814e-05
5.30526568661253e-05
5.37956893848325e-05
5.41480000340366e-05
5.43037982716616e-05
5.43683335496027e-05
5.43934709477614e-05
5.44027065055676e-05
5.44059109532499e-05
5.44069570084209e-05
5.44072720669417e-05
5.44073528750161e-05
5.44073636498327e-05
5.44073560651079e-05
5.44073451286897e-05
5.4407335159371e-05
5.44073270068353e-05
5.44073209199487e-05
5.44073170800209e-05
5.44073159174299e-05
5.44073163576199e-05
5.44073168210596e-05
5.44073177058512e-05
5.44073120035048e-05
5.44072756367042e-05
5.44071385718448e-05
5.44066890046888e-05
5.4405314172617e-05
5.44013351300385e-05
5.4390388577113e-05
5.43617714903803e-05
5.42908435252971e-05
5.41247251873316e-05
5.37585071656884e-05
5.30017983296553e-05
5.15429414918756e-05
4.89310649996542e-05
4.46089002171979e-05
3.8028280607929e-05
2.88493508168507e-05
1.71626804093628e-05
3.57702707265502e-06
1.26375583537296e-07
2.11223559516002e-07
6.12222027360792e-06
2.9830833805257e-05
5.02785936063428e-05
6.63224723687985e-05
7.77935288770949e-05
8.52933427473434e-05
8.97933997043203e-05
9.2280999539905e-05
9.35531191630832e-05
9.4157527656708e-05
9.44254905623623e-05
9.45368134826942e-05
9.45803170185803e-05
9.45963578955528e-05
9.46019461694488e-05
9.46037795129553e-05
9.4604335964367e-05
9.46044811802673e-05
9.46045024398451e-05
9.46044908506803e-05
9.46044731927859e-05
9.46044567580587e-05
9.46044432430291e-05
9.46044330969991e-05
9.46044266119973e-05
9.4604424491518e-05
9.46044249134406e-05
9.46044258036188e-05
9.46044270394074e-05
9.46044168420237e-05
9.46043549818933e-05
9.46041232308449e-05
9.46033625077752e-05
9.46010329928159e-05
9.45942803182879e-05
9.45756747767371e-05
9.45269674738467e-05
9.44061014704244e-05
9.41227451657294e-05
9.34975593088595e-05
9.22047964181956e-05
8.97103778829616e-05
8.52388885768879e-05
7.78239769148357e-05
6.64956259083099e-05
5.06099116815756e-05
3.02297224489376e-05
6.27707893148263e-06
2.19400052045275e-07
2.9828927772805e-07
8.65165034154251e-06
4.19621490439527e-05
7.03651822784287e-05
9.24912281659403e-05
0.000108237456819128
0.000118506084279052
0.000124661761315418
0.000128065505395299
0.00012980810769872
0.000130637509178381
0.000131006040469251
0.000131159541546
0.000131219703690764
0.000131241959999067
0.000131249742999467
0.000131252308659612
0.000131253093392294
0.000131253301864928
0.00013125333524096
0.000131253321547723
0.000131253299014696
0.00013125327759642
0.000131253259855009
0.000131253246435514
0.000131253237686198
0.000131253234376023
0.000131253234583697
0.000131253235949859
0.00013125323689849
0.000131253222045551
0.000131253137700161
0.000131252824263195
0.000131251795111728
0.000131248639901227
0.000131239479260009
0.000131214197708143
0.000131147911550938
0.000130983199164015
0.000130596596627569
0.000129742761077305
0.000127975628495902
0.000124562794375811
0.000118437840672819
0.00010826330321931
9.26760582966411e-05
7.07262716044494e-05
4.23991229708739e-05
8.82361006860458e-06
3.07530715295824e-07
3.78715184964648e-07
1.09889902300599e-05
5.30508488820045e-05
8.85672479062135e-05
0.000116070912353853
0.000135571170126599
0.000148262877795602
0.00015586639109511
0.000160072299736958
0.000162227964858277
0.000163255651388212
0.000163713226874031
0.000163904274662558
0.000163979356609499
0.000164007217939258
0.000164016996138938
0.000164020234601807
0.000164021232688809
0.000164021502708382
0.000164021549844968
0.00016402153610962
0.000164021510499805
0.000164021485629158
0.000164021464840184
0.000164021448965496
0.000164021438357714
0.000164021433552872
0.000164021433445927
0.000164021435318503
0.000164021435148372
0.000164021415324976
0.000164021310866758
0.000164020926876011
0.000164019667330114
0.000164015803303307
0.000164004570572337
0.000163973526584453
0.000163892020688887
0.000163689240792623
0.000163212785848866
0.000162159567532792
0.000159978095890626
0.000155761843046356
0.000148187961471513
0.000135589299821715
0.000116246706165972
8.89179053110345e-05
5.3479030678781e-05
1.11622063193932e-05
3.88313206995191e-07
4.50937926706113e-07
1.30918747187852e-05
6.29491818258894e-05
0.00010469850661497
0.000136872016882892
0.000159615608411953
0.000174396258016614
0.000183248021551924
0.00018814668845431
0.000190660124138827
0.000191860220027035
0.00019239557996245
0.000192619601385218
0.000192707864428017
0.000192740711158484
0.000192752278241246
0.000192756126372892
0.000192757321177827
0.000192757650303979
0.000192757712537445
0.000192757700666584
0.00019275767370939
0.000192757646837721
0.000192757624122851
0.000192757606579524
0.000192757594553968
0.00019275758836617
0.000192757587767261
0.000192757589086783
0.000192757587673403
0.000192757562562769
0.000192757439979404
0.000192756995313499
0.000192755539782576
0.000192751073884134
0.000192738079148732
0.00019270212284709
0.0001926076083224
0.000192372212577886
0.000191818614417352
0.000190593929711897
0.000188055660903934
0.00018314679021199
0.000174322334811453
0.000159627975217421
0.00013703014251028
0.0001050179403283
6.33428200558961e-05
1.32571839579045e-05
4.60451552943686e-07
5.14114557759434e-07
1.49361673687073e-05
7.15813301799712e-05
0.0001186839531181
0.000154840405643226
0.000180340284173839
0.000196894169614327
0.000206806274595493
0.00021229463463449
0.000215113566050109
0.000216461463263701
0.000217063815918232
0.000217316386174446
0.000217416128959711
0.000217453346640016
0.00021746649459942
0.00021747088723591
0.000217472260798114
0.000217472645769393
0.000217472723960577
0.000217472715580204
0.00021747268879662
0.000217472661198563
0.000217472637547285
0.000217472619036524
0.000217472606016667
0.000217472598700501
0.000217472597015975
0.000217472597342684
0.000217472594226334
0.000217472563548022
0.000217472424832442
0.000217471928355329
0.000217470307919527
0.000217465337404967
0.000217450864432549
0.000217410778520839
0.000217305302694591
0.00021704236483343
0.000216423504809453
0.000215053553359814
0.000212212678118306
0.000206715898187501
0.000196829099515662
0.000180352586882519
0.000154981488088895
0.000118966254612455
7.19305238045833e-05
1.50892799602662e-05
5.23299638366796e-07
5.67993029182216e-07
1.65139888476945e-05
7.89381691109664e-05
0.000130548080114876
0.000170040653385763
0.000197843799629762
0.000215879061309912
0.000226678090970248
0.000232660889626628
0.0002357368192363
0.000237209558580024
0.000237868762604196
0.000238145687542428
0.0002382552810098
0.000238296274221742
0.000238310798470045
0.000238315670132955
0.000238317203638259
0.000238317640390006
0.000238317734813003
0.000238317731251971
0.000238317705875268
0.000238317678591822
0.000238317654818983
0.000238317635925655
0.000238317622274289
0.000238317613989835
0.00023831761082952
0.000238317609740535
0.000238317604418593
0.000238317568125648
0.00023831741537112
0.000238316875026568
0.000238315117556995
0.000238309729864767
0.00023829403486794
0.000238250529445631
0.000238135958450389
0.000237850122849754
0.000237176916871024
0.000235685843388692
0.000232592430691342
0.00022660471433968
0.000215830361600951
0.000197863956854636
0.000170171593320436
0.000130797788268215
7.92443075088047e-05
1.66541471308411e-05
5.76753814719367e-07
6.1281639145712e-07
1.78314051089745e-05
8.50675039859366e-05
0.000140397887173495
0.000182634195854808
0.000212329234169228
0.00023158183670362
0.000243110966630493
0.000249501882954101
0.000252790686930775
0.000254367265228322
0.000255073980365151
0.000255371366233228
0.00025548928393713
0.00025553348865795
0.000255549192745566
0.000255554479326395
0.000255556153676302
0.000255556637532615
0.000255556747924659
0.000255556750060625
0.000255556726991182
0.000255556700808554
0.000255556677540488
0.000255556658724518
0.000255556644742208
0.000255556635650799
0.000255556631032422
0.000255556628371318
0.000255556620155187
0.000255556578657886
0.000255556413547274
0.00025555583646354
0.000255553966687198
0.000255548239305652
0.000255531549929772
0.000255485258312072
0.00025536326301522
0.000255058703005164
0.000254340989867058
0.00025275061038449
0.000249449987901443
0.000243059265592198
0.000231556109654128
0.000212365865396416
0.000182765294208267
0.000140625832795866
8.53391368209778e-05
1.79602149875148e-05
6.21162331087643e-07
6.49212346665251e-07
1.89054777102186e-05
9.00611947482208e-05
0.000148402407479875
0.000192854019983497
0.000224076066040919
0.000244312282521208
0.000256432602667366
0.000263154978251877
0.000266617310598367
0.000268278898413775
0.000269024696933652
0.000269339003977075
0.000269463846235372
0.000269510740037411
0.000269527439703634
0.000269533079984661
0.000269534876343229
0.000269535402233286
0.000269535527828784
0.000269535536090468
0.000269535515892438
0.000269535491343104
0.000269535469017726
0.000269535450613095
0.000269535436536107
0.000269535426801482
0.000269535420907891
0.000269535416467133
0.00026953540536445
0.000269535359052302
0.000269535183004773
0.000269534575532799
0.00026953261508774
0.00026952661554985
0.000269509130436486
0.00026946060688607
0.000269332654409242
0.000269013045623813
0.000268259513126125
0.000266589130344765
0.000263121462930588
0.000256405733438678
0.000244314728008555
0.000224137175656463
0.000192996486725279
0.000148622129683894
9.03104606343905e-05
1.90258768298966e-05
6.57218334422466e-07
6.78072056253875e-07
1.9760941909311e-05
9.40409808644147e-05
0.000154771105237174
0.000200978445699326
0.000233411275345089
0.000254428681186945
0.000267019714741512
0.000274006864545045
0.000277608352673999
0.00027933841330835
0.000280115847373208
0.000280443924965424
0.000280574435774028
0.000280623545398758
0.000280641071760149
0.000280647008695051
0.000280648908975537
0.000280649471630139
0.00028064961129946
0.000280649625777204
0.000280649608697492
0.000280649586091891
0.00028064956498435
0.000280649547217821
0.00028064953322841
0.000280649523006328
0.000280649515999424
0.0002806495098252
0.000280649496038811
0.000280649445262726
0.000280649259763431
0.000280648627528845
0.000280646595055413
0.000280640381144277
0.000280622270266029
0.000280571990129348
0.000280439342210036
0.000280107854044893
0.000279326009937629
0.000277592332616954
0.000273992427489351
0.000267019333509709
0.000254462778075058
0.000233503277138981
0.000201142485765445
0.000154996054745404
9.428076452058e-05
1.98763458175682e-05
6.85844182864605e-07
7.00431515669955e-07
2.04269050031758e-05
9.71446975036267e-05
0.000159733365130305
0.000207306479437744
0.000240682266023667
0.000262309348754421
0.000275268807358334
0.000282463924727842
0.000286175159184913
0.0002879594687178
0.000288762092883342
0.000289101195522225
0.000289236271804132
0.000289287177858531
0.000289305379593478
0.000289311561272585
0.00028931354855881
0.000289314142699618
0.000289314295124713
0.000289314315704172
0.000289314301642518
0.000289314281101885
0.000289314261350675
0.000289314244358169
0.000289314230590713
0.000289314220025516
0.000289314212076801
0.000289314204330368
0.000289314188116069
0.000289314133356353
0.000289313939886298
0.00028931328781329
0.000289311199088546
0.000289304819278285
0.000289286225096587
0.000289234587462921
0.000289098305938543
0.000288757611767736
0.000287953800919377
0.000286170969820897
0.000282468311539128
0.000275295179485481
0.000262376743433177
0.000240809411019218
0.000207500041278641
0.000159974990696184
9.73866134932998e-05
2.05405728565243e-05
7.08080527387584e-07
7.17367587054114e-07
2.09339104437775e-05
9.95141930075617e-05
0.000163520791409931
0.000212136680234017
0.000246233694333596
0.000268328284010759
0.000281571160277515
0.000288926863640546
0.000292723203052932
0.000294549780134799
0.000295372132262507
0.00029571991751297
0.000295858610988968
0.000295910949804956
0.000295929694314993
0.000295936074591726
0.000295938133476348
0.000295938754054098
0.000295938917627167
0.000295938943740486
0.000295938932783467
0.00029593891429721
0.000295938895935504
0.000295938879781218
0.000295938866330366
0.000295938855553961
0.000295938846842109
0.000295938837741152
0.000295938819412769
0.000295938761230617
0.000295938561207864
0.000295937893534963
0.000295935761660273
0.000295929255783653
0.000295910295165457
0.000295857627829035
0.000295718586619304
0.000295370891142694
0.000294550354914505
0.000292730065814891
0.000288949059450131
0.000281623355820699
0.000268428882193925
0.000246397894771024
0.0002123648517041
0.000163787486679019
9.9767390900837e-05
2.10485434744591e-05
7.24991060823863e-07
7.29916526931201e-07
2.13115982396925e-05
0.000101285775668
0.000166353384809704
0.000215750747657346
0.000250389512147157
0.00027283630624827
0.000286293448906082
0.000293771043483259
0.000297632269684295
0.000299491230676188
0.000300328777727933
0.000300683288589071
0.000300824801132618
0.000300878264052331
0.000300897437661691
0.000300903976436789
0.000300906093239352
0.000300906735654427
0.000300906908702956
0.000300906939763335
0.000300906931709345
0.000300906915166197
0.000300906898151179
0.000300906882846252
0.000300906869774834
0.000300906858905788
0.000300906849611271
0.000300906839400536
0.000300906819307899
0.00030090675829361
0.000300906553025862
0.000300905873330858
0.000300903708969556
0.00030089710907034
0.000300877875807281
0.000300824442057877
0.000300683344336915
0.000300330424691816
0.000299497394354741
0.000297649099429046
0.000293809481417553
0.00028636960260599
0.000272968529652871
0.000250590497575325
0.000216015702187323
0.000166650173360869
0.000101556465140203
2.14291512678755e-05
7.37589344658053e-07
7.39017967375056e-07
2.15870590045674e-05
0.000102583518663385
0.00016842998957023
0.000218402265721282
0.000253440697141271
0.000276148185056669
0.000289764524264381
0.000297333066116153
0.000301242932341467
0.00030312629157253
0.000303975348808435
0.00030433498393053
0.00030447865768655
0.000304532988212828
0.000304552495539687
0.000304559158736558
0.00030456132159923
0.000304561981768347
0.000304562162729502
0.000304562198035331
0.00030456219257088
0.000304562177800576
0.000304562162041623
0.000304562147561714
0.000304562134908997
0.000304562124052299
0.000304562114350262
0.000304562103281123
0.00030456208178366
0.000304562018515007
0.000304561809167912
0.000304561120408158
0.00030455893206281
0.000304552263370669
0.000304532831090008
0.000304478837709426
0.000304336236562471
0.000303979492817419
0.000303137306424068
0.000301268469938054
0.00029738583524325
0.000289862127781707
0.000276309334104827
0.000253676403855735
0.000218703611184618
0.000168758762984179
0.000102875047380191
2.1708720956964e-05
7.46789578740757e-07
7.45483177799148e-07
2.1783864230795e-05
0.000103515331704325
0.000169922830064006
0.000220310372106821
0.000255638418477797
0.00027853550532042
0.000292268096336982
0.000299903348210885
0.000303849065225571
0.000305750501493487
0.000306608134400914
0.000306971610010901
0.000307116913771006
0.000307171903120654
0.000307191665798608
0.000307198425081808
0.000307200623962869
0.000307201298297013
0.000307201485706168
0.000307201524588317
0.000307201521399156
0.000307201508206026
0.000307201493587821
0.000307201479887694
0.000307201467675851
0.000307201456922383
0.000307201446975854
0.000307201435290038
0.000307201412733494
0.000307201347746082
0.000307201135326386
0.000307200439894889
0.000307198234206933
0.00030719151616629
0.000307171941411246
0.000307117547219349
0.000306973867982982
0.000306614378375086
0.000305765609866493
0.000303881992736723
0.000299968384342479
0.00029238428855249
0.000278722163456715
0.000255905502792431
0.000220645738218963
0.000170282932016201
0.000103828623248644
2.1910152530074e-05
7.5337961372597e-07
7.49983629412338e-07
2.19216740354976e-05
0.00010417140397585
0.000170975537901233
0.000221657630573315
0.000257191847182743
0.000280224440712888
0.000294040476534385
0.000301723837048616
0.000305695538832086
0.000307610148129389
0.000308474066094276
0.000308840373447779
0.000308986886804186
0.000309042368434532
0.000309062323383904
0.000309069155685241
0.000309071382274821
0.000309072067705134
0.000309072260277665
0.000309072302127304
0.000309072300896778
0.000309072289079568
0.000309072275479492
0.000309072262504875
0.00030907225074502
0.000309072240172127
0.000309072230127487
0.000309072218046217
0.000309072194746516
0.000309072128515866
0.000309071913868781
0.000309071213662379
0.000309068995716927
0.000309062243005421
0.000309042568280158
0.000308987892631723
0.00030884345527012
0.000308482031929212
0.00030762862216135
0.000305734571999145
0.000301799083286344
0.000294172302951475
0.000280432863346772
0.000257486223258286
0.00022202334416474
0.000171364502622889
0.000104505573553036
2.20525889724739e-05
7.58012228423503e-07
7.53054651454481e-07
2.20162814891494e-05
0.000104624459910124
0.000171703842824089
0.000222591112778457
0.000258269518189947
0.000281397286507241
0.000295272200052823
0.000302989672683829
0.000306979896264093
0.000308903947677429
0.000309772397207654
0.000310140758955699
0.000310288155617955
0.00031034399926095
0.000310364096704788
0.000310370983623929
0.000310373231195881
0.000310373925183684
0.000310374121831987
0.000310374166105295
0.000310374166529198
0.000310374155895945
0.00031037414319567
0.000310374130891073
0.000310374119587524
0.000310374109259646
0.0003103740992437
0.000310374086961248
0.000310374063195065
0.000310373996128165
0.000310373779945565
0.000310373076439209
0.00031037085005832
0.000310364073542705
0.000310344330161492
0.000310289460919691
0.00031014450112495
0.000309781742871418
0.000308925124248055
0.000307023852007578
0.000303073202128616
0.000295416821967071
0.000281623733394599
0.000258586845367318
0.000222982844047587
0.000172118136735784
0.000104977461812111
2.21514769558529e-05
7.61209710319459e-07
7.55108651560919e-07
2.20799444415674e-05
0.000104931226767344
0.000172198040134664
0.000223225620071494
0.000259003062924995
0.000282196505185499
0.00029611224536729
0.000303853494830565
0.000307856699666081
0.000309787407222767
0.000310659070773322
0.000311028898942945
0.000311176930355791
0.000311233036014469
0.000311253237413496
0.000311260164557122
0.000311262427778949
0.00031126312827483
0.000311263328102101
0.000311263374331564
0.000311263376137208
0.000311263366516151
0.000311263354609388
0.000311263342923606
0.00031126333207743
0.000311263322047708
0.000311263312167558
0.000311263299848996
0.00031126327585066
0.000311263208286226
0.000311262991122402
0.000311262285444956
0.000311260053457706
0.000311253261051865
0.000311233471683422
0.000311178472352053
0.000311033160476733
0.000310669500348588
0.000309810709310633
0.000307904539420201
0.000303943593929785
0.000296267090605674
0.000282437494178522
0.000259339137678782
0.000223638925705965
0.000172633707492324
0.000105300435187253
2.22188850398423e-05
7.63376838189085e-07
7.56453151458705e-07
2.2121870990305e-05
0.000105134565008624
0.000172526421198586
0.000223648060256525
0.000259492219921509
0.000282730127956648
0.000296673657458688
0.000304431181591417
0.000308443324162047
0.000310378642844853
0.000311252547303405
0.000311623404777835
0.000311771884866587
0.000311828177117355
0.0003118484531602
0.000311855409473611
0.000311857684198176
0.000311858389579012
0.00031185859186039
0.000311858639659935
0.000311858642616912
0.000311858633862227
0.000311858622658053
0.000311858611546624
0.000311858601157102
0.000311858591468662
0.00031185858181249
0.000311858569594241
0.000311858545556803
0.00031185847776977
0.000311858260061586
0.000311857553067905
0.000311855317548751
0.000311848514955339
0.000311828695810404
0.000311773611665518
0.000311628069028472
0.00031126381529503
0.000310403589549513
0.000308494176321346
0.000304526397738814
0.00029683651445162
0.000282982605804904
0.000259843256267695
0.000224078790580222
0.000172979585170116
0.000105517237125952
2.22639595023101e-05
7.64818039972257e-07
7.57310019087033e-07
2.21487523917706e-05
0.00010526581591989
0.000172739003014487
0.000223922171238373
0.000259810223412516
0.000283077556006786
0.000297039586159603
0.000304808013762168
0.000308826184021355
0.000310764633860115
0.00031164007081936
0.000312011637391555
0.000312160428941193
0.000312216851767404
0.000312237180512777
0.000312244157644792
0.000312246440702608
0.000312247149706408
0.00031224735386725
0.000312247402926401
0.000312247406850107
0.00031224739884275
0.000312247388266394
0.000312247377692605
0.000312247367758823
0.00031224735844637
0.000312247349085426
0.000312247337077788
0.000312247313156764
0.00031224724536642
0.000312247027454915
0.000312246319791648
0.000312244082264937
0.000312237273597956
0.000312217436254864
0.000312162299455581
0.000312016611938043
0.000311651982324528
0.000310790842024662
0.000308879350373829
0.000304907174324315
0.000297208650396195
0.000283338995430559
0.00026017302813749
0.000224366741545572
0.000173206214558859
0.000105659424518431
2.22934230492804e-05
7.65755502919699e-07
7.57833385830936e-07
2.21652688058508e-05
0.000105347044226434
0.000172871072937236
0.000224092999207139
0.00026000890704984
0.000283295054796672
0.000297269007101809
0.000305044517847934
0.00030906663671418
0.000311007155199249
0.000311883613459718
0.000312255656806492
0.000312404659685198
0.00031246117195295
0.000312481537176951
0.000312488528902842
0.000312490817907952
0.000312491529571294
0.000312491735165471
0.000312491785241407
0.000312491789985677
0.000312491782629595
0.000312491772620412
0.000312491762554284
0.000312491753074856
0.000312491744165191
0.000312491735155277
0.000312491723444818
0.000312491699762414
0.000312491632140623
0.00031249141429101
0.000312490706453548
0.000312488468064764
0.000312481656363254
0.000312461809263979
0.000312406643029868
0.000312260872174863
0.000311896021778595
0.000311034335687768
0.000309121588286283
0.000305146729436751
0.00029744289294672
0.000283563495062712
0.000260380970249176
0.000224548546854031
0.00017334952698648
0.000105749493108031
2.23120494004538e-05
7.66346032421402e-07
7.58124739258502e-07
2.21745214072023e-05
0.000105392967403275
0.000172946232999268
0.00022419074259648
0.000260123085327747
0.000283420473064891
0.000297401638289197
0.00030518149021977
0.000309206061648462
0.000311147881869666
0.00031202499128406
0.000312397342619291
0.000312546483810288
0.000312603055400133
0.000312623445166856
0.000312630446881803
0.000312632740057555
0.00031263345365774
0.000312633660349351
0.000312633711257606
0.000312633716706297
0.000312633709923849
0.000312633700432275
0.00031263369084939
0.000312633681821852
0.000312633673334315
0.000312633664716926
0.000312633653368731
0.000312633630017617
0.000312633562696308
0.000312633345115697
0.000312632637496413
0.000312630399154589
0.000312623586805445
0.00031260373648003
0.000312548558495418
0.000312402750522227
0.000312037794418219
0.000311175833344478
0.000309262429165307
0.000305286127091492
0.000297579370074158
0.000283694524141596
0.000260502612770831
0.000224655201510807
0.000173433885045545
0.000105802716137599
2.23230711360926e-05
7.66695327359453e-07
7.58244428749021e-07
2.2178366300075e-05
0.000105412455133213
0.000172978764651146
0.000224233732307045
0.000260173951465061
0.000283476906653781
0.000297461761792311
0.000305243906113512
0.00030926981449
0.000311212365194288
0.000312089850553902
0.000312462384679255
0.00031261161020862
0.000312668218996779
0.000312688624657597
0.000312695633128719
0.000312697929316915
0.000312698644455744
0.00031269885211573
0.000312698903814699
0.000312698909947084
0.00031269890372782
0.0003126988947462
0.000312698885643477
0.000312698877064068
0.000312698868993973
0.000312698860763473
0.000312698849771747
0.000312698826749028
0.000312698759738363
0.000312698542482404
0.000312697835282312
0.000312695597628591
0.000312688786546597
0.000312668938436048
0.00031261376345245
0.000312467956451072
0.000312102987986868
0.000311240968164417
0.000309327378641998
0.00030535059684001
0.000297642759009424
0.000283755739469883
0.000260559870054607
0.00022470586254847
0.000173474383188106
0.000105828582682525
2.23284970906434e-05
7.66868981266844e-07
7.58219141599744e-07
2.21776315296171e-05
0.000105409532116506
0.00017297523057297
0.000224230467805492
0.00026017140344711
0.000283475204468528
0.000297460834467071
0.000305243587305245
0.000309269920594557
0.000311212739768715
0.000312090380893675
0.00031246299873615
0.000312612266438557
0.000312668895444638
0.000312689310557872
0.000312696323523846
0.000312698622033685
0.000312699338574535
0.000312699547250698
0.00031269959981726
0.000312699606693156
0.000312699601093983
0.000312699592647653
0.000312699584038477
0.000312699575899455
0.00031269956821725
0.000312699560322352
0.00031269954961445
0.000312699526828603
0.000312699460028459
0.000312699243022801
0.000312698536298881
0.000312696299827522
0.000312689491788571
0.000312669651169792
0.000312614493508148
0.000312468723934559
0.000312103830759065
0.000311241951218807
0.000309328602169411
0.00030535219620569
0.000297644887079044
0.000283758522667487
0.000260563335798564
0.000224709844225852
0.000173478412622555
0.000105831777070238
2.23293279243845e-05
7.66899940904018e-07
7.58046023479803e-07
2.21722400709933e-05
0.000105383913557259
0.000172935288881195
0.000224180638091662
0.000260115204954695
0.000283415219892186
0.00029739879461247
0.000305180540892869
0.000309206436011151
0.000311149093674036
0.00031202668883087
0.000312399301155334
0.000312548573689871
0.000312605208101288
0.000312625627102454
0.000312632642601924
0.00031263494280583
0.00031263566058874
0.000312635870278008
0.000312635923734277
0.000312635931379735
0.000312635926411812
0.000312635918509568
0.000312635910391979
0.000312635902680111
0.000312635895361014
0.000312635887765535
0.000312635877294906
0.000312635854692891
0.00031263578805732
0.000312635571306472
0.00031263486524326
0.000312632630685552
0.000312625827959208
0.00031260600119234
0.000312550877543433
0.000312405186843056
0.000312040466501093
0.00031117894450184
0.000309266292543237
0.000305291165116742
0.000297586058425759
0.000283703253643839
0.000260513462740044
0.000224667645130579
0.000173446458379868
0.000105812663388712
2.232565613415e-05
7.66791607331448e-07
7.57693275856228e-07
2.21612215002389e-05
0.000105331020026039
0.000172851698125818
0.000224075115008612
0.000259994975260326
0.000283285802229399
0.000297264056658557
0.000305042957411335
0.000309067449434811
0.000311009471321166
0.000311886802196911
0.00031225931441965
0.000312408553049933
0.000312465177805943
0.000312485595113868
0.000312492611168585
0.000312494912393673
0.000312495631198333
0.000312495841830758
0.000312495896147328
0.000312495904541415
0.000312495900187954
0.000312495892813365
0.000312495885171204
0.000312495877869744
0.000312495870896408
0.000312495863583026
0.00031249585333423
0.000312495830908311
0.000312495764455951
0.000312495548062786
0.000312494843017236
0.000312492611461663
0.000312485817145894
0.000312466012600024
0.000312410944501333
0.000312265385446189
0.000311900960780327
0.000311040067188044
0.000309128676241605
0.000305155932344439
0.000297455060320093
0.0002835793162958
0.000260400567111886
0.000224570950544197
0.0001733720984867
0.000105767299196023
2.23166796895474e-05
7.66519123532459e-07
7.57095477650378e-07
2.21425827972827e-05
0.000105241465128704
0.000172709539965992
0.000223894965165597