/*--------------------------------*- C++ -*----------------------------------*\
  =========                 |
  \\      /  F ield         | OpenFOAM: The Open Source CFD Toolbox
   \\    /   O peration     | Website:  https://openfoam.org
    \\  /    A nd           | Version:  10
     \\/     M anipulation  |
\*---------------------------------------------------------------------------*/
FoamFile
{
    format      ascii;
    class       volScalarField;
    location    "5";
    object      nut;
}
// * * * * * * * * * * * * * * * * * * * * * * * * * * * * * * * * * * * * * //

dimensions      [0 2 -1 0 0 0 0];

internalField   nonuniform List<scalar> 
2500
(
1.09141394231169e-14
2.12762962098197e-13
8.99286125091969e-13
1.52813332077312e-12
2.02785827461203e-12
2.38607105200347e-12
2.61919786529301e-12
2.75766396714579e-12
2.83312582859158e-12
2.87106598034492e-12
2.88875702420798e-12
2.89644608590275e-12
2.89957555872888e-12
2.90077314525342e-12
2.90120535143275e-12
2.90135256736435e-12
2.90139962456197e-12
2.90141337467302e-12
2.90141666130296e-12
2.9014169019319e-12
2.90141637809623e-12
2.90141575445024e-12
2.90141519934174e-12
2.90141474789025e-12
2.90141441180468e-12
2.90141419922065e-12
2.9014141320234e-12
2.90141416263541e-12
2.90141419757099e-12
2.90141427015181e-12
2.90141409359251e-12
2.90141258029792e-12
2.90140645952695e-12
2.90138590990111e-12
2.90132203544124e-12
2.90113453176121e-12
2.9006115987712e-12
2.89922560035901e-12
2.89574199735812e-12
2.88746648425642e-12
2.86896028951511e-12
2.83017864968299e-12
2.75439602746685e-12
2.61703878135779e-12
2.38738399235959e-12
2.03514549859708e-12
1.54216568369696e-12
9.16359513689796e-13
2.20638546701267e-13
1.16000019638188e-14
1.07424992046602e-12
5.4953470847832e-11
2.37210648832468e-10
4.03634044375989e-10
5.36422318592175e-10
6.32173980120686e-10
6.94941000550637e-10
7.3252786083346e-10
7.53194605506812e-10
7.63682502874164e-10
7.6861991595298e-10
7.70786730973448e-10
7.71677202601063e-10
7.7202125793278e-10
7.72146621700946e-10
7.72189741938585e-10
7.72203677576795e-10
7.72207814095251e-10
7.72208840582605e-10
7.72208949189029e-10
7.72208821420145e-10
7.72208657300299e-10
7.72208509683956e-10
7.72208389480234e-10
7.72208300018361e-10
7.72208243844294e-10
7.72208227024947e-10
7.72208235337787e-10
7.72208243817123e-10
7.72208261139883e-10
7.72208196863491e-10
7.72207725858781e-10
7.72205891926228e-10
7.72199818271123e-10
7.7218111862264e-10
7.72126686824956e-10
7.71976121239518e-10
7.71580343142201e-10
7.70593921782833e-10
7.6827057092732e-10
7.63119640119282e-10
7.5241811775868e-10
7.31683424026931e-10
6.94408726762602e-10
6.32565319573246e-10
5.3836705507521e-10
4.07301611926172e-10
2.41624334121423e-10
5.69332493257446e-11
1.1386045700604e-12
3.78920431604991e-12
9.81825859576437e-10
3.32160132182399e-07
5.63178317973198e-07
7.46079862550634e-07
8.77615766735821e-07
9.63893919200033e-07
1.01572570981504e-06
1.04436997392192e-06
1.0589987674043e-06
1.0659349463414e-06
1.06900221467276e-06
1.07027273593495e-06
1.0707676180819e-06
1.07094943858323e-06
1.07101252479114e-06
1.07103311872289e-06
1.07103932182922e-06
1.07104091346829e-06
1.0710411262969e-06
1.0710409777219e-06
1.0710407632447e-06
1.07104056775019e-06
1.07104040773946e-06
1.07104028826709e-06
1.07104021302621e-06
1.07104019031213e-06
1.07104019913154e-06
1.07104020848368e-06
1.07104022595482e-06
1.07104011371522e-06
1.07103939779588e-06
1.0710366987137e-06
1.07102784722496e-06
1.0710007809082e-06
1.07092244605251e-06
1.07070694164233e-06
1.07014355431994e-06
1.06874717647531e-06
1.0654767265308e-06
1.05826673038629e-06
1.04336864725183e-06
1.01464621662109e-06
9.63221951546338e-07
8.78123378337262e-07
7.48558089683932e-07
5.67839475182873e-07
3.37769458474432e-07
1.01351199351658e-09
3.97760365614816e-12
6.66850950992614e-12
1.73999717322563e-09
5.88877411083438e-07
9.92636775267677e-07
1.30946247047795e-06
1.53599032660657e-06
1.68409404499226e-06
1.77295839748977e-06
1.82208125116038e-06
1.84720155940837e-06
1.85913655763123e-06
1.86442785411618e-06
1.86662605965853e-06
1.86748508371029e-06
1.86780182647061e-06
1.86791217203746e-06
1.86794837290902e-06
1.86795936069206e-06
1.86796222851512e-06
1.86796264876235e-06
1.86796242052671e-06
1.86796207266955e-06
1.86796174899684e-06
1.86796148267116e-06
1.86796128265399e-06
1.86796115493085e-06
1.86796111322181e-06
1.86796112171935e-06
1.86796113960437e-06
1.86796116412678e-06
1.86796096292903e-06
1.86795974188169e-06
1.867955165063e-06
1.86794014287229e-06
1.86789414469779e-06
1.86776080759619e-06
1.86739342354711e-06
1.86643164567959e-06
1.86404499945207e-06
1.8584497362789e-06
1.84610444618054e-06
1.82057647024294e-06
1.77131890454852e-06
1.68301857197921e-06
1.536591267639e-06
1.3128811052405e-06
9.9917773495934e-07
5.9675078920314e-07
1.7839989361381e-09
6.92658111723412e-12
9.43770357142543e-12
2.46412162101135e-09
8.30080783030618e-07
1.39205050860677e-06
1.82984898830556e-06
2.1414149514922e-06
2.344595728032e-06
2.46639404071059e-06
2.5337409414685e-06
2.56821995443222e-06
2.58463030510644e-06
2.59192193375684e-06
2.59495903421705e-06
2.59614936875367e-06
2.59658971786342e-06
2.59674370658803e-06
2.59679446838347e-06
2.59680999428866e-06
2.59681411896335e-06
2.59681477941913e-06
2.59681450875799e-06
2.59681406345942e-06
2.59681364035536e-06
2.59681328976653e-06
2.59681302444104e-06
2.59681285151451e-06
2.5968127861142e-06
2.59681279034208e-06
2.59681281762632e-06
2.59681283654255e-06
2.59681254292645e-06
2.59681087478934e-06
2.59680467291099e-06
2.596784310141e-06
2.59672188380729e-06
2.59654063827106e-06
2.59604043412409e-06
2.59472893416568e-06
2.59147001313149e-06
2.58382083521851e-06
2.56692703719051e-06
2.53196265854414e-06
2.46443586620034e-06
2.34324537689506e-06
2.1419261560905e-06
1.83350557629087e-06
1.39919366197117e-06
8.38723512672249e-07
2.51308361380079e-09
9.72997870417894e-12
1.1998793035213e-11
3.13393432488396e-09
1.05075634667936e-06
1.7543020782198e-06
2.299138839866e-06
2.6854318846833e-06
2.93684847993593e-06
3.08746930123605e-06
3.17078515189997e-06
3.21348699759981e-06
3.23384447824298e-06
3.24290857423674e-06
3.24669302085154e-06
3.24818030767045e-06
3.24873220704531e-06
3.24892590052807e-06
3.24899004973169e-06
3.24900982019875e-06
3.24901516876899e-06
3.24901610244627e-06
3.24901583038165e-06
3.24901532328167e-06
3.24901483104778e-06
3.24901441951791e-06
3.24901410510884e-06
3.24901389502496e-06
3.24901379987932e-06
3.2490137978279e-06
3.24901383507601e-06
3.24901383183735e-06
3.24901343942034e-06
3.24901137086696e-06
3.24900376431238e-06
3.24897881399435e-06
3.24890227299538e-06
3.24867976690335e-06
3.24806482321763e-06
3.24645028650507e-06
3.24243344188655e-06
3.23299536778287e-06
3.21213213281984e-06
3.16891908522826e-06
3.08539831619243e-06
2.93536444941289e-06
2.68579096669176e-06
2.30262094245371e-06
1.76124740573466e-06
1.05923585434636e-06
3.18331866394614e-09
1.23027469280477e-11
1.42982457275883e-11
3.73637394189446e-09
1.2476681624557e-06
2.07520709311758e-06
2.71294700759387e-06
3.16376788632489e-06
3.45674705305943e-06
3.63220424974867e-06
3.72930391320048e-06
3.77912421171324e-06
3.80291196877064e-06
3.81352361115171e-06
3.8179640469705e-06
3.81971354853969e-06
3.82036461735264e-06
3.82059389265211e-06
3.82067016744174e-06
3.8206938497882e-06
3.82070037331197e-06
3.82070160680038e-06
3.82070137144647e-06
3.82070083713574e-06
3.82070030472582e-06
3.82069985461994e-06
3.8206995068532e-06
3.82069926847533e-06
3.82069914583551e-06
3.82069913398937e-06
3.82069916022201e-06
3.8206991323026e-06
3.82069863477907e-06
3.82069620547663e-06
3.82068739155456e-06
3.82065854090828e-06
3.82057002104457e-06
3.82031244733041e-06
3.81959974247363e-06
3.81772632839119e-06
3.81306043863005e-06
3.80208729118583e-06
3.77781215227194e-06
3.7274996291816e-06
3.63019771555042e-06
3.4552818117428e-06
3.16401304546291e-06
2.71608126297175e-06
2.0815383160373e-06
1.25546918871623e-06
3.78354060989001e-09
1.45997764268257e-11
1.63081503322659e-11
4.26430897284425e-09
1.41924943075087e-06
2.35318997906173e-06
3.07009683597847e-06
3.57570572561723e-06
3.90393365696027e-06
4.10046894345417e-06
4.20929088565387e-06
4.26518393380877e-06
4.29190966536079e-06
4.30385293640655e-06
4.30886082140859e-06
4.31083848922465e-06
4.31157642874264e-06
4.31183712156743e-06
4.31192421688201e-06
4.31195145114104e-06
4.31195908404535e-06
4.31196063431358e-06
4.31196046810596e-06
4.31195993703947e-06
4.31195938991653e-06
4.31195892100997e-06
4.31195855393371e-06
4.31195829574998e-06
4.31195815069009e-06
4.31195811730411e-06
4.31195812381678e-06
4.3119580620868e-06
4.31195745394068e-06
4.3119547038278e-06
4.31194485988593e-06
4.31191273052713e-06
4.31181417720622e-06
4.31152721220393e-06
4.31073240234078e-06
4.30864106221512e-06
4.30342761279855e-06
4.29115704120851e-06
4.263994029048e-06
4.20766589077802e-06
4.09867700896272e-06
3.90264350039587e-06
3.57594971202806e-06
3.07289421807962e-06
2.35878720062963e-06
1.42617233016615e-06
4.30801486673575e-09
1.65994157705346e-11
1.80208198935468e-11
4.71560333387457e-09
1.56536479355802e-06
2.58881967267269e-06
3.37198270101442e-06
3.92333658573158e-06
4.28098675579228e-06
4.49513783911078e-06
4.61378014715888e-06
4.67477754877603e-06
4.70398277923729e-06
4.71705515265158e-06
4.72254672270476e-06
4.72472001930261e-06
4.72553293608018e-06
4.72582095925392e-06
4.72591756665842e-06
4.72594797671144e-06
4.72595663761509e-06
4.72595851001159e-06
4.72595843936728e-06
4.72595793612474e-06
4.7259573950949e-06
4.72595692366316e-06
4.72595654896395e-06
4.72595627822709e-06
4.72595611394038e-06
4.72595605127542e-06
4.72595602969687e-06
4.7259559241941e-06
4.72595520455995e-06
4.72595217550078e-06
4.72594146022513e-06
4.72590660875e-06
4.72579976818524e-06
4.72548852831111e-06
4.72462579305141e-06
4.72235378972944e-06
4.71668551711425e-06
4.70333547877896e-06
4.67376667483364e-06
4.61242257771105e-06
4.49368275484116e-06
4.28002103881505e-06
3.92373635790931e-06
3.37457936605292e-06
2.59377148413169e-06
1.57143529563104e-06
4.75562108287661e-09
1.82987154455857e-11
1.94446971920831e-11
5.09218465031956e-09
1.68702813734925e-06
2.78432816604169e-06
3.62195023952538e-06
4.21085613871069e-06
4.59266959060675e-06
4.82131270071496e-06
4.94805587325776e-06
5.01327865653863e-06
5.04454497926257e-06
5.05856038244087e-06
5.06445806611756e-06
5.06679658084259e-06
5.06767323774428e-06
5.06798467713849e-06
5.06808951917896e-06
5.0681227243827e-06
5.06813232003795e-06
5.06813450926773e-06
5.06813455160822e-06
5.06813409409122e-06
5.06813357484197e-06
5.06813311338566e-06
5.06813274021273e-06
5.06813246290567e-06
5.06813228260493e-06
5.06813219101655e-06
5.06813213824966e-06
5.06813197532655e-06
5.06813115239896e-06
5.06812787803201e-06
5.06811643347916e-06
5.06807935257962e-06
5.06796576867369e-06
5.06763478921881e-06
5.06671674547018e-06
5.06429736505288e-06
5.05825740583461e-06
5.04402389359505e-06
5.01248387023844e-06
4.9470267070158e-06
4.82028738538776e-06
4.59215939195776e-06
4.21158262805747e-06
3.62455019330129e-06
2.78884873872441e-06
1.6924149287814e-06
5.12896693153133e-09
1.97094806422208e-11
2.06003356440079e-11
5.39908279986868e-09
1.78611168779132e-06
2.94314967813875e-06
3.82472585957033e-06
4.44392966561431e-06
4.84525952528119e-06
5.08563279349262e-06
5.21895263659023e-06
5.28761847613063e-06
5.32057149837394e-06
5.3353623590959e-06
5.34159577383624e-06
5.34407167614443e-06
5.34500168545363e-06
5.34533287725089e-06
5.34544473663258e-06
5.34548036241379e-06
5.34549079196277e-06
5.34549328278289e-06
5.34549344661818e-06
5.34549304603872e-06
5.345492559166e-06
5.34549211639617e-06
5.34549175138112e-06
5.34549147219589e-06
5.34549127913463e-06
5.3454911622518e-06
5.34549107418441e-06
5.34549085400094e-06
5.34548993554319e-06
5.34548644415335e-06
5.34547439663543e-06
5.34543551662794e-06
5.34531653236496e-06
5.34496976335808e-06
5.34400743246312e-06
5.34146984757763e-06
5.33513128748806e-06
5.32018704484181e-06
5.28705959909236e-06
5.21828795392531e-06
5.08509991933141e-06
4.84530803151222e-06
4.44514162160492e-06
3.82755132176497e-06
2.94750728130684e-06
1.79105512839016e-06
5.43346558052244e-09
2.08543586435643e-11
2.15164242920204e-11
5.64345865816966e-09
1.8650599152468e-06
3.06948639718666e-06
3.98589077119502e-06
4.62911291936597e-06
5.04593932101977e-06
5.29565019767515e-06
5.43422239755578e-06
5.50564867729457e-06
5.53995999182216e-06
5.5553784018548e-06
5.56188497904671e-06
5.5644733259937e-06
5.56544728933132e-06
5.5657948796958e-06
5.56591262353864e-06
5.56595031070584e-06
5.56596146950094e-06
5.56596423947299e-06
5.56596452659471e-06
5.56596418785773e-06
5.5659637395301e-06
5.56596332091157e-06
5.56596296855303e-06
5.56596269110526e-06
5.56596248837496e-06
5.56596234941039e-06
5.56596222696102e-06
5.56596195354616e-06
5.56596094653899e-06
5.56595726764728e-06
5.56594472890363e-06
5.56590442001769e-06
5.56578118305449e-06
5.56542200028588e-06
5.56442482283892e-06
5.56179409179482e-06
5.55521987467202e-06
5.53971400283704e-06
5.50533096075611e-06
5.43393607605539e-06
5.29564263802275e-06
5.04661554817648e-06
4.6309375460765e-06
3.98914409911231e-06
3.07394770695281e-06
1.8698153884215e-06
5.67641595816697e-09
2.17630395396721e-11
2.22260610020234e-11
5.833675526773e-09
1.92662179338963e-06
3.16791178828199e-06
4.11140580253417e-06
4.77333122800033e-06
5.20225042052128e-06
5.45926892108557e-06
5.60196610484353e-06
5.67556917092974e-06
5.71095649365175e-06
5.72687453907662e-06
5.73359979282516e-06
5.73627869343078e-06
5.73728828783305e-06
5.73764927376044e-06
5.73777187191201e-06
5.73781128476101e-06
5.73782306805265e-06
5.73782609101828e-06
5.73782649915636e-06
5.73782622027553e-06
5.7378258129008e-06
5.73782542118204e-06
5.73782508417525e-06
5.73782481112985e-06
5.73782460159415e-06
5.73782444395018e-06
5.73782429031848e-06
5.73782396874877e-06
5.7378228827283e-06
5.73781904573648e-06
5.73780611349967e-06
5.73776468886533e-06
5.73763816127245e-06
5.73726939213831e-06
5.73624528868365e-06
5.73354248510432e-06
5.72678566730229e-06
5.71084408700562e-06
5.67548608537297e-06
5.60205310638094e-06
5.45979194668531e-06
5.20358702672421e-06
4.7758528345145e-06
4.11524462483407e-06
3.17270383548294e-06
1.9314195871177e-06
5.86613748215358e-09
2.24687755881441e-11
2.27635246307682e-11
5.9784797903669e-09
1.9736175337663e-06
3.24303006286366e-06
4.20720595599395e-06
4.88343587675544e-06
5.32162739675355e-06
5.58426707968169e-06
5.7301492542671e-06
5.80544025221782e-06
5.84166588855637e-06
5.85797520796919e-06
5.86487266774876e-06
5.86762330961326e-06
5.86866132049724e-06
5.86903307145997e-06
5.86915960845457e-06
5.86920044133167e-06
5.86921274895197e-06
5.869215993016e-06
5.86921651090651e-06
5.86921629359897e-06
5.86921592696785e-06
5.86921556280681e-06
5.86921524242454e-06
5.8692149756584e-06
5.86921476193366e-06
5.86921458915435e-06
5.86921440865834e-06
5.86921404515953e-06
5.86921289126035e-06
5.8692089243045e-06
5.86919568266502e-06
5.86915340220688e-06
5.86902437424582e-06
5.86864833730903e-06
5.8676038110318e-06
5.86484627272698e-06
5.85795059338904e-06
5.84167728785089e-06
5.80557635808483e-06
5.73058945320822e-06
5.58530224918153e-06
5.32362251314519e-06
4.88669238734626e-06
4.21173117536466e-06
3.24831930731544e-06
1.97863908627783e-06
6.01121756703997e-09
2.30054314453919e-11
2.31617450281502e-11
6.08634627730513e-09
2.0087533937036e-06
3.29920890295612e-06
4.27888373830914e-06
4.96585817988408e-06
5.41103496380377e-06
5.67792418832091e-06
5.82622382850427e-06
5.90280172393074e-06
5.93966962881599e-06
5.95628030819801e-06
5.96331115647726e-06
5.96611770863476e-06
5.96717801373955e-06
5.9675582749727e-06
5.96768795544154e-06
5.96772993699536e-06
5.96774267771115e-06
5.96774610969975e-06
5.96774672570385e-06
5.96774656597107e-06
5.96774623787683e-06
5.96774590042422e-06
5.96774559688707e-06
5.96774533764616e-06
5.96774512208399e-06
5.96774493774877e-06
5.96774473524274e-06
5.96774433675371e-06
5.96774312668486e-06
5.96773905570481e-06
5.96772557563067e-06
5.96768265086364e-06
5.96755175814583e-06
5.96717031382595e-06
5.96611058723954e-06
5.96331226206207e-06
5.95631297162498e-06
5.93979187013284e-06
5.90313550035364e-06
5.82698615005723e-06
5.67943450905866e-06
5.41365728891667e-06
4.9698442304423e-06
4.28413845888512e-06
3.30509497329833e-06
2.0141218515162e-06
6.1199180377295e-09
2.34052186854525e-11
2.34505578701227e-11
6.16501568590429e-09
2.03449118947194e-06
3.3403936274765e-06
4.33147054367867e-06
5.02637146044481e-06
5.47671850816112e-06
5.74676503111903e-06
5.8968684016701e-06
5.97441096007651e-06
6.01176274776423e-06
6.02860170502721e-06
6.03573418113516e-06
6.03858359591314e-06
6.03966110796933e-06
6.04004798770796e-06
6.04018013579057e-06
6.0402230308382e-06
6.04023612366351e-06
6.04023971258026e-06
6.04024041278269e-06
6.04024030440715e-06
6.040240011473e-06
6.0402396989314e-06
6.04023941175652e-06
6.0402391608195e-06
6.04023894550216e-06
6.04023875308468e-06
6.04023853355417e-06
6.04023810720363e-06
6.0402368524246e-06
6.04023270053988e-06
6.04021904068693e-06
6.04017564025047e-06
6.04004338318007e-06
6.0396579917952e-06
6.0385871661903e-06
6.03575902396666e-06
6.02868389119257e-06
6.01198120015201e-06
5.97491743530989e-06
5.89791494718145e-06
5.74870075624692e-06
5.47991450228997e-06
5.03104612223052e-06
4.33744698852659e-06
3.3469140383528e-06
2.04027294304504e-06
6.19976093086243e-09
2.36971668584219e-11
2.36557137251351e-11
6.22122121686275e-09
2.05297145589911e-06
3.37000050908361e-06
4.36931321394036e-06
5.06995793936318e-06
5.52406522137209e-06
5.79641731674186e-06
5.94784371862119e-06
6.02609729036439e-06
6.06380759215195e-06
6.08081662700858e-06
6.08802526985006e-06
6.09090701179074e-06
6.09199759000363e-06
6.0923895340089e-06
6.09252358772953e-06
6.09256719711409e-06
6.09258057086819e-06
6.09258428766528e-06
6.09258505879531e-06
6.09258499554458e-06
6.0925847338898e-06
6.09258444397213e-06
6.09258417226229e-06
6.0925839300689e-06
6.09258371679881e-06
6.09258351953238e-06
6.09258328777153e-06
6.09258284041659e-06
6.09258155155005e-06
6.09257733872762e-06
6.09256354655667e-06
6.09251980217139e-06
6.09238656639255e-06
6.09199834937247e-06
6.09091957464423e-06
6.08807005112551e-06
6.08094046080879e-06
6.06410722945227e-06
6.0267503263478e-06
5.94913354994943e-06
5.79872170290897e-06
5.52776712541179e-06
5.07525489847046e-06
4.37596437431267e-06
3.37714224398212e-06
2.05918482157078e-06
6.25728770058399e-09
2.39062837993097e-11
2.37985223959987e-11
6.26057808317483e-09
2.06598301536567e-06
3.39087834174292e-06
4.39603272024944e-06
5.10076631594595e-06
5.55756103391322e-06
5.83156804826032e-06
5.98394856476463e-06
6.06271747948859e-06
6.10068903543222e-06
6.11782271872651e-06
6.12508752214252e-06
6.12799325341324e-06
6.12909359478867e-06
6.12948935201945e-06
6.1296248538735e-06
6.1296690127878e-06
6.12968260660696e-06
6.12968642580688e-06
6.12968725578974e-06
6.12968723138372e-06
6.12968699701689e-06
6.12968672729129e-06
6.12968646997012e-06
6.12968623674078e-06
6.1296860270519e-06
6.12968582783964e-06
6.12968558823586e-06
6.12968512614219e-06
6.12968381261902e-06
6.12967955562176e-06
6.1296656687524e-06
6.12962168127027e-06
6.12948775788163e-06
6.12909755820273e-06
6.12801320148932e-06
6.12514864245594e-06
6.11798070138863e-06
6.10105542227786e-06
6.0634916060993e-06
5.98544088836634e-06
5.83418250025119e-06
5.56169458306209e-06
5.10660453975652e-06
4.4032857478846e-06
3.39859249827924e-06
2.07261044523936e-06
6.29796588321624e-09
2.40532863242072e-11
2.38959718888151e-11
6.2875967749222e-09
2.07496822467892e-06
3.40532241016239e-06
4.41454595444754e-06
5.12213916576238e-06
5.580821432099e-06
5.85599613563259e-06
6.00905317892451e-06
6.08818942630202e-06
6.12634824260539e-06
6.14357179799543e-06
6.15087734512216e-06
6.15380059453072e-06
6.15490811551336e-06
6.15530669876298e-06
6.15544328382392e-06
6.15548785887099e-06
6.15550162240662e-06
6.15550552243933e-06
6.15550640048966e-06
6.15550640889513e-06
6.15550619800915e-06
6.15550594612886e-06
6.15550570209586e-06
6.1555054779162e-06
6.15550527308654e-06
6.1555050744433e-06
6.15550483084954e-06
6.1555043595043e-06
6.15550302939614e-06
6.15549874194574e-06
6.15548478963013e-06
6.15544063485267e-06
6.15530623937073e-06
6.15491467807776e-06
6.15382648193804e-06
6.15095156178656e-06
6.14375714615667e-06
6.12676822763483e-06
6.08906118006457e-06
6.01070977948776e-06
5.85886435471256e-06
5.58531244779509e-06
5.12843256796661e-06
4.42231497839677e-06
3.41353890852392e-06
2.08196914713102e-06
6.32620704497432e-09
2.41547486603425e-11
2.39611490461015e-11
6.30577804815185e-09
2.08105214415101e-06
3.41512352138355e-06
4.42712974608326e-06
5.13668710537473e-06
5.59667184241654e-06
5.87265623560382e-06
6.02618483039661e-06
6.10557852723746e-06
6.14386935089964e-06
6.16115664808241e-06
6.16849127790607e-06
6.17142711596372e-06
6.17253983335724e-06
6.17294047829302e-06
6.17307786110445e-06
6.17312274652723e-06
6.17313663913421e-06
6.17314060221383e-06
6.17314151905962e-06
6.17314155486848e-06
6.17314136405689e-06
6.17314112791393e-06
6.17314089615356e-06
6.17314068104473e-06
6.17314048212822e-06
6.17314028617812e-06
6.17314004186815e-06
6.17313956591871e-06
6.17313822594314e-06
6.17313391903263e-06
6.17311992365906e-06
6.17307565769414e-06
6.17294094707162e-06
6.17254847374381e-06
6.17145769762193e-06
6.16857579488289e-06
6.16136349295064e-06
6.14433149031235e-06
6.10652731075386e-06
6.02797172381914e-06
5.87572720904591e-06
5.6014512648207e-06
5.14335231938645e-06
4.43532664418735e-06
3.42376390914066e-06
2.08837448275883e-06
6.3454578840415e-09
2.42235155939752e-11
2.4003812260499e-11
6.31775164689427e-09
2.08508480999477e-06
3.42163607316105e-06
4.435507705743e-06
5.14638821246308e-06
5.60725480812166e-06
5.88379032772691e-06
6.03764168699482e-06
6.11721263998192e-06
6.15559491309673e-06
6.17292665277391e-06
6.18028169615484e-06
6.18322643252649e-06
6.1843428504889e-06
6.1847449757917e-06
6.18488293711077e-06
6.18492805066097e-06
6.18494204014864e-06
6.18494605189931e-06
6.18494699988376e-06
6.18494705852645e-06
6.18494688489717e-06
6.1849466626883e-06
6.1849464423188e-06
6.18494623626652e-06
6.18494604411848e-06
6.18494585261039e-06
6.18494561028984e-06
6.18494513356486e-06
6.18494378917457e-06
6.18493947146806e-06
6.18492544999046e-06
6.1848811139799e-06
6.18474620131499e-06
6.18435313745266e-06
6.18326067928833e-06
6.18037420002437e-06
6.17315012555727e-06
6.15608966941612e-06
6.11822116710337e-06
6.03953006440685e-06
5.88702019449134e-06
5.61226208352612e-06
5.15335015260854e-06
4.44405017939458e-06
3.43062346290043e-06
2.09267416766603e-06
6.3583304898635e-09
2.42692473536913e-11
2.40310018877415e-11
6.32542852233477e-09
2.08768780076306e-06
3.42585203144482e-06
4.44094392022905e-06
5.15269491045307e-06
5.61414505919455e-06
5.89104748729307e-06
6.04511508649626e-06
6.12480558201074e-06
6.16324995300883e-06
6.18061208566357e-06
6.18798119208256e-06
6.19093210544576e-06
6.19205111302466e-06
6.19245428354297e-06
6.19259265774455e-06
6.1926379365632e-06
6.19265199790309e-06
6.19265604692818e-06
6.19265701989377e-06
6.19265709770912e-06
6.19265693890122e-06
6.19265672914355e-06
6.19265651943675e-06
6.19265632242293e-06
6.19265613773161e-06
6.1926559520786e-06
6.19265571393496e-06
6.19265523951872e-06
6.19265389506277e-06
6.19264957332391e-06
6.192635538567e-06
6.19259116274244e-06
6.19245612962628e-06
6.19206270485726e-06
6.19096920244757e-06
6.18807984990188e-06
6.18084832094466e-06
6.16376972726121e-06
6.12586000542147e-06
6.04708169160128e-06
5.89440045934974e-06
5.61933006522911e-06
5.15989024720329e-06
4.44976087561814e-06
3.43511801993319e-06
2.0954940563877e-06
6.36674479540586e-09
2.42989944304063e-11
2.40476088426976e-11
6.33014527593834e-09
2.08929871631836e-06
3.42847123456445e-06
4.44433177046393e-06
5.1566351929495e-06
5.61845848331957e-06
5.89559735159347e-06
6.0498054239676e-06
6.12957422854767e-06
6.16805962516674e-06
6.18544201241646e-06
6.19282057431528e-06
6.19577567880201e-06
6.19689646020775e-06
6.19730035418048e-06
6.19743901781243e-06
6.19748441457994e-06
6.19749852866496e-06
6.1975026061166e-06
6.19750359924755e-06
6.19750369333673e-06
6.19750354744525e-06
6.19750334893601e-06
6.19750314929741e-06
6.19750296129453e-06
6.19750278459147e-06
6.19750260590025e-06
6.19750237365038e-06
6.19750190396654e-06
6.19750056285339e-06
6.19749624234207e-06
6.19748220413069e-06
6.19743781120998e-06
6.19730271791443e-06
6.19690909966447e-06
6.19581501351241e-06
6.19292400823936e-06
6.18568810076544e-06
6.16859868305342e-06
6.13066405736033e-06
6.05183253861346e-06
5.89904594827817e-06
5.62378233366931e-06
5.16401414853178e-06
4.4533664341012e-06
3.43796019018771e-06
2.09728029696846e-06
6.37206412178495e-09
2.43177325915824e-11
2.40568535373491e-11
6.33278756803327e-09
2.09020944163301e-06
3.42996177085303e-06
4.44627016818745e-06
5.15889951991098e-06
5.62094571723569e-06
5.89822762965135e-06
6.05252179519489e-06
6.13233923848263e-06
6.17085045094939e-06
6.18824575183462e-06
6.19563042175648e-06
6.19858826925895e-06
6.1997102271465e-06
6.20011460785435e-06
6.20025346959143e-06
6.20029894907228e-06
6.20031310156948e-06
6.20031720078589e-06
6.20031821042379e-06
6.20031831848341e-06
6.20031818396849e-06
6.20031799572474e-06
6.20031780567002e-06
6.20031762662924e-06
6.20031745829803e-06
6.20031728739151e-06
6.20031706232621e-06
6.20031659921266e-06
6.20031526405879e-06
6.20031094888252e-06
6.20029691499841e-06
6.20025252301e-06
6.20011741687324e-06
6.19972373464965e-06
6.19862941548023e-06
6.1957376741253e-06
6.18849967036391e-06
6.17140479943344e-06
6.1334571490394e-06
6.05459700929536e-06
5.90175250098711e-06
5.62638084404746e-06
5.16642651018021e-06
4.45548156461815e-06
3.43963314583348e-06
2.09833579666649e-06
6.37521165727342e-09
2.43288158831393e-11
2.40606509824889e-11
6.33388548082912e-09
2.09059588505068e-06
3.43060687775285e-06
4.44712266172125e-06
5.15990820669807e-06
5.62206481015991e-06
5.89941989660167e-06
6.0537595225413e-06
6.13360347907095e-06
6.17212917798971e-06
6.18953193442437e-06
6.19692022936899e-06
6.19987974944748e-06
6.20100244504626e-06
6.20140714096506e-06
6.20154613669102e-06
6.20159167591523e-06
6.20160585892728e-06
6.20160997734891e-06
6.20161100266865e-06
6.2016111242876e-06
6.20161100094202e-06
6.20161082281193e-06
6.20161064228e-06
6.20161047212672e-06
6.2016103120744e-06
6.20161014884084e-06
6.20160993084518e-06
6.20160947424449e-06
6.20160814525147e-06
6.20160383651388e-06
6.20158981094369e-06
6.20154543260305e-06
6.20141035160009e-06
6.20101671331179e-06
6.19992245368494e-06
6.19703073166929e-06
6.18979248293868e-06
6.17269644726182e-06
6.13474512190613e-06
6.05587546973387e-06
5.90300952964357e-06
5.62759477084622e-06
5.16756194941128e-06
4.45648619978103e-06
3.4404362481933e-06
2.09884874795065e-06
6.37676110207196e-09
2.43343257237273e-11
2.40598480213438e-11
6.33367549459528e-09
2.09053786660927e-06
3.43053670989215e-06
4.44705781709277e-06
5.15985755551716e-06
5.62203092345555e-06
5.89940137101533e-06
6.05375306187149e-06
6.1336054436795e-06
6.17213646615794e-06
6.18954231141737e-06
6.1969322665162e-06
6.1998926229255e-06
6.20101571947128e-06
6.20142060284621e-06
6.20155968771332e-06
6.20160527298053e-06
6.20161948379787e-06
6.20162362237275e-06
6.20162466489901e-06
6.20162480126363e-06
6.20162469021601e-06
6.20162452270203e-06
6.20162435195837e-06
6.20162419053903e-06
6.20162403817951e-06
6.20162388160176e-06
6.201623669235e-06
6.20162321733205e-06
6.20162189251417e-06
6.20161758874074e-06
6.20160357261449e-06
6.20155921772403e-06
6.20142419707533e-06
6.20103070737669e-06
6.19993679131288e-06
6.19704581165082e-06
6.1898090562507e-06
6.17271580311417e-06
6.13476924781163e-06
6.05590705126005e-06
5.90305160018922e-06
5.62764984051166e-06
5.16763056617754e-06
4.45656506501041e-06
3.44051608371042e-06
2.0989120529367e-06
6.37699823334252e-09
2.43353075822116e-11
2.40543540805109e-11
6.33213561202608e-09
2.09002973811767e-06
3.42974448690649e-06
4.4460694664477e-06
5.15874287963649e-06
5.62084114942027e-06
5.89817082929216e-06
6.05250255404419e-06
6.13234624399281e-06
6.17087406241628e-06
6.18827899561502e-06
6.19566884110945e-06
6.19862929328471e-06
6.1997524970064e-06
6.20015745747967e-06
6.20029659258923e-06
6.20034221145305e-06
6.20035644690324e-06
6.20036060557044e-06
6.20036166574178e-06
6.20036181736876e-06
6.20036171884039e-06
6.200361562117e-06
6.20036140112272e-06
6.20036124817489e-06
6.20036110301669e-06
6.20036095237711e-06
6.20036074471605e-06
6.2003602964589e-06
6.2003589749049e-06
6.20035467618505e-06
6.20034067316256e-06
6.20029635622558e-06
6.20016144094233e-06
6.19976822597104e-06
6.19867498449074e-06
6.19578556914989e-06
6.18855224164088e-06
6.17146607983667e-06
6.1335333504732e-06
6.0546965123471e-06
5.90188474463165e-06
5.62655358769258e-06
5.16664133948299e-06
4.45572804862738e-06
3.43988227182882e-06
2.09853293244335e-06
6.37594946721022e-09
2.43318693815753e-11
2.40431601277193e-11
6.32898869134753e-09
2.08898067793277e-06
3.42808659256711e-06
4.44397657539805e-06
5.15635830303414e-06
5.61827434162721e-06
5.89549850034546e-06
6.04977378756851e-06
6.12958964877778e-06
6.16810485726625e-06
6.1855045487058e-06
6.19289240876141e-06
6.1958521884621e-06
6.1969752006671e-06
6.19738012754988e-06
6.19751927366823e-06
6.19756491278362e-06
6.19757916849739e-06
6.19758334586967e-06
6.19758442310292e-06
6.19758458957707e-06
6.19758450323501e-06
6.19758435697631e-06
6.19758420541095e-06
6.1975840606025e-06
6.19758392230159e-06
6.19758377725667e-06
6.19758357399508e-06
6.19758312923031e-06
6.19758181130983e-06
6.19757751968378e-06
6.19756353684437e-06
6.19751927944827e-06
6.19738453097103e-06
6.19699175670724e-06
6.1958996169531e-06
6.19301281253608e-06
6.18578534919708e-06
6.16871165068243e-06
6.13080393124522e-06
6.05201436633317e-06
5.89928658625411e-06
5.62409546827833e-06
5.1644022157923e-06
4.45381024878721e-06
3.43840744861509e-06
2.09763319790116e-06
6.37338575315564e-09
2.43232223580694e-11
2.40241902185387e-11
6.32366554918865e-09
2.08720453014685e-06
3.42526715848869e-06
4.4404036469767e-06