/*--------------------------------*- C++ -*----------------------------------*\
  =========                 |
  \\      /  F ield         | OpenFOAM: The Open Source CFD Toolbox
   \\    /   O peration     | Website:  https://openfoam.org
    \\  /    A nd           | Version:  10
     \\/     M anipulation  |
\*---------------------------------------------------------------------------*/
FoamFile
{
    format      ascii;
    class       volScalarField;
    location    "5";
    object      omega;
}
// * * * * * * * * * * * * * * * * * * * * * * * * * * * * * * * * * * * * * //

dimensions      [0 0 -1 0 0 0 0];

internalField   nonuniform List<scalar> 
2500
(
128112.543941237
128125.338112696
128120.648274312
128117.776903616
128116.274562249
128115.530269585
128115.175059313
128115.012007421
128114.940475592
128114.911018168
128114.898810751
128114.894008188
128114.89214205
128114.891118369
128114.890465229
128114.889861541
128114.889568533
128114.88921521
128114.888819125
128114.888549272
128114.888315467
128114.888111328
128114.887941349
128114.887841339
128114.887732293
128114.887634421
128114.887600381
128114.887580595
128114.887587805
128114.887629831
128114.88770267
128114.887843782
128114.888010647
128114.888221707
128114.888470438
128114.888796579
128114.889298107
128114.890138075
128114.892358359
128114.897503344
128114.910291333
128114.941518944
128115.014940416
128115.179760995
128115.535642155
128116.274271953
128117.76796139
128120.64815363
128125.389143567
128112.500160173
31891.0663968587
14171.5212542526
14169.3101746762
14167.9487607224
14167.2023281409
14166.8123807484
14166.6160905102
14166.5216049346
14166.4784620434
14166.4598602928
14166.4522557302
14166.4493127774
14166.4482303551
14166.4478355124
14166.4476860238
14166.4476181638
14166.4475883474
14166.4475644048
14166.4475404265
14166.4475219427
14166.4475049362
14166.4474883972
14166.4474740166
14166.4474649868
14166.447457131
14166.4474496682
14166.447446193
14166.4474436173
14166.4474411586
14166.4474424271
14166.4474456933
14166.4474514199
14166.4474661891
14166.4474882019
14166.4475168381
14166.4475784139
14166.4477428512
14166.4481924994
14166.4494276783
14166.4526615025
14166.4607885142
14166.4802339766
14166.524399195
14166.6196277973
14166.8154003808
14167.202460252
14167.9454852036
14169.3134218869
14171.5547674224
31891.0448962783
31771.655540619
3529.32253753831
50.8117748390692
50.8054754266551
50.8020427874935
50.8002535937086
50.7993528225857
50.7989182371659
50.7987190276037
50.7986326713962
50.7985972501306
50.798583507411
50.7985784596376
50.7985766745524
50.7985760537279
50.7985758279153
50.7985757464685
50.7985756993682
50.7985756574246
50.798575623277
50.7985755884262
50.7985755498826
50.7985755139587
50.7985754913462
50.7985754746707
50.7985754580529
50.798575449885
50.7985754425802
50.7985754317164
50.7985754291793
50.7985754284934
50.7985754293168
50.7985754710244
50.7985755418561
50.7985756336066
50.7985758731321
50.7985765868715
50.798578630814
50.7985842866469
50.7985991994046
50.7986366972582
50.7987262884109
50.798929368229
50.7993665645817
50.8002648803923
50.8020434646373
50.8054689356701
50.8118184719236
3529.33867140913
31771.7888613557
31674.7781796808
3518.52311475798
50.6571202151787
50.6515523694804
50.6486240454002
50.6471476607295
50.6464250027885
50.6460838739665
50.645930021582
50.6458641108158
50.6458373217491
50.645827004727
50.6458232453845
50.6458219364568
50.6458214971882
50.6458213537204
50.6458213112312
50.6458212930912
50.6458212784474
50.6458212654986
50.6458212494471
50.6458212278285
50.6458212053136
50.6458211909947
50.6458211824313
50.6458211736738
50.6458211693427
50.6458211648231
50.6458211564593
50.6458211531569
50.6458211491103
50.6458211388398
50.6458211633008
50.6458212104729
50.6458212642031
50.6458214208012
50.6458219163538
50.6458233778117
50.6458274870911
50.6458384794349
50.6458664905441
50.6459343648947
50.6460906912905
50.6464337328424
50.6471555278416
50.648627391228
50.6515606891852
50.6571972687364
3518.54410018365
31675.0859236142
31606.1291256468
3511.04842706247
50.5518859149458
50.5478657874661
50.5458257796384
50.5448309977031
50.5443573329903
50.5441382267942
50.54404074991
50.5439993465895
50.5439826037328
50.5439761757661
50.5439738417963
50.5439730356341
50.5439727717395
50.5439726941408
50.5439726777135
50.5439726745381
50.5439726726858
50.5439726703649
50.5439726653787
50.5439726554174
50.5439726427419
50.5439726345554
50.5439726311316
50.5439726276957
50.5439726259308
50.5439726236126
50.5439726186481
50.5439726157713
50.5439726109904
50.5439725990091
50.5439726107939
50.5439726353713
50.5439726601724
50.5439727480625
50.5439730380839
50.543973909594
50.5439763918923
50.5439830995576
50.5440003543333
50.54404260823
50.5441411903575
50.544361184127
50.5448345693277
50.5458284365417
50.5478787724144
50.5519665661768
3511.06903890863
31606.514736126
31562.7733433877
3506.45198363141
50.4882497732781
50.4857453033906
50.4845163507474
50.4839355262913
50.48366601427
50.4835436040482
50.4834897568008
50.4834670186771
50.4834578430044
50.483454320806
50.483453042804
50.4834526033756
50.4834524629595
50.4834524272403
50.4834524240393
50.4834524257534
50.4834524273789
50.4834524277894
50.4834524276089
50.4834524246366
50.4834524181788
50.4834524140159
50.4834524133287
50.4834524127062
50.4834524122255
50.4834524111847
50.4834524087726
50.4834524067312
50.4834524027822
50.4834523933941
50.4834523978227
50.4834524077631
50.4834524160957
50.4834524606488
50.4834526122591
50.4834530718544
50.4834543950986
50.4834579954237
50.4834673131697
50.4834902968509
50.4835444515884
50.4836670285193
50.4839362047329
50.4845170226313
50.4857551650699
50.4883123615395
3506.46840538301
31563.1305159921
31537.989715482
3503.89841123537
50.4534648876437
50.4520763070838
50.4514155638762
50.451112138118
50.450974670612
50.4509132614454
50.4508865014552
50.4508752445565
50.4508707018682
50.4508689548523
50.4508683202657
50.4508681028426
50.4508680357442
50.4508680213183
50.4508680219205
50.4508680245378
50.4508680268188
50.4508680275789
50.4508680283507
50.4508680281534
50.4508680252411
50.4508680235039
50.4508680239767
50.45086802419
50.4508680240557
50.4508680237258
50.4508680226952
50.4508680214332
50.4508680187793
50.4508680127729
50.4508680138499
50.4508680162642
50.4508680177088
50.4508680391875
50.4508681117182
50.4508683322949
50.4508689736376
50.4508707262021
50.4508752763886
50.4508865491753
50.4509133007981
50.4509745685627
50.4511115863832
50.4514148300375
50.452081289681
50.4535042557809
3503.9095188382
31538.2605515554
31525.0072684362
3502.59970931353
50.436046426385
50.435346986061
50.435023361039
50.4348785980448
50.4348144501091
50.4347862274705
50.4347740276239
50.4347689076131
50.4347668383428
50.4347660400003
50.4347657493854
50.4347656501545
50.43476562085
50.4347656157213
50.4347656168145
50.4347656188396
50.4347656205881
50.4347656214622
50.4347656219885
50.4347656221345
50.4347656211978
50.4347656207142
50.4347656213272
50.4347656216935
50.4347656216693
50.4347656215041
50.4347656210968
50.4347656203981
50.4347656188665
50.4347656155544
50.4347656155051
50.4347656157088
50.4347656154957
50.4347656248223
50.4347656567088
50.43476575486
50.4347660427557
50.4347668312093
50.4347688797838
50.4347739642101
50.4347860871858
50.4348141191211
50.434877838434
50.4350221940764
50.4353485472108
50.4360674254584
3502.6062878236
31525.1841149552
31518.7118309535
3501.98854281617
50.4279701676072
50.4276452674275
50.4274987337888
50.4274347373819
50.4274069565439
50.4273949061125
50.4273897337519
50.4273875658579
50.4273866875178
50.4273863472815
50.4273862230914
50.4273861808573
50.427386168936
50.4273861673481
50.4273861681981
50.4273861694289
50.4273861704899
50.4273861711112
50.4273861714023
50.4273861715087
50.4273861713553
50.4273861714042
50.4273861717794
50.4273861720305
50.4273861720506
50.4273861719902
50.4273861718136
50.4273861714511
50.4273861706733
50.4273861691939
50.4273861689382
50.4273861687736
50.4273861683905
50.4273861718815
50.4273861849609
50.4273862259763
50.4273863471981
50.4273866793354
50.4273875411381
50.4273896791928
50.4273947900645
50.4274066981468
50.4274341612658
50.4274977297325
50.4276452526432
50.4279799041823
3501.99203019077
31518.8143361451
31515.8619032971
3501.72005405489
50.4244725399774
50.4243317601064
50.4242697378252
50.4242432357807
50.4242319493803
50.4242271185691
50.4242250582816
50.4242241952918
50.4242238445669
50.424223708104
50.4242236581488
50.4242236412504
50.4242236367421
50.424223636338
50.4242236367986
50.4242236374473
50.424223638009
50.4242236383704
50.4242236385637
50.4242236386617
50.424223638684
50.4242236387845
50.4242236389791
50.4242236391138
50.4242236391366
50.4242236391161
50.4242236390423
50.4242236388725
50.4242236385142
50.4242236378827
50.4242236376771
50.4242236375252
50.4242236372741
50.4242236384921
50.4242236435428
50.4242236598114
50.4242237081406
50.4242238404189
50.4242241825842
50.4242250294862
50.4242270552185
50.4242318025048
50.4242428918857
50.4242690709717
50.4243313175122
50.4244765096849
3501.72173602852
31515.9157343302
31514.6489787457
3501.60914566423
50.4230476536377
50.4229902346404
50.4229654789329
50.4229551099216
50.4229507720806
50.4229489387215
50.4229481614549
50.4229478359551
50.4229477032243
50.4229476513455
50.422947632303
50.422947625916
50.4229476242976
50.4229476242184
50.4229476244585
50.4229476247704
50.4229476250425
50.4229476252307
50.4229476253477
50.4229476254164
50.4229476254584
50.4229476255297
50.4229476256239
50.4229476256902
50.4229476257076
50.4229476257049
50.4229476256786
50.4229476256069
50.4229476254571
50.4229476252023
50.4229476250883
50.4229476249989
50.4229476248812
50.4229476252756
50.4229476271278
50.422947633297
50.422947651673
50.4229477018512
50.4229478310649
50.4229481496249
50.4229489107837
50.4229507019194
50.422954932882
50.4229651024727
50.4229898349899
50.4230490747448
3501.60989297502
31514.6749730079
31514.1608592161
3501.56581384792
50.4224985458284
50.4224763396994
50.4224669556286
50.4224630962465
50.4224615082224
50.4224608450793
50.4224605655243
50.4224604484596
50.4224604005619
50.4224603817599
50.4224603748443
50.4224603725498
50.4224603719991
50.4224603720013
50.4224603721186
50.4224603722607
50.4224603723861
50.4224603724787
50.4224603725434
50.4224603725866
50.4224603726192
50.4224603726612
50.4224603727073
50.4224603727411
50.422460372755
50.4224603727609
50.4224603727561
50.4224603727312
50.4224603726762
50.4224603725823
50.4224603725317
50.4224603724908
50.4224603724471
50.4224603725674
50.4224603732183
50.422460375468
50.42246038217
50.4224604004067
50.4224604471062
50.4224605616355
50.4224608345941
50.4224614785654
50.4224630143876
50.4224667667947
50.4224760866382
50.4224989827321
3501.5661227171
31514.1725315699
31513.9743207845
3501.54973642755
50.4222976387668
50.4222894466805
50.4222860487198
50.4222846744484
50.4222841175987
50.422283887711
50.4222837913319
50.4222837509764
50.4222837344135
50.4222837278884
50.4222837254873
50.4222837247025
50.4222837245282
50.4222837245449
50.4222837246014
50.4222837246661
50.4222837247242
50.4222837247702
50.4222837248059
50.4222837248329
50.4222837248557
50.422283724881
50.4222837249063
50.4222837249266
50.4222837249391
50.4222837249485
50.4222837249534
50.42228372495
50.4222837249354
50.4222837249067
50.4222837248902
50.4222837248767
50.4222837248639
50.4222837249008
50.4222837251255
50.4222837259194
50.4222837282753
50.4222837346555
50.4222837508888
50.4222837904529
50.4222838843914
50.4222841062677
50.4222846397021
50.4222859624068
50.4222893126843
50.4222977455831
3501.54985610454
31513.979237979
31513.906510088
3501.54406769229
50.42222786583
50.4222249686885
50.4222237876871
50.4222233173242
50.4222231294232
50.4222230526919
50.4222230206987
50.4222230073085
50.4222230018004
50.4222229996266
50.4222229988298
50.4222229985769
50.4222229985295
50.4222229985456
50.422222998575
50.422222998607
50.4222229986367
50.4222229986622
50.422222998684
50.4222229987027
50.4222229987197
50.4222229987372
50.4222229987543
50.4222229987695
50.4222229987818
50.4222229987928
50.4222229988019
50.4222229988078
50.4222229988095
50.4222229988061
50.4222229988055
50.4222229988055
50.4222229988064
50.4222229988211
50.4222229988989
50.4222229991722
50.4222229999744
50.4222230021316
50.4222230075806
50.4222230207688
50.4222230519339
50.4222231255343
50.4222233036509
50.4222237511902
50.42222490571
50.4222278801321
3501.54411144094
31513.908467432
31513.8831743497
3501.54218453846
50.4222051275577
50.422204141317
50.4222037457375
50.4222035903977
50.4222035291518
50.4222035044018
50.4222034941416
50.4222034898537
50.42220348809
50.4222034873966
50.422203487147
50.422203487074
50.4222034870676
50.4222034870815
50.4222034870999
50.4222034871191
50.4222034871375
50.4222034871546
50.4222034871706
50.4222034871855
50.4222034871998
50.4222034872143
50.4222034872285
50.4222034872419
50.4222034872543
50.4222034872661
50.4222034872772
50.4222034872868
50.4222034872949
50.422203487301
50.4222034873074
50.4222034873134
50.4222034873194
50.4222034873289
50.4222034873587
50.4222034874525
50.4222034877191
50.4222034884268
50.4222034901985
50.4222034944544
50.4222035044567
50.4222035280507
50.4222035854479
50.4222037313746
50.4222041143225
50.4222051231669
3501.54219970987
31513.8839149792
31513.875766538
3501.5416187706
50.422198530145
50.4221982058654
50.4221980777446
50.4221980280866
50.4221980087469
50.422198001013
50.4221979978292
50.4221979965049
50.4221979959642
50.4221979957561
50.4221979956865
50.422197995672
50.4221979956784
50.4221979956912
50.4221979957053
50.4221979957198
50.4221979957341
50.4221979957481
50.4221979957619
50.4221979957753
50.4221979957887
50.4221979958021
50.4221979958153
50.4221979958283
50.4221979958409
50.4221979958533
50.4221979958653
50.4221979958766
50.4221979958872
50.4221979958968
50.422197995906
50.4221979959147
50.4221979959228
50.4221979959315
50.422197995946
50.4221979959802
50.4221979960683
50.422197996295
50.4221979968546
50.4221979981871
50.4221980013003
50.4221980086298
50.4221980265344
50.4221980725372
50.422198195217
50.4221985253861
3501.54162379034
31513.8760343138
31513.873834508
3501.54149345298
50.4221972530981
50.4221971498196
50.4221971095863
50.4221970941847
50.4221970882589
50.4221970859173
50.4221970849644
50.4221970845741
50.4221970844198
50.4221970843656
50.4221970843531
50.4221970843572
50.4221970843674
50.4221970843796
50.4221970843924
50.4221970844053
50.4221970844182
50.4221970844312
50.4221970844442
50.4221970844572
50.4221970844703
50.4221970844835
50.4221970844966
50.4221970845097
50.4221970845226
50.4221970845354
50.4221970845478
50.42219708456
50.4221970845716
50.4221970845826
50.4221970845932
50.4221970846031
50.4221970846123
50.4221970846212
50.4221970846311
50.4221970846461
50.4221970846768
50.4221970847489
50.4221970849214
50.4221970853266
50.422197086267
50.4221970884766
50.4221970938945
50.4221971079506
50.4221971460148
50.4221972505806
3501.5414950521
31513.8739274786
31513.8737158923
3501.54151010618
50.422197666234
50.4221976343011
50.4221976220272
50.4221976173881
50.4221976156283
50.4221976149457
50.4221976146756
50.4221976145708
50.4221976145348
50.4221976145279
50.4221976145329
50.4221976145427
50.4221976145541
50.4221976145662
50.4221976145785
50.4221976145909
50.4221976146035
50.4221976146162
50.4221976146291
50.4221976146421
50.4221976146552
50.4221976146685
50.4221976146818
50.422197614695
50.4221976147082
50.4221976147213
50.4221976147342
50.4221976147468
50.422197614759
50.4221976147708
50.4221976147821
50.4221976147927
50.4221976148025
50.4221976148117
50.4221976148204
50.4221976148298
50.4221976148428
50.422197614867
50.4221976149196
50.4221976150393
50.4221976153145
50.4221976159601
50.422197617551
50.4221976217199
50.422197633183
50.4221976653054
3501.54151060789
31513.8737470829
31513.8741775538
3501.54157101174
50.4221985983972
50.4221985887971
50.4221985851572
50.4221985838033
50.4221985833016
50.4221985831154
50.4221985830483
50.4221985830282
50.4221985830272
50.4221985830343
50.4221985830444
50.4221985830559
50.4221985830677
50.4221985830797
50.4221985830919
50.4221985831043
50.4221985831168
50.4221985831296
50.4221985831426
50.4221985831557
50.422198583169
50.4221985831824
50.422198583196
50.4221985832095
50.422198583223
50.4221985832364
50.4221985832497
50.4221985832627
50.4221985832754
50.4221985832876
50.4221985832994
50.4221985833105
50.4221985833209
50.4221985833304
50.4221985833391
50.422198583347
50.422198583355
50.4221985833651
50.4221985833819
50.4221985834165
50.4221985834939
50.4221985836755
50.4221985841272
50.4221985853267
50.4221985886815
50.4221985982701
3501.5415711774
31513.8741877791
31513.8748191116
3501.5416452913
50.4221996850312
50.4221996822247
50.4221996811783
50.4221996808
50.422199680668
50.4221996806261
50.4221996806174
50.4221996806214
50.4221996806304
50.4221996806413
50.4221996806528
50.4221996806646
50.4221996806765
50.4221996806886
50.4221996807008
50.4221996807132
50.4221996807259
50.4221996807387
50.4221996807519
50.4221996807652
50.4221996807787
50.4221996807924
50.4221996808062
50.42219968082
50.4221996808338
50.4221996808476
50.4221996808611
50.4221996808745
50.4221996808876
50.4221996809003
50.4221996809125
50.4221996809241
50.4221996809349
50.4221996809449
50.4221996809539
50.4221996809618
50.4221996809688
50.4221996809751
50.422199680982
50.4221996809924
50.4221996810131
50.4221996810612
50.4221996811836
50.4221996815165
50.4221996824699
50.4221996852532
3501.5416453589
31513.8748224866
31513.8755148296
3501.54172349903
50.4222008163242
50.4222008155294
50.4222008152415
50.4222008151452
50.4222008151184
50.4222008151168
50.422200815124
50.4222008151344
50.4222008151459
50.4222008151576
50.4222008151694
50.4222008151812
50.4222008151931
50.4222008152052
50.4222008152174
50.42220081523
50.4222008152427
50.4222008152558
50.422200815269
50.4222008152826
50.4222008152963
50.4222008153103
50.4222008153243
50.4222008153384
50.4222008153526
50.4222008153666
50.4222008153806
50.4222008153944
50.4222008154078
50.4222008154209
50.4222008154335
50.4222008154456
50.4222008154569
50.4222008154674
50.4222008154769
50.4222008154852
50.4222008154923
50.4222008154981
50.4222008155028
50.422200815507
50.4222008155125
50.4222008155239
50.4222008155542
50.4222008156417
50.4222008159035
50.4222008166878
3501.54172353945
31513.8755160419
31513.8762264151
3501.54180283035
50.4222019601853
50.4222019599708
50.4222019598987
50.4222019598811
50.4222019598829
50.4222019598916
50.4222019599026
50.4222019599142
50.4222019599259
50.4222019599377
50.4222019599493
50.4222019599611
50.4222019599729
50.4222019599849
50.4222019599973
50.4222019600098
50.4222019600227
50.4222019600359
50.4222019600494
50.4222019600631
50.4222019600771
50.4222019600913
50.4222019601057
50.4222019601201
50.4222019601346
50.422201960149
50.4222019601633
50.4222019601774
50.4222019601913
50.4222019602048
50.4222019602179
50.4222019602304
50.4222019602422
50.4222019602532
50.4222019602632
50.4222019602721
50.4222019602798
50.4222019602859
50.4222019602907
50.4222019602939
50.4222019602961
50.4222019602985
50.4222019603046
50.4222019603253
50.4222019603937
50.4222019606065
3501.54180286399
31513.8762269717
31513.8769425329
3501.54188247522
50.4222031074954
50.4222031074435
50.4222031074307
50.4222031074337
50.4222031074424
50.4222031074531
50.4222031074644
50.4222031074758
50.4222031074872
50.4222031074986
50.4222031075101
50.4222031075216
50.4222031075334
50.4222031075454
50.4222031075578
50.4222031075704
50.4222031075834
50.4222031075968
50.4222031076104
50.4222031076244
50.4222031076386
50.4222031076531
50.4222031076677
50.4222031076824
50.4222031076973
50.422203107712
50.4222031077267
50.4222031077412
50.4222031077555
50.4222031077695
50.422203107783
50.422203107796
50.4222031078083
50.4222031078198
50.4222031078304
50.42220310784
50.4222031078483
50.4222031078552
50.4222031078606
50.4222031078644
50.4222031078666
50.4222031078676
50.4222031078684
50.4222031078722
50.4222031078887
50.422203107943
3501.54188250757
31513.8769428969
31513.8776599146
3501.54196220558
50.4222042557298
50.4222042557217
50.4222042557241
50.4222042557316
50.4222042557411
50.4222042557515
50.4222042557622
50.422204255773
50.4222042557838
50.4222042557949
50.422204255806
50.4222042558174
50.422204255829
50.422204255841
50.4222042558534
50.4222042558661
50.4222042558792
50.4222042558927
50.4222042559066
50.4222042559207
50.4222042559352
50.42220425595
50.4222042559649
50.4222042559799
50.422204255995
50.4222042560102
50.4222042560253
50.4222042560402
50.4222042560549
50.4222042560693
50.4222042560832
50.4222042560967
50.4222042561095
50.4222042561216
50.4222042561329
50.4222042561431
50.4222042561521
50.4222042561599
50.4222042561662
50.422204256171
50.4222042561741
50.4222042561758
50.4222042561764
50.4222042561769
50.4222042561806
50.4222042561928
3501.54196223814
31513.8776602276
31513.8783776408
3501.54204195871
50.4222054042062
50.422205404209
50.4222054042143
50.422205404222
50.4222054042308
50.4222054042403
50.4222054042501
50.4222054042601
50.4222054042704
50.422205404281
50.4222054042919
50.422205404303
50.4222054043145
50.4222054043265
50.4222054043389
50.4222054043516
50.4222054043649
50.4222054043785
50.4222054043925
50.4222054044069
50.4222054044216
50.4222054044366
50.4222054044519
50.4222054044672
50.4222054044827
50.4222054044982
50.4222054045136
50.422205404529
50.4222054045441
50.4222054045589
50.4222054045734
50.4222054045873
50.4222054046007
50.4222054046134
50.4222054046252
50.4222054046361
50.422205404646
50.4222054046545
50.4222054046618
50.4222054046677
50.422205404672
50.4222054046749
50.4222054046766
50.4222054046775
50.422205404679
50.4222054046809
3501.54204199187
31513.8783779451
31513.8790954588
3501.54212171779
50.4222065527444
50.422206552749
50.4222065527542
50.4222065527609
50.4222065527686
50.422206552777
50.4222065527859
50.4222065527952
50.422206552805
50.4222065528151
50.4222065528256
50.4222065528365
50.4222065528479
50.4222065528598
50.4222065528721
50.422206552885
50.4222065528983
50.4222065529121
50.4222065529263
50.4222065529409
50.4222065529559
50.4222065529711
50.4222065529866
50.4222065530023
50.4222065530181
50.422206553034
50.4222065530498
50.4222065530656
50.4222065530811
50.4222065530964
50.4222065531113
50.4222065531258
50.4222065531397
50.422206553153
50.4222065531655
50.4222065531771
50.4222065531877
50.4222065531971
50.4222065532054
50.4222065532124
50.4222065532179
50.4222065532222
50.4222065532252
50.4222065532274
50.4222065532295
50.4222065532298
3501.54212175162
31513.8790957629
31513.8798133008
3501.54220147836
50.4222077012979
50.4222077013021
50.4222077013063
50.4222077013118
50.4222077013183
50.4222077013257
50.4222077013337
50.4222077013423
50.4222077013514
50.422207701361
50.4222077013712
50.4222077013819
50.4222077013932
50.4222077014049
50.4222077014173
50.4222077014302
50.4222077014436
50.4222077014575
50.4222077014719
50.4222077014867
50.4222077015019
50.4222077015174
50.4222077015332
50.4222077015492
50.4222077015654
50.4222077015815
50.4222077015978
50.4222077016139
50.4222077016299
50.4222077016456
50.4222077016611
50.4222077016761
50.4222077016906
50.4222077017044
50.4222077017176
50.4222077017299
50.4222077017413
50.4222077017517
50.4222077017609
50.4222077017689
50.4222077017758
50.4222077017814
50.4222077017858
50.4222077017895
50.4222077017927
50.4222077017936
3501.54220151286
31513.8798136111
31513.8805311489
3501.54228123932
50.4222088498553
50.4222088498584
50.4222088498614
50.4222088498656
50.422208849871
50.4222088498773
50.4222088498844
50.4222088498922
50.4222088499007
50.4222088499099
50.4222088499197
50.4222088499302
50.4222088499413
50.422208849953
50.4222088499653
50.4222088499782
50.4222088499917
50.4222088500058
50.4222088500203
50.4222088500353
50.4222088500508
50.4222088500665
50.4222088500826
50.422208850099
50.4222088501154
50.422208850132
50.4222088501486
50.4222088501651
50.4222088501816
50.4222088501978
50.4222088502137
50.4222088502292
50.4222088502442
50.4222088502588
50.4222088502725
50.4222088502856
50.4222088502978
50.422208850309
50.4222088503193
50.4222088503284
50.4222088503364
50.4222088503434
50.4222088503493
50.4222088503543
50.4222088503589
50.422208850361
3501.54228127456
31513.8805314651
31513.8812489985
3501.54236100036
50.4222099984135
50.4222099984154
50.4222099984172
50.4222099984202
50.4222099984245
50.4222099984297
50.422209998436
50.4222099984431
50.422209998451
50.4222099984597
50.4222099984691
50.4222099984793
50.4222099984902
50.4222099985018
50.4222099985142
50.4222099985271
50.4222099985407
50.4222099985549
50.4222099985696
50.4222099985848
50.4222099986004
50.4222099986165
50.4222099986328
50.4222099986495
50.4222099986663
50.4222099986832
50.4222099987002
50.4222099987171
50.422209998734
50.4222099987506
50.422209998767
50.4222099987831
50.4222099987987
50.4222099988138
50.4222099988283
50.422209998842
50.4222099988551
50.4222099988672
50.4222099988784
50.4222099988886
50.4222099988979
50.4222099989061
50.4222099989133
50.4222099989199
50.4222099989258
50.4222099989292
3501.5423610363
31513.881249322
31513.8819668486
3501.54244076145
50.4222111469721
50.4222111469728
50.4222111469734
50.4222111469752
50.4222111469783
50.4222111469826
50.4222111469879
50.4222111469943
50.4222111470016
50.4222111470099
50.4222111470189
50.4222111470289
50.4222111470396
50.4222111470511
50.4222111470634
50.4222111470764
50.4222111470901
50.4222111471043
50.4222111471192
50.4222111471346
50.4222111471504
50.4222111471667
50.4222111471834
50.4222111472003
50.4222111472175
50.4222111472347
50.4222111472521
50.4222111472694
50.4222111472867
50.4222111473039
50.4222111473208
50.4222111473373
50.4222111473535
50.4222111473692
50.4222111473844
50.4222111473989
50.4222111474126
50.4222111474257
50.4222111474379
50.4222111474492
50.4222111474596
50.4222111474691
50.4222111474777
50.4222111474856
50.4222111474929
50.4222111474977
3501.54244079811
31513.8819671783
31513.8826846991
3501.54252052257
50.4222122955311
50.4222122955305
50.4222122955299
50.4222122955305
50.4222122955326
50.4222122955359
50.4222122955403
50.422212295546
50.4222122955527
50.4222122955605
50.4222122955692
50.4222122955789
50.4222122955894
50.4222122956009
50.4222122956131
50.422212295626
50.4222122956398
50.4222122956542
50.4222122956692
50.4222122956848
50.4222122957009
50.4222122957174
50.4222122957343
50.4222122957515
50.422212295769
50.4222122957867
50.4222122958044
50.4222122958221
50.4222122958398
50.4222122958574
50.4222122958748
50.4222122958919
50.4222122959086
50.422212295925
50.4222122959408
50.422212295956
50.4222122959706
50.4222122959845
50.4222122959976
50.42221229601
50.4222122960216
50.4222122960323
50.4222122960422
50.4222122960515
50.4222122960601
50.4222122960663
3501.54252055985
31513.8826850348
31513.88340255
3501.54260028372
50.4222134440906
50.4222134440886
50.4222134440869
50.4222134440862
50.4222134440873
50.4222134440896
50.4222134440932
50.4222134440982
50.4222134441044
50.4222134441116
50.42221344412
50.4222134441294
50.4222134441397
50.422213444151
50.4222134441632
50.4222134441762
50.42221344419
50.4222134442045
50.4222134442197
50.4222134442354
50.4222134442517
50.4222134442685
50.4222134442857
50.4222134443032
50.422213444321
50.4222134443389
50.422213444357
50.4222134443752
50.4222134443933
50.4222134444113
50.4222134444292
50.4222134444468
50.4222134444641
50.422213444481
50.4222134444975
50.4222134445134
50.4222134445288
50.4222134445436
50.4222134445576
50.4222134445711
50.4222134445837
50.4222134445958
50.4222134446069
50.4222134446176
50.4222134446276
50.4222134446352
3501.54260032162
31513.8834028894
31513.8841204014
3501.54268004493
50.4222145926508
50.4222145926474
50.4222145926444
50.4222145926426
50.4222145926426
50.4222145926439
50.4222145926468
50.422214592651
50.4222145926566
50.4222145926634
50.4222145926714
50.4222145926805
50.4222145926907
50.4222145927019
50.422214592714
50.422214592727
50.4222145927409
50.4222145927555
50.4222145927708
50.4222145927867
50.4222145928032
50.4222145928202
50.4222145928376
50.4222145928554
50.4222145928735
50.4222145928918
50.4222145929103
50.4222145929288
50.4222145929473
50.4222145929658
50.4222145929841
50.4222145930023
50.4222145930201
50.4222145930376
50.4222145930547
50.4222145930714
50.4222145930875
50.4222145931031
50.4222145931181
50.4222145931325
50.4222145931464
50.4222145931596
50.422214593172
50.4222145931841
50.4222145931954
50.4222145932045
3501.54268008351
31513.8841207476
31513.8848382534
3501.5427598062
50.4222157412117
50.4222157412069
50.4222157412026
50.4222157411996
50.4222157411985
50.422215741199
50.422215741201
50.4222157412046
50.4222157412095
50.4222157412159
50.4222157412236
50.4222157412324
50.4222157412424
50.4222157412535
50.4222157412656
50.4222157412786
50.4222157412924
50.4222157413071
50.4222157413225
50.4222157413386
50.4222157413553
50.4222157413725
50.4222157413902
50.4222157414083
50.4222157414267
50.4222157414453
50.4222157414641
50.422215741483
50.4222157415019
50.4222157415209
50.4222157415396
50.4222157415582
50.4222157415766
50.4222157415947
50.4222157416125
50.4222157416298
50.4222157416467
50.4222157416631
50.422215741679
50.4222157416944
50.4222157417093
50.4222157417237
50.4222157417374
50.4222157417509
50.4222157417635
50.4222157417742
3501.54275984543
31513.8848386062
31513.8855561061
3501.54283956754
50.4222168897736
50.4222168897671
50.4222168897616
50.4222168897574
50.4222168897552
50.4222168897547
50.422216889756
50.4222168897589
50.4222168897633
50.4222168897693
50.4222168897766
50.4222168897852
50.422216889795
50.4222168898059
50.4222168898179
50.4222168898309
50.4222168898449
50.4222168898596
50.4222168898751
50.4222168898914
50.4222168899083
50.4222168899257
50.4222168899436
50.422216889962
50.4222168899806
50.4222168899996
50.4222168900187
50.422216890038
50.4222168900573
50.4222168900766
50.4222168900958
50.422216890115
50.4222168901338
50.4222168901525