/*--------------------------------*- C++ -*----------------------------------*\
  =========                 |
  \\      /  F ield         | OpenFOAM: The Open Source CFD Toolbox
   \\    /   O peration     | Website:  https://openfoam.org
    \\  /    A nd           | Version:  10
     \\/     M anipulation  |
\*---------------------------------------------------------------------------*/
FoamFile
{
    format      ascii;
    class       volScalarField;
    location    "5";
    object      p;
}
// * * * * * * * * * * * * * * * * * * * * * * * * * * * * * * * * * * * * * //

dimensions      [1 -1 -2 0 0 0 0];

internalField   nonuniform List<scalar> 
2500
(
100087.275744948
100087.275746179
100087.275747173
100087.275747991
100087.275748479
100087.275748787
100087.275748965
100087.275749068
100087.275749128
100087.275749163
100087.275749184
100087.275749198
100087.275749208
100087.275749216
100087.275749223
100087.275749231
100087.275749239
100087.275749247
100087.275749256
100087.275749266
100087.275749276
100087.275749287
100087.275749298
100087.275749309
100087.275749321
100087.275749333
100087.275749345
100087.275749358
100087.27574937
100087.275749383
100087.275749396
100087.275749408
100087.275749421
100087.275749433
100087.275749445
100087.275749456
100087.275749466
100087.275749474
100087.275749479
100087.275749479
100087.275749471
100087.275749447
100087.275749396
100087.275749301
100087.275749129
100087.275748826
100087.27574834
100087.275747518
100087.275746508
100087.275745273
100087.273497749
100087.273498703
100087.273499475
100087.27350017
100087.273500595
100087.273500872
100087.273501033
100087.273501128
100087.273501183
100087.273501216
100087.273501236
100087.273501249
100087.273501259
100087.273501267
100087.273501275
100087.273501283
100087.273501291
100087.273501299
100087.273501309
100087.273501318
100087.273501328
100087.273501339
100087.27350135
100087.273501362
100087.273501373
100087.273501385
100087.273501398
100087.27350141
100087.273501423
100087.273501435
100087.273501448
100087.27350146
100087.273501473
100087.273501485
100087.273501496
100087.273501507
100087.273501517
100087.273501526
100087.273501531
100087.273501531
100087.273501524
100087.273501502
100087.273501456
100087.273501369
100087.273501214
100087.273500942
100087.273500519
100087.273499819
100087.273499033
100087.273498078
100087.27124055
100087.271241164
100087.271241553
100087.271242001
100087.27124228
100087.271242474
100087.27124259
100087.271242661
100087.271242705
100087.271242731
100087.271242748
100087.271242761
100087.27124277
100087.271242778
100087.271242786
100087.271242794
100087.271242802
100087.271242811
100087.27124282
100087.27124283
100087.27124284
100087.271242851
100087.271242862
100087.271242873
100087.271242885
100087.271242897
100087.271242909
100087.271242922
100087.271242934
100087.271242947
100087.271242959
100087.271242971
100087.271242984
100087.271242996
100087.271243007
100087.271243018
100087.271243028
100087.271243036
100087.271243042
100087.271243044
100087.271243039
100087.271243023
100087.27124299
100087.271242927
100087.271242816
100087.271242626
100087.271242349
100087.271241898
100087.271241498
100087.271240873
100087.268975404
100087.268975634
100087.268975681
100087.268975859
100087.26897597
100087.268976065
100087.268976128
100087.26897617
100087.268976199
100087.268976218
100087.268976232
100087.268976242
100087.268976251
100087.268976259
100087.268976267
100087.268976274
100087.268976283
100087.268976291
100087.2689763
100087.26897631
100087.26897632
100087.268976331
100087.268976342
100087.268976354
100087.268976365
100087.268976377
100087.268976389
100087.268976402
100087.268976414
100087.268976426
100087.268976439
100087.268976451
100087.268976463
100087.268976475
100087.268976487
100087.268976498
100087.268976508
100087.268976516
100087.268976523
100087.268976526
100087.268976525
100087.268976517
100087.268976498
100087.268976463
100087.268976407
100087.268976316
100087.268976206
100087.268976026
100087.268975974
100087.26897573
100087.266704273
100087.266704208
100087.266704052
100087.266704033
100087.266704023
100087.266704041
100087.26670406
100087.266704078
100087.266704093
100087.266704105
100087.266704115
100087.266704124
100087.266704131
100087.266704139
100087.266704146
100087.266704154
100087.266704162
100087.26670417
100087.266704179
100087.266704189
100087.266704199
100087.26670421
100087.266704221
100087.266704232
100087.266704244
100087.266704256
100087.266704268
100087.26670428
100087.266704292
100087.266704305
100087.266704317
100087.266704329
100087.266704341
100087.266704353
100087.266704364
100087.266704375
100087.266704385
100087.266704394
100087.266704402
100087.266704407
100087.26670441
100087.266704409
100087.266704403
100087.266704394
100087.266704381
100087.266704368
100087.26670438
100087.266704398
100087.266704555
100087.266704609
100087.264429084
100087.264428857
100087.264428613
100087.264428479
100087.264428395
100087.264428361
100087.264428349
100087.264428348
100087.264428352
100087.264428358
100087.264428364
100087.264428371
100087.264428377
100087.264428384
100087.264428391
100087.264428398
100087.264428406
100087.264428414
100087.264428424
100087.264428433
100087.264428443
100087.264428454
100087.264428465
100087.264428476
100087.264428488
100087.264428499
100087.264428511
100087.264428523
100087.264428535
100087.264428547
100087.26442856
100087.264428572
100087.264428583
100087.264428595
100087.264428607
100087.264428617
100087.264428628
100087.264428638
100087.264428646
100087.264428654
100087.26442866
100087.264428665
100087.26442867
100087.264428679
100087.264428698
100087.264428736
100087.264428824
100087.264428961
100087.264429208
100087.26442943
100087.262151464
100087.26215119
100087.262150935
100087.262150748
100087.262150628
100087.262150564
100087.262150532
100087.262150517
100087.262150514
100087.262150514
100087.262150517
100087.262150521
100087.262150526
100087.262150532
100087.262150539
100087.262150546
100087.262150553
100087.262150562
100087.262150571
100087.26215058
100087.26215059
100087.262150601
100087.262150611
100087.262150622
100087.262150634
100087.262150645
100087.262150657
100087.262150669
100087.262150681
100087.262150693
100087.262150705
100087.262150717
100087.262150728
100087.26215074
100087.262150751
100087.262150762
100087.262150773
100087.262150783
100087.262150793
100087.262150802
100087.262150812
100087.262150822
100087.262150836
100087.262150859
100087.262150897
100087.262150966
100087.26215109
100087.26215128
100087.262151541
100087.262151816
100087.259872541
100087.259872286
100087.259872058
100087.259871861
100087.259871731
100087.259871652
100087.259871608
100087.259871585
100087.259871574
100087.25987157
100087.25987157
100087.259871572
100087.259871576
100087.259871581
100087.259871587
100087.259871593
100087.259871601
100087.259871609
100087.259871618
100087.259871627
100087.259871637
100087.259871647
100087.259871658
100087.259871669
100087.25987168
100087.259871691
100087.259871703
100087.259871714
100087.259871726
100087.259871738
100087.259871749
100087.259871761
100087.259871773
100087.259871784
100087.259871795
100087.259871806
100087.259871817
100087.259871828
100087.259871839
100087.25987185
100087.259871863
100087.259871878
100087.259871898
100087.25987193
100087.25987198
100087.259872065
100087.259872199
100087.2598724
100087.259872634
100087.259872893
100087.257592989
100087.257592781
100087.25759259
100087.257592407
100087.257592281
100087.257592196
100087.257592147
100087.257592117
100087.257592101
100087.257592093
100087.257592091
100087.257592091
100087.257592094
100087.257592098
100087.257592103
100087.257592109
100087.257592116
100087.257592124
100087.257592133
100087.257592142
100087.257592151
100087.257592162
100087.257592172
100087.257592183
100087.257592194
100087.257592205
100087.257592216
100087.257592228
100087.257592239
100087.25759225
100087.257592262
100087.257592273
100087.257592284
100087.257592296
100087.257592307
100087.257592318
100087.257592329
100087.257592341
100087.257592353
100087.257592366
100087.25759238
100087.257592399
100087.257592424
100087.257592462
100087.257592518
100087.257592608
100087.257592739
100087.257592927
100087.257593122
100087.257593336
100087.255313166
100087.255313006
100087.255312854
100087.255312692
100087.255312577
100087.255312494
100087.255312441
100087.255312408
100087.255312389
100087.255312378
100087.255312373
100087.255312372
100087.255312373
100087.255312376
100087.255312381
100087.255312387
100087.255312394
100087.255312401
100087.255312409
100087.255312418
100087.255312428
100087.255312438
100087.255312448
100087.255312458
100087.255312469
100087.25531248
100087.255312491
100087.255312502
100087.255312513
100087.255312524
100087.255312535
100087.255312546
100087.255312557
100087.255312569
100087.25531258
100087.255312591
100087.255312602
100087.255312614
100087.255312627
100087.255312641
100087.255312658
100087.255312679
100087.255312708
100087.255312749
100087.255312808
100087.255312897
100087.255313017
100087.255313183
100087.255313339
100087.255313503
100087.253033241
100087.253033122
100087.253033002
100087.253032865
100087.253032762
100087.253032683
100087.253032631
100087.253032596
100087.253032575
100087.253032562
100087.253032555
100087.253032552
100087.253032553
100087.253032555
100087.253032559
100087.253032564
100087.253032571
100087.253032578
100087.253032586
100087.253032595
100087.253032604
100087.253032614
100087.253032624
100087.253032634
100087.253032644
100087.253032655
100087.253032665
100087.253032676
100087.253032687
100087.253032698
100087.253032709
100087.253032719
100087.25303273
100087.253032741
100087.253032752
100087.253032763
100087.253032775
100087.253032787
100087.253032801
100087.253032816
100087.253032834
100087.253032858
100087.253032888
100087.253032931
100087.25303299
100087.253033075
100087.253033182
100087.253033323
100087.253033446
100087.253033568
100087.250753286
100087.2507532
100087.250753105
100087.250752991
100087.250752901
100087.250752828
100087.250752778
100087.250752743
100087.25075272
100087.250752705
100087.250752697
100087.250752694
100087.250752693
100087.250752695
100087.250752698
100087.250752703
100087.250752709
100087.250752716
100087.250752724
100087.250752732
100087.250752741
100087.25075275
100087.25075276
100087.25075277
100087.25075278
100087.25075279
100087.250752801
100087.250752811
100087.250752821
100087.250752832
100087.250752842
100087.250752853
100087.250752863
100087.250752874
100087.250752885
100087.250752896
100087.250752908
100087.25075292
100087.250752934
100087.25075295
100087.25075297
100087.250752994
100087.250753026
100087.250753069
100087.250753126
100087.250753204
100087.250753298
100087.250753416
100087.250753513
100087.250753602
100087.248473331
100087.248473267
100087.248473193
100087.248473098
100087.24847302
100087.248472954
100087.248472907
100087.248472872
100087.248472849
100087.248472834
100087.248472825
100087.24847282
100087.248472819
100087.24847282
100087.248472823
100087.248472827
100087.248472833
100087.24847284
100087.248472847
100087.248472855
100087.248472864
100087.248472873
100087.248472882
100087.248472892
100087.248472901
100087.248472911
100087.248472921
100087.248472931
100087.248472941
100087.248472951
100087.248472961
100087.248472971
100087.248472982
100087.248472992
100087.248473002
100087.248473013
100087.248473025
100087.248473038
100087.248473052
100087.248473069
100087.248473088
100087.248473114
100087.248473145
100087.248473188
100087.248473242
100087.248473313
100087.248473395
100087.248473493
100087.248473569
100087.248473635
100087.246193382
100087.246193335
100087.246193276
100087.246193197
100087.246193131
100087.246193072
100087.246193028
100087.246192994
100087.246192971
100087.246192956
100087.246192946
100087.246192941
100087.246192939
100087.24619294
100087.246192942
100087.246192946
100087.246192952
100087.246192958
100087.246192965
100087.246192973
100087.246192981
100087.24619299
100087.246192999
100087.246193008
100087.246193018
100087.246193027
100087.246193037
100087.246193046
100087.246193056
100087.246193065
100087.246193075
100087.246193085
100087.246193095
100087.246193105
100087.246193115
100087.246193126
100087.246193137
100087.24619315
100087.246193164
100087.246193181
100087.246193201
100087.246193226
100087.246193257
100087.246193298
100087.246193348
100087.246193413
100087.246193483
100087.246193565
100087.246193625
100087.246193674
100087.243913441
100087.243913406
100087.243913359
100087.243913294
100087.243913237
100087.243913185
100087.243913145
100087.243913113
100087.243913091
100087.243913076
100087.243913066
100087.24391306
100087.243913058
100087.243913058
100087.24391306
100087.243913064
100087.243913069
100087.243913075
100087.243913082
100087.24391309
100087.243913098
100087.243913106
100087.243913115
100087.243913123
100087.243913132
100087.243913142
100087.243913151
100087.24391316
100087.243913169
100087.243913178
100087.243913187
100087.243913197
100087.243913206
100087.243913215
100087.243913225
100087.243913236
100087.243913247
100087.243913259
100087.243913274
100087.24391329
100087.24391331
100087.243913335
100087.243913365
100087.243913404
100087.24391345
100087.243913507
100087.243913568
100087.243913635
100087.243913684
100087.243913721
100087.241633508
100087.241633481
100087.241633443
100087.24163339
100087.241633341
100087.241633296
100087.241633259
100087.24163323
100087.241633209
100087.241633194
100087.241633185
100087.241633179
100087.241633176
100087.241633177
100087.241633179
100087.241633182
100087.241633187
100087.241633193
100087.241633199
100087.241633206
100087.241633214
100087.241633222
100087.24163323
100087.241633239
100087.241633247
100087.241633256
100087.241633265
100087.241633273
100087.241633282
100087.241633291
100087.241633299
100087.241633308
100087.241633317
100087.241633326
100087.241633335
100087.241633345
100087.241633356
100087.241633368
100087.241633382
100087.241633398
100087.241633418
100087.241633441
100087.24163347
100087.241633506
100087.241633549
100087.241633599
100087.241633652
100087.241633707
100087.241633746
100087.241633775
100087.239353582
100087.239353561
100087.239353531
100087.239353487
100087.239353445
100087.239353406
100087.239353373
100087.239353347
100087.239353327
100087.239353313
100087.239353303
100087.239353298
100087.239353295
100087.239353295
100087.239353297
100087.2393533
100087.239353305
100087.23935331
100087.239353316
100087.239353323
100087.239353331
100087.239353338
100087.239353346
100087.239353354
100087.239353362
100087.23935337
100087.239353379
100087.239353387
100087.239353395
100087.239353403
100087.239353411
100087.239353419
100087.239353428
100087.239353436
100087.239353445
100087.239353455
100087.239353465
100087.239353477
100087.23935349
100087.239353506
100087.239353524
100087.239353547
100087.239353574
100087.239353607
100087.239353645
100087.23935369
100087.239353735
100087.239353781
100087.239353813
100087.239353835
100087.237073661
100087.237073645
100087.23707362
100087.237073584
100087.237073549
100087.237073515
100087.237073486
100087.237073462
100087.237073444
100087.237073431
100087.237073422
100087.237073417
100087.237073414
100087.237073414
100087.237073416
100087.237073419
100087.237073423
100087.237073428
100087.237073434
100087.237073441
100087.237073448
100087.237073455
100087.237073463
100087.23707347
100087.237073478
100087.237073486
100087.237073493
100087.237073501
100087.237073509
100087.237073516
100087.237073524
100087.237073531
100087.237073539
100087.237073547
100087.237073556
100087.237073565
100087.237073575
100087.237073586
100087.237073598
100087.237073613
100087.237073631
100087.237073652
100087.237073677
100087.237073707
100087.237073741
100087.23707378
100087.237073818
100087.237073857
100087.237073883
100087.237073901
100087.234793745
100087.234793733
100087.234793713
100087.234793683
100087.234793653
100087.234793624
100087.234793599
100087.234793578
100087.234793561
100087.234793549
100087.234793541
100087.234793536
100087.234793534
100087.234793534
100087.234793535
100087.234793538
100087.234793542
100087.234793547
100087.234793553
100087.234793559
100087.234793566
100087.234793573
100087.23479358
100087.234793587
100087.234793594
100087.234793601
100087.234793609
100087.234793616
100087.234793623
100087.23479363
100087.234793637
100087.234793644
100087.234793651
100087.234793659
100087.234793666
100087.234793675
100087.234793684
100087.234793694
100087.234793706
100087.23479372
100087.234793736
100087.234793756
100087.234793779
100087.234793806
100087.234793836
100087.23479387
100087.234793903
100087.234793935
100087.234793956
100087.23479397
100087.232513833
100087.232513823
100087.232513807
100087.232513783
100087.232513758
100087.232513733
100087.232513711
100087.232513693
100087.232513678
100087.232513668
100087.23251366
100087.232513656
100087.232513654
100087.232513654
100087.232513655
100087.232513658
100087.232513662
100087.232513667
100087.232513673
100087.232513678
100087.232513685
100087.232513691
100087.232513698
100087.232513705
100087.232513711
100087.232513718
100087.232513725
100087.232513731
100087.232513738
100087.232513744
100087.232513751
100087.232513757
100087.232513764
100087.23251377
100087.232513777
100087.232513785
100087.232513793
100087.232513803
100087.232513814
100087.232513827
100087.232513842
100087.232513859
100087.23251388
100087.232513904
100087.232513931
100087.23251396
100087.232513988
100087.232514014
100087.232514032
100087.232514043
100087.230233924
100087.230233917
100087.230233904
100087.230233884
100087.230233864
100087.230233843
100087.230233824
100087.230233808
100087.230233796
100087.230233786
100087.23023378
100087.230233776
100087.230233774
100087.230233774
100087.230233776
100087.230233779
100087.230233783
100087.230233787
100087.230233793
100087.230233798
100087.230233804
100087.23023381
100087.230233817
100087.230233823
100087.230233829
100087.230233835
100087.230233841
100087.230233847
100087.230233853
100087.230233859
100087.230233865
100087.230233871
100087.230233877
100087.230233883
100087.230233889
100087.230233896
100087.230233903
100087.230233912
100087.230233922
100087.230233933
100087.230233947
100087.230233963
100087.230233981
100087.230234002
100087.230234026
100087.23023405
100087.230234074
100087.230234095
100087.23023411
100087.230234119
100087.227954018
100087.227954013
100087.227954003
100087.227953987
100087.22795397
100087.227953953
100087.227953937
100087.227953924
100087.227953913
100087.227953905
100087.2279539
100087.227953896
100087.227953895
100087.227953896
100087.227953897
100087.2279539
100087.227953904
100087.227953908
100087.227953913
100087.227953919
100087.227953924
100087.22795393
100087.227953936
100087.227953942
100087.227953948
100087.227953953
100087.227953959
100087.227953964
100087.22795397
100087.227953975
100087.22795398
100087.227953985
100087.22795399
100087.227953995
100087.227954001
100087.227954007
100087.227954014
100087.227954021
100087.22795403
100087.22795404
100087.227954052
100087.227954066
100087.227954082
100087.227954101
100087.22795412
100087.227954141
100087.227954161
100087.227954178
100087.22795419
100087.227954198
100087.225674115
100087.225674111
100087.225674103
100087.225674091
100087.225674078
100087.225674064
100087.225674051
100087.22567404
100087.225674031
100087.225674024
100087.22567402
100087.225674017
100087.225674016
100087.225674017
100087.225674019
100087.225674022
100087.225674026
100087.22567403
100087.225674035
100087.22567404
100087.225674045
100087.225674051
100087.225674056
100087.225674061
100087.225674067
100087.225674072
100087.225674077
100087.225674082
100087.225674086
100087.225674091
100087.225674095
100087.2256741
100087.225674104
100087.225674108
100087.225674113
100087.225674118
100087.225674124
100087.225674131
100087.225674138
100087.225674147
100087.225674157
100087.225674169
100087.225674183
100087.225674199
100087.225674215
100087.225674233
100087.225674249
100087.225674263
100087.225674272
100087.225674278
100087.223394213
100087.223394211
100087.223394205
100087.223394196
100087.223394186
100087.223394175
100087.223394165
100087.223394156
100087.223394149
100087.223394143
100087.22339414
100087.223394138
100087.223394138
100087.223394139
100087.223394141
100087.223394144
100087.223394148
100087.223394152
100087.223394157
100087.223394162
100087.223394167
100087.223394172
100087.223394177
100087.223394181
100087.223394186
100087.223394191
100087.223394195
100087.223394199
100087.223394203
100087.223394207
100087.223394211
100087.223394215
100087.223394218
100087.223394222
100087.223394226
100087.22339423
100087.223394235
100087.22339424
100087.223394246
100087.223394254
100087.223394262
100087.223394273
100087.223394284
100087.223394297
100087.223394311
100087.223394325
100087.223394338
100087.223394349
100087.223394356
100087.22339436
100087.221114313
100087.221114312
100087.221114309
100087.221114302
100087.221114294
100087.221114286
100087.221114279
100087.221114272
100087.221114266
100087.221114263
100087.22111426
100087.22111426
100087.22111426
100087.221114261
100087.221114264
100087.221114267
100087.221114271
100087.221114275
100087.221114279
100087.221114284
100087.221114288
100087.221114293
100087.221114298
100087.221114302
100087.221114306
100087.22111431
100087.221114314
100087.221114318
100087.221114321
100087.221114324
100087.221114327
100087.22111433
100087.221114333
100087.221114336
100087.221114339
100087.221114342
100087.221114346
100087.22111435
100087.221114355
100087.221114361
100087.221114368
100087.221114376
100087.221114385
100087.221114396
100087.221114407
100087.221114418
100087.221114427
100087.221114436
100087.221114441
100087.221114444
100087.218834414
100087.218834415
100087.218834413
100087.218834409
100087.218834404
100087.218834398
100087.218834393
100087.218834388
100087.218834385
100087.218834382
100087.218834381
100087.218834381
100087.218834382
100087.218834384
100087.218834387
100087.21883439
100087.218834393
100087.218834398
100087.218834402
100087.218834406
100087.21883441
100087.218834415
100087.218834419
100087.218834423
100087.218834427
100087.21883443
100087.218834433
100087.218834436
100087.218834439
100087.218834441
100087.218834444
100087.218834446
100087.218834448
100087.21883445
100087.218834452
100087.218834454
100087.218834457
100087.21883446
100087.218834463
100087.218834468
100087.218834473
100087.218834479
100087.218834486
100087.218834494
100087.218834503
100087.218834511
100087.218834518
100087.218834523
100087.218834527
100087.218834528
100087.216554516
100087.216554518
100087.216554518
100087.216554516
100087.216554514
100087.21655451
100087.216554507
100087.216554505
100087.216554503
100087.216554502
100087.216554502
100087.216554502
100087.216554504
100087.216554506
100087.216554509
100087.216554513
100087.216554517
100087.21655452
100087.216554525
100087.216554529
100087.216554533
100087.216554537
100087.21655454
100087.216554544
100087.216554547
100087.21655455
100087.216554553
100087.216554555
100087.216554557
100087.216554559
100087.21655456
100087.216554562
100087.216554563
100087.216554564
100087.216554565
100087.216554566
100087.216554568
100087.21655457
100087.216554572
100087.216554575
100087.216554578
100087.216554583
100087.216554588
100087.216554593
100087.216554599
100087.216554604
100087.216554609
100087.216554612
100087.216554614
100087.216554614
100087.214274619
100087.214274622
100087.214274624
100087.214274624
100087.214274624
100087.214274623
100087.214274622
100087.214274621
100087.214274621
100087.214274621
100087.214274622
100087.214274624
100087.214274626
100087.214274629
100087.214274632
100087.214274636
100087.21427464
100087.214274643
100087.214274647
100087.214274651
100087.214274655
100087.214274659
100087.214274662
100087.214274665
100087.214274668
100087.21427467
100087.214274672
100087.214274674
100087.214274675
100087.214274677
100087.214274677
100087.214274678
100087.214274678
100087.214274678
100087.214274679
100087.214274679
100087.214274679
100087.21427468
100087.214274681
100087.214274682
100087.214274684
100087.214274686
100087.214274689
100087.214274692
100087.214274695
100087.214274698
100087.214274701
100087.214274701
100087.214274701
100087.214274701
100087.211994722
100087.211994726
100087.21199473
100087.211994732
100087.211994734
100087.211994735
100087.211994736
100087.211994737
100087.211994739
100087.21199474
100087.211994742
100087.211994745
100087.211994748
100087.211994751
100087.211994755
100087.211994759
100087.211994763
100087.211994766
100087.21199477
100087.211994774
100087.211994777
100087.211994781
100087.211994784
100087.211994786
100087.211994789
100087.21199479
100087.211994792
100087.211994793
100087.211994794
100087.211994794
100087.211994794
100087.211994794
100087.211994793
100087.211994793
100087.211994792
100087.211994791
100087.21199479
100087.21199479
100087.211994789
100087.211994789
100087.211994789
100087.21199479
100087.21199479
100087.211994791
100087.211994792
100087.211994793
100087.211994793
100087.211994791
100087.211994789
100087.211994787
100087.209714826
100087.209714831
100087.209714836
100087.209714841
100087.209714844
100087.209714848
100087.209714851
100087.209714853
100087.209714856
100087.209714859
100087.209714863
100087.209714866
100087.20971487
100087.209714874
100087.209714877
100087.209714881
100087.209714885
100087.209714889
100087.209714893
100087.209714896
100087.2097149
100087.209714903
100087.209714905
100087.209714907
100087.209714909
100087.20971491
100087.209714911
100087.209714912
100087.209714912
100087.209714912
100087.209714911
100087.20971491
100087.209714908
100087.209714907
100087.209714905
100087.209714903
100087.209714901
100087.209714899
100087.209714898
100087.209714896
100087.209714894
100087.209714893
100087.209714892
100087.209714891
100087.209714889
100087.209714887
100087.209714885
100087.209714881
100087.209714878
100087.209714875
100087.207434929
100087.207434935
100087.207434942
100087.207434949
100087.207434954
100087.20743496
100087.207434965
100087.207434969
100087.207434974
100087.207434978
100087.207434982
100087.207434987
100087.207434991
100087.207434995
100087.207435
100087.207435004
100087.207435008
100087.207435012
100087.207435015
100087.207435019
100087.207435022
100087.207435024
100087.207435026
100087.207435028
100087.20743503
100087.20743503
100087.207435031
100087.207435031
100087.20743503
100087.207435029
100087.207435027
100087.207435026
100087.207435023
100087.207435021
100087.207435018
100087.207435015
100087.207435012
100087.207435009
100087.207435006
100087.207435003
100087.207435
100087.207434996
100087.207434993
100087.20743499
100087.207434986
100087.207434982
100087.207434977
100087.207434972
100087.207434966
100087.207434962
100087.205155032
100087.20515504
100087.205155048
100087.205155057
100087.205155064
100087.205155072
100087.205155079
100087.205155085
100087.205155091
100087.205155096
100087.205155102
100087.205155107
100087.205155112
100087.205155117
100087.205155121
100087.205155126
100087.20515513
100087.205155134
100087.205155137
100087.205155141
100087.205155143
100087.205155146
100087.205155147
100087.205155149
100087.20515515
100087.20515515
100087.20515515
100087.205155149
100087.205155148
100087.205155146
100087.205155144
100087.205155141
100087.205155138
100087.205155135
100087.205155131
100087.205155127
100087.205155123
100087.205155118
100087.205155114
100087.205155109
100087.205155104
100087.2051551
100087.205155094
100087.205155089
100087.205155083
100087.205155077
100087.20515507
100087.205155062
100087.205155055
100087.205155049
100087.202875134
100087.202875143
100087.202875154
100087.202875165
100087.202875174
100087.202875184
100087.202875192
100087.2028752
100087.202875207
100087.202875214
100087.20287522
100087.202875226
100087.202875232
100087.202875238
100087.202875243
100087.202875247
100087.202875251
100087.202875255
100087.202875259
100087.202875262
100087.202875264
100087.202875266
100087.202875268
100087.202875269
100087.202875269
100087.202875269
100087.202875268
100087.202875267
100087.202875265
100087.202875263
100087.20287526
100087.202875256
100087.202875253
100087.202875248
100087.202875244
100087.202875239
100087.202875233
100087.202875228
100087.202875222
100087.202875216
100087.202875209
100087.202875203
100087.202875196
100087.202875188
100087.20287518
100087.202875172
100087.202875163
100087.202875153
100087.202875144
100087.202875137
100087.200595235
100087.200595246
100087.200595259
100087.200595272
100087.200595283
100087.200595295
100087.200595305
100087.200595314
100087.200595323
100087.200595331
100087.200595339
100087.200595345
100087.200595352
100087.200595358
100087.200595363
100087.200595368
100087.200595372
100087.200595376
100087.20059538
100087.200595383
100087.200595385
100087.200595387
100087.200595388
100087.200595388
100087.200595388
100087.200595388
100087.200595386
100087.200595384
100087.200595382
100087.200595379
100087.200595375
100087.200595371
100087.200595366
100087.200595361
100087.200595356
100087.20059535
100087.200595343
100087.200595336
100087.200595329
100087.200595322
100087.200595314
100087.200595305
100087.200595297
100087.200595287
100087.200595277
100087.200595266
100087.200595256
100087.200595243
100087.200595232
100087.200595223
100087.198315336
100087.198315349
100087.198315363
100087.198315379
100087.198315392
100087.198315405
100087.198315417
100087.198315428
100087.198315438
100087.198315448
100087.198315456
100087.198315464
100087.198315471
100087.198315477
100087.198315483
100087.198315488
100087.198315493
100087.198315496
100087.1983155
100087.198315503
100087.198315505
100087.198315506
100087.198315507
100087.198315507
100087.198315507
100087.198315506
100087.198315504
100087.198315501
100087.198315498
100087.198315495
100087.19831549
100087.198315485
100087.19831548
100087.198315474
100087.198315467
100087.19831546