/*--------------------------------*- C++ -*----------------------------------*\
  =========                 |
  \\      /  F ield         | OpenFOAM: The Open Source CFD Toolbox
   \\    /   O peration     | Website:  https://openfoam.org
    \\  /    A nd           | Version:  10
     \\/     M anipulation  |
\*---------------------------------------------------------------------------*/
FoamFile
{
    format      ascii;
    class       volScalarField;
    location    "5";
    object      p_rgh;
}
// * * * * * * * * * * * * * * * * * * * * * * * * * * * * * * * * * * * * * //

dimensions      [1 -1 -2 0 0 0 0];

internalField   nonuniform List<scalar> 
2500
(
87.3890741157084
87.389079849745
87.3890870688338
87.3890916975943
87.3890941790742
87.3890954747912
87.3890961234865
87.38909644261
87.389096596773
87.3890966703038
87.3890967070765
87.3890967268089
87.389096739018
87.3890967483167
87.3890967565239
87.3890967646439
87.3890967728075
87.3890967815387
87.3890967908374
87.3890968006162
87.389096810919
87.389096821702
87.389096832936
87.3890968444757
87.3890968563501
87.3890968685009
87.3890968808118
87.3890968932683
87.3890969058266
87.3890969184285
87.3890969310014
87.3890969434869
87.3890969557833
87.3890969678177
87.3890969794156
87.3890969902714
87.3890969998174
87.3890970070934
87.3890970096836
87.3890970032226
87.3890969777713
87.3890969128115
87.3890967650805
87.3890964510938
87.3890958081756
87.3890945244784
87.389092055877
87.3890874111821
87.389080108187
87.3890744908131
87.3895238051773
87.3895434757433
87.3895623555873
87.3895742038148
87.3895807444351
87.389584216362
87.3895859860204
87.3895868548279
87.3895872636785
87.3895874485461
87.3895875310118
87.3895875685412
87.3895875873422
87.3895875989256
87.3895876079041
87.3895876162132
87.3895876245224
87.389587633239
87.3895876425231
87.389587652302
87.3895876626193
87.3895876734023
87.3895876846218
87.389587696176
87.3895877080358
87.3895877201576
87.3895877324539
87.3895877448813
87.3895877574396
87.3895877699979
87.3895877825271
87.3895877949981
87.3895878072362
87.3895878191543
87.3895878305921
87.3895878411131
87.3895878496696
87.3895878541516
87.3895878493058
87.3895878232724
87.3895877489413
87.3895875680464
87.3895871600689
87.3895862929348
87.3895845337101
87.3895810901886
87.3895745790796
87.3895626738231
87.3895435315208
87.3895242126455
87.3899640797026
87.3899936715461
87.3900185292005
87.3900337046362
87.390042009516
87.3900463879399
87.3900486110797
87.390049698326
87.3900502074976
87.3900504359772
87.3900505361962
87.3900505805505
87.3900506018545
87.3900506142527
87.3900506234786
87.3900506318314
87.3900506401696
87.3900506489153
87.3900506581704
87.3900506679347
87.3900506782375
87.3900506890204
87.39005070024
87.3900507117651
87.3900507235958
87.3900507356739
87.3900507479266
87.3900507603103
87.3900507728104
87.3900507853105
87.390050797796
87.3900508102088
87.3900508223742
87.3900508341903
87.3900508455408
87.3900508559018
87.3900508641236
87.3900508676452
87.3900508601801
87.3900508270162
87.390050734437
87.3900505094207
87.3900500005839
87.3900489150838
87.3900467037747
87.3900423543964
87.3900340674736
87.3900187716645
87.3899934620422
87.3899639050942
87.3903303673142
87.3903615245072
87.3903846054018
87.3903981287003
87.3904052604339
87.3904088953132
87.3904106904665
87.3904115505284
87.3904119481158
87.3904121253872
87.3904122034583
87.3904122387175
87.3904122564272
87.390412267443
87.3904122761451
87.390412284265
87.390412292516
87.3904123012035
87.3904123104294
87.3904123201646
87.3904123304237
87.3904123411776
87.3904123523389
87.3904123638204
87.3904123755929
87.3904123875982
87.3904123997781
87.3904124120745
87.3904124244727
87.390412436871
87.3904124492692
87.3904124615947
87.3904124736728
87.3904124854453
87.3904124967958
87.3904125073022
87.3904125160916
87.3904125211993
87.390412517896
87.3904124949622
87.3904124265246
87.3904122556851
87.3904118617356
87.3904110050644
87.3904092180455
87.3904055980674
87.390398455711
87.3903847656475
87.3903611402784
87.3903295145865
87.3905960651609
87.3906222426012
87.3906397637329
87.3906496019481
87.3906545943755
87.3906570518739
87.3906582323252
87.3906587871461
87.3906590415427
87.3906591551349
87.3906592062267
87.3906592304847
87.3906592438434
87.390659253113
87.390659261102
87.3906592689309
87.3906592770363
87.3906592856365
87.3906592948042
87.3906593044958
87.3906593146967
87.3906593253487
87.3906593364372
87.3906593478459
87.3906593595311
87.39065937142
87.3906593834836
87.3906593956781
87.3906594079308
87.3906594201981
87.3906594324508
87.3906594446453
87.3906594566215
87.3906594683503
87.3906594797299
87.3906594904256
87.3906594998698
87.3906595067965
87.3906595082663
87.3906594972213
87.3906594574364
87.3906593529246
87.3906591054401
87.3906585565128
87.390657382959
87.3906549320527
87.3906499166042
87.3906399126136
87.3906218617776
87.3905948894826
87.3907674245129
87.3907860356558
87.3907974517642
87.3908035856439
87.3908065780706
87.3908079982211
87.3908086609445
87.3908089662436
87.3908091055782
87.390809168297
87.3908091976773
87.3908092128986
87.3908092225174
87.3908092302154
87.3908092374913
87.3908092449565
87.3908092528873
87.3908092613565
87.3908092704223
87.3908092800266
87.3908092901402
87.3908093007194
87.3908093116916
87.3908093229693
87.3908093345235
87.390809346296
87.390809358214
87.3908093702339
87.3908093823266
87.3908093944337
87.3908094065118
87.3908094185463
87.3908094304061
87.3908094420622
87.3908094534272
87.3908094642829
87.3908094743238
87.390809482793
87.390809488119
87.3908094865037
87.3908094692451
87.3908094170474
87.3908092865749
87.3908089890319
87.3908083335118
87.3908069181634
87.3908039060625
87.3907976423943
87.3907857948507
87.3907663409627
87.3908672414982
87.3908788200642
87.3908853830217
87.3908887394646
87.3908903058036
87.3908910158207
87.390891334755
87.3908914768981
87.3908915411885
87.390891570336
87.3908915849897
87.3908915937645
87.3908916005021
87.3908916068613
87.3908916134387
87.3908916205255
87.3908916282235
87.3908916365326
87.3908916454529
87.3908916549408
87.390891664938
87.3908916753862
87.3908916861983
87.3908916973305
87.3908917087392
87.3908917203225
87.3908917320659
87.3908917439112
87.3908917558147
87.3908917677181
87.3908917795925
87.3908917914232
87.3908918031375
87.3908918147063
87.3908918260568
87.390891837058
87.3908918475645
87.390891857227
87.3908918653615
87.3908918702218
87.3908918679226
87.3908918497909
87.3908917951048
87.3908916615328
87.3908913502673
87.390890645911
87.3908890690072
87.3908856284397
87.3908787631663
87.390866488131
87.3909204192605
87.3909268567513
87.3909302381362
87.3909318594087
87.3909325702843
87.3909328672307
87.3909329902963
87.3909330397873
87.3909330609167
87.3909330701281
87.3909330755123
87.3909330798924
87.3909330844326
87.3909330896277
87.3909330955357
87.3909331022151
87.3909331096365
87.390933117742
87.3909331264731
87.3909331358009
87.3909331456525
87.3909331559262
87.3909331665636
87.3909331775358
87.3909331887407
87.3909332001203
87.3909332116455
87.3909332232579
87.3909332349285
87.3909332465992
87.3909332582698
87.3909332698822
87.3909332814219
87.3909332928597
87.3909333041665
87.3909333152988
87.3909333261981
87.3909333367774
87.3909333468764
87.3909333560005
87.3909333628835
87.3909333647171
87.390933353352
87.3909333125484
87.3909331972245
87.3909329067974
87.3909321932297
87.3909305257548
87.3909269582073
87.390920035934
87.3909465908946
87.3909498303401
87.3909513981343
87.3909520740563
87.3909523352922
87.3909524203191
87.390952443995
87.3909524459596
87.3909524440969
87.3909524420014
87.3909524416522
87.390952442991
87.3909524458431
87.390952450005
87.3909524552728
87.390952461501
87.3909524686023
87.3909524764604
87.3909524850023
87.3909524941264
87.3909525037598
87.3909525138442
87.3909525242925
87.3909525350318
87.390952546004
87.3909525571507
87.390952568443
87.3909525797935
87.3909525911877
87.3909526026109
87.3909526140196
87.3909526253992
87.3909526367206
87.3909526480129
87.390952659247
87.390952670452
87.390952681686
87.3909526930074
87.3909527045471
87.3909527164506
87.3909527288924
87.3909527418436
87.3909527533251
87.3909527599171
87.3909527437645
87.3909526654752
87.3909524061746
87.3909517088759
87.3909500386799
87.3909465036559
87.3909585810907
87.3909600631887
87.3909607075475
87.3909609251859
87.3909609762923
87.3909609643742
87.3909609425755
87.3909609220282
87.3909609084658
87.3909609000402
87.390960896053
87.3909608951944
87.3909608966496
87.3909608999093
87.3909609045513
87.390960910343
87.3909609170951
87.3909609246766
87.3909609329567
87.3909609418624
87.3909609512775
87.3909609611437
87.3909609713446
87.3909609818511
87.3909609925613
87.3909610034316
87.3909610144328
87.3909610254923
87.39096103661
87.3909610477276
87.3909610588453
87.3909610699484
87.3909610810369
87.3909610921401
87.3909611032868
87.39096111455
87.3909611260169
87.3909611378913
87.3909611504932
87.390961164303
87.3909611801209
87.3909611992131
87.390961222176
87.3909612510761
87.3909612800926
87.390961298559
87.3909612513671
87.3909610260453
87.3909603308421
87.3909586871741
87.3909637192264
87.3909643305815
87.3909645496024
87.3909645696986
87.3909645345557
87.3909644841042
87.3909644439409
87.3909644136584
87.3909643943625
87.3909643823426
87.3909643759398
87.3909643734514
87.3909643737716
87.3909643762163
87.3909643802763
87.3909643856168
87.3909643920197
87.3909643992811
87.3909644072992
87.3909644159576
87.3909644251253
87.390964434715
87.3909644446539
87.3909644548694
87.3909644653031
87.3909644758824
87.3909644865489
87.3909644973028
87.3909645080712
87.3909645188687
87.3909645296662
87.3909645404638
87.3909645512904
87.3909645621752
87.390964573191
87.3909645844396
87.3909645960666
87.3909646083484
87.3909646217217
87.3909646368556
87.3909646547982
87.3909646772227
87.3909647057444
87.3909647441324
87.3909647912515
87.3909648479312
87.3909648875269
87.3909648662666
87.3909646244138
87.3909639327612
87.390965779472
87.3909659979254
87.3909660401696
87.3909659874189
87.3909659237106
87.390965861734
87.3909658158955
87.390965782135
87.3909657601616
87.3909657461045
87.3909657381009
87.3909657344047
87.3909657338081
87.3909657355398
87.3909657390468
87.3909657439508
87.3909657500044
87.3909657569748
87.3909657647018
87.3909657730837
87.390965781975
87.3909657912882
87.3909658009361
87.390965810846
87.390965820945
87.3909658311895
87.3909658415214
87.3909658519115
87.3909658623306
87.3909658727498
87.3909658831981
87.3909658936609
87.3909659041819
87.3909659148194
87.390965925646
87.3909659367928
87.3909659484925
87.3909659610363
87.3909659749479
87.3909659909259
87.3909660101635
87.3909660343488
87.3909660653007
87.3909661069629
87.3909661595098
87.3909662274091
87.3909662955557
87.3909663498343
87.3909662984661
87.3909660435311
87.3909665450774
87.390966602281
87.3909665803076
87.3909665085084
87.3909664404928
87.3909663785307
87.3909663326776
87.3909662984515
87.3909662755177
87.3909662604128
87.3909662513906
87.3909662467777
87.3909662454535
87.3909662465885
87.3909662496008
87.3909662541118
87.3909662598162
87.3909662664664
87.3909662739024
87.3909662819788
87.3909662905789
87.3909662995866
87.3909663089289
87.3909663185041
87.3909663282539
87.3909663381346
87.3909663481027
87.3909663580998
87.3909663681115
87.3909663781524
87.3909663882077
87.3909663983068
87.3909664084786
87.3909664187959
87.3909664293897
87.3909664403909
87.390966452047
87.3909664647072
87.3909664788953
87.3909664953972
87.3909665152896
87.3909665402171
87.3909665719111
87.3909666138061
87.3909666661784
87.3909667338303
87.3909668060951
87.3909668802808
87.3909668993001
87.390966827079
87.3909667990956
87.3909667974804
87.3909667577391
87.3909666876425
87.3909666243708
87.3909665668325
87.390966523395
87.3909664902458
87.3909664673411
87.3909664518578
87.3909664422536
87.390966437044
87.3909664351522
87.3909664357925
87.3909664383973
87.3909664425446
87.3909664479143
87.3909664542589
87.3909664613893
87.3909664691746
87.3909664774546
87.3909664861421
87.3909664951352
87.3909665043611
87.3909665137326
87.3909665232204
87.390966532781
87.3909665423707
87.3909665519604
87.3909665615793
87.3909665712126
87.3909665808897
87.3909665906685
87.3909666006366
87.3909666109248
87.3909666216932
87.3909666332038
87.3909666458203
87.3909666600957
87.3909666767577
87.3909666968539
87.3909667218395
87.3909667532134
87.3909667937987
87.3909668435954
87.3909669065761
87.3909669738932
87.39096704658
87.3909670859284
87.3909670822759
87.3909668637207
87.3909668447159
87.3909668044071
87.390966742576
87.3909666867112
87.390966635081
87.390966595005
87.3909665637475
87.3909665415267
87.3909665261453
87.3909665163083
87.390966510764
87.3909665084939
87.3909665087704
87.3909665110259
87.3909665148531
87.3909665199171
87.3909665259562
87.3909665327956
87.3909665402607
87.3909665482206
87.3909665565734
87.3909665652027
87.3909665740503
87.3909665830433
87.3909665921092
87.3909666012332
87.3909666103864
87.390966619525
87.3909666286781
87.3909666378458
87.3909666470863
87.3909666564286
87.3909666659893
87.3909666758991
87.3909666863474
87.3909666976106
87.3909667100379
87.3909667241824
87.3909667407133
87.3909667606204
87.3909667851403
87.3909668155393
87.3909668539854
87.3909669001878
87.3909669570712
87.3909670168068
87.3909670811554
87.3909671220754
87.3909671399597
87.3909668639826
87.3909668426932
87.3909668071865
87.3909667547268
87.3909667065163
87.3909666609688
87.3909666246327
87.390966595689
87.3909665745741
87.3909665596875
87.3909665499377
87.3909665442625
87.3909665417741
87.3909665418032
87.3909665437968
87.3909665473329
87.3909665521205
87.3909665578831
87.3909665644169
87.3909665715764
87.3909665792016
87.3909665872052
87.3909665954561
87.3909666039108
87.3909666124819
87.3909666211257
87.3909666297986
87.3909666384716
87.39096664713
87.3909666558029
87.3909666644759
87.390966673207
87.3909666820837
87.3909666911932
87.3909667006665
87.3909667107073
87.3909667215921
87.3909667336848
87.3909667474945
87.3909667636472
87.3909667830303
87.3909668066772
87.3909668356209
87.3909668714914
87.3909669137356
87.3909669643326
87.3909670162539
87.3909670711
87.3909671076253
87.390967129526
87.3909668455744
87.3909668266861
87.3909667969274
87.3909667531552
87.3909667119879
87.3909666722466
87.3909666397376
87.3909666133113
87.3909665936226
87.3909665794781
87.390966570063
87.3909665644605
87.390966561914
87.390966561783
87.3909665635729
87.3909665669053
87.3909665714309
87.3909665769315
87.3909665831743
87.3909665900137
87.3909665973042
87.390966604944
87.3909666128166
87.3909666208492
87.3909666289983
87.3909666371765
87.3909666453692
87.3909666535474
87.390966661711
87.3909666698601
87.3909666780091
87.390966686231
87.3909666945838
87.3909667031694
87.3909667121334
87.390966721694
87.3909667320986
87.3909667437256
87.390966757026
87.390966772582
87.3909667911648
87.390966813633
87.3909668408014
87.3909668738343
87.3909669120185
87.3909669566201
87.3909670013381
87.3909670473513
87.3909670783178
87.3909670985304
87.3909668241686
87.3909668086271
87.3909667841654
87.3909667479311
87.390966713021
87.390966678664
87.3909666498657
87.3909666260734
87.3909666080144
87.3909665948449
87.3909665859537
87.3909665805986
87.3909665781102
87.3909665779356
87.3909665796091
87.3909665827523
87.3909665870742
87.3909665923129
87.3909665982792
87.390966604813
87.3909666117688
87.3909666190302
87.3909666265099
87.3909666341206
87.390966641804
87.3909666495165
87.3909666572144
87.3909666648833
87.3909666725085
87.3909666801046
87.3909666877007
87.390966695355
87.3909667031403
87.3909667111584
87.3909667195694
87.3909667285625
87.390966738385
87.3909667494008
87.3909667620319
87.3909667768021
87.3909667943662
87.3909668154083
87.3909668405686
87.3909668706474
87.3909669048735
87.3909669438581
87.3909669821587
87.3909670205612
87.390967046289
87.3909670634748
87.3909668045526
87.3909667921689
87.3909667722619
87.3909667424014
87.3909667129774
87.3909666835243
87.3909666582913
87.3909666371474
87.3909666208347
87.3909666088148
87.3909666006075
87.3909665956453
87.3909665933315
87.3909665932006
87.3909665948158
87.3909665978281
87.3909666019608
87.3909666069812
87.3909666126856
87.3909666188993
87.3909666255204
87.3909666324034
87.3909666394757
87.3909666466498
87.3909666538675
87.3909666610853
87.3909666682739
87.3909666754043
87.3909666824766
87.3909666895051
87.3909666965192
87.3909667035769
87.3909667107509
87.3909667181579
87.3909667259286
87.3909667342814
87.3909667434491
87.3909667537519
87.390966765568
87.3909667793778
87.3909667957196
87.3909668151609
87.3909668381821
87.3909668652632
87.390966895633
87.3909669294953
87.3909669621498
87.3909669940476
87.390967015308
87.3909670295106
87.3909667879052
87.3909667782282
87.3909667621629
87.3909667377011
87.3909667130793
87.3909666880645
87.3909666662366
87.3909666476975
87.3909666332038
87.3909666224499
87.3909666150576
87.3909666105901
87.3909666085528
87.3909666085528
87.3909666101681
87.3909666131076
87.3909666170948
87.390966621897
87.3909666273394
87.3909666332765
87.3909666395339
87.3909666460531
87.3909666527179
87.3909666594409
87.390966666193
87.3909666729014
87.3909666795662
87.3909666861291
87.3909666926338
87.3909666990512
87.390966705454
87.3909667118714
87.3909667184053
87.3909667251428
87.3909667322441
87.3909667398693
87.3909667482949
87.3909667577682
87.390966768653
87.3909667813714
87.3909667963599
87.3909668140695
87.3909668348351
87.3909668589331
87.3909668856213
87.3909669147979
87.3909669424902
87.3909669689165
87.3909669863933
87.3909669980058
87.3909667742118
87.3909667667904
87.3909667539847
87.3909667341213
87.3909667137341
87.3909666927357
87.3909666740801
87.3909666580876
87.3909666454565
87.3909666360269
87.3909666295513
87.3909666256804
87.3909666240215
87.3909666242107
87.3909666258842
87.39096662878
87.3909666326508
87.3909666372783
87.3909666424879
87.3909666481195
87.3909666540567
87.390966660183
87.3909666664258
87.3909666727122
87.3909666789696
87.3909666851687
87.3909666912805
87.3909666972759
87.3909667031694
87.3909667089902
87.3909667147527
87.3909667205007
87.3909667263506
87.3909667323896
87.3909667387488
87.3909667456028
87.3909667531843
87.3909667617554
87.3909667716071
87.3909667831031
87.3909667966363
87.3909668125125
87.3909668309789
87.390966852181
87.3909668753768
87.3909669002751
87.3909669235727
87.3909669452987
87.3909669595596
87.3909669689892
87.3909667631669
87.3909667576663
87.3909667476546
87.3909667317494
87.3909667150874
87.390966697727
87.3909666820837
87.3909666685358
87.3909666577674
87.3909666497202
87.3909666442341
87.3909666410473
87.3909666398249
87.3909666402469
87.3909666420514
87.3909666449472
87.3909666487307
87.3909666531981
87.3909666581749
87.3909666635154
87.3909666691325
87.3909666748805
87.3909666807012
87.390966686522
87.3909666922846
87.3909666979598
87.3909667035186
87.390966708932
87.3909667142143
87.3909667193802
87.390966724488
87.390966729552
87.3909667346743
87.3909667399712
87.3909667455446
87.3909667515691
87.3909667582484
87.3909667658299
87.3909667745611
87.3909667847474
87.3909667967237
87.3909668107081
87.3909668268752
87.3909668452252
87.3909668651031
87.3909668861015
87.3909669054992
87.3909669231798
87.3909669346904
87.3909669422428
87.3909667543339
87.3909667505068
87.3909667429398
87.3909667304688
87.3909667171392
87.3909667030966
87.3909666902618
87.3909666790714
87.3909666701511
87.3909666635154
87.3909666590625
87.3909666566033
87.3909666558757
87.3909666566178
87.3909666585823
87.3909666615218
87.3909666652471
87.390966669569
87.3909666743421
87.3909666794207
87.3909666846885
87.3909666900727
87.3909666954714
87.3909667008411
87.3909667060943
87.3909667112312
87.3909667162225
87.3909667210391
87.3909667256958
87.3909667302069
87.3909667346161
87.3909667389817
87.3909667433618
87.3909667478583
87.3909667526023
87.3909667577536
87.3909667634725
87.3909667699918
87.3909667775297
87.3909667863481
87.3909667967091
87.3909668087581
87.3909668226261
87.3909668382112
87.3909668549604
87.3909668723936
87.3909668882552
87.3909669023997
87.3909669114946
87.3909669174172
87.390966747349
87.3909667450062
87.3909667396219
87.3909667301923
87.390966719875
87.3909667088446
87.3909666986583
87.390966689738
87.3909666826366
87.390966677398
87.3909666740365
87.3909666723484
87.3909666721738
87.3909666732652
87.3909666754334
87.3909666784457
87.3909666821419
87.3909666863328
87.3909666909167
87.3909666957334
87.390966700681
87.3909667057014
87.3909667106782
87.3909667155676
87.3909667203407
87.3909667249391
87.3909667293483
87.3909667335538
87.3909667375701
87.3909667414118
87.3909667451226
87.390966748746
87.3909667523549
87.3909667560365
87.3909667599219
87.3909667641419
87.3909667688567
87.3909667742555
87.3909667805419
87.3909667879343
87.3909667966218
87.3909668067354
87.3909668183187
87.3909668312408
87.3909668450215
87.3909668591368
87.3909668718406
87.3909668828273
87.3909668897541
87.390966894236
87.3909667418338
87.3909667408734
87.3909667374683
87.3909667307889
87.3909667231783
87.3909667149564
87.3909667072439
87.3909667004918
87.3909666951658
87.3909666913532
87.3909666890686
87.39096668821
87.3909666886175
87.3909666901018
87.3909666924883
87.390966695617
87.3909666992986
87.3909667034022
87.3909667077969
87.3909667123662
87.3909667170083
87.3909667216503
87.3909667262196
87.390966730658
87.3909667349071
87.3909667389671
87.3909667427943
87.3909667463886
87.3909667497501
87.3909667529078
87.3909667559055
87.3909667587723
87.3909667615808
87.3909667644184
87.3909667674161
87.3909667706612
87.3909667743283
87.3909667785629
87.3909667835687
87.3909667894768
87.3909667964763
87.3909668046399
87.3909668139822
87.3909668243286
87.3909668353008
87.3909668463457
87.3909668561246
87.3909668642882
87.3909668692504
87.3909668723645
87.3909667374974
87.3909667378175
87.3909667362459
87.3909667320549
87.3909667269618
87.3909667213302
87.3909667159605
87.3909667112894
87.390966707695
87.3909667052794
87.3909667041153
87.3909667041007
87.3909667051194
87.3909667070257
87.3909667096887
87.3909667129337
87.3909667166299
87.3909667206608
87.3909667248809
87.3909667292173
87.3909667335538
87.3909667378321
87.3909667419939
87.3909667459666
87.390966749721
87.390966753228
87.3909667564731
87.3909667594417
87.3909667621483
87.3909667646221
87.3909667668777
87.3909667689732
87.3909667709668
87.3909667729458
87.3909667750122
87.3909667772677
87.390966779858
87.3909667828993
87.3909667865664
87.3909667909902
87.3909667962726
87.3909668024862
87.3909668096167
87.3909668174892
87.3909668257693
87.390966833962
87.3909668410488
87.3909668466076
87.3909668497217
87.3909668515989
87.3909667339758
87.3909667355183
87.3909667357075
87.3909667338303
87.3909667310654
87.3909667278785
87.3909667247208
87.3909667220432
87.3909667201224
87.3909667191183
87.3909667190601
87.3909667198895
87.3909667215485
87.3909667239204
87.3909667268599
87.3909667302651
87.3909667340049
87.390966737963
87.3909667420376
87.3909667461412
87.3909667501866
87.3909667541157
87.3909667578555
87.3909667613771
87.3909667646367
87.3909667676053
87.3909667702537
87.3909667726111
87.390966774663
87.3909667764237
87.3909667779371
87.3909667792614
87.3909667804255
87.3909667815169
87.3909667826374
87.3909667838743
87.3909667853586
87.3909667871922
87.3909667894914
87.3909667924017
87.3909667959815
87.3909668002598
87.390966805222
87.3909668106935
87.390966816427
87.390966821913
87.3909668264678
87.3909668295964
87.3909668309934
87.3909668316337
87.3909667310218
87.3909667337866
87.3909667356347
87.390966735984
87.3909667354164
87.3909667345142
87.3909667334665
87.3909667327098
87.3909667324479
87.3909667327971
87.3909667338448
87.3909667355474
87.3909667378612
87.3909667406988
87.3909667439584
87.3909667475382
87.3909667513217
87.3909667552361
87.3909667591797
87.3909667630651
87.390966766834
87.3909667704138
87.3909667737607
87.3909667768312
87.3909667795815
87.3909667819971
87.390966784078
87.3909667858097
87.3909667871922
87.3909667882544
87.3909667890257
87.3909667895496
87.3909667898843
87.390966790088
87.3909667902481
87.3909667904518
87.390966790801
87.3909667913977
87.3909667923435
87.3909667937114
87.3909667955741
87.3909667979606
87.3909668008127
87.390966803956
87.3909668072301
87.3909668101551
87.3909668123233
87.3909668131528
87.3909668128617
87.3909668123088
87.3909667283297
87.3909667323169
87.3909667358093
87.3909667382832
87.3909667398111
87.3909667411062
87.3909667420958
87.3909667431726
87.3909667445114
87.390966746214
87.3909667483531
87.3909667509288
87.3909667539119
87.3909667572298
87.3909667608241
87.390966764593
87.3909667684493
87.3909667723347
87.3909667761473
87.3909667798434
87.3909667833359
87.390966786581
87.390966789535
87.3909667921544
87.3909667944245
87.3909667963017
87.3909667978005
87.3909667989064
87.3909667996195
87.3909667999833
87.3909668000124
87.3909667997359
87.3909667992266
87.3909667985426
87.3909667977277
87.3909667968837
87.3909667960979
87.3909667954431
87.3909667950065
87.390966794861
87.3909667950356
87.3909667955304
87.3909667963162
87.3909667972039
87.3909667981206
87.3909667985863
87.3909667984699
87.3909667970729
87.3909667951229
87.3909667933622
87.3909667256521
87.3909667308908
87.3909667360276
87.3909667405969
87.3909667441476
87.3909667475673
87.3909667504922
87.390966753359
87.3909667562548
87.390966759267
87.3909667625121
87.3909667659609
87.3909667696134
87.390966773426
87.3909667773551
87.3909667813277
87.3909667852859
87.3909667891567
87.3909667928674
87.3909667963599
87.3909667995904
87.3909668025153
87.3909668050765
87.3909668072738
87.3909668090491
87.3909668104025
87.3909668113192
87.390966811814
87.3909668118722
87.3909668115375
87.3909668108099
87.3909668097476
87.3909668083943
87.3909668067936
87.3909668050183
87.3909668031265
87.3909668011911
87.3909667992848
87.3909667974804
87.3909667958069
87.390966794308
87.3909667929547
87.3909667917178
87.3909667904227
87.3909667890548
87.3909667871485
87.3909667848347
87.3909667812404
87.3909667776461
87.3909667746484
87.3909667227563
87.3909667293046
87.3909667361004
87.3909667427506
87.3909667482949
87.3909667537519
87.3909667585685
87.3909667631815
87.3909667675762
87.3909667718981
87.3909667762055
87.3909667805128
87.3909667848493
87.3909667891712
87.390966793464
87.390966797655
87.3909668017004
87.3909668055712
87.3909668091801
87.3909668125125
87.3909668154956
87.3909668181004
87.3909668202978
87.3909668220585
87.3909668233537
87.3909668241831
87.3909668245469
87.390966824416
87.3909668238339
87.3909668228007
87.3909668213309
87.3909668194829
87.3909668172855
87.3909668147826
87.3909668120323
87.3909668090928
87.3909668060223
87.3909668028646
87.3909667996923
87.3909667965199
87.3909667933622
87.3909667902044
87.3909667869884
87.3909667835687
87.390966779989
87.3909667757689
87.3909667713015
87.3909667655389
87.3909667602711
87.3909667559783
87.3909667193948
87.3909667273256
87.390966735853
87.3909667446278
87.390966752122
87.3909667595872
87.3909667662374
87.3909667725238
87.3909667784028
87.3909667839762
87.3909667893458
87.3909667945263
87.3909667995322
87.390966804378
87.39096680902
87.3909668134438
87.3909668176057
87.3909668214765
87.3909668250126
87.3909668281703
87.3909668309207
87.3909668332199
87.3909668350534
87.3909668363922
87.3909668372362
87.3909668375563
87.3909668373526
87.3909668366396
87.3909668354027
87.3909668336855
87.3909668314882
87.3909668288543
87.3909668258129
87.3909668224223
87.3909668187116
87.3909668147244
87.3909668105189
87.3909668061242
87.3909668015986
87.3909667969419
87.3909667921544
87.3909667872213
87.3909667820844
87.3909667765838
87.3909667708649
87.3909667643893
87.3909667578118
87.3909667498228
87.3909667428234
87.3909667371627
87.3909667153348
87.390966724779
87.3909667350963
87.3909667460539
87.3909667555126
87.3909667649568
87.3909667733824
87.3909667813132
87.3909667886182
87.3909667954285
87.3909668018459
87.3909668078704
87.3909668135457
87.3909668189008
87.3909668239212
87.3909668285778
87.3909668328706
87.390966836756
87.3909668402193
87.390966843217
87.3909668457491
87.3909668477718
87.3909668492415
87.3909668502019
87.3909668505803
87.3909668504057
87.3909668496635
87.3909668483539
87.3909668464912
87.3909668440901
87.3909668411798
87.3909668377746
87.3909668339184
87.3909668296255
87.3909668249544
87.3909668199485
87.390966814608
87.3909668090055
87.3909668031411
87.3909667970293
87.3909667906555
87.3909667839762
87.3909667769622
87.3909667694534
87.390966761639
87.3909667529661
87.390966744264
87.3909667340195
87.3909667252155
87.390966718056
87.3909667103726
87.3909667214757
87.3909667337139
87.3909667469416
87.3909667583503
87.3909667697444
87.3909667799016
87.3909667894332
87.3909667981352
87.3909668061533
87.3909668135893
87.3909668204433
87.3909668268025
87.3909668326669
87.3909668380511
87.3909668429551
87.3909668473789
87.3909668512933
87.3909668546985
87.3909668575652
87.390966859879
87.3909668616252
87.3909668627748
87.3909668633278
87.3909668632841
87.3909668626147
87.3909668613487
87.390966859457
87.3909668569977
87.3909668539272
87.3909668503184
87.3909668461565
87.3909668414854
87.390966836334
87.3909668307169
87.3909668246924
87.3909668182605
87.3909668114502
87.3909668042761
87.3909667967528
87.3909667888074
87.3909667804401
87.3909667716071
87.3909667621338
87.3909667522821
87.3909667414118
87.3909667305998
87.3909667180124
87.3909667073021
87.3909666984982
87.390966704319
87.3909667172993
87.3909667315893
87.3909667471889
87.3909667605913
87.3909667738917
87.3909667857515
87.3909667968401
87.3909668068954
87.3909668160923
87.3909668245178
87.3909668322012
87.3909668392153
87.390966845589
87.3909668513515
87.3909668565029
87.3909668610577
87.3909668650158
87.3909668683773
87.3909668711276
87.3909668732376
87.3909668747074
87.3909668755368
87.390966875726
87.3909668752603
87.3909668741253
87.3909668723354
87.3909668699052
87.3909668668348
87.3909668631386
87.3909668588312
87.3909668539418
87.3909668484703
87.3909668424603
87.3909668359411
87.3909668289125