/*--------------------------------*- C++ -*----------------------------------*\
  =========                 |
  \\      /  F ield         | OpenFOAM: The Open Source CFD Toolbox
   \\    /   O peration     | Website:  https://openfoam.org
    \\  /    A nd           | Version:  10
     \\/     M anipulation  |
\*---------------------------------------------------------------------------*/
FoamFile
{
    format      ascii;
    class       surfaceScalarField;
    location    "5";
    object      phi;
}
// * * * * * * * * * * * * * * * * * * * * * * * * * * * * * * * * * * * * * //

dimensions      [1 0 -1 0 0 0 0];

internalField   nonuniform List<scalar> 
4900
(
-6.2596137396944e-12
6.4119132021694e-12
-7.88355588850425e-12
1.85812977670133e-12
-6.50737910382185e-12
-1.12153782566594e-12
-4.49982226691524e-12
-1.75430545661566e-12
-2.90277476311805e-12
-1.34734267144673e-12
-1.83866254493023e-12
-8.16928711003807e-13
-1.16983023811079e-12
-4.23760162609733e-13
-7.54365633677957e-13
-1.72498488750514e-13
-4.90891636281563e-13
-2.25650623213556e-14
-3.18096212370818e-13
6.6247870837956e-14
-1.99525393330987e-13
1.18884544911378e-13
-1.14313560131195e-13
1.5093135653738e-13
-5.04574436091826e-14
1.71203736550169e-13
-9.28350261365328e-16
1.84606324480804e-13
3.8476956793134e-14
1.93904154431266e-13
7.03835151847743e-14
2.00624871654503e-13
9.65049854005973e-14
2.05650691873098e-13
1.18034842135875e-13
2.09482048935582e-13
1.35844944988012e-13
2.12437417054561e-13
1.50588285245836e-13
2.14732862554174e-13
1.62806109737264e-13
2.16488556454132e-13
1.72929030595508e-13
2.17816595287824e-13
1.81352367192389e-13
2.18763519336368e-13
1.88398971369244e-13
2.19403305766976e-13
1.94395865002214e-13
2.19742825108725e-13
1.99646662519007e-13
2.19805106254746e-13
2.04458094838276e-13
2.19597113816815e-13
2.091510441008e-13
2.19102704833813e-13
2.14060113983883e-13
2.18317996531113e-13
2.19569850870319e-13
2.17189915382648e-13
2.26117415265583e-13
2.15675921985118e-13
2.34242071907107e-13
2.13671492845891e-13
2.44597562864522e-13
2.11073672076374e-13
2.58060843001312e-13
2.07661062489365e-13
2.7586047675261e-13
2.03099342444575e-13
2.99763803926283e-13
1.96860749601133e-13
3.32449308651944e-13
1.88062175615104e-13
3.78180570577341e-13
1.75139074421451e-13
4.44030916191972e-13
1.55311400471083e-13
5.42082119466176e-13
1.23580715907469e-13
6.93200743844498e-13
7.11612343178537e-14
9.33797203319718e-13
-1.75143541311323e-14
1.3251809491246e-12
-1.67329573442715e-13
1.96966022696636e-12
-4.19106967355128e-13
3.01238939691398e-12
-8.15128526640391e-13
4.60149863053637e-12
-1.35728676637088e-12
6.63046846991728e-12
-1.78985982553153e-12
8.03929909604347e-12
-1.15928310328896e-12
6.36682249623963e-12
1.92361028866668e-12
6.54057829238526e-12
-8.25474132653657e-12
1.48798470588681e-11
-1.27286161872098e-11
6.63585942270367e-12
-1.1265519562289e-11
-2.26247854153317e-12
-8.28680274159283e-12
-4.41444893932094e-12
-5.66581676939826e-12
-3.65567818738439e-12
-3.82311590107478e-12
-2.35148087687687e-12
-2.60669005983622e-12
-1.33555234666978e-12
-1.81262841221891e-12
-6.64969414575627e-13
-1.28234138139713e-12
-2.53944790205873e-13
-9.1468292805724e-13
-4.8025774243541e-15
-6.48521035143241e-13
1.47424297223888e-13
-4.47738630305163e-13
2.4328790165699e-13
-2.90905787785765e-13
3.06213024890978e-13
-1.65019047157359e-13
3.49442794494343e-13
-6.19213685632871e-14
3.80516691310423e-13
2.37344720454672e-14
4.03715482432644e-13
9.56215088658222e-14
4.21564652029236e-13
1.56395166542105e-13
4.3556056321417e-13
2.0806338712158e-13
4.46667143889467e-13
2.5220553336798e-13
4.5552658715532e-13
2.90132101354671e-13
4.62538483198042e-13
3.22941759134262e-13
4.68029580811555e-13
3.51617555355481e-13
4.72175228246811e-13
3.77031089876719e-13
4.75163379664696e-13
4.00020158901473e-13
4.77047121814174e-13
4.21391685701209e-13
4.77880879386099e-13
4.41958580417063e-13
4.7767709379479e-13
4.62551032028329e-13
4.76401062520603e-13
4.84066544263211e-13
4.73992620634625e-13
5.07474430414724e-13
4.70324389736129e-13
5.33904075764546e-13
4.65204153654999e-13
5.64669330908378e-13
4.58342319318345e-13
6.01370234248958e-13
4.4936331746407e-13
6.4603934387299e-13
4.37616745305055e-13
7.0141534418005e-13
4.22083760727485e-13
7.71263867320275e-13
4.01226150184402e-13
8.61040679428002e-13
3.72504572082473e-13
9.79016215312863e-13
3.31567193429847e-13
1.13831324598679e-12
2.70817570598637e-13
1.36050111387093e-12
1.76823841845518e-13
1.68180291081637e-12
2.61490041263053e-14
2.16343086264567e-12
-2.21769974069181e-13
2.9069054422686e-12
-6.32048412485369e-13
4.07271045728974e-12
-1.30412793561939e-12
5.87148043443854e-12
-2.32953867262115e-12
8.47430604962284e-12
-3.66909854286962e-12
1.14906655097137e-11
-4.50437142610938e-12
1.30155701828055e-11
-2.37022452891147e-12
8.46725330800878e-12
6.77620000269276e-12
1.52034798288856e-11
-5.37941696178486e-12
2.04863167914466e-11
-1.06895765438622e-11
1.22541910974169e-11
-1.03589395761866e-11
-2.27616295055446e-12
-8.2481669666247e-12
-6.21554618655617e-12
-6.08553977053225e-12
-5.51718399437789e-12
-4.42408692057227e-12
-3.71827898845515e-12
-3.24023156051946e-12
-2.22941797332168e-12
-2.40943672967984e-12
-1.20931569038416e-12
-1.81600418620726e-12
-5.63726266702819e-13
-1.37887161126177e-12
-1.605225175436e-13
-1.0460365191356e-12
9.42084968648492e-14
-7.84778162569944e-13
2.60195050347896e-13
-5.74413279678305e-13
3.72802065792314e-13
-4.01587318049792e-13
4.52513089040803e-13
-2.57388696032933e-13
5.1124544742416e-13
-1.35650682960902e-13
5.55973909623964e-13
-3.19232372860865e-14
5.90915084489404e-13
5.71211711723606e-14
6.18669759829364e-13
1.34074096960769e-13
6.40937661760338e-13
2.01030508935744e-13
6.58856489538294e-13
2.59737600055819e-13
6.73183167610669e-13
3.11708529687442e-13
6.84481886825181e-13
3.58280539796331e-13
6.93116505978098e-13
4.00682093417069e-13
6.99386517889099e-13
4.40077781433335e-13
7.0342034803184e-13
4.77601943573254e-13
7.05303337772042e-13
5.14390355733391e-13
7.05058163845577e-13
5.51608563760161e-13
7.02618455399744e-13
5.90502837202301e-13
6.97853935798917e-13
6.32422638242898e-13
6.90532182415552e-13
6.78912317663297e-13
6.80275994451139e-13
7.3174124840351e-13
6.66570214241414e-13
7.93044044283474e-13
6.48686554493463e-13
8.6545983671935e-13
6.25475181816813e-13
9.52410245406719e-13
5.95154535598681e-13
1.058435271723e-12
5.55084743553094e-13
1.18982192763641e-12
5.01012881967874e-13
1.35558125814404e-12
4.25890592390628e-13
1.56918419225092e-12
3.17698760693962e-13
1.85142414448991e-12
1.55704128444377e-13
2.2351634048661e-12
-9.55772889757063e-14
2.77259441762692e-12
-4.96006671369337e-13
3.54543891542276e-12
-1.14007998531238e-12
4.67152124379867e-12
-2.16289140910814e-12
6.28254821613182e-12
-3.66879973505806e-12
8.42149777425505e-12
-5.52819226407531e-12
1.05677701016343e-11
-6.35798938243637e-12
1.09761932443921e-11
-2.47377726845955e-12
5.61716158019208e-12
1.2426574697722e-11
2.10020414743082e-11
-2.55088197677962e-12
2.32654043558118e-11
-6.52773269167058e-12
1.65294391985959e-11
-7.25925003072309e-12
-1.24570674352816e-12
-6.4927481379557e-12
-6.69362131734747e-12
-5.31152105545185e-12
-6.42054377561192e-12
-4.21625362753224e-12
-4.54350329024256e-12
-3.32350995355291e-12
-2.85749651418827e-12
-2.62540368019114e-12
-1.64651993912188e-12
-2.08201747967306e-12
-8.48956862199298e-13
-1.65437570387109e-12
-3.32089980462968e-13
-1.31257618894963e-12
6.860388130054e-15
-1.03487336202327e-12
2.35633892087611e-13
-8.05772348906292e-13
3.95741725935887e-13
-6.14225256442522e-13
5.12030865604783e-13
-4.52239902736989e-13
5.99418132133408e-13
-3.13926155835777e-13
6.66938807002872e-13
-1.94831572700971e-13
7.20225495465722e-13
-9.15064648533513e-14
7.62868555553712e-13
-1.19680971007483e-15
7.97263753631503e-13
7.83676896650587e-14
8.2503227892423e-13
1.4910139764716e-13
8.47297293770079e-13
2.12682187351009e-13
8.64861785712619e-13
2.70601169615693e-13
8.78289205044001e-13
3.24243982330673e-13
8.87986388285763e-13
3.74921121094261e-13
8.94168848198301e-13
4.23905167226437e-13
8.96959767134771e-13
4.724770352629e-13
8.9638432026329e-13
5.21949924329048e-13
8.92342950078097e-13
5.73720929800208e-13
8.84630664573911e-13
6.29303706897721e-13
8.72896885340235e-13
6.90404187345511e-13
8.56582769243941e-13
7.58970269650428e-13
8.34928856887602e-13
8.37315699194278e-13
8.06854002266399e-13
9.28251874549518e-13
7.70714584385757e-13
1.03530097699153e-12
7.24037316858095e-13
1.16299056399801e-12
6.6319162718526e-13
1.31729938231351e-12
5.82504797237047e-13
1.50627660114383e-12
4.7288405016611e-13
1.74102595085608e-12
3.19293941546634e-13
2.03706937421236e-12
9.66095665131302e-14
2.41620120697422e-12
-2.36887249086788e-13
2.90843010202543e-12
-7.49210815833989e-13
3.55323079177045e-12
-1.54414018805663e-12
4.3920775200647e-12
-2.75828891227666e-12
5.4386121095432e-12
-4.46711165593042e-12
6.59244832280919e-12
-6.42521532645658e-12
7.3813930822798e-12
-6.8766015291135e-12
6.72408731968908e-12
-1.53398068269143e-12
2.73162392998009e-12
1.66866951677137e-11
2.38967485304666e-11
-7.99377481665076e-13
2.42801474616192e-11
-2.99019225430048e-12
1.89912603707876e-11
-4.3109566482743e-12
3.38439661672996e-13
-4.58262216378129e-12
-6.17081223847779e-12
-4.26017762470665e-12
-6.50300789326931e-12
-3.70980125678733e-12
-4.86207507186396e-12
-3.13189181700099e-12
-3.20904785385027e-12
-2.6050531872306e-12
-1.95060793320157e-12
-2.15163620952893e-12
-1.08211233686087e-12
-1.76979787716779e-12
-4.95483577805001e-13
-1.45037955841513e-12
-9.55137401763271e-14
-1.18277110119512e-12
1.83930100475587e-13
-9.57324191792213e-13
3.85221590449572e-13
-7.66019053270091e-13
5.34766937583965e-13
-6.0242656970709e-13
6.49028110779776e-13
-4.61459082128368e-13
7.38349015557702e-13
-3.39071807086324e-13
8.09391241726511e-13
-2.32020061226811e-13
8.66534533971085e-13
-1.37642130487637e-13
9.12760210571585e-13
-5.37116752332351e-14
9.50125371790099e-13
2.16788772102918e-14
9.80081511375586e-13
9.02086025688321e-14
1.00366366167594e-12
1.53388044691727e-13
1.02161471679602e-12
2.12620860692566e-13
1.0344508074349e-12
2.6924052265366e-13
1.04246870395477e-12
3.24540847108669e-13
1.04583151649115e-12
3.79825058706734e-13
1.04456555148214e-12
4.36422924372919e-13
1.03854261612902e-12
4.95753789949769e-13
1.02747848392185e-12
5.59342179515697e-13
1.01091539107447e-12
6.28896509599299e-13
9.88119120215782e-13
7.06350487144199e-13
9.58104821199845e-13
7.93974789743961e-13
9.19464791440603e-13
8.9447781225797e-13
8.70121728486467e-13
1.0111508704435e-12
8.07035972949426e-13
1.14808596095058e-12
7.25789084309013e-13
1.31041870060287e-12
6.19691712733922e-13
1.50459405619336e-12
4.78364930061919e-13
1.73861121781436e-12
2.85254724287636e-13
2.02205188076575e-12
1.36819538547226e-14
2.36542264536076e-12
-3.78951062575772e-13
2.77773380516694e-12
-9.59089488481481e-13
3.26082264686876e-12
-1.82315666680636e-12
3.79281789938202e-12
-3.08361650402004e-12
4.29892469209993e-12
-4.76202623056187e-12
4.59135892675865e-12
-6.49832779686134e-12
4.32781317054298e-12
-6.38083642224931e-12
3.06448104088373e-12
-2.74695693178147e-14
8.8531241053908e-13
1.90944477398563e-11
2.49164685179111e-11
7.58196248289458e-14
2.43963636282415e-11
-8.6568507684945e-13
2.01643536132339e-11
-2.34956368047875e-12
2.04121552178952e-12
-3.15902974896647e-12
-5.15515144919015e-12
-3.3602222658171e-12
-6.10642024255564e-12
-3.18342131823387e-12
-4.85128786206252e-12
-2.84739453241648e-12
-3.36257409431619e-12
-2.46929868520503e-12
-2.14944062081464e-12
-2.10605177733236e-12
-1.26823622579898e-12
-1.77914301783337e-12
-6.46791691706944e-13
-1.49377734800387e-12
-2.0645161283686e-13
-1.24782031937783e-12
1.11427091631905e-13
-1.03653042699518e-12
3.46526793274042e-13
-8.54723169227081e-13
5.24754039805333e-13
-6.97613229164133e-13
6.62937868489919e-13
-5.61082139508644e-13
7.72066128605678e-13
-4.416672759097e-13
8.59446348544378e-13
-3.36484308537458e-13
9.3003064014835e-13
-2.43094994824521e-13
9.87249351360342e-13
-1.59424414500081e-13
1.03352493458752e-12
-8.36650443750129e-14
1.07058546407841e-12
-1.42167009504672e-14
1.09967658200104e-12
5.03767915281495e-14
1.12169568730493e-12
1.11478080265539e-13
1.13725487348472e-12
1.70371120774199e-13
1.14674054163119e-12
2.28316021890923e-13
1.15033926424384e-12
2.86573904496072e-13
1.14808624744507e-12
3.46432601871032e-13
1.13982563326673e-12
4.09261380609384e-13
1.12520051070218e-12
4.76527690042432e-13
1.10365330715319e-12
5.49857769663661e-13
1.07429982272088e-12
6.31075158433292e-13
1.03595658962209e-12
7.2229254897068e-13
9.86937426861072e-13
8.25978359826933e-13
9.24810873522534e-13
9.45048478806911e-13
8.46105212249035e-13
1.08298654837256e-12
7.45844011874671e-13
1.24392524620139e-12
6.16712235507273e-13
1.4326260405652e-12
4.47720040213707e-13
1.65419908257358e-12
2.21995249272967e-13
1.91324158068631e-12
-8.66015455470098e-14
2.21164906978833e-12
-5.17919500701533e-13
2.54380974104776e-12
-1.13082411642436e-12
2.88773097799085e-12
-2.00519606683006e-12
3.18601584155707e-12
-3.21773381433147e-12
3.32373786348185e-12
-4.73165236282963e-12
3.09192488978594e-12
-6.09131876400369e-12
2.28072820576392e-12
-5.38297494444454e-12
8.35607439229077e-13
1.61394899865421e-12
-7.34943269710191e-14
2.01859800935808e-11
2.4946939669393e-11
4.49922530754746e-13
2.41026393568507e-11
7.08875472095479e-14
2.07211222047456e-11
-1.319685247502e-12
3.59348455274241e-12
-2.27758021280249e-12
-4.04691059834413e-12
-2.70697646151574e-12
-5.53584280224298e-12
-2.73596130282263e-12
-4.68776198798642e-12
-2.557663191916e-12
-3.41060348456448e-12
-2.29096070611515e-12
-2.28850978914135e-12
-2.00379976922542e-12
-1.42945204442367e-12
-1.72843988530654e-12
-7.97396448285398e-13
-1.47821420979572e-12
-3.32857747594853e-13
-1.25658745071847e-12
1.28114045980864e-14
-1.06249465486648e-12
2.74700299618714e-13
-8.93116316215289e-13
4.76923031650821e-13
-7.45173959843057e-13
6.35829874338179e-13
-6.15514059535239e-13
7.62519118418988e-13
-5.01299412014989e-13
8.64610972525833e-13
-4.00051872111875e-13
9.47412553875343e-13
-3.0961191403326e-13
1.0146790421532e-12
-2.28093904502164e-13
1.06910774885696e-12
-1.53832659445251e-13
1.11265710222439e-12
-8.53298978814351e-14
1.1467424981557e-12
-2.12117270105498e-14
1.17239684854343e-12
3.98101143994802e-14
1.19031930168565e-12
9.89597139892665e-14
1.20097032701284e-12
1.57433854649762e-13
1.20456441951385e-12
2.16433842169472e-13
1.20114166663862e-12
2.7718665861097e-13
1.19051915125529e-12
3.40984030718055e-13
1.17228425272015e-12
4.09210893235914e-13
1.14578401248674e-12
4.83378276062175e-13
1.11001669938888e-12
5.651702969223e-13
1.06362415258147e-12
6.56499260320843e-13
1.0047016905772e-12
7.59544756696818e-13
9.30551505643881e-13
8.76800348605464e-13
8.37401364916116e-13
1.01110736917409e-12
7.19933246845124e-13
1.16561343232252e-12
5.70543715839893e-13
1.34354595590836e-12
3.78175304641717e-13
1.54762303618091e-12
1.26488242729216e-13
1.778714123405e-12
-2.08788976279159e-13
2.0330378537689e-12
-6.62815387856825e-13
2.29670466463069e-12
-1.28428839513884e-12
2.53666333012172e-12
-2.13380327741255e-12
2.68396852917681e-12
-3.25190345222254e-12
2.62107276416493e-12
-4.55257609595064e-12
2.16274321177851e-12
-5.51116758758656e-12
1.19918868014832e-12
-4.2881449125881e-12
-1.65000518943632e-13
3.11691348237855e-12
-4.97730002407089e-13
2.0645589600679e-11
2.45165066563881e-11
5.63854012938254e-13
2.36530677849871e-11
3.15189762610982e-13
2.10891792452923e-11
-8.71865506874967e-13
4.88396008852461e-12
-1.77040668997467e-12
-3.05400514695568e-12
-2.25027573980966e-12
-4.96861523036805e-12
-2.37384513822627e-12
-4.48195167347426e-12
-2.2908882277206e-12
-3.41459433147224e-12
-2.10360517911232e-12
-2.39880013198625e-12
-1.87714589132308e-12
-1.5801555145133e-12
-1.64643103253635e-12
-9.53235341909982e-13
-1.42853623106366e-12
-4.76600799906797e-13
-1.23031622945223e-12
-1.11920832306842e-13
-1.05331945202198e-12
1.7054635165087e-13
-8.96609466404045e-13
3.92408863300687e-13
-7.58211033292449e-13
5.68968669165699e-13
-6.35857336441088e-13
7.11026703021385e-13
-5.27315441642672e-13
8.26237119998243e-13
-4.30516184635332e-13
9.20069640281922e-13
-3.43589352143867e-13
9.96485512297836e-13
-2.64850016230432e-13
1.05836912534188e-12
-1.92780068928367e-13
1.10785523690615e-12
-1.25997005916524e-13
1.1464980702298e-12
-6.32150172944488e-14
1.1754373615494e-12
-3.2274768342629e-15
1.19545301195467e-12
5.51281206291954e-14
1.20705984405445e-12
1.12978298469762e-13
1.21050794880849e-12
1.71463481321152e-13
1.20583301195018e-12
2.31741511993021e-13
1.1928332337456e-12
2.95024846325179e-13
1.17105033789282e-12
3.62609811367691e-13
1.13974495362191e-12
4.35888375470401e-13
1.09782857980367e-12
5.16391309964232e-13
1.0438016893479e-12
6.05818892702356e-13
9.75599499935275e-13
7.06061743545606e-13
8.90333782310977e-13
8.19193845420896e-13
7.84060177406461e-13
9.47441075004511e-13
6.51311598410779e-13
1.09305681413094e-12
4.84470972580524e-13
1.25794701555651e-12
2.72832642037296e-13
1.4429397077586e-12
1.14914424463175e-15
1.6462683785805e-12
-3.522472628563e-13
1.86074841500757e-12
-8.17069605673546e-13
2.06871677532866e-12
-1.43149796025943e-12
2.23441469898255e-12
-2.23794990634235e-12
2.29160915087321e-12
-3.24633126561184e-12
2.13910511006187e-12
-4.33521903231866e-12
1.63379114490981e-12
-4.93692298899931e-12
7.29899784271503e-13
-3.30809956003832e-12
-4.35819406912233e-13
4.36456443979792e-12
-6.31696438394981e-13
2.09134786127178e-11
2.39184005535417e-11
5.40403870085264e-13
2.3179873935913e-11
2.63309583869098e-13
2.14236366431302e-11
-6.99992455126928e-13
5.89050530743139e-12
-1.46634988664299e-12
-2.25006852056714e-12
-1.91680958627161e-12
-4.48483545160205e-12
-2.07572526290484e-12
-4.29299748929472e-12
-2.04960241223254e-12
-3.41280253909569e-12
-1.91914645575524e-12
-2.50259764494326e-12
-1.74086165683618e-12
-1.73256386717318e-12
-1.54812139174182e-12
-1.1206844821699e-12
-1.35910358750945e-12
-6.40857400950192e-13
-1.18253666663397e-12
-2.64260484060651e-13
-1.02177003963067e-12
3.34521301875796e-14
-8.77316646669456e-13
2.71045388949357e-13
-7.48294313567926e-13
4.62428762586741e-13
-6.3322091535447e-13
6.17801861666733e-13
-5.30420184307134e-13
7.44629832774692e-13
-4.38212694446577e-13
8.4838031025865e-13
-3.55004798812936e-13
9.33107607524882e-13
-2.79317189115449e-13
1.00181273073992e-12
-2.09780999027115e-13
1.0567512411008e-12
-1.45130500075182e-13
1.09958253151858e-12
-8.41685023814671e-14
1.13152542366988e-12
-2.57694500754352e-14
1.15343279934264e-12
3.11626489211838e-14
1.16585861899914e-12
8.76879365846109e-14
1.16908891385488e-12
1.44881933031933e-13
1.16315280808553e-12
2.03833080481186e-13
1.14783442335552e-12
2.65678296498474e-13
1.12263511715026e-12
3.31616740191795e-13
1.08675173593286e-12
4.02922889235073e-13
1.03902775443395e-12
4.80976110534156e-13
9.77856937167189e-13
5.6727432360963e-13
9.01064858330766e-13
6.63418029126793e-13
8.05659034448844e-13
7.71091398146967e-13
6.87620984478508e-13
8.91957430274254e-13
5.41505010583564e-13
1.02747850259335e-12
3.59902993781309e-13
1.17847212536783e-12
1.32751898206019e-13
1.3443134160238e-12
-1.53749246353328e-13
1.52144451214963e-12
-5.18339335899958e-13
1.70082634758186e-12
-9.85240558580883e-13
1.86375604268233e-12
-1.58295556129604e-12
1.97612996331269e-12
-2.33846572093615e-12
1.98057354849591e-12
-3.23833294198453e-12
1.79735809909516e-12
-4.13849364521234e-12
1.32576421269489e-12
-4.449367512874e-12
5.56223497195314e-13
-2.5177158855878e-12
-3.86366468166252e-13
5.33147887093433e-12
-6.10245328137853e-13
2.11545385086061e-11
2.33077797827909e-11
4.49627416760373e-13
2.27528947224199e-11
1.33034610368595e-13
2.17419964772145e-11
-6.29529478947005e-13
6.64452019529989e-12
-1.25935593838246e-12
-1.63104519408419e-12
-1.65534575641259e-12
-4.10131187486684e-12
-1.82192497716165e-12
-4.14042925116286e-12
-1.83022293389367e-12
-3.41957367242383e-12
-1.74127210783704e-12
-2.60723685510082e-12
-1.60159293198838e-12
-1.88832748361936e-12
-1.44121359003156e-12
-1.29749317786698e-12
-1.27793185389641e-12
-8.20943151540605e-13
-1.12133984964478e-12
-4.38086207362302e-13
-9.7595960326661e-13
-1.29643274705229e-13
-8.4338783246476e-13
1.20231461395529e-13
-7.23627284280524e-13
3.23862693718464e-13
-6.15864537139913e-13
4.90638519790619e-13
-5.18919214916789e-13
6.27664129568354e-13
-4.31477587462115e-13
7.40276213888023e-13
-3.52211141362454e-13
8.32523111152102e-13
-2.79839896811325e-13
9.07456419254741e-13
-2.13138036901726e-13
9.67396143569513e-13
-1.50956629457245e-13
1.0140808324606e-12
-9.21945857841416e-14
1.04878698689856e-12
-3.58057646193462e-14
1.07242378343747e-12
1.92354918059648e-14
1.08557509285275e-12
7.39259972870572e-14
1.08855569012608e-12
1.29272943315763e-13
1.08139316952592e-12
1.86294732532456e-13
1.06385884674242e-12
2.46050239404978e-13
1.03542217753146e-12
3.09639885343005e-13
9.952358849185e-13
3.78226144279562e-13
9.42089743167454e-13
4.53034864834761e-13
8.74311615098777e-13
5.35367944415409e-13
7.89659009744451e-13
6.26556657668563e-13
6.85108162616729e-13
7.2791934559419e-13
5.56661327345364e-13
8.40624625343077e-13
3.9902010230142e-13
9.65460962062584e-13
2.05161124189673e-13
1.10237155804392e-12
-3.41425270886649e-14
1.24965421518584e-12
-3.31052100047247e-13
1.40260541174821e-12
-7.01322055258329e-13
1.55136414964668e-12
-1.16402716279447e-12
1.67771411549196e-12
-1.73932731754583e-12
1.75107467209195e-12
-2.44184530458229e-12
1.72437803482905e-12
-3.24165301425e-12
1.53761970659779e-12
-3.98159311519288e-12
1.12471791779164e-12
-4.06535499710165e-12
4.93867769905661e-13
-1.9131549816941e-12
-2.4740753850048e-13
6.04822267786367e-12
-5.1413414909942e-13
2.13917948021961e-11
2.27661323136369e-11
3.37506975064006e-13
2.23973613343146e-11
1.31608781497915e-14
2.20194389188204e-11
-5.86099944092356e-13
7.19081140838157e-12
-1.09880895905324e-12
-1.17009013690741e-12
-1.43849052337699e-12
-3.81256105324779e-12
-1.60044243944592e-12
-4.02933656802225e-12
-1.62971836338235e-12
-3.44124311265327e-12
-1.5714948080125e-12
-2.71646085166719e-12
-1.46296175592407e-12
-2.04792819919205e-12
-1.3302291383992e-12
-1.48143880048898e-12
-1.18991437176461e-12
-1.0127183739707e-12
-1.05179605507409e-12
-6.28007915146474e-13
-9.21071359192069e-13
-3.12589991573994e-13
-8.00104812014499e-13
-5.34349752484682e-14
-6.8958211492488e-13
1.60118026293305e-13
-5.89254539028993e-13
3.36530379379334e-13
-4.98370314062469e-13
4.82413338339817e-13
-4.15944784499139e-13
6.02874479863031e-13
-3.40895752469971e-13
7.01873599945092e-13
-2.72132724325621e-13
7.82457141563644e-13
-2.08577313774149e-13
8.46966360952269e-13
-1.49194366054704e-13
8.97185062521558e-13
-9.29779408191435e-14
9.34429640132146e-13
-3.89614465323586e-14
9.59648859647028e-13
1.38048769703677e-14
9.73453257659515e-13
6.62517716543476e-14
9.76176177399465e-13
1.19315253784652e-13
9.6784864382123e-13
1.73943057431125e-13
9.48228632067935e-13
2.31113084969519e-13
9.16763650456392e-13
2.9183052447501e-13
8.72577039613024e-13
3.57142438362712e-13
8.14423901771593e-13
4.28126331810757e-13
7.40600231688478e-13
5.05894627175319e-13
6.48834791589934e-13
5.91531906038536e-13
5.36130448433189e-13
6.86027180272729e-13
3.98590909651376e-13
7.90119309216917e-13
2.31163928643736e-13
9.04040803995741e-13
2.73328677572571e-14
1.02705918033472e-12
-2.21178351591124e-13
1.15672457570265e-12
-5.24827611508483e-13
1.28768400899214e-12
-8.96496844257653e-13
1.40994966256616e-12
-1.3506546155102e-12
1.50659781282891e-12
-1.90056551873231e-12
1.55114795271327e-12
-2.55133849448656e-12
1.50617289711332e-12
-3.26215366276717e-12
1.32753736677242e-12
-3.8691039263055e-12
9.74539418593755e-13
-3.77890719387384e-12
4.62205273272146e-13
-1.46695224557874e-12
-1.15882248940925e-13
6.5597257410936e-12
-3.9512558548492e-13
2.1601861315072e-11
2.23201114579707e-11
2.3170569403315e-13
2.21158347375192e-11
-7.30668848207905e-14
2.2241422442568e-11
-5.457915331948e-13
7.57909366326167e-12
-9.6387372859592e-13
-8.32474367327815e-13
-1.25277762479955e-12
-3.60138858613157e-12
-1.40455858371282e-12
-3.95396271099516e-12
-1.44617817668513e-12
-3.47537082503614e-12
-1.41069475818507e-12
-2.82732594046698e-12
-1.32728355449819e-12
-2.20655176323707e-12
-1.21813667616705e-12
-1.66580359786495e-12
-1.0982894128457e-12
-1.20794065974909e-12
-9.77233787610513e-13
-8.24717391285721e-13
-8.60461898103889e-13
-5.05384660994855e-13
-7.50838057847972e-13
-2.39518284714278e-13
-6.49552990573249e-13
-1.81123674878562e-14
-5.56804069781419e-13
1.66311079319881e-13
-4.7220466487847e-13
3.19789522487043e-13
-3.95061884266307e-13
4.47128808014096e-13
-3.24520225579225e-13
5.52135094275062e-13
-2.59663160336946e-13
6.37796563334265e-13
-1.99556493873555e-13
7.06446748600651e-13
-1.43278214251604e-13
7.59883079866947e-13
-8.99199547211627e-14
7.99445800115629e-13
-3.85952100251166e-14
8.2610607842674e-13
1.15687371182053e-14
8.40497533189048e-13
6.14332088765705e-14
8.42964487300927e-13
1.11861507228383e-13
8.33544781340148e-13
1.63729035296897e-13
8.11982397016519e-13
2.17928344195714e-13
7.77715825009129e-13
2.75368262232616e-13
7.29849781818353e-13
3.36983663770541e-13
6.67121112102059e-13
4.03709543600101e-13
5.87822869264875e-13
4.76479749884619e-13
4.89692614103198e-13
5.56153790768338e-13
3.6980442517887e-13
6.4343254383632e-13
2.24426645742216e-13
7.38691054573457e-13
4.8826929453524e-14
8.41723983360251e-13
-1.62932774549094e-13
9.51303125877267e-13
-4.18123925922965e-13
1.06450628393043e-12
-7.25530533154158e-13
1.17571342208147e-12
-1.09537819508594e-12
1.27527724082072e-12
-1.53815293007797e-12
1.34796432129535e-12
-2.06159572112171e-12
1.37136349474901e-12
-2.66371145861229e-12
1.31630753913116e-12
-3.29701818708284e-12
1.15072350997079e-12
-3.79475596052712e-12
8.5132641326282e-13
-3.57229574950157e-12
4.34117272688576e-13
-1.14410133611377e-12
-1.87257819759341e-14
6.91611478893914e-12
-2.83353120065474e-13
2.1768867759383e-11
2.19703263571651e-11
1.45196743026351e-13
2.18973297252417e-11
-1.26903056660213e-13
2.24056794057801e-11
-5.03518549530847e-13
7.84990811151753e-12
-8.46033091738411e-13
-5.89563670280652e-13
-1.09095378752618e-12
-3.45185883714105e-12
-1.23000567046473e-12
-3.90802733699102e-12
-1.27810769561769e-12
-3.51916656188587e-12
-1.25925240897405e-12
-2.93740612366381e-12
-1.19600116580957e-12
-2.36069002832185e-12
-1.10689410177676e-12
-1.84570442874227e-12
-1.00520970947012e-12
-1.40051020546876e-12
-8.9984369102033e-13
-1.02119773687123e-12
-7.96302307253923e-13
-7.00367753629551e-13
-6.97713189914408e-13
-4.2994845480313e-13
-6.0561855482316e-13
-2.02499402814753e-13
-5.20555796530836e-13
-1.15369453787529e-14
-4.42435867454161e-13
1.48361990774371e-13
-3.70814117643867e-13
2.8165145207294e-13
-3.05040445181397e-13
3.91941745786035e-13
-2.44361725215455e-13
4.82120759687982e-13
-1.87979091366125e-13
5.54485768859089e-13
-1.35079221817569e-13
6.10821600195773e-13
-8.48525825104379e-14
6.52481622905061e-13
-3.64942105253425e-14
6.8044266897726e-13
1.07888024292269e-14
6.95358951688949e-13
5.77873832107146e-14
6.97576522324854e-13
1.05291523475673e-13
6.87142647381515e-13
1.54098623885769e-13
6.63791907127054e-13
2.05017880339511e-13
6.26959511994614e-13
2.58864745883246e-13
5.75741247046342e-13
3.16458358384387e-13
5.0887765702564e-13
3.78602075937842e-13
4.24674963548078e-13
4.46066495635408e-13
3.20910423443174e-13
5.19508304663636e-13
1.94769548192917e-13
5.99379721251967e-13
4.27299484157316e-14
6.85762814542812e-13
-1.3957723503878e-13
7.78117977581536e-13
-3.57471363605791e-13
8.7488340062293e-13
-6.17222246313257e-13
9.72889139535741e-13
-9.26031197871016e-13
1.06653925137955e-12
-1.29174564848114e-12
1.14683331433544e-12
-1.72150405707968e-12
1.20038132013777e-12
-2.2187397016359e-12
1.20854180621367e-12
-2.77630181214454e-12
1.14892460306702e-12
-3.34308836167836e-12
9.98411921529403e-13
-3.75175348996233e-12
7.45123619455982e-13
-3.4290295430338e-12
4.0337963374301e-13
-9.1570651683864e-13
4.43777785990094e-14
7.15771688414838e-12
-1.92098634856435e-13
2.18879964757926e-11
2.1700904385048e-11
8.08610617416075e-14
2.17293621408563e-11
-1.55781321829446e-13
2.25216048794308e-11
-4.59282054395702e-13
8.03765628317038e-12
-7.41017197881036e-13
-4.16040777817286e-13
-9.48207645114507e-13
-3.34780653741074e-12
-1.07346439910994e-12
-3.8830652850166e-12
-1.12399044827066e-12
-3.56738364476458e-12
-1.11704293786992e-12
-3.04224808987954e-12
-1.0698590126151e-12
-2.50533915972565e-12
-9.97696175259599e-13
-2.01518540075427e-12
-9.12056110457729e-13
-1.58352044866866e-12
-8.2104992791432e-13
-1.20976859237994e-12
-7.29979882568775e-13
-8.89297181709227e-13
-6.42058659001386e-13
-6.16096890679046e-13
-5.59041722867776e-13
-3.84163880645919e-13
-4.81708921430815e-13
-1.87979163186373e-13
-4.10207398127705e-13
-2.2741417022342e-14
-3.44301241924778e-13
1.15625374876975e-13
-2.83516239612308e-13
2.30501760880732e-13
-2.27248274938504e-13
3.24649112145618e-13
-1.74826690934496e-13
4.00306612827739e-13
-1.25545912726629e-13
4.59226113869322e-13
-7.86887589497913e-14
5.02759129926938e-13
-3.35337380536621e-14
5.31878089588316e-13
1.06323349378242e-14
5.47255148525714e-13
5.45250177407288e-14
5.49232761858144e-13
9.88632584767352e-14
5.37863327303559e-13
1.44363456891528e-13
5.12882707784731e-13
1.91752874944544e-13
4.73722347359192e-13
2.41751485096973e-13
4.19483261112981e-13
2.95073722754774e-13
3.48919081237354e-13
3.52395050637243e-13
2.60371695365947e-13
4.14335616826082e-13
1.51681645224287e-13
4.81376735288573e-13
2.01690361916371e-14
5.53768230484989e-13
-1.37451169557887e-13
6.31359087291588e-13
-3.25154095521781e-13
7.13370173197728e-13
-5.47634934426566e-13
7.98046937328024e-13
-8.10209300295247e-13
8.82151243183628e-13
-1.11862152807307e-12
9.6032487567186e-13
-1.47865140686539e-12
1.02439215491714e-12
-1.89468328105614e-12
1.06281243758451e-12
-2.36687882776217e-12
1.06031170072994e-12
-2.8844641442172e-12
9.99921128169154e-13
-3.39479488358143e-12
8.65122460341605e-13
-3.73119402855546e-12