/*--------------------------------*- C++ -*----------------------------------*\
  =========                 |
  \\      /  F ield         | OpenFOAM: The Open Source CFD Toolbox
   \\    /   O peration     | Website:  https://openfoam.org
    \\  /    A nd           | Version:  10
     \\/     M anipulation  |
\*---------------------------------------------------------------------------*/
FoamFile
{
    format      ascii;
    class       volScalarField;
    location    "5";
    object      rho;
}
// * * * * * * * * * * * * * * * * * * * * * * * * * * * * * * * * * * * * * //

dimensions      [1 -3 0 0 0 0 0];

internalField   nonuniform List<scalar> 
2500
(
1.14380323151085
1.14384867369766
1.14391150317416
1.14394996746706
1.14397008809781
1.14398005231601
1.14398480682892
1.14398698463931
1.14398793568094
1.14398832726636
1.14398848535411
1.14398854619337
1.14398856909262
1.14398857995723
1.14398858617949
1.1439885913293
1.1439885939508
1.14398859691653
1.14398860018835
1.14398860250079
1.14398860450928
1.1439886062907
1.14398860777833
1.14398860868044
1.14398860961452
1.14398861046257
1.14398861078888
1.14398861098643
1.14398861097628
1.14398861065625
1.14398861008408
1.14398860899162
1.14398860756031
1.1439886057248
1.14398860358657
1.14398860063115
1.14398859556951
1.14398858557072
1.14398855874457
1.14398849241888
1.14398832411039
1.14398790928076
1.14398692982669
1.14398472452147
1.14397996359433
1.14397006970988
1.14395006094442
1.14391147947287
1.14384796162178
1.1438037358042
1.1482839596611
1.14846919138419
1.14864840665592
1.14875878155886
1.14881930663383
1.14885092836217
1.14886684664648
1.14887450917283
1.14887800797939
1.14887951655264
1.14888013327204
1.1488803719416
1.14888045972464
1.14888049174583
1.14888050386921
1.14888050937255
1.14888051179062
1.14888051373235
1.14888051567694
1.14888051717597
1.14888051855518
1.14888051989646
1.14888052106268
1.14888052179502
1.14888052243212
1.14888052303731
1.14888052331917
1.14888052352807
1.14888052372743
1.14888052362459
1.14888052335969
1.14888052289528
1.14888052169751
1.14888051991232
1.14888051758996
1.14888051259621
1.14888049926057
1.1488804627947
1.14888036262332
1.1488801003645
1.14887944127525
1.14887786427856
1.14887428256438
1.148866559784
1.14885068348657
1.14881929592091
1.14875904714296
1.14864814341782
1.14846647546183
1.14828473382112
1.15259967971082
1.15288099787188
1.15311854753297
1.15326152364396
1.15333944827951
1.15338006909588
1.15340052076312
1.15341038811989
1.15341491127289
1.15341687204491
1.15341767630895
1.1534179883471
1.1534181029604
1.15341814349203
1.1534181575883
1.15341816271554
1.15341816456485
1.15341816563429
1.15341816658665
1.153418167362
1.15341816815331
1.15341816902847
1.15341816984415
1.15341817035758
1.15341817073621
1.15341817111353
1.15341817129899
1.15341817146485
1.15341817171152
1.15341817176913
1.1534181717847
1.153418171766
1.153418170819
1.15341816921072
1.15341816712746
1.15341816168886
1.15341814548289
1.15341809907371
1.15341797065399
1.15341763204933
1.15341678063503
1.153414746412
1.15341013538457
1.15340020875086
1.1533798128406
1.15333943290658
1.15326167098643
1.15311755733315
1.15287572764003
1.15259484317365
1.1561249077189
1.15641954200115
1.15663898285406
1.15676612579606
1.15683300591699
1.15686672806316
1.15688323503138
1.15689102726692
1.15689454167456
1.15689604726257
1.15689665920161
1.15689689487214
1.15689698074638
1.15689701064607
1.15689702068023
1.15689702395745
1.15689702492803
1.1568970253424
1.15689702567691
1.15689702597269
1.15689702633936
1.15689702683319
1.1568970273475
1.15689702767458
1.15689702787019
1.15689702807024
1.15689702816917
1.15689702827242
1.15689702846347
1.15689702853891
1.15689702863134
1.15689702886595
1.15689702830719
1.15689702722964
1.15689702600229
1.15689702242513
1.15689701110528
1.15689697772136
1.15689688385355
1.15689663275674
1.15689599290279
1.15689444246117
1.15689087154117
1.15688303561649
1.15686654836501
1.15683292949707
1.15676593579298
1.15663722351573
1.15641264484266
1.15611367521811
1.15863603082874
1.15888144906424
1.1590467682765
1.15913894854347
1.15918573089378
1.15920854503723
1.15921940829104
1.15922443344656
1.15922666907284
1.15922761865803
1.1592280026559
1.15922815008157
1.15922820361126
1.15922822210062
1.15922822815306
1.15922822993279
1.15922823030955
1.15922823038238
1.15922823042486
1.15922823047809
1.15922823059245
1.15922823082091
1.15922823111162
1.15922823129938
1.15922823137791
1.15922823145671
1.15922823149719
1.15922823155035
1.15922823166422
1.1592282317302
1.15922823183985
1.15922823211464
1.15922823184435
1.15922823128067
1.15922823071185
1.15922822869609
1.15922822204444
1.15922820205632
1.1592281451247
1.15922799128415
1.15922759554541
1.1592266264523
1.15922436547755
1.1592193199664
1.15920846312465
1.15918566996206
1.15913865077906
1.15904491911899
1.15887464581262
1.15862189506596
1.16022757574539
1.16040057239711
1.16050764807876
1.16056521792231
1.16059346974674
1.16060682253043
1.16061301854422
1.16061583274637
1.16061707069502
1.16061759344546
1.1606178043947
1.16061788537026
1.16061791475161
1.1606179248541
1.16061792808227
1.16061792890346
1.16061792897705
1.16061792893764
1.16061792890027
1.16061792889084
1.16061792889499
1.16061792896332
1.16061792911178
1.16061792920749
1.16061792922329
1.1606179292376
1.16061792924865
1.16061792927258
1.16061792932803
1.16061792937497
1.16061792946576
1.16061792968159
1.16061792957977
1.16061792935124
1.16061792915968
1.1606179281354
1.16061792464987
1.16061791408374
1.16061788366227
1.16061780089057
1.16061758667506
1.16061705827925
1.16061581326143
1.16061299522676
1.16060680693331
1.16059345430074
1.16056499122229
1.16050620944569
1.16039513792352
1.16021444645502
1.16113932214339
1.16124624956073
1.16130775419449
1.16133971659306
1.16135492622238
1.16136191090486
1.16136507535364
1.16136648897446
1.16136710498259
1.16136736411371
1.16136746868534
1.16136750890125
1.16136752350928
1.16136752851431
1.1613675300589
1.16136753039099
1.16136753037712
1.16136753031688
1.16136753026436
1.16136753024687
1.1613675302291
1.16136753023364
1.16136753030068
1.16136753034067
1.16136753032979
1.16136753032488
1.16136753032797
1.16136753033557
1.16136753035929
1.16136753038834
1.16136753044943
1.1613675305877
1.16136753056291
1.16136753050733
1.16136753047408
1.16136752997964
1.16136752831
1.16136752323237
1.16136750846881
1.16136746812518
1.16136736338094
1.16136710388408
1.16136648806858
1.16136507770278
1.16136192360555
1.16135494311481
1.1613396019003
1.1613068480429
1.16124256834064
1.16112935081301
1.1616174958559
1.16167681909799
1.16170882040723
1.16172493105269
1.16173238546098
1.16173571997597
1.16173719758521
1.16173784767797
1.16173812869486
1.16173824663159
1.16173829429614
1.16173831268554
1.1617383193797
1.16173832166543
1.16173832234045
1.16173832245858
1.16173832243341
1.16173832238676
1.16173832234648
1.16173832232635
1.16173832231422
1.16173832231086
1.16173832233244
1.16173832234358
1.16173832232946
1.16173832232102
1.16173832232158
1.16173832232538
1.16173832233476
1.16173832235086
1.16173832238614
1.16173832246243
1.16173832246356
1.16173832245887
1.16173832246378
1.16173832224895
1.16173832151446
1.1617383192536
1.16173831262207
1.16173829446046
1.16173824727263
1.16173813015557
1.16173785090935
1.16173720520934
1.16173573747312
1.16173241234107
1.16172489509325
1.16170833672938
1.1616746372648
1.16161097954154
1.16184951327981
1.16187955475629
1.16189487312811
1.16190235909837
1.1619057353868
1.16190720993717
1.16190785004059
1.16190812769703
1.16190824687448
1.16190829682539
1.16190831706342
1.16190832490288
1.16190832776437
1.16190832873749
1.16190832901217
1.16190832904876
1.16190832902918
1.16190832900082
1.16190832897637
1.16190832896205
1.16190832895535
1.1619083289529
1.16190832895643
1.1619083289553
1.16190832894666
1.16190832894087
1.16190832894041
1.1619083289418
1.16190832894587
1.16190832895422
1.16190832897214
1.16190832900623
1.16190832901212
1.16190832901592
1.16190832902474
1.16190832894431
1.16190832864294
1.1619083276979
1.1619083249048
1.16190831725195
1.16190829739497
1.16190824813159
1.16190813037092
1.16190785599437
1.16190722321156
1.16190575852138
1.16190235943902
1.16189464879081
1.16187839772645
1.16184573472372
1.16195457742404
1.16196864000514
1.16197546644731
1.16197871057075
1.16198013981446
1.16198075052961
1.16198101061448
1.16198112193619
1.16198116941367
1.16198118930049
1.16198119738264
1.1619812005273
1.16198120167848
1.16198120206788
1.16198120217178
1.16198120218109
1.16198120217047
1.16198120215552
1.16198120214258
1.16198120213425
1.1619812021298
1.16198120212754
1.16198120212703
1.16198120212471
1.16198120212022
1.16198120211712
1.1619812021166
1.16198120211707
1.16198120211877
1.16198120212268
1.16198120213094
1.16198120214549
1.16198120215023
1.16198120215373
1.16198120215952
1.16198120213145
1.16198120201506
1.16198120164016
1.16198120052646
1.16198119747822
1.16198118959333
1.16198117007723
1.16198112339605
1.1619810139991
1.16198075845436
1.16198015518147
1.16197872076989
1.16197537496986
1.16196808187952
1.16195259273742
1.16199929831671
1.1620054436764
1.16200830228422
1.16200962551696
1.16201019601832
1.1620104349749
1.16201053494161
1.16201057719187
1.16201059510419
1.16201060260542
1.16201060566424
1.1620106068598
1.16201060729864
1.16201060744583
1.16201060748313
1.16201060748495
1.16201060747942
1.16201060747223
1.16201060746596
1.16201060746162
1.16201060745893
1.16201060745734
1.16201060745638
1.16201060745473
1.16201060745256
1.16201060745103
1.16201060745063
1.1620106074507
1.1620106074513
1.16201060745295
1.16201060745641
1.16201060746228
1.16201060746491
1.16201060746697
1.16201060746968
1.16201060746059
1.16201060741791
1.16201060727574
1.16201060685225
1.16201060569588
1.16201060271812
1.16201059537682
1.16201057783571
1.1620105365585
1.16201043905483
1.16201020469395
1.162009634727
1.16200826953455
1.16200519568212
1.16199833986433
1.16201729640187
1.16201982347364
1.16202095671135
1.162021468467
1.16202168472956
1.16202177367177
1.16202181026893
1.16202182555154
1.16202183199408
1.16202183469192
1.16202183579576
1.16202183622907
1.16202183638844
1.16202183644132
1.16202183645401
1.16202183645396
1.16202183645126
1.16202183644798
1.16202183644509
1.16202183644296
1.16202183644147
1.16202183644047
1.16202183643972
1.16202183643875
1.16202183643769
1.16202183643691
1.16202183643659
1.16202183643646
1.16202183643656
1.16202183643714
1.16202183643841
1.16202183644057
1.16202183644174
1.16202183644268
1.16202183644369
1.16202183644092
1.16202183642591
1.16202183637407
1.16202183621962
1.16202183579934
1.16202183472311
1.1620218320837
1.16202182579318
1.1620218109524
1.16202177555827
1.16202168908137
1.16202147429897
1.1620209466426
1.16201972097319
1.16201686600892
1.16202417464838
1.16202515890583
1.16202558677041
1.16202577556417
1.16202585387315
1.16202588554444
1.16202589837754
1.1620259036755
1.16202590589664
1.16202590682667
1.16202590720837
1.16202590735875
1.16202590741409
1.16202590743217
1.16202590743619
1.16202590743581
1.16202590743451
1.16202590743301
1.16202590743167
1.16202590743061
1.16202590742979
1.16202590742917
1.16202590742864
1.16202590742806
1.16202590742748
1.16202590742701
1.16202590742672
1.16202590742651
1.16202590742639
1.16202590742647
1.16202590742681
1.16202590742747
1.16202590742785
1.16202590742816
1.16202590742846
1.16202590742761
1.16202590742243
1.16202590740413
1.16202590734984
1.1620259072028
1.16202590682869
1.1620259059169
1.162025903752
1.16202589863867
1.16202588634521
1.16202585586231
1.16202577865223
1.16202558430873
1.1620251191898
1.16202399333521
1.1620266750578
1.16202704013676
1.16202719475048
1.16202726151781
1.16202728873509
1.16202729957504
1.1620273039054
1.16202730567374
1.16202730641106
1.16202730671965
1.16202730684658
1.16202730689668
1.16202730691504
1.16202730692087
1.16202730692197
1.16202730692159
1.16202730692092
1.16202730692018
1.16202730691949
1.16202730691891
1.1620273069184
1.16202730691797
1.16202730691758
1.16202730691718
1.16202730691678
1.16202730691643
1.16202730691615
1.1620273069159
1.16202730691569
1.16202730691555
1.16202730691551
1.16202730691559
1.1620273069156
1.16202730691561
1.16202730691558
1.16202730691525
1.16202730691345
1.16202730690715
1.16202730688867
1.16202730683895
1.16202730671337
1.16202730640944
1.16202730569121
1.16202730399502
1.16202729989016
1.16202728957619
1.16202726296921
1.16202719442088
1.16202702561827
1.16202660288374
1.16202753552778
1.16202766508301
1.16202771877538
1.16202774150423
1.16202775062074
1.16202775420069
1.16202775561216
1.16202775618255
1.16202775641901
1.16202775651783
1.16202775655847
1.16202775657445
1.1620277565802
1.16202775658189
1.16202775658203
1.16202775658171
1.16202775658129
1.16202775658085
1.16202775658042
1.16202775658003
1.16202775657966
1.16202775657932
1.16202775657899
1.16202775657865
1.16202775657833
1.16202775657802
1.16202775657773
1.16202775657746
1.16202775657721
1.16202775657698
1.1620277565768
1.16202775657666
1.16202775657651
1.16202775657637
1.16202775657623
1.16202775657601
1.16202775657533
1.16202775657316
1.16202775656702
1.16202775655071
1.16202775650988
1.1620277564118
1.16202775618129
1.16202775563754
1.16202775431477
1.16202775095175
1.16202774212635
1.16202771887657
1.1620276600482
1.16202750821814
1.16202780867988
1.16202785283971
1.16202787081905
1.16202787829239
1.16202788124506
1.16202788238947
1.16202788283517
1.16202788301341
1.16202788308678
1.1620278831173
1.16202788312976
1.16202788313456
1.16202788313616
1.16202788313649
1.16202788313635
1.16202788313605
1.16202788313573
1.16202788313539
1.16202788313506
1.16202788313474
1.16202788313443
1.16202788313412
1.16202788313381
1.1620278831335
1.16202788313319
1.16202788313289
1.1620278831326
1.16202788313232
1.16202788313204
1.16202788313178
1.16202788313154
1.16202788313132
1.1620278831311
1.1620278831309
1.16202788313072
1.16202788313052
1.16202788313018
1.16202788312939
1.16202788312736
1.16202788312214
1.16202788310924
1.16202788307853
1.16202788300679
1.16202788283787
1.16202788242524
1.16202788136506
1.16202787853779
1.16202787092873
1.16202785117384
1.16202779880597
1.16202787992064
1.16202789442784
1.16202790024982
1.16202790262998
1.16202790355719
1.16202790391213
1.1620279040487
1.16202790410267
1.16202790412462
1.16202790413362
1.16202790413718
1.16202790413843
1.16202790413871
1.16202790413862
1.16202790413838
1.1620279041381
1.16202790413781
1.16202790413751
1.16202790413721
1.16202790413691
1.16202790413661
1.16202790413631
1.16202790413601
1.16202790413571
1.16202790413541
1.1620279041351
1.16202790413481
1.16202790413451
1.16202790413423
1.16202790413395
1.16202790413368
1.16202790413342
1.16202790413318
1.16202790413295
1.16202790413274
1.16202790413254
1.16202790413231
1.16202790413196
1.16202790413125
1.16202790412959
1.16202790412562
1.16202790411628
1.16202790409461
1.16202790404368
1.16202790391882
1.16202790359489
1.16202790271766
1.16202790030784
1.16202789389716
1.16202787649242
1.16202788429443
1.16202788890128
1.16202789072871
1.16202789146464
1.1620278917475
1.16202789185441
1.16202789189497
1.1620278919107
1.16202789191692
1.16202789191934
1.16202789192017
1.16202789192033
1.16202789192021
1.16202789191999
1.16202789191972
1.16202789191945
1.16202789191916
1.16202789191888
1.16202789191859
1.16202789191829
1.162027891918
1.1620278919177
1.16202789191739
1.16202789191709
1.16202789191678
1.16202789191648
1.16202789191617
1.16202789191587
1.16202789191557
1.16202789191528
1.162027891915
1.16202789191473
1.16202789191447
1.16202789191423
1.162027891914
1.16202789191379
1.16202789191359
1.16202789191337
1.16202789191307
1.16202789191251
1.1620278919113
1.16202789190854
1.1620278919022
1.16202789188732
1.16202789185066
1.16202789175458
1.1620278914904
1.16202789075011
1.16202788873479
1.16202788314433
1.16202786727133
1.16202786868905
1.16202786924612
1.16202786946736
1.16202786955124
1.16202786958245
1.16202786959401
1.1620278695983
1.16202786959985
1.16202786960031
1.16202786960033
1.16202786960017
1.16202786959993
1.16202786959967
1.1620278695994
1.16202786959912
1.16202786959884
1.16202786959856
1.16202786959827
1.16202786959797
1.16202786959767
1.16202786959737
1.16202786959706
1.16202786959675
1.16202786959644
1.16202786959613
1.16202786959582
1.16202786959551
1.16202786959521
1.16202786959491
1.16202786959461
1.16202786959433
1.16202786959406
1.1620278695938
1.16202786959356
1.16202786959334
1.16202786959314
1.16202786959296
1.16202786959278
1.16202786959255
1.16202786959216
1.16202786959136
1.16202786958958
1.16202786958539
1.16202786957498
1.16202786954734
1.16202786947002
1.16202786924905
1.16202786863406
1.16202786689422
1.16202784361483
1.1620278440385
1.1620278442036
1.16202784426827
1.16202784429239
1.16202784430111
1.16202784430415
1.16202784430512
1.16202784430532
1.16202784430522
1.16202784430502
1.16202784430477
1.1620278443045
1.16202784430423
1.16202784430395
1.16202784430367
1.16202784430339
1.16202784430311
1.16202784430282
1.16202784430252
1.16202784430222
1.16202784430191
1.1620278443016
1.16202784430128
1.16202784430097
1.16202784430065
1.16202784430033
1.16202784430001
1.1620278442997
1.16202784429939
1.16202784429909
1.1620278442988
1.16202784429852
1.16202784429825
1.162027844298
1.16202784429777
1.16202784429756
1.16202784429738
1.16202784429722
1.16202784429707
1.16202784429691
1.16202784429667
1.1620278442962
1.16202784429509
1.16202784429227
1.1620278442846
1.16202784426262
1.16202784419848
1.16202784401609
1.16202784349036
1.16202781796125
1.16202781808435
1.16202781813187
1.16202781815018
1.16202781815682
1.16202781815904
1.16202781815965
1.16202781815969
1.16202781815952
1.16202781815929
1.16202781815902
1.16202781815875
1.16202781815848
1.16202781815821
1.16202781815793
1.16202781815765
1.16202781815737
1.16202781815708
1.16202781815679
1.16202781815649
1.16202781815618
1.16202781815587
1.16202781815555
1.16202781815523
1.16202781815491
1.16202781815458
1.16202781815426
1.16202781815393
1.16202781815361
1.1620278181533
1.16202781815298
1.16202781815268
1.16202781815239
1.16202781815211
1.16202781815185
1.16202781815161
1.16202781815139
1.1620278181512
1.16202781815104
1.1620278181509
1.1620278181508
1.1620278181507
1.16202781815057
1.16202781815031
1.16202781814961
1.16202781814759
1.16202781814156
1.16202781812349
1.16202781807094
1.16202781791649
1.16202779172258
1.16202779175732
1.16202779177049
1.16202779177544
1.1620277917771
1.16202779177751
1.16202779177746
1.16202779177726
1.16202779177701
1.16202779177674
1.16202779177647
1.1620277917762
1.16202779177593
1.16202779177566
1.16202779177539
1.16202779177511
1.16202779177483
1.16202779177454
1.16202779177424
1.16202779177394
1.16202779177363
1.16202779177331
1.16202779177299
1.16202779177266
1.16202779177233
1.162027791772
1.16202779177166
1.16202779177133
1.162027791771
1.16202779177068
1.16202779177036
1.16202779177004
1.16202779176974
1.16202779176946
1.16202779176918
1.16202779176893
1.1620277917687
1.16202779176849
1.16202779176832
1.16202779176817
1.16202779176807
1.16202779176799
1.16202779176794
1.16202779176789
1.16202779176774
1.16202779176727
1.16202779176569
1.16202779176079
1.16202779174617
1.16202779170208
1.1620277653168
1.16202776532623
1.16202776532964
1.16202776533083
1.16202776533113
1.16202776533106
1.16202776533086
1.16202776533061
1.16202776533035
1.16202776533009
1.16202776532983
1.16202776532956
1.1620277653293
1.16202776532903
1.16202776532876
1.16202776532849
1.1620277653282
1.16202776532791
1.16202776532761
1.1620277653273
1.16202776532699
1.16202776532667
1.16202776532634
1.162027765326
1.16202776532567
1.16202776532533
1.16202776532499
1.16202776532465
1.16202776532431
1.16202776532397
1.16202776532364
1.16202776532332
1.16202776532301
1.16202776532271
1.16202776532243
1.16202776532216
1.16202776532192
1.1620277653217
1.16202776532151
1.16202776532135
1.16202776532122
1.16202776532113
1.16202776532108
1.16202776532106
1.16202776532104
1.16202776532095
1.16202776532057
1.16202776531932
1.1620277653155
1.16202776530335
1.1620277388644
1.16202773886678
1.16202773886748
1.16202773886767
1.16202773886761
1.16202773886744
1.16202773886722
1.16202773886698
1.16202773886673
1.16202773886649
1.16202773886624
1.16202773886598
1.16202773886573
1.16202773886546
1.16202773886519
1.16202773886492
1.16202773886463
1.16202773886434
1.16202773886404
1.16202773886373
1.16202773886341
1.16202773886308
1.16202773886275
1.16202773886241
1.16202773886206
1.16202773886172
1.16202773886137
1.16202773886102
1.16202773886067
1.16202773886033
1.16202773885999
1.16202773885966
1.16202773885934
1.16202773885903
1.16202773885873
1.16202773885845
1.16202773885819
1.16202773885796
1.16202773885775
1.16202773885757
1.16202773885742
1.16202773885732
1.16202773885724
1.1620277388572
1.16202773885719
1.16202773885718
1.16202773885709
1.16202773885681
1.16202773885597
1.16202773885284
1.16202771239931
1.16202771239977
1.16202771239975
1.16202771239969
1.16202771239956
1.16202771239939
1.16202771239918
1.16202771239896
1.16202771239874
1.16202771239851
1.16202771239827
1.16202771239803
1.16202771239778
1.16202771239752
1.16202771239725
1.16202771239698
1.16202771239669
1.1620277123964
1.16202771239609
1.16202771239578
1.16202771239545
1.16202771239512
1.16202771239478
1.16202771239444
1.16202771239409
1.16202771239373
1.16202771239338
1.16202771239302
1.16202771239266
1.16202771239231
1.16202771239196
1.16202771239162
1.16202771239129
1.16202771239097
1.16202771239066
1.16202771239037
1.16202771239009
1.16202771238984
1.16202771238961
1.16202771238942
1.16202771238925
1.16202771238911
1.16202771238902
1.16202771238895
1.16202771238891
1.16202771238889
1.16202771238885
1.16202771238881
1.16202771238876
1.1620277123881
1.16202768593083
1.16202768593078
1.16202768593059
1.16202768593049
1.16202768593037
1.16202768593021
1.16202768593004
1.16202768592984
1.16202768592964
1.16202768592942
1.1620276859292
1.16202768592897
1.16202768592872
1.16202768592847
1.16202768592821
1.16202768592793
1.16202768592765
1.16202768592735
1.16202768592705
1.16202768592673
1.1620276859264
1.16202768592606
1.16202768592572
1.16202768592537
1.16202768592501
1.16202768592465
1.16202768592429
1.16202768592392
1.16202768592356
1.16202768592319
1.16202768592283
1.16202768592248
1.16202768592214
1.1620276859218
1.16202768592148
1.16202768592118
1.16202768592089
1.16202768592062
1.16202768592038
1.16202768592016
1.16202768591997
1.16202768591981
1.16202768591968
1.16202768591958
1.16202768591951
1.16202768591946
1.16202768591941
1.16202768591941
1.16202768591956
1.16202768591955
1.16202765946147
1.16202765946131
1.16202765946109
1.16202765946099
1.16202765946089
1.16202765946077
1.16202765946062
1.16202765946045
1.16202765946026
1.16202765946006
1.16202765945985
1.16202765945963
1.1620276594594
1.16202765945915
1.16202765945889
1.16202765945862
1.16202765945834
1.16202765945804
1.16202765945773
1.16202765945741
1.16202765945708
1.16202765945674
1.16202765945639
1.16202765945603
1.16202765945566
1.1620276594553
1.16202765945492
1.16202765945455
1.16202765945418
1.1620276594538
1.16202765945344
1.16202765945307
1.16202765945272
1.16202765945237
1.16202765945204
1.16202765945172
1.16202765945142
1.16202765945113
1.16202765945087
1.16202765945063
1.16202765945042
1.16202765945023
1.16202765945007
1.16202765944995
1.16202765944984
1.16202765944976
1.16202765944968
1.16202765944966
1.16202765944984
1.16202765945
1.16202763299189
1.1620276329917
1.16202763299149
1.16202763299142
1.16202763299135
1.16202763299125
1.16202763299113
1.16202763299098
1.16202763299082
1.16202763299064
1.16202763299044
1.16202763299023
1.16202763299001
1.16202763298977
1.16202763298951
1.16202763298924
1.16202763298896
1.16202763298866
1.16202763298835
1.16202763298802
1.16202763298769
1.16202763298734
1.16202763298699
1.16202763298662
1.16202763298625
1.16202763298588
1.1620276329855
1.16202763298512
1.16202763298473
1.16202763298435
1.16202763298397
1.1620276329836
1.16202763298323
1.16202763298287
1.16202763298253
1.16202763298219
1.16202763298188
1.16202763298158
1.16202763298129
1.16202763298104
1.1620276329808
1.16202763298059
1.1620276329804
1.16202763298024
1.16202763298011
1.16202763297999
1.16202763297989
1.16202763297984
1.16202763298001
1.1620276329802
1.16202760652225
1.16202760652207
1.16202760652188
1.16202760652184
1.16202760652179
1.16202760652172
1.16202760652163
1.16202760652151
1.16202760652136
1.1620276065212
1.16202760652102
1.16202760652082
1.1620276065206
1.16202760652036
1.16202760652011
1.16202760651984
1.16202760651956
1.16202760651926
1.16202760651895
1.16202760651862
1.16202760651828
1.16202760651793
1.16202760651757
1.1620276065172
1.16202760651682
1.16202760651644
1.16202760651605
1.16202760651566
1.16202760651527
1.16202760651488
1.16202760651449
1.16202760651411
1.16202760651373
1.16202760651336
1.162027606513
1.16202760651265
1.16202760651232
1.162027606512
1.1620276065117
1.16202760651142
1.16202760651116
1.16202760651093
1.16202760651072
1.16202760651053
1.16202760651036
1.16202760651021
1.16202760651007
1.16202760650999
1.16202760651014
1.16202760651033
1.16202758005259
1.16202758005242
1.16202758005226
1.16202758005224
1.16202758005223
1.16202758005219
1.16202758005212
1.16202758005202
1.16202758005189
1.16202758005175
1.16202758005158
1.16202758005139
1.16202758005118
1.16202758005095
1.1620275800507
1.16202758005044
1.16202758005015
1.16202758004986
1.16202758004954
1.16202758004921
1.16202758004887
1.16202758004851
1.16202758004815
1.16202758004777
1.16202758004739
1.162027580047
1.1620275800466
1.16202758004621
1.16202758004581
1.16202758004541
1.16202758004501
1.16202758004461
1.16202758004422
1.16202758004384
1.16202758004347
1.16202758004311
1.16202758004276
1.16202758004242
1.16202758004211
1.16202758004181
1.16202758004152
1.16202758004126
1.16202758004102
1.1620275800408
1.16202758004061
1.16202758004042
1.16202758004026
1.16202758004015
1.16202758004027
1.16202758004045
1.16202755358292
1.16202755358277
1.16202755358263
1.16202755358264
1.16202755358266
1.16202755358264
1.1620275535826
1.16202755358252
1.16202755358242
1.16202755358229
1.16202755358213
1.16202755358195
1.16202755358175
1.16202755358153
1.16202755358129
1.16202755358102
1.16202755358074
1.16202755358044
1.16202755358013
1.16202755357979
1.16202755357945
1.16202755357909
1.16202755357872
1.16202755357834
1.16202755357795
1.16202755357755
1.16202755357715
1.16202755357674
1.16202755357633
1.16202755357592
1.16202755357552
1.16202755357511
1.16202755357471
1.16202755357432
1.16202755357393
1.16202755357355
1.16202755357319
1.16202755357284
1.1620275535725
1.16202755357218
1.16202755357188
1.16202755357159
1.16202755357133
1.16202755357108
1.16202755357085
1.16202755357064
1.16202755357044
1.1620275535703
1.1620275535704
1.16202755357055
1.16202752711324
1.16202752711311
1.16202752711299
1.16202752711304
1.16202752711308
1.16202752711309
1.16202752711307
1.16202752711301
1.16202752711293
1.16202752711282
1.16202752711267
1.16202752711251
1.16202752711231
1.1620275271121
1.16202752711186
1.1620275271116
1.16202752711132
1.16202752711102
1.1620275271107
1.16202752711037
1.16202752711002
1.16202752710965
1.16202752710928
1.16202752710889
1.1620275271085
1.16202752710809
1.16202752710768
1.16202752710727
1.16202752710685
1.16202752710643
1.16202752710601
1.1620275271056
1.16202752710519
1.16202752710478
1.16202752710438
1.16202752710399
1.16202752710361
1.16202752710325
1.16202752710289
1.16202752710255
1.16202752710223
1.16202752710192
1.16202752710163
1.16202752710135
1.16202752710109
1.16202752710084
1.16202752710062
1.16202752710044
1.16202752710051
1.16202752710065
1.16202750064354
1.16202750064343
1.16202750064334
1.16202750064341
1.16202750064348
1.16202750064353
1.16202750064353
1.1620275006435
1.16202750064343
1.16202750064333
1.1620275006432
1.16202750064305
1.16202750064286
1.16202750064265
1.16202750064242
1.16202750064216
1.16202750064188
1.16202750064158
1.16202750064126
1.16202750064092
1.16202750064057
1.16202750064021
1.16202750063983
1.16202750063943
1.16202750063903
1.16202750063862
1.1620275006382
1.16202750063778
1.16202750063736
1.16202750063693
1.1620275006365
1.16202750063608
1.16202750063566
1.16202750063524
1.16202750063483
1.16202750063442
1.16202750063403
1.16202750063365
1.16202750063327
1.16202750063291
1.16202750063257
1.16202750063224
1.16202750063192
1.16202750063161
1.16202750063133
1.16202750063105
1.16202750063079
1.16202750063058
1.16202750063062
1.16202750063074
1.16202747417381
1.16202747417373
1.16202747417367
1.16202747417378
1.16202747417388
1.16202747417395
1.16202747417397
1.16202747417396
1.16202747417392
1.16202747417383
1.16202747417372
1.16202747417357
1.16202747417339
1.16202747417319
1.16202747417296
1.16202747417271
1.16202747417243
1.16202747417213
1.16202747417181
1.16202747417147
1.16202747417111
1.16202747417074
1.16202747417036
1.16202747416996
1.16202747416955
1.16202747416914
1.16202747416871
1.16202747416828
1.16202747416785
1.16202747416742
1.16202747416698
1.16202747416654
1.16202747416611
1.16202747416568
1.16202747416526
1.16202747416484
1.16202747416443
1.16202747416403
1.16202747416364
1.16202747416327
1.1620274741629
1.16202747416254
1.1620274741622
1.16202747416187
1.16202747416155
1.16202747416124
1.16202747416095
1.1620274741607
1.16202747416072
1.16202747416082
1.16202744770407
1.162027447704
1.16202744770398
1.16202744770413
1.16202744770426
1.16202744770435
1.1620274477044
1.16202744770441
1.16202744770438
1.16202744770432
1.16202744770421
1.16202744770408
1.16202744770391
1.16202744770371
1.16202744770349
1.16202744770323
1.16202744770296
1.16202744770266
1.16202744770234
1.162027447702
1.16202744770164
1.16202744770126
1.16202744770087
1.16202744770047
1.16202744770006
1.16202744769964
1.16202744769921
1.16202744769877
1.16202744769833
1.16202744769789
1.16202744769744
1.16202744769699
1.16202744769655
1.16202744769611
1.16202744769568
1.16202744769525