/*--------------------------------*- C++ -*----------------------------------*\
  =========                 |
  \\      /  F ield         | OpenFOAM: The Open Source CFD Toolbox
   \\    /   O peration     | Website:  https://openfoam.org
    \\  /    A nd           | Version:  10
     \\/     M anipulation  |
\*---------------------------------------------------------------------------*/
FoamFile
{
    format      ascii;
    class       volScalarField;
    location    "5";
    object      T;
}
// * * * * * * * * * * * * * * * * * * * * * * * * * * * * * * * * * * * * * //

dimensions      [0 0 0 1 0 0 0];

internalField   nonuniform List<scalar> 
2500
(
304.780135604986
304.768027472389
304.751288054939
304.741041068325
304.735681155154
304.733026867761
304.731760367923
304.731180249686
304.730926914927
304.730822606041
304.730780495288
304.730764289154
304.730758189304
304.730755295181
304.730753637663
304.730752265818
304.73075156745
304.730750777384
304.730749905785
304.73074928974
304.730748754659
304.730748280066
304.730747883732
304.730747643363
304.730747394482
304.730747168519
304.730747081534
304.730747028848
304.730747031494
304.730747116685
304.730747269042
304.730747559995
304.730747941211
304.730748430101
304.73074899963
304.730749786843
304.730751135103
304.730753798501
304.730760944296
304.730778611801
304.730823445039
304.730933945557
304.731194848669
304.731782290913
304.733050499506
304.735686051459
304.741016164561
304.751294367205
304.768217196517
304.78000122789
303.590843750749
303.541878874664
303.49451944132
303.465359119515
303.449371172497
303.441018833251
303.436814464449
303.434790664358
303.433866580586
303.433468147005
303.433305263766
303.433242228195
303.433219043586
303.433210586349
303.433207384361
303.4332059308
303.433205292094
303.433204779196
303.433204265539
303.433203869561
303.433203505229
303.433203150913
303.433202842833
303.433202649349
303.433202481018
303.433202321113
303.433202246609
303.433202191373
303.433202138661
303.433202165765
303.433202235673
303.43320235828
303.433202674575
303.43320314602
303.43320375934
303.433205078209
303.433208600275
303.433218231314
303.433244687749
303.433313953455
303.433488027038
303.433904532141
303.434850513221
303.436890228259
303.441083509294
303.449374000266
303.465288958716
303.49458899177
303.54259669603
303.59063907128
302.454090915521
302.380288132205
302.317995895342
302.280515888465
302.260092501247
302.249447223557
302.244087849534
302.241502169618
302.240316920087
302.239803121168
302.239592373031
302.239510607077
302.239480573977
302.239469953091
302.239466259275
302.239464915682
302.239464431029
302.23946415073
302.23946390111
302.239463697874
302.239463490453
302.239463261062
302.239463047257
302.239462912651
302.239462813371
302.239462714435
302.239462665775
302.239462622251
302.239462557555
302.239462542403
302.239462538267
302.239462543114
302.239462791215
302.239463212601
302.239463758452
302.239465183531
302.239469430073
302.239481591008
302.239515241833
302.239603969157
302.239827072426
302.240360118433
302.241568395008
302.2441696093
302.249514374749
302.260096528152
302.280477266666
302.318255498445
302.38167042502
302.455360076168
301.531848417296
301.455023687388
301.397830778943
301.364703420246
301.347280587914
301.338496450087
301.334196807146
301.332167171761
301.331251786647
301.330859633239
301.33070024463
301.33063886076
301.330616493517
301.330608705654
301.330606092052
301.330605238392
301.330604985528
301.330604877535
301.330604790343
301.330604713234
301.330604617666
301.330604488974
301.330604354949
301.330604269689
301.330604218674
301.330604166505
301.330604140673
301.33060411372
301.330604063898
301.330604044192
301.330604020061
301.330603958902
301.33060410439
301.330604385006
301.330604704645
301.330605636326
301.330608584708
301.330617279999
301.330641729198
301.330707130993
301.330873790392
301.331277626594
301.332207731428
301.334248747047
301.338543255641
301.347300492857
301.364752918535
301.39828922729
301.456821644819
301.534778020474
300.878328688591
300.814611188505
300.771704865355
300.74778606233
300.735648500586
300.729729784532
300.726911592085
300.725607962296
300.725027997991
300.724781658049
300.724682041995
300.724643797075
300.724629910459
300.72462511393
300.724623543761
300.724623082006
300.724622984205
300.724622965247
300.724622954161
300.724622940287
300.724622910554
300.72462285122
300.724622775738
300.724622726964
300.724622706528
300.72462268602
300.724622675457
300.724622661602
300.724622632005
300.72462261483
300.72462258633
300.724622514991
300.724622585058
300.724622731241
300.724622878758
300.724623401643
300.724625127163
300.724630312406
300.724645081457
300.724684990437
300.724787652215
300.725039052817
300.725625592995
300.726934503582
300.72975103295
300.735664306588
300.747863317708
300.772184718999
300.816377138904
300.881999551626
300.465591299725
300.420796818109
300.393078118834
300.378177118209
300.370865141979
300.367409374458
300.365805841948
300.365077530185
300.364757151826
300.364621865353
300.364567272236
300.364546315943
300.364538712081
300.364536097529
300.364535262027
300.364535049444
300.364535030336
300.36453504047
300.364535050075
300.364535052452
300.364535051311
300.36453503356
300.364534995071
300.364534970237
300.364534966083
300.364534962314
300.36453495939
300.364534953135
300.364534938723
300.364534926519
300.364534902967
300.364534847057
300.364534873356
300.364534932452
300.364534981985
300.364535247025
300.364536149033
300.364538883482
300.364546756439
300.364568177488
300.364623615833
300.364760363248
300.365082571039
300.365811874629
300.367413409115
300.370869137578
300.378235790871
300.393450502094
300.422203775529
300.468991444972
300.229653760561
300.202008648688
300.18610949065
300.17784776617
300.173916500931
300.172111189644
300.171293290557
300.170927920535
300.170768704894
300.170701728966
300.170674700996
300.17066430661
300.170660530914
300.170659237238
300.170658837957
300.170658752064
300.170658755583
300.17065877109
300.170658784596
300.170658789052
300.170658793577
300.170658792336
300.170658774941
300.170658764539
300.170658767286
300.170658768489
300.170658767626
300.170658765601
300.170658759408
300.17065875184
300.170658735993
300.170658700202
300.170658706559
300.170658720876
300.170658729426
300.170658857179
300.170659288683
300.170660601029
300.170664416837
300.170674844155
300.170701916664
300.170768987054
300.170928152851
300.171292681511
300.172107905029
300.173912132801
300.177877409441
300.186343719681
300.202960308016
300.232232014844
300.106058974306
300.090733485322
300.082466958455
300.078305454456
300.076379962216
300.075518656595
300.07513699148
300.074969073379
300.07489648711
300.074866024193
300.074853712463
300.074848962453
300.074847233303
300.07484664284
300.074846468422
300.074846437844
300.074846444283
300.074846456267
300.074846466604
300.074846471737
300.074846474802
300.074846475603
300.074846469962
300.074846467017
300.074846470598
300.074846472711
300.074846472502
300.074846471456
300.07484646897
300.074846464753
300.074846455583
300.074846435822
300.074846435477
300.07484643664
300.074846435327
300.074846490778
300.074846680459
300.074847264404
300.074848977289
300.074853668381
300.074865856901
300.074896108031
300.074968236875
300.075135020282
300.075514135148
300.076373017083
300.078314740911
300.082591895909
300.091297107475
300.107742483764
300.04612197397
300.038364001803
300.034408308393
300.03247522916
300.031603388517
300.031222624856
300.031057335299
300.030985637965
300.030954863552
300.030941965017
300.03093673903
300.030934714638
300.030933975671
300.030933724324
300.030933653331
300.030933643818
300.030933648809
300.030933656066
300.030933662312
300.030933665941
300.030933667605
300.03093366817
300.030933667188
300.030933667411
300.030933669576
300.030933671003
300.030933671057
300.030933670633
300.030933669519
300.030933667302
300.030933662615
300.030933653758
300.030933652183
300.030933651154
300.03093364883
300.03093366956
300.030933747344
300.030933991345
300.030934712563
300.030936688686
300.030941816203
300.030954537133
300.030984945641
300.031055795977
300.031219195134
300.031597412615
300.032475139159
300.03446623664
300.03866278604
300.04709778228
300.018984915053
300.015353972084
300.013591423678
300.012753816503
300.012384798344
300.012227117214
300.012159965627
300.012131223304
300.012118964974
300.0121138303
300.012111743491
300.012110931498
300.012110634208
300.0121105336
300.01211050671
300.01211050424
300.012110506914
300.012110510706
300.01211051398
300.012110516062
300.012110517143
300.012110517658
300.012110517721
300.01211051825
300.01211051934
300.012110520073
300.012110520142
300.012110519954
300.01211051945
300.012110518378
300.012110516187
300.012110512373
300.012110511096
300.012110510142
300.012110508602
300.012110515808
300.012110545823
300.012110642588
300.012110930114
300.012111717127
300.01211375293
300.012118791817
300.012130844489
300.012159089804
300.012225069125
300.01238082869
300.012751181109
300.013615040408
300.015498075722
300.019497363883
300.007431501958
300.00584488806
300.005106855909
300.004765226142
300.004617935255
300.004556241842
300.004530432527
300.004519524326
300.004514899657
300.004512962915
300.004512173114
300.004511864373
300.004511751003
300.004511712933
300.004511703236
300.004511702697
300.004511704058
300.004511705846
300.004511707396
300.004511708446
300.004511709073
300.004511709412
300.004511709592
300.004511709946
300.004511710437
300.004511710763
300.004511710798
300.004511710715
300.004511710493
300.004511710003
300.004511709051
300.004511707477
300.004511706744
300.004511706161
300.004511705414
300.004511707719
300.004511718703
300.00451175538
300.004511864693
300.004512163232
300.004512932028
300.004514827411
300.004519356178
300.004530013105
300.004555186471
300.004615693341
300.00476284622
300.005115309042
300.005908912957
300.007678955303
300.002777956376
300.002125533036
300.001832961667
300.001700840136
300.001645006861
300.001622044208
300.001612595654
300.001608649958
300.001606986552
300.001606289944
300.001606004877
300.001605892931
300.001605851711
300.001605837988
300.001605834643
300.001605834587
300.001605835216
300.001605835993
300.001605836669
300.00160583715
300.001605837465
300.00160583765
300.001605837773
300.001605837952
300.001605838156
300.001605838287
300.0016058383
300.001605838267
300.001605838172
300.001605837959
300.00160583757
300.001605836952
300.001605836595
300.001605836299
300.001605835991
300.001605836665
300.001605840502
300.001605853858
300.001605893714
300.001606002211
300.00160628007
300.001606961521
300.001608585616
300.001612417188
300.001621555105
300.001643881244
300.00169933235
300.001835558987
300.002151993724
300.002889070575
300.000995347844
300.000741241092
300.000630778841
300.000582037579
300.000561820267
300.00055364345
300.000550330146
300.000548962219
300.000548388664
300.000548148456
300.000548049821
300.000548010917
300.000547996555
300.000547991814
300.000547990706
300.000547990735
300.000547991002
300.000547991317
300.000547991592
300.000547991795
300.000547991936
300.000547992025
300.000547992088
300.000547992166
300.000547992245
300.000547992294
300.000547992298
300.000547992284
300.000547992245
300.000547992159
300.000547992008
300.000547991777
300.000547991621
300.000547991487
300.000547991362
300.000547991539
300.000547992839
300.000547997534
300.000548011532
300.000548049486
300.000548146079
300.000548381506
300.000548940474
300.000550260678
300.000553434618
300.000561304586
300.000581238163
300.00063141218
300.000751492402
300.001042155462
300.000342982072
300.000248729549
300.000208812775
300.00019157522
300.000184548318
300.000181749563
300.000180631426
300.000180174747
300.000179984275
300.000179904503
300.00017987164
300.000179858624
300.000179853807
300.000179852228
300.000179851874
300.000179851899
300.000179852003
300.000179852122
300.000179852228
300.000179852307
300.000179852364
300.000179852402
300.00017985243
300.000179852461
300.00017985249
300.000179852507
300.000179852508
300.000179852502
300.000179852487
300.000179852454
300.000179852399
300.000179852317
300.000179852254
300.000179852199
300.000179852154
300.000179852197
300.000179852623
300.000179854219
300.000179858972
300.000179871801
300.00017990423
300.000179982725
300.000180168204
300.000180606197
300.000181666069
300.00018432899
300.0001911983
300.000208895635
300.000252475536
300.000361613
300.00011400095
300.000080553628
300.000066691744
300.000060823633
300.000058469833
300.00005754541
300.000057180851
300.000057033456
300.000056972292
300.000056946677
300.000056936093
300.000056931883
300.000056930321
300.000056929812
300.000056929701
300.000056929712
300.000056929749
300.000056929791
300.000056929829
300.000056929857
300.000056929879
300.000056929893
300.000056929904
300.000056929915
300.000056929925
300.00005692993
300.00005692993
300.000056929928
300.000056929923
300.000056929911
300.000056929892
300.000056929864
300.000056929841
300.00005692982
300.000056929804
300.000056929815
300.000056929954
300.000056930481
300.000056932046
300.000056936249
300.000056946798
300.000056972146
300.000057031708
300.000057172166
300.000057513775
300.000058382153
300.000060660765
300.00006666334
300.000081851171
300.000121049176
300.000036647631
300.000025246826
300.000020604983
300.000018675417
300.000017912956
300.000017617334
300.00001750212
300.000017455973
300.000017436916
300.000017428936
300.000017425628
300.000017424306
300.000017423813
300.000017423652
300.000017423616
300.00001742362
300.000017423631
300.000017423645
300.000017423656
300.000017423666
300.000017423672
300.000017423677
300.000017423681
300.000017423684
300.000017423687
300.000017423689
300.000017423689
300.000017423688
300.000017423686
300.000017423682
300.000017423676
300.000017423668
300.00001742366
300.000017423653
300.000017423648
300.000017423652
300.000017423698
300.000017423868
300.000017424371
300.000017425709
300.000017429044
300.000017436996
300.000017455563
300.000017499244
300.000017605868
300.000017879702
300.000018609756
300.000020574342
300.000025674564
300.000039194432
300.000011421683
300.0000076763
300.000006173138
300.000005558504
300.000005318975
300.000005227188
300.000005191794
300.000005177738
300.00000517196
300.000005169539
300.000005168531
300.000005168126
300.000005167973
300.000005167921
300.000005167908
300.000005167907
300.00000516791
300.000005167913
300.000005167916
300.000005167918
300.000005167919
300.00000516792
300.000005167921
300.000005167921
300.000005167922
300.000005167922
300.000005167922
300.000005167922
300.000005167922
300.000005167921
300.000005167919
300.000005167917
300.000005167915
300.000005167914
300.000005167913
300.000005167916
300.000005167932
300.000005167987
300.000005168145
300.000005168562
300.00000516959
300.00000517202
300.000005177654
300.000005190864
300.000005223182
300.000005306923
300.000005533512
300.000006155783
300.000007810918
300.000012304356
300.000003458765
300.000002269361
300.000001797488
300.000001607366
300.000001534208
300.000001506471
300.000001495876
300.000001491699
300.000001489988
300.000001489269
300.000001488967
300.000001488844
300.000001488796
300.000001488778
300.000001488772
300.00000148877
300.000001488769
300.000001488768
300.000001488768
300.000001488767
300.000001488767
300.000001488766
300.000001488766
300.000001488766
300.000001488766
300.000001488765
300.000001488765
300.000001488765
300.000001488765
300.000001488765
300.000001488765
300.000001488765
300.000001488766
300.000001488766
300.000001488767
300.00000148877
300.000001488777
300.000001488795
300.000001488846
300.000001488974
300.000001489285
300.000001490011
300.000001491681
300.000001495575
300.000001505112
300.000001530008
300.000001598308
300.000001789534
300.000002309905
300.000003753244
300.000001019881
300.000000653826
300.000000509937
300.000000452709
300.000000430939
300.000000422763
300.000000419664
300.000000418449
300.000000417951
300.000000417739
300.000000417649
300.00000041761
300.000000417593
300.000000417585
300.000000417581
300.000000417578
300.000000417576
300.000000417574
300.000000417573
300.000000417572
300.000000417571
300.00000041757
300.000000417569
300.000000417568
300.000000417568
300.000000417567
300.000000417567
300.000000417567
300.000000417568
300.000000417568
300.000000417569
300.000000417569
300.00000041757
300.000000417572
300.000000417573
300.000000417576
300.000000417579
300.000000417587
300.000000417605
300.000000417645
300.000000417739
300.000000417954
300.000000418439
300.000000419563
300.000000422309
300.000000429522
300.000000449562
300.000000506698
300.000000665529
300.000001114746
300.000000293556
300.000000184142
300.00000014146
300.000000124669
300.000000118344
300.000000115987
300.000000115098
300.000000114749
300.000000114604
300.00000011454
300.000000114511
300.000000114497
300.000000114489
300.000000114484
300.000000114481
300.000000114478
300.000000114475
300.000000114473
300.000000114472
300.00000011447
300.000000114469
300.000000114467
300.000000114467
300.000000114466
300.000000114465
300.000000114465
300.000000114465
300.000000114465
300.000000114465
300.000000114466
300.000000114467
300.000000114467
300.000000114469
300.00000011447
300.000000114472
300.000000114474
300.000000114477
300.000000114482
300.000000114489
300.000000114504
300.000000114534
300.000000114598
300.000000114739
300.000000115059
300.000000115834
300.000000117877
300.000000123614
300.000000140242
300.00000018738
300.000000323142
300.000000082827
300.00000005102
300.000000038702
300.000000033895
300.000000032096
300.000000031428
300.000000031176
300.000000031074
300.00000003103
300.000000031009
300.000000030997
300.00000003099
300.000000030985
300.000000030981
300.000000030977
300.000000030974
300.000000030972
300.00000003097
300.000000030968
300.000000030966
300.000000030965
300.000000030963
300.000000030962
300.000000030962
300.000000030961
300.000000030961
300.000000030961
300.000000030961
300.000000030961
300.000000030962
300.000000030962
300.000000030963
300.000000030965
300.000000030966
300.000000030968
300.000000030971
300.000000030973
300.000000030977
300.000000030982
300.000000030988
300.000000031
300.000000031021
300.000000031064
300.000000031156
300.000000031373
300.000000031942
300.00000003355
300.00000003827
300.000000051876
300.000000091778
300.000000023161
300.000000014173
300.00000001073
300.000000009387
300.000000008884
300.000000008696
300.000000008622
300.000000008591
300.000000008575
300.000000008565
300.000000008558
300.000000008553
300.000000008549
300.000000008545
300.000000008541
300.000000008538
300.000000008536
300.000000008533
300.000000008531
300.00000000853
300.000000008528
300.000000008527
300.000000008526
300.000000008525
300.000000008525
300.000000008524
300.000000008524
300.000000008524
300.000000008525
300.000000008525
300.000000008526
300.000000008527
300.000000008529
300.00000000853
300.000000008532
300.000000008534
300.000000008537
300.00000000854
300.000000008544
300.000000008549
300.000000008555
300.000000008565
300.00000000858
300.000000008608
300.000000008671
300.000000008829
300.000000009275
300.000000010582
300.000000014386
300.000000025791
300.000000006649
300.000000004198
300.000000003285
300.000000002921
300.000000002781
300.000000002726
300.000000002702
300.00000000269
300.000000002681
300.000000002675
300.000000002669
300.000000002665
300.000000002661
300.000000002657
300.000000002653
300.00000000265
300.000000002648
300.000000002645
300.000000002643
300.000000002642
300.00000000264
300.000000002639
300.000000002638
300.000000002637
300.000000002637
300.000000002636
300.000000002636
300.000000002636
300.000000002637
300.000000002637
300.000000002638
300.000000002639
300.00000000264
300.000000002642
300.000000002644
300.000000002647
300.000000002649
300.000000002652
300.000000002656
300.00000000266
300.000000002665
300.000000002671
300.000000002679
300.00000000269
300.000000002711
300.000000002757
300.000000002882
300.000000003235
300.000000004245
300.000000007398
300.000000002177
300.000000001553
300.000000001345
300.000000001252
300.000000001211
300.000000001192
300.000000001182
300.000000001175
300.000000001169
300.000000001163
300.000000001158
300.000000001153
300.000000001149
300.000000001146
300.000000001142
300.000000001139
300.000000001137
300.000000001134
300.000000001132
300.000000001131
300.000000001129
300.000000001128
300.000000001127
300.000000001126
300.000000001125
300.000000001125
300.000000001125
300.000000001125
300.000000001125
300.000000001126
300.000000001127
300.000000001128
300.000000001129
300.000000001131
300.000000001133
300.000000001135
300.000000001138
300.000000001141
300.000000001145
300.000000001149
300.000000001153
300.000000001158
300.000000001164
300.000000001171
300.00000000118
300.000000001197
300.000000001236
300.000000001327
300.000000001559
300.00000000238
300.00000000099
300.000000000865
300.00000000085
300.00000000083
300.000000000815
300.000000000807
300.0000000008
300.000000000794
300.000000000788
300.000000000783
300.000000000778
300.000000000774
300.00000000077
300.000000000766
300.000000000762
300.000000000759
300.000000000757
300.000000000755
300.000000000752
300.000000000751
300.000000000749
300.000000000748
300.000000000747
300.000000000746
300.000000000746
300.000000000745
300.000000000745
300.000000000745
300.000000000746
300.000000000746
300.000000000747
300.000000000748
300.00000000075
300.000000000751
300.000000000753
300.000000000756
300.000000000758
300.000000000761
300.000000000765
300.000000000769
300.000000000773
300.000000000778
300.000000000783
300.000000000789
300.000000000795
300.000000000804
300.00000000082
300.000000000842
300.000000000862
300.000000001039
300.000000000681
300.00000000069
300.000000000726
300.000000000725
300.000000000718
300.000000000712
300.000000000706
300.0000000007
300.000000000695
300.000000000689
300.000000000685
300.00000000068
300.000000000676
300.000000000672
300.000000000669
300.000000000666
300.000000000663
300.000000000661
300.000000000659
300.000000000657
300.000000000656
300.000000000654
300.000000000653
300.000000000653
300.000000000652
300.000000000652
300.000000000652
300.000000000652
300.000000000652
300.000000000653
300.000000000654
300.000000000655
300.000000000656
300.000000000658
300.00000000066
300.000000000662
300.000000000665
300.000000000668
300.000000000671
300.000000000675
300.00000000068
300.000000000684
300.000000000689
300.000000000695
300.0000000007
300.000000000708
300.000000000718
300.000000000721
300.000000000684
300.000000000688
300.000000000602
300.000000000647
300.000000000696
300.0000000007
300.000000000694
300.000000000689
300.000000000683
300.000000000677
300.000000000672
300.000000000667
300.000000000662
300.000000000657
300.000000000653
300.000000000649
300.000000000646
300.000000000643
300.000000000641
300.000000000638
300.000000000636
300.000000000634
300.000000000633
300.000000000632
300.000000000631
300.00000000063
300.00000000063
300.000000000629
300.000000000629
300.000000000629
300.00000000063
300.00000000063
300.000000000631
300.000000000632
300.000000000633
300.000000000635
300.000000000637
300.000000000639
300.000000000642
300.000000000645
300.000000000649
300.000000000653
300.000000000657
300.000000000662
300.000000000667
300.000000000672
300.000000000678
300.000000000684
300.000000000693
300.000000000692
300.000000000641
300.000000000598
300.000000000583
300.000000000637
300.000000000689
300.000000000694
300.000000000689
300.000000000683
300.000000000678
300.000000000672
300.000000000666
300.000000000661
300.000000000656
300.000000000652
300.000000000648
300.000000000644
300.000000000641
300.000000000638
300.000000000635
300.000000000633
300.000000000631
300.000000000629
300.000000000627
300.000000000626
300.000000000625
300.000000000625
300.000000000624
300.000000000624
300.000000000624
300.000000000624
300.000000000624
300.000000000625
300.000000000626
300.000000000627
300.000000000628
300.00000000063
300.000000000632
300.000000000634
300.000000000637
300.00000000064
300.000000000643
300.000000000647
300.000000000651
300.000000000656
300.000000000661
300.000000000667
300.000000000672
300.000000000679
300.000000000688
300.000000000686
300.000000000631
300.000000000576
300.00000000058
300.000000000635
300.000000000688
300.000000000693
300.000000000688
300.000000000682
300.000000000676
300.00000000067
300.000000000665
300.000000000659
300.000000000654
300.00000000065
300.000000000646
300.000000000642
300.000000000639
300.000000000636
300.000000000633
300.000000000631
300.000000000629
300.000000000627
300.000000000626
300.000000000625
300.000000000624
300.000000000623
300.000000000622
300.000000000622
300.000000000622
300.000000000622
300.000000000623
300.000000000623
300.000000000624
300.000000000625
300.000000000626
300.000000000628
300.00000000063
300.000000000632
300.000000000635
300.000000000638
300.000000000642
300.000000000646
300.00000000065
300.000000000655
300.00000000066
300.000000000665
300.000000000671
300.000000000678
300.000000000687
300.000000000685
300.00000000063
300.000000000572
300.00000000058
300.000000000636
300.000000000689
300.000000000694
300.000000000687
300.000000000681
300.000000000675
300.000000000669
300.000000000664
300.000000000658
300.000000000653
300.000000000649
300.000000000645
300.000000000641
300.000000000638
300.000000000635
300.000000000632
300.00000000063
300.000000000628
300.000000000627
300.000000000625
300.000000000624
300.000000000623
300.000000000622
300.000000000622
300.000000000622
300.000000000621
300.000000000622
300.000000000622
300.000000000622
300.000000000623
300.000000000624
300.000000000626
300.000000000627
300.000000000629
300.000000000632
300.000000000634
300.000000000637
300.000000000641
300.000000000645
300.000000000649
300.000000000654
300.000000000659
300.000000000665
300.000000000671
300.000000000678
300.000000000688
300.000000000686
300.000000000631
300.000000000572
300.000000000582
300.000000000638
300.00000000069
300.000000000694
300.000000000688
300.000000000681
300.000000000675
300.000000000669
300.000000000663
300.000000000657
300.000000000652
300.000000000648
300.000000000644
300.00000000064
300.000000000637
300.000000000634
300.000000000632
300.000000000629
300.000000000627
300.000000000626
300.000000000624
300.000000000623
300.000000000622
300.000000000622
300.000000000621
300.000000000621
300.000000000621
300.000000000621
300.000000000621
300.000000000622
300.000000000623
300.000000000624
300.000000000625
300.000000000627
300.000000000629
300.000000000631
300.000000000634
300.000000000637
300.00000000064
300.000000000644
300.000000000648
300.000000000653
300.000000000659
300.000000000665
300.000000000671
300.000000000679
300.000000000689
300.000000000688
300.000000000633
300.000000000574
300.000000000585
300.000000000641
300.000000000692
300.000000000695
300.000000000688
300.000000000681
300.000000000674
300.000000000668
300.000000000662
300.000000000656
300.000000000651
300.000000000647
300.000000000643
300.000000000639
300.000000000636
300.000000000633
300.000000000631
300.000000000629
300.000000000627
300.000000000625
300.000000000624
300.000000000623
300.000000000622
300.000000000621
300.000000000621
300.00000000062
300.00000000062
300.00000000062
300.000000000621
300.000000000621
300.000000000622
300.000000000623
300.000000000624
300.000000000626
300.000000000628
300.00000000063
300.000000000633
300.000000000636
300.000000000639
300.000000000643
300.000000000648
300.000000000653
300.000000000658
300.000000000664
300.000000000671
300.000000000679
300.00000000069
300.00000000069
300.000000000636
300.000000000577
300.000000000588
300.000000000644
300.000000000694
300.000000000696
300.000000000688
300.00000000068
300.000000000673
300.000000000667
300.00000000066
300.000000000655
300.00000000065
300.000000000645
300.000000000641
300.000000000638
300.000000000635
300.000000000632
300.00000000063
300.000000000627
300.000000000626
300.000000000624
300.000000000623
300.000000000622
300.000000000621
300.00000000062
300.00000000062
300.000000000619
300.000000000619
300.00000000062
300.00000000062
300.00000000062
300.000000000621
300.000000000622
300.000000000623
300.000000000625
300.000000000627
300.000000000629
300.000000000632
300.000000000635
300.000000000638
300.000000000642
300.000000000647
300.000000000652
300.000000000657
300.000000000664
300.000000000671
300.00000000068
300.000000000691
300.000000000692
300.00000000064
300.000000000581
300.000000000592
300.000000000648
300.000000000696
300.000000000697
300.000000000688
300.00000000068
300.000000000672
300.000000000665
300.000000000659
300.000000000653
300.000000000648
300.000000000644
300.00000000064
300.000000000636
300.000000000633
300.000000000631
300.000000000628
300.000000000626
300.000000000624
300.000000000623
300.000000000622
300.000000000621
300.00000000062
300.000000000619
300.000000000619
300.000000000619
300.000000000619
300.000000000619
300.000000000619
300.000000000619
300.00000000062
300.000000000621
300.000000000622
300.000000000624
300.000000000626
300.000000000628
300.00000000063
300.000000000633
300.000000000637
300.000000000641
300.000000000645
300.00000000065
300.000000000656
300.000000000663
300.000000000671
300.00000000068
300.000000000693
300.000000000695
300.000000000644
300.000000000585
300.000000000596
300.000000000652
300.000000000699
300.000000000698
300.000000000688
300.000000000679
300.000000000671
300.000000000664
300.000000000657
300.000000000651
300.000000000646
300.000000000642
300.000000000638
300.000000000635
300.000000000632
300.000000000629
300.000000000627
300.000000000625
300.000000000623
300.000000000622
300.000000000621
300.00000000062
300.000000000619
300.000000000618
300.000000000618
300.000000000618
300.000000000617
300.000000000618
300.000000000618
300.000000000618
300.000000000619
300.00000000062
300.000000000621
300.000000000623
300.000000000624
300.000000000627
300.000000000629