/*--------------------------------*- C++ -*----------------------------------*\
  =========                 |
  \\      /  F ield         | OpenFOAM: The Open Source CFD Toolbox
   \\    /   O peration     | Website:  https://openfoam.org
    \\  /    A nd           | Version:  10
     \\/     M anipulation  |
\*---------------------------------------------------------------------------*/
FoamFile
{
    format      ascii;
    class       volVectorField;
    location    "5";
    object      U;
}
// * * * * * * * * * * * * * * * * * * * * * * * * * * * * * * * * * * * * * //

dimensions      [0 1 -1 0 0 0 0];

internalField   nonuniform List<vector> 
2500
(
(-1.5918795590661e-06 -4.49107981990014e-06 8.59487278298788e-25)
(-3.74501496846018e-06 -5.82936349643653e-06 6.54761371686535e-24)
(-3.2606617055534e-06 -6.1447903436321e-06 1.12088075264494e-24)
(-2.4067876872413e-06 -6.22947282236226e-06 6.4731297080099e-25)
(-1.54373270585337e-06 -6.1999512662264e-06 1.31053118557991e-24)
(-9.81949386585546e-07 -6.15693808893532e-06 -1.20528313575426e-25)
(-6.18528652519295e-07 -6.12044806741475e-06 1.46593421243612e-25)
(-3.95051962002332e-07 -6.09575367425978e-06 1.33854088680416e-25)
(-2.55611708728785e-07 -6.0807950337489e-06 4.37010875052821e-26)
(-1.65067020400119e-07 -6.0722654704544e-06 7.05222849563411e-24)
(-1.04164465519087e-07 -6.06773518009583e-06 2.80950934060074e-24)
(-6.10553249136256e-08 -6.06539193182722e-06 8.37848221092318e-24)
(-2.9170369875826e-08 -6.06418473350635e-06 7.18338115593938e-24)
(-4.71018390154747e-09 -6.06355655382609e-06 2.2692001425036e-24)
(1.46194052351706e-08 -6.06321689138881e-06 7.98588190287215e-24)
(3.02063202266001e-08 -6.06302273427047e-06 1.87765089626307e-24)
(4.29429598927337e-08 -6.06291245562389e-06 7.94099866530174e-24)
(5.34330533122428e-08 -6.06285136096892e-06 7.78209153728079e-24)
(6.21128396308542e-08 -6.06282184968182e-06 1.9402168736671e-24)
(6.93046359330081e-08 -6.06281368394094e-06 6.66068702633523e-24)
(7.52585004895237e-08 -6.06282388844813e-06 9.52790675855015e-25)
(8.01828104265605e-08 -6.06284409530918e-06 1.35330353454588e-25)
(8.42545709435824e-08 -6.06287198437157e-06 6.96725093730631e-24)
(8.7630750893262e-08 -6.06290564873467e-06 8.9445625343327e-25)
(9.04477053858832e-08 -6.06294340749033e-06 2.7293661265952e-25)
(9.28396759523017e-08 -6.06298244311604e-06 7.64707266168477e-24)
(9.49445676141208e-08 -6.06302642321946e-06 4.6075558861675e-25)
(9.68913689532595e-08 -6.06307580433424e-06 1.1578562036593e-24)
(9.88284674954034e-08 -6.06312055821945e-06 6.31562209960493e-24)
(1.00909321941642e-07 -6.0631783235565e-06 -1.68017847831533e-25)
(1.0330752644521e-07 -6.0632353668677e-06 3.73789632631767e-25)
(1.06241666583921e-07 -6.06330867901137e-06 -1.06041579481519e-24)
(1.09961447077948e-07 -6.06339407565496e-06 7.79192235712048e-25)
(1.14788828167188e-07 -6.06350372762653e-06 8.74519504858827e-25)
(1.21175113996516e-07 -6.06365623752089e-06 -3.3391008686433e-26)
(1.29747133435741e-07 -6.06388982490703e-06 6.10200437127932e-24)
(1.41424811223677e-07 -6.0642708468552e-06 -7.29289903502426e-24)
(1.57622894388041e-07 -6.06495058834939e-06 -8.68336308933893e-25)
(1.80657326767757e-07 -6.06621774981932e-06 7.77696489504048e-27)
(2.143759605269e-07 -6.06864433366262e-06 -4.20097305739258e-24)
(2.6534126606607e-07 -6.07324859133148e-06 -8.53724661171539e-24)
(3.45488880615118e-07 -6.08179087772444e-06 -8.2957655630846e-24)
(4.73883730136673e-07 -6.09660014702183e-06 -4.43112834885601e-24)
(6.86061933856705e-07 -6.12097784759181e-06 -8.59969363262519e-24)
(1.03804993023736e-06 -6.15711602231021e-06 -8.6195420724688e-24)
(1.59143762944642e-06 -6.20059216003175e-06 -5.11120437909035e-24)
(2.45413192379572e-06 -6.23207768375197e-06 -9.03828238776409e-24)
(3.32577046643776e-06 -6.14777628918214e-06 -8.46211187764416e-24)
(3.81543604139577e-06 -5.81984106831054e-06 -4.31493768161903e-24)
(1.61623932323152e-06 -4.47621455820318e-06 -6.5799644187572e-24)
(-1.5563196952417e-06 -5.87510965388463e-06 7.91675285879696e-25)
(-5.97062400852276e-06 -8.57247335982725e-06 1.19363629664098e-24)
(-5.52925363988247e-06 -9.93607994424087e-06 1.31626893087527e-24)
(-4.30608607740759e-06 -1.01955257443868e-05 1.09318440371047e-24)
(-2.92114877926379e-06 -9.9991154477213e-06 1.50955440985526e-24)
(-1.96705207263332e-06 -9.73962067047713e-06 -2.31450873327828e-24)
(-1.32528462879701e-06 -9.54405457512222e-06 4.26753934247612e-26)
(-9.1192481034409e-07 -9.41699075829423e-06 -7.47141953897883e-26)
(-6.41393525715962e-07 -9.3408219973974e-06 -2.64030315859287e-24)
(-4.56135418419049e-07 -9.29641797978031e-06 1.3704715312533e-24)
(-3.2423838833555e-07 -9.27080388243253e-06 5.86310257762766e-24)
(-2.25871293233203e-07 -9.25576285103371e-06 6.20325302757133e-24)
(-1.49725995921559e-07 -9.24656185363923e-06 2.00881637403515e-24)
(-8.90728882279905e-08 -9.2406326800797e-06 3.6796705803601e-24)
(-3.9653948271137e-08 -9.23657031354494e-06 2.06239838589288e-24)
(1.24566067235848e-09 -9.23364098754913e-06 2.01162582599132e-24)
(3.54736887495405e-08 -9.23144148831563e-06 5.27425250159972e-24)
(6.43501791949608e-08 -9.2297498851665e-06 3.03273395016361e-24)
(8.88536513394951e-08 -9.22842266039326e-06 1.84488035981368e-24)
(1.09741864601794e-07 -9.22737761702253e-06 1.29555959103081e-24)
(1.27628732061166e-07 -9.22656165877174e-06 5.69597802088002e-25)
(1.430297694928e-07 -9.22592804858433e-06 -2.33176441981578e-24)
(1.56388849544295e-07 -9.22545980977796e-06 3.87651332665471e-24)
(1.68109603967489e-07 -9.22511620549847e-06 8.49100484726743e-25)
(1.78555572204027e-07 -9.22490926880353e-06 -1.67758987259649e-24)
(1.88075765440764e-07 -9.22482434218501e-06 4.10383737787206e-24)
(1.97026671662212e-07 -9.22485700010955e-06 -1.3386079533701e-24)
(2.05763566107038e-07 -9.22501655487621e-06 3.20999006785947e-24)
(2.14656211278165e-07 -9.22530320801948e-06 3.13567234407623e-24)
(2.24109042022082e-07 -9.22574386883352e-06 -2.62845382067804e-24)
(2.34569997094436e-07 -9.22634914968761e-06 1.84286072426452e-24)
(2.46569146898827e-07 -9.22716834306843e-06 -3.53633514537313e-24)
(2.60730595186991e-07 -9.22824380332757e-06 3.455459325266e-24)
(2.77814569961788e-07 -9.22967016953377e-06 3.603492983787e-24)
(2.98836017211329e-07 -9.23158551331669e-06 -2.3405724505096e-24)
(3.25153807929862e-07 -9.23424127374339e-06 2.63081779331215e-24)
(3.5866415187929e-07 -9.23803121619982e-06 -4.00625203835117e-24)
(4.02137380813833e-07 -9.24372222068484e-06 -6.60800481944014e-25)
(4.59875798367023e-07 -9.25271528811459e-06 1.3313873454983e-24)
(5.38709016804494e-07 -9.26763142673509e-06 -1.0312210079384e-23)
(6.4997092085896e-07 -9.29316401585968e-06 -7.53444965634566e-24)
(8.13714639733433e-07 -9.33745775265757e-06 -6.96037521544147e-24)
(1.06161508540385e-06 -9.41338783452235e-06 -1.05442750196987e-23)
(1.45203523867997e-06 -9.54023272029753e-06 -7.19210876934906e-24)
(2.07074722205911e-06 -9.73644091472875e-06 -7.47678983729899e-24)
(3.00738315317193e-06 -1.00005031812952e-05 -1.21869330338677e-23)
(4.38993380039258e-06 -1.02081142433231e-05 -7.68060493620357e-24)
(5.64721244980983e-06 -9.95014860780419e-06 -7.2435105395056e-24)
(6.10907632222004e-06 -8.54132193633655e-06 -1.02441188740128e-23)
(1.60958857387719e-06 -5.80595267707783e-06 -4.57309526283411e-24)
(-2.63636809433742e-07 -9.92532485011198e-08 1.98217007492934e-25)
(-4.86094456950569e-06 -2.21955179363519e-06 -5.83313448271157e-24)
(-4.84567100112144e-06 -4.53859569372162e-06 6.96850178270781e-25)
(-4.10145406833911e-06 -5.00814168961466e-06 4.15581790694166e-25)
(-3.00770372546261e-06 -4.71003540973162e-06 -5.11932415602017e-24)
(-2.18681193241938e-06 -4.28512058884423e-06 -7.24249737611756e-24)
(-1.58956169985621e-06 -3.96432570235185e-06 -3.65863632524707e-25)
(-1.17444324843556e-06 -3.75571105227071e-06 -4.14776193403755e-25)
(-8.82836487826886e-07 -3.62909708258133e-06 -6.45741746184204e-24)
(-6.69513998476556e-07 -3.55302393267102e-06 -6.37840073112127e-24)
(-5.08793473720809e-07 -3.5067523411447e-06 1.0190143515358e-23)
(-3.83458944238967e-07 -3.47763200954108e-06 3.47692329349165e-24)
(-2.83085318561989e-07 -3.458459011315e-06 -4.82821595257877e-24)
(-2.01051086243673e-07 -3.44520436789259e-06 6.32756545932398e-24)
(-1.32875916528767e-07 -3.43560284105469e-06 -5.02053708636334e-24)
(-7.55216863605481e-08 -3.42838924876609e-06 1.095741930982e-24)
(-2.68016591059382e-08 -3.42279624642339e-06 2.23069693271349e-24)
(1.49101881910935e-08 -3.41838289777786e-06 -2.96560147599076e-24)
(5.08572510543993e-08 -3.41486288452853e-06 5.30536930299825e-25)
(8.20270726053876e-08 -3.41203028657826e-06 -5.58599539813501e-24)
(1.09241218999928e-07 -3.40977937152427e-06 -5.00794855433347e-25)
(1.33190304587318e-07 -3.40800401478073e-06 -7.79230094320941e-24)
(1.54489355883684e-07 -3.40664701180907e-06 1.20382867023523e-24)
(1.73689585365688e-07 -3.40565999934188e-06 3.38048316880301e-25)
(1.91293269425492e-07 -3.40502226463861e-06 -5.6581421933611e-24)
(2.07802112625123e-07 -3.40472085977248e-06 8.25909176492822e-25)
(2.23705371270134e-07 -3.40474887447443e-06 -6.30403603979588e-24)
(2.39494330735669e-07 -3.40511511070912e-06 7.66202530033929e-24)
(2.55690058218128e-07 -3.40584803210834e-06 1.08080847241912e-24)
(2.72852844389011e-07 -3.4069722099417e-06 -6.76950776777364e-24)
(2.91598435216496e-07 -3.40856203843458e-06 6.06024156136874e-24)
(3.12642014544825e-07 -3.41069658426117e-06 -7.21708447278176e-24)
(3.3681480311778e-07 -3.41349222977601e-06 7.72269941450029e-24)
(3.65125238054625e-07 -3.41714683439001e-06 7.79939731092803e-24)
(3.98854466561363e-07 -3.42196698023728e-06 -7.4480726245298e-24)
(4.39669554575152e-07 -3.42840448056452e-06 -7.20742649599154e-27)
(4.89811867268532e-07 -3.43722707921916e-06 -1.34606467316039e-24)
(5.52370771939137e-07 -3.44972480582005e-06 9.09190261971504e-26)
(6.31866281858381e-07 -3.46818579335187e-06 4.5857578343765e-24)
(7.35013327548251e-07 -3.49670073422029e-06 -1.06209389882283e-23)
(8.72251130680762e-07 -3.54251233017538e-06 -4.9065678048485e-24)
(1.06106589767649e-06 -3.61830261017471e-06 -4.25215153044093e-24)
(1.32694281672098e-06 -3.74491013868326e-06 -1.28426787090802e-23)
(1.71614801954616e-06 -3.95423417664713e-06 -4.37602121647601e-24)
(2.28743544440052e-06 -4.27798292436483e-06 -4.73889842721523e-24)
(3.0882459760801e-06 -4.71297409516241e-06 -1.40432685436349e-23)
(4.17734903850773e-06 -5.03287005714949e-06 -4.73807257019185e-24)
(4.9558981538219e-06 -4.56974566588185e-06 -4.63575205462464e-24)
(5.01489259265373e-06 -2.18273211366372e-06 -1.38249431980089e-23)
(3.3964164475949e-07 1.77305664888859e-08 -2.67744867272595e-24)
(2.41697967752772e-07 4.68018428589504e-06 4.89477121064519e-25)
(-2.7145882971946e-06 3.48603169222731e-06 -4.36377237126365e-24)
(-3.0980204911531e-06 1.69696439911985e-07 9.86437028413544e-25)
(-3.01182818717605e-06 -7.37565797598539e-07 4.23067983341011e-25)
(-2.48460284652826e-06 -5.76986810112669e-07 -1.98253848658314e-24)
(-1.99652311508375e-06 -1.54853075859512e-07 -2.56779699310411e-24)
(-1.57855015826673e-06 1.95269779764853e-07 2.01401299913948e-25)
(-1.24777353684881e-06 4.36389003467644e-07 1.84045260888985e-25)
(-9.9109487088045e-07 5.90621904556447e-07 -2.60897920706419e-24)
(-7.88002704114157e-07 6.88562602553582e-07 -3.9820418672336e-24)
(-6.26105112645837e-07 7.51829647269112e-07 4.48569954714155e-24)
(-4.94772716382659e-07 7.94052364173622e-07 9.06562732777463e-25)
(-3.8669438079596e-07 8.23327207922076e-07 -2.96696026032677e-24)
(-2.96647495559817e-07 8.44424618141207e-07 2.36267219720381e-24)
(-2.20742375945357e-07 8.60172244090556e-07 -3.89717577720188e-24)
(-1.56135834203914e-07 8.72277601274218e-07 1.03553655042842e-24)
(-1.00677646118246e-07 8.81793040042527e-07 -7.30376376561287e-25)
(-5.27143014923961e-08 8.89387713498864e-07 -1.94027493791778e-24)
(-1.09291054784369e-08 8.95496547854682e-07 9.60219730231894e-25)
(2.57317561769908e-08 9.00430053168054e-07 -3.759250804735e-24)
(5.8160652864156e-08 9.04385728695118e-07 3.63371757547522e-25)
(8.71280647281054e-08 9.07511824086774e-07 -2.28308194080714e-24)
(1.13301642355232e-07 9.09912572424456e-07 -6.83726640286027e-25)
(1.37305448689015e-07 9.11650098246559e-07 5.88424941190175e-25)
(1.59711565096428e-07 9.12775395500417e-07 -1.74012011117301e-24)
(1.81070379393418e-07 9.13306026125615e-07 -1.30296512823984e-24)
(2.01936455805188e-07 9.13248652405304e-07 -1.61473189264653e-24)
(2.22864105990602e-07 9.12583555446773e-07 2.48819046738386e-24)
(2.44434656638566e-07 9.11278701999505e-07 -9.66435192753973e-25)
(2.67272343303792e-07 9.09267239508407e-07 -2.71997011725131e-24)
(2.92063012968624e-07 9.06448573449167e-07 1.52452706321732e-24)
(3.19594335750127e-07 9.02686274093258e-07 -3.51769726706867e-24)
(3.50773941224721e-07 8.97779067504121e-07 2.95653774217523e-24)
(3.86683181003756e-07 8.91432910653541e-07 3.1294430226311e-24)
(4.28671237561756e-07 8.83181501111536e-07 -2.64990593651335e-24)
(4.7842637884834e-07 8.72364821265529e-07 -1.2625182717053e-24)
(5.38139730022711e-07 8.57906240466601e-07 1.22021502830615e-24)
(6.10691206808176e-07 8.38096768751659e-07 4.0545223479963e-26)
(6.99988454952491e-07 8.10079400684742e-07 2.17935982913369e-24)
(8.11310159912275e-07 7.69029130404802e-07 -4.70108130553657e-24)
(9.519275257022e-07 7.06781398247829e-07 -2.06387483531274e-25)
(1.13269219122947e-06 6.09613969954908e-07 5.37395935979115e-25)
(1.36575419558539e-06 4.55633827350308e-07 -4.38450893435867e-24)
(1.67262071439503e-06 2.1343482884766e-07 -4.56151995731204e-25)
(2.0662256551699e-06 -1.41644101663e-07 -5.79240016891421e-25)
(2.53454510692979e-06 -5.79657178647767e-07 -5.84884976724996e-24)
(3.05432126773154e-06 -7.74051851764596e-07 4.32684706368938e-25)
(3.16478758765195e-06 1.15191107070563e-07 4.45271904049316e-25)
(2.83357086445469e-06 3.51487894960958e-06 -5.11015405998617e-24)
(-1.70665705291149e-07 4.8047916850209e-06 8.60683744069709e-25)
(2.3628515982707e-07 7.26146798814365e-06 1.07773537499618e-24)
(-9.2699117004356e-07 6.55697028950511e-06 1.25362944294137e-24)
(-1.55696862292434e-06 2.57661256863936e-06 1.57078843253028e-24)
(-1.93138183154736e-06 1.21817608128248e-06 5.82411574269515e-25)
(-1.87908407054266e-06 1.14576355053608e-06 1.79484954558995e-25)
(-1.68909124590158e-06 1.47671283241326e-06 2.921858294691e-25)
(-1.44872702311266e-06 1.80409845070936e-06 6.13167212201326e-25)
(-1.2139165571594e-06 2.05051553899122e-06 6.7793068414439e-25)
(-1.0078989224575e-06 2.21919954544059e-06 4.11896795387196e-25)
(-8.30766900558558e-07 2.33271274802624e-06 5.11248878645937e-25)
(-6.8184387359904e-07 2.40994109014167e-06 2.08473188875827e-24)
(-5.56712616478349e-07 2.46377961612432e-06 1.59609249944331e-24)
(-4.51286576342956e-07 2.50244052576819e-06 5.43210428714876e-25)
(-3.62006088479592e-07 2.53105046716784e-06 1.32956860189522e-24)
(-2.8583621513933e-07 2.55282280369644e-06 4.69495228872137e-25)
(-2.20386436548627e-07 2.56978503502892e-06 1.51898497840205e-24)
(-1.63738563647775e-07 2.58323984007125e-06 1.57013439043445e-24)
(-1.14350675593471e-07 2.59403958158497e-06 1.33568739132562e-24)
(-7.09713827369114e-08 2.60277532933517e-06 1.81305861925104e-24)
(-3.25678346246857e-08 2.60982938038803e-06 9.2719828264903e-25)
(1.74002027905657e-09 2.61549440694997e-06 1.30608486870347e-24)
(3.27138464325886e-08 2.61996885518735e-06 5.79558474995727e-25)
(6.10320845507352e-08 2.62338294480176e-06 1.15413388354985e-24)
(8.73234665351941e-08 2.62585065868145e-06 1.06631410091192e-24)
(1.1216829128189e-07 2.62741175259181e-06 6.7453246266933e-25)
(1.36130272740228e-07 2.62810780747895e-06 1.13689732584349e-24)
(1.59765014676297e-07 2.62794270129659e-06 4.66015415745424e-25)
(1.8363746762271e-07 2.62688941292991e-06 4.53388141088607e-25)
(2.08335608192024e-07 2.62489450726986e-06 4.18684115297535e-25)
(2.34489588908368e-07 2.62187774987347e-06 -2.58002283813082e-25)
(2.62793957608919e-07 2.61768880503761e-06 -9.70507611198428e-26)
(2.9402151116133e-07 2.61215132998481e-06 -1.38907307944906e-24)
(3.29071861833128e-07 2.60498376139947e-06 1.65803565282548e-25)
(3.69006069602775e-07 2.59578758520244e-06 3.64253166472629e-25)
(4.15098218213068e-07 2.58397285850664e-06 -2.91674175077965e-25)
(4.68907081180281e-07 2.56867133073925e-06 3.59558284988786e-26)
(5.32381415663474e-07 2.54857392098105e-06 -4.71530201607189e-26)
(6.07934302511499e-07 2.52166097924671e-06 -3.54945459050115e-25)
(6.98591155378951e-07 2.48469073890773e-06 4.21282617717113e-25)
(8.07930681308637e-07 2.43249005909184e-06 -1.00512387508071e-24)
(9.39940137623352e-07 2.35679082134729e-06 -7.83195689945736e-25)
(1.09916735824359e-06 2.24459294342452e-06 -3.98735323837232e-25)
(1.28589738523849e-06 2.0766805259653e-06 -8.41893910741626e-25)
(1.50072231339825e-06 1.82945418055163e-06 -4.01710487476845e-25)
(1.71971435474871e-06 1.4962439205668e-06 -4.15005440141311e-25)
(1.89096009352907e-06 1.14527485938267e-06 -1.4375145143332e-24)
(1.93295429564972e-06 1.17408198592183e-06 -4.31750023789037e-25)
(1.5716612616337e-06 2.50229713665872e-06 -4.06184767528419e-25)
(9.86200281371961e-07 6.57627724812306e-06 -1.30586973225729e-24)
(-1.93122243604781e-07 7.38059451835034e-06 2.1835044310569e-25)
(1.31982194229453e-07 7.93544594855413e-06 1.21975698220524e-24)
(1.00365203857599e-07 7.33948963034141e-06 3.62616235775235e-24)
(-6.22155838656729e-07 3.17115825045816e-06 1.6422223068961e-24)
(-1.18839517179768e-06 1.53004870229604e-06 5.99672824732837e-25)
(-1.40714147208717e-06 1.27081056351552e-06 9.25388887968222e-25)
(-1.40439680090495e-06 1.50502372649878e-06 1.58398409691253e-24)
(-1.29082035080361e-06 1.79691587161527e-06 6.92174736580924e-25)
(-1.13336076047378e-06 2.03721352920387e-06 7.54481419267114e-25)
(-9.74373717683827e-07 2.21226635097712e-06 1.73023801714051e-24)
(-8.25838629974373e-07 2.33599970265909e-06 2.11938045339681e-24)
(-6.94624063210744e-07 2.42375052712766e-06 7.56291342621084e-25)
(-5.80752896320166e-07 2.48704708073212e-06 1.82176898968764e-24)
(-4.82692700839413e-07 2.53374143821445e-06 2.27809367668289e-24)
(-3.98360616682167e-07 2.56901068354937e-06 5.17255119671309e-25)
(-3.25591195929468e-07 2.59625889727453e-06 2.17229976764709e-24)
(-2.62498043825079e-07 2.61770294329187e-06 1.52205360022983e-24)
(-2.07472880694715e-07 2.63483453081965e-06 2.14207636924381e-24)
(-1.59162854243948e-07 2.64865054413585e-06 2.80690980134584e-24)
(-1.16436729410561e-07 2.65984764527717e-06 1.91561349033721e-24)
(-7.83439266175418e-08 2.66890205129659e-06 2.49086714591022e-24)
(-4.40473995693103e-08 2.67616001712735e-06 1.51188465373786e-24)
(-1.2829047529332e-08 2.68186919699332e-06 1.68187097947443e-24)
(1.5962633646025e-08 2.68620825873062e-06 1.6802194593135e-24)
(4.29329401803174e-08 2.68930357419248e-06 1.14358636212591e-24)
(6.86439552891318e-08 2.69121894932957e-06 1.93918489604795e-24)
(9.36436124111141e-08 2.69199999144988e-06 1.84458712029387e-24)
(1.18466971343999e-07 2.69164996119819e-06 1.35369431854375e-24)
(1.43661008333353e-07 2.6901405775882e-06 -3.45803965246003e-25)
(1.69799149783572e-07 2.6873981311633e-06 8.61562044261253e-25)
(1.97482023221213e-07 2.68332170134191e-06 8.0549038707075e-25)
(2.27374004942131e-07 2.67772413097743e-06 -7.9365705985936e-25)
(2.60213462149312e-07 2.67037658443237e-06 -5.97885405203399e-26)
(2.96836106764665e-07 2.66094927309596e-06 -1.11132241976357e-24)
(3.38225374416722e-07 2.64894876177994e-06 -9.67975599468749e-25)
(3.85528282976609e-07 2.63367563139674e-06 7.73130621876587e-25)
(4.40101951226978e-07 2.61411813548524e-06 7.94992291176502e-25)
(5.03582126624372e-07 2.58879592436738e-06 -5.303180140731e-25)
(5.77852406916773e-07 2.55548562631987e-06 -5.37122186406323e-25)
(6.65051810201292e-07 2.51077998236629e-06 -6.30948635645978e-25)
(7.67258840933325e-07 2.44945904031965e-06 9.59692657658266e-25)
(8.85858337929899e-07 2.36361499442302e-06 -7.50888093195817e-25)
(1.02087065540643e-06 2.24164688652026e-06 -6.31746798252724e-25)
(1.16489527647926e-06 2.06789305732495e-06 9.43342734453787e-25)
(1.30632157802432e-06 1.82735805217565e-06 -5.91742863267792e-25)
(1.40162564937915e-06 1.52965808612798e-06 -5.6238088364916e-25)
(1.38707465160056e-06 1.27325405278063e-06 8.88112305614151e-25)
(1.15625602569907e-06 1.48244412107101e-06 -6.73438989459096e-25)
(5.95528640756948e-07 3.08411070467465e-06 -6.22184780747639e-25)
(-9.71076681168806e-08 7.34893397469472e-06 1.53898931352609e-24)
(-1.18850684054957e-07 8.04505767640886e-06 -6.27088156606855e-26)
(9.58669512616006e-08 7.49289411566447e-06 9.52156538495624e-25)
(4.9656203670406e-07 6.88319371209052e-06 3.74337928783454e-24)
(-2.07006123762943e-07 2.85036990541887e-06 1.24523785809693e-24)
(-7.75256392729314e-07 1.08315885931594e-06 4.13642926284941e-25)
(-1.09406526185888e-06 7.05199022413904e-07 5.34852937244869e-25)
(-1.18023009736534e-06 8.60689728512045e-07 1.107903194492e-24)
(-1.14239806784471e-06 1.11779311980918e-06 4.78536197069112e-25)
(-1.03920596590351e-06 1.34725770760177e-06 5.33839654210504e-25)
(-9.17985225557764e-07 1.52357271714495e-06 1.3379478249014e-24)
(-7.95280949359517e-07 1.65337881048345e-06 1.90487282557836e-24)
(-6.81729942252056e-07 1.7486384615654e-06 4.06338504506759e-25)
(-5.80098474928555e-07 1.81929027250044e-06 1.83005163505871e-24)
(-4.90674860999161e-07 1.87259420325801e-06 2.37362453888234e-24)
(-4.12559153287377e-07 1.9135553858715e-06 4.97989563188452e-25)
(-3.44356021312075e-07 1.94560989272056e-06 2.16274986854413e-24)
(-2.84680444304564e-07 1.9710748627103e-06 1.15816808185129e-24)
(-2.32241013671423e-07 1.99153703782041e-06 2.11798172840007e-24)
(-1.85898574617866e-07 2.00810813398408e-06 2.75725952073774e-24)
(-1.44663859960397e-07 2.02156245938503e-06 1.44058724477361e-24)
(-1.07680070900984e-07 2.03244674694827e-06 2.51597880477395e-24)
(-7.41848158939478e-08 2.0411629035273e-06 1.12868125787723e-24)
(-4.35053289600636e-08 2.04799444694035e-06 1.36460355141373e-24)
(-1.50293358222737e-08 2.05316167462837e-06 1.72932809260089e-24)
(1.1810247975609e-08 2.05679250898595e-06 8.48474004773609e-25)
(3.75493274673747e-08 2.05898997073271e-06 1.42705632108543e-24)
(6.27106477882466e-08 2.05979030462606e-06 1.89278712683441e-24)
(8.78020714295739e-08 2.05920565783762e-06 9.72187899408839e-25)
(1.13343295883591e-07 2.05719834200442e-06 -2.40711289400011e-25)
(1.39878122802811e-07 2.05368490136132e-06 1.19377179137843e-24)
(1.67973941070954e-07 2.04853193038718e-06 7.58923732369156e-25)
(1.98253013320833e-07 2.04153916685742e-06 -4.88487670941086e-25)
(2.31401362732496e-07 2.03242736389735e-06 6.08621135278301e-26)
(2.68183565026652e-07 2.02081434567404e-06 -8.39228492276914e-25)
(3.09479158258076e-07 2.00614646759055e-06 -7.35801326288548e-25)
(3.56287040263631e-07 1.98763459077463e-06 7.06624019353672e-25)
(4.09751169730458e-07 1.9641792341829e-06 1.1297017993349e-24)
(4.71173741250937e-07 1.9341902219423e-06 -8.97589784559048e-25)
(5.41932592783984e-07 1.89534653712386e-06 -4.46869870596808e-25)
(6.23391647006598e-07 1.84423523828513e-06 -4.33170304133475e-25)
(7.16415380069343e-07 1.77579214273494e-06 9.2214047695593e-25)
(8.20552664653528e-07 1.68274797414244e-06 -1.03964149661437e-24)
(9.33030191500132e-07 1.55511073407415e-06 -1.01703424555379e-24)
(1.04260259693651e-06 1.3806515290626e-06 8.59563796134349e-25)
(1.13289120201087e-06 1.15169293800659e-06 -8.82492419761781e-25)
(1.15516740526928e-06 8.89226208018609e-07 -9.56456644464083e-25)
(1.05357434304779e-06 7.10330498975308e-07 9.13919497343912e-25)
(7.22538643945505e-07 1.03338431011303e-06 -1.048888624345e-24)
(1.56734959737494e-07 2.75395813236724e-06 -1.05462213244533e-24)
(-5.29364655133633e-07 6.87880999862545e-06 1.55900970313738e-24)
(-1.0212505697214e-07 7.58743682603363e-06 -6.99272691442945e-25)
(1.16479815638641e-07 6.68931327624263e-06 5.44137495599904e-25)
(5.328622883476e-07 6.11321810934476e-06 2.12490369839601e-24)
(-8.77869148895867e-08 2.33474530904008e-06 7.12151851347597e-25)
(-5.71734717946163e-07 5.29119325204965e-07 2.03992386107778e-25)
(-8.93416343444851e-07 7.93517994202432e-08 -5.0057092371112e-26)
(-1.00894351835371e-06 1.72749613594044e-07 6.44386067655104e-25)
(-1.01194717685548e-06 3.97000636274659e-07 2.70461805289543e-25)
(-9.45206502128932e-07 6.12241756138378e-07 3.06946263436123e-25)
(-8.5301168668288e-07 7.85492301556928e-07 8.41174898285428e-25)
(-7.5215869381552e-07 9.17673694736908e-07 1.08867337071369e-24)
(-6.54577769405394e-07 1.01763871401672e-06 1.31822679659489e-25)
(-5.64558360978607e-07 1.09365297125887e-06 8.91485669125815e-25)
(-4.83606746358794e-07 1.1521650625678e-06 1.23644752168492e-24)
(-4.1174597533386e-07 1.19786201130951e-06 2.25823031503803e-25)
(-3.48230903232338e-07 1.23404551405503e-06 1.18207807642617e-24)
(-2.92129097588092e-07 1.26304757250357e-06 6.39853043687126e-25)
(-2.42452915839163e-07 1.28649707700079e-06 1.07776138501633e-24)
(-1.98268962517357e-07 1.30556177928394e-06 1.45113392476829e-24)
(-1.58738788037686e-07 1.32106922955649e-06 8.08016982833107e-25)
(-1.23107619003765e-07 1.33362454122009e-06 1.32398213657329e-24)
(-9.06811342415313e-08 1.34367390614647e-06 6.38648621795885e-25)
(-6.08422130232569e-08 1.35153239319051e-06 8.3241224428771e-25)
(-3.30272573340166e-08 1.35743813294567e-06 8.83210968713425e-25)
(-6.69945688929922e-09 1.36154547193506e-06 4.72198389798521e-25)
(1.86476112781126e-08 1.3639663175096e-06 8.46398091176084e-25)
(4.35029608912198e-08 1.36475012366513e-06 9.74665626885536e-25)
(6.83515509817088e-08 1.36389983397211e-06 5.80420455445415e-25)
(9.36819037241959e-08 1.36138105965688e-06 -1.8538074572679e-25)
(1.20008472350066e-07 1.35709597647516e-06 5.72901173242079e-25)
(1.47862972726317e-07 1.35089197462565e-06 5.03105586059893e-25)
(1.77822529049993e-07 1.34254847824435e-06 -2.95541822819262e-25)
(2.10516821202326e-07 1.33175461238729e-06 1.33228152956191e-25)
(2.46635453971909e-07 1.31807881700937e-06 -5.28602895793913e-25)
(2.86950097824606e-07 1.30092265127506e-06 -4.86687957189875e-25)
(3.32314785124021e-07 1.27944711850966e-06 4.71292661895361e-25)
(3.83661310518886e-07 1.2524970225638e-06 5.49770466219964e-25)
(4.41976222928135e-07 1.2184414629475e-06 -3.99248989880257e-25)
(5.08188212687966e-07 1.17496834235429e-06 -2.48653061745611e-25)
(5.82996837510508e-07 1.11878164524484e-06 -2.36745256885737e-25)
(6.663451223595e-07 1.04516877355369e-06 9.91523744145375e-25)
(7.56560698886843e-07 9.47693462461467e-07 -4.12709214613476e-25)
(8.49317062205787e-07 8.18083319546254e-07 -4.15563976543657e-25)
(9.32092542615405e-07 6.47248336367502e-07 9.0612940000287e-25)
(9.88189821130975e-07 4.33293296980785e-07 -4.07843256888437e-25)
(9.71930295149562e-07 2.04203228968533e-07 -3.77184849403831e-25)
(8.43124225865996e-07 8.64915871700539e-08 9.95331360538996e-25)
(5.10370421313724e-07 4.77025703301848e-07 -5.00267252998022e-25)
(2.88421909105896e-08 2.22961660183894e-06 -4.66601325911929e-25)
(-5.8110079319038e-07 6.09030223478647e-06 1.91152068755741e-24)
(-1.30782065793566e-07 6.76180340567157e-06 -1.99010258208495e-25)
(1.41258866932633e-07 5.95193370953038e-06 2.97490702250127e-25)
(4.25539467345781e-07 5.48731888841205e-06 1.54805174631566e-24)
(-8.7619433868772e-08 1.94771457509528e-06 3.87819398730015e-25)
(-4.70770289122655e-07 1.3606893757339e-07 1.38459495401119e-25)
(-7.56236734023258e-07 -3.61490527238587e-07 3.07053706799125e-25)
(-8.7342616253073e-07 -3.18979762722858e-07 6.68713496801623e-25)
(-8.97401689132913e-07 -1.26168172084484e-07 1.67831925918598e-25)
(-8.55425836345135e-07 7.23418462681355e-08 1.82046679022522e-25)
(-7.85570101520296e-07 2.39102383131681e-07 7.20453003361198e-25)
(-7.02972915686815e-07 3.70576133871316e-07 6.97919761095195e-25)
(-6.19459866275e-07 4.72817104335692e-07 -2.22473844155107e-25)
(-5.40067978761502e-07 5.52418801516211e-07 3.5852054535538e-25)
(-4.67084128335261e-07 6.14870852057244e-07 8.54971472784621e-25)
(-4.01222563067965e-07 6.64397489076298e-07 -1.78514613029754e-25)
(-3.42276471361351e-07 7.04077463667252e-07 8.24002067097593e-25)
(-2.89698814157694e-07 7.3615849092009e-07 3.19813543248347e-25)
(-2.4278457614212e-07 7.62265831215357e-07 4.85686960348131e-25)
(-2.00800629573394e-07 7.83581647098772e-07 9.78557517952483e-25)
(-1.63044240002703e-07 8.00961845795232e-07 4.33883218148972e-25)
(-1.28855248814631e-07 8.15049364363081e-07 9.36841413368429e-25)
(-9.76230882314967e-08 8.26320630813937e-07 3.54240914001738e-25)
(-6.87851845529302e-08 8.35116404089416e-07 5.60686666603389e-25)
(-4.18158487190588e-08 8.41694484037103e-07 4.01178013127667e-25)
(-1.62175933041507e-08 8.46232794632321e-07 2.44939001699913e-25)
(8.4859818155529e-09 8.48843335238739e-07 7.13716687595527e-25)
(3.27541852831777e-08 8.49587408892444e-07 4.64055376665894e-25)
(5.70450235233565e-08 8.48467469890819e-07 5.14382494813741e-25)
(8.18211105538762e-08 8.45438550334327e-07 -4.01384130182189e-25)
(1.07560325151886e-07 8.40405375671394e-07 2.22424430178612e-25)
(1.3476209487252e-07 8.33192198358128e-07 4.36583147284155e-25)
(1.63959089363926e-07 8.23564101123898e-07 -4.16275224237737e-25)
(1.95720956102593e-07 8.1118178352984e-07 3.5891210773253e-25)
(2.30664700234017e-07 7.95586749683572e-07 -5.58658345326303e-25)
(2.69461069682048e-07 7.76143284211438e-07 -4.65877331663084e-25)
(3.12819679217496e-07 7.51996804123581e-07 4.41625739295937e-25)
(3.61476172892722e-07 7.21965260062264e-07 2.45831371932472e-25)
(4.16132773237133e-07 6.84438660072096e-07 -1.43589803939685e-25)
(4.77325131840199e-07 6.37196449703901e-07 -1.32502944693246e-25)
(5.45221607906431e-07 5.77166634154463e-07 -3.68919320491286e-25)
(6.19072425902633e-07 5.00140193640954e-07 7.266978201183e-25)
(6.96433253365959e-07 4.00628373830143e-07 -1.03116299856061e-25)
(7.72226183596633e-07 2.72101639483578e-07 -1.04010388252517e-25)
(8.34104516349809e-07 1.08296608895103e-07 6.8128481028114e-25)
(8.67045794182572e-07 -8.82299903627275e-08 -1.02799148443421e-25)
(8.31764823752394e-07 -2.85460052386492e-07 -9.05149400568635e-26)
(7.0348201734637e-07 -3.53130901077679e-07 8.29183642520075e-25)