/*--------------------------------*- C++ -*----------------------------------*\
  =========                 |
  \\      /  F ield         | OpenFOAM: The Open Source CFD Toolbox
   \\    /   O peration     | Website:  https://openfoam.org
    \\  /    A nd           | Version:  10
     \\/     M anipulation  |
\*---------------------------------------------------------------------------*/
FoamFile
{
    format      ascii;
    class       volScalarField;
    location    "5";
    object      wallHeatFlux;
}
// * * * * * * * * * * * * * * * * * * * * * * * * * * * * * * * * * * * * * //

dimensions      [1 0 -3 0 0 0 0];

internalField   uniform 0;

boundaryField
{
    back
    {
        type            calculated;
        value           uniform 0;
    }
    bottom
    {
        type            calculated;
        value           nonuniform List<scalar> 
50
(
120.586050701188
123.743937942564
128.109192636593
130.780441026196
132.176938030467
132.867908580637
133.197478109151
133.347788066293
133.412817029528
133.439583547612
133.44980265426
133.453540593258
133.454838538582
133.455196823706
133.455277448425
133.455226646313
133.455227400012
133.455187585701
133.455131943253
133.455111395646
133.455094624084
133.455085785385
133.455079324285
133.455081097508
133.455072738603
133.455067237963
133.455071853852
133.455076186119
133.455087497421
133.455099056292
133.455115441148
133.455150531342
133.455162932805
133.455173393928
133.45519091222
133.455182258789
133.4550611782
133.454541241057
133.453084262315
133.448840364547
133.437571961332
133.409256861276
133.341824396067
133.18907690281
132.859419624127
132.172564094024
130.783274037522
128.104026459561
123.690505442848
120.617541798514
)
;
    }
    left
    {
        type            calculated;
        value           uniform 0;
    }
    front
    {
        type            calculated;
        value           uniform 0;
    }
    right
    {
        type            calculated;
        value           uniform 0;
    }
    top
    {
        type            calculated;
        value           uniform 0;
    }
}


// ************************************************************************* //
