/*--------------------------------*- C++ -*----------------------------------*\
  =========                 |
  \\      /  F ield         | OpenFOAM: The Open Source CFD Toolbox
   \\    /   O peration     | Website:  https://openfoam.org
    \\  /    A nd           | Version:  10
     \\/     M anipulation  |
\*---------------------------------------------------------------------------*/
FoamFile
{
    format      ascii;
    class       volScalarField;
    location    "2";
    object      alphat;
}
// * * * * * * * * * * * * * * * * * * * * * * * * * * * * * * * * * * * * * //

dimensions      [1 -1 -1 0 0 0 0];

internalField   nonuniform List<scalar> 
2500
(
8.6871183548823e-14
1.05075545678602e-12
3.82643183954321e-12
5.61233187933044e-12
6.45282674955629e-12
6.77301942939114e-12
6.87644594647604e-12
6.90569148423327e-12
6.91310401829749e-12
6.91481721046381e-12
6.91518126063896e-12
6.91525045193217e-12
6.91525905052074e-12
6.91525683508249e-12
6.91525358726585e-12
6.91525047265615e-12
6.91524772920464e-12
6.91524536827442e-12
6.91524330370702e-12
6.9152414532758e-12
6.91523979583853e-12
6.91523831421206e-12
6.91523699379377e-12
6.91523581095532e-12
6.9152347860537e-12
6.91523392536302e-12
6.91523320743312e-12
6.91523265692114e-12
6.91523230385106e-12
6.91523218825639e-12
6.91523229087133e-12
6.9152326038766e-12
6.91523309640898e-12
6.91523369968466e-12
6.91523458315483e-12
6.91523563780348e-12
6.91523638356334e-12
6.91523310726803e-12
6.91520646938818e-12
6.91507146095914e-12
6.91447046742697e-12
6.91197942086123e-12
6.90234732080105e-12
6.86794732223217e-12
6.75611574541703e-12
6.43166105413464e-12
5.61402701399766e-12
3.89345373428271e-12
1.11215197870251e-12
9.59544181839286e-14
5.64592864774946e-12
2.5011832493308e-10
9.70163687867218e-10
1.4467094243555e-09
1.67941847066829e-09
1.77122333084008e-09
1.80181739666687e-09
1.81070821645308e-09
1.81301608602917e-09
1.81356080877575e-09
1.81367889454397e-09
1.81370203108794e-09
1.81370531386236e-09
1.8137048577601e-09
1.81370403441243e-09
1.81370322091968e-09
1.8137024994462e-09
1.81370187185716e-09
1.81370131977211e-09
1.81370082710252e-09
1.81370038720807e-09
1.81369999519099e-09
1.81369964646387e-09
1.81369933215948e-09
1.81369905843257e-09
1.81369882943631e-09
1.81369863694352e-09
1.81369848914427e-09
1.81369839537055e-09
1.81369835931173e-09
1.81369838054618e-09
1.81369845567603e-09
1.81369857623884e-09
1.81369873223643e-09
1.81369895707394e-09
1.81369922037536e-09
1.81369935529889e-09
1.81369810528482e-09
1.81368923312153e-09
1.81364590055225e-09
1.8134562866533e-09
1.81268231432433e-09
1.80974054927483e-09
1.79943887611904e-09
1.76670029945012e-09
1.67417883972496e-09
1.44796251718477e-09
9.87662904740794e-10
2.64789378627927e-10
6.38541009502466e-12
1.8139024982346e-11
4.2610078253017e-09
1.28905714334096e-06
1.91681218238881e-06
2.22616031572386e-06
2.35087661119797e-06
2.39350694290336e-06
2.40621482258885e-06
2.40959422835912e-06
2.41041019449308e-06
2.41059108366422e-06
2.41062762260327e-06
2.41063343552206e-06
2.41063318339706e-06
2.41063225048003e-06
2.41063128469067e-06
2.41063041877065e-06
2.41062966034367e-06
2.41062899113212e-06
2.41062839301431e-06
2.41062785733839e-06
2.41062737760645e-06
2.4106269497021e-06
2.41062656749713e-06
2.41062623200916e-06
2.41062594669178e-06
2.41062570981497e-06
2.41062552396449e-06
2.41062540009058e-06
2.41062534860556e-06
2.41062535980165e-06
2.41062543440172e-06
2.41062556694324e-06
2.4106257467118e-06
2.41062599895401e-06
2.41062628277338e-06
2.41062633265338e-06
2.41062421797292e-06
2.41061081033531e-06
2.41054715554339e-06
2.41027182762096e-06
2.40916002513251e-06
2.4049850464776e-06
2.39056692104063e-06
2.34546525051789e-06
2.22015263432902e-06
1.9185126298293e-06
1.30923566383748e-06
4.47289803358321e-09
1.99646078639211e-11
3.02242820728113e-11
7.25614903446759e-09
2.1741465172232e-06
3.20002439803146e-06
3.70263833242587e-06
3.90610330098166e-06
3.9762888351521e-06
3.99745470787649e-06
4.00315609472521e-06
4.00455158188268e-06
4.00486551849727e-06
4.00493022185648e-06
4.00494114847861e-06
4.00494126765175e-06
4.00493999667105e-06
4.00493861126304e-06
4.00493735321127e-06
4.00493624493114e-06
4.00493526386822e-06
4.00493438436423e-06
4.0049335922143e-06
4.00493287953807e-06
4.00493224146103e-06
4.00493167169411e-06
4.00493116932029e-06
4.00493073736943e-06
4.00493037618514e-06
4.00493008746202e-06
4.00492988581761e-06
4.00492978829819e-06
4.0049297772354e-06
4.00492985557786e-06
4.00493001832465e-06
4.00493025596752e-06
4.00493058534078e-06
4.00493095002155e-06
4.0049309333528e-06
4.00492744167334e-06
4.00490620306369e-06
4.00480543582382e-06
4.00436705151383e-06
4.00258546077534e-06
3.99585588791937e-06
3.97249978899397e-06
3.89915418893268e-06
3.69473653708088e-06
3.200916061022e-06
2.19645964252701e-06
7.49796138845232e-09
3.22865656297532e-11
4.00652239138815e-11
9.72384837669016e-09
2.88866716494495e-06
4.22220710160545e-06
4.87387651364578e-06
5.13879274071583e-06
5.23090173383173e-06
5.25895843419566e-06
5.2666018276921e-06
5.26849570954572e-06
5.26892755067496e-06
5.26901820095331e-06
5.26903431846959e-06
5.26903524886994e-06
5.26903395026027e-06
5.26903241317272e-06
5.26903099322907e-06
5.26902973218289e-06
5.2690286088938e-06
5.26902759715302e-06
5.26902668115005e-06
5.2690258520126e-06
5.26902510512139e-06
5.26902443511205e-06
5.26902384127121e-06
5.26902332476914e-06
5.26902288636819e-06
5.26902252854533e-06
5.26902226450869e-06
5.26902211855435e-06
5.26902206636166e-06
5.26902209771071e-06
5.26902223763523e-06
5.26902246558158e-06
5.26902278384646e-06
5.2690231188699e-06
5.26902292734945e-06
5.26901829282031e-06
5.26899137137684e-06
5.2688639010309e-06
5.2683065173449e-06
5.26602787859659e-06
5.25737306200333e-06
5.22719232731157e-06
5.13206355358851e-06
4.86621926145073e-06
4.22249139659582e-06
2.90817722841537e-06
9.94424924628288e-09
4.2021382345042e-11
4.73549273859427e-11
1.15939425656645e-08
3.42849267217976e-06
4.98935788878503e-06
5.75173945460575e-06
6.06297542917002e-06
6.17194513382182e-06
6.20542632713233e-06
6.21463755839111e-06
6.21694465627078e-06
6.2174770751655e-06
6.21759064188057e-06
6.21761174973792e-06
6.21761375994471e-06
6.21761263674243e-06
6.21761114292902e-06
6.21760972889494e-06
6.21760845871164e-06
6.21760731774067e-06
6.21760628315133e-06
6.21760534045345e-06
6.21760448120567e-06
6.21760370105264e-06
6.21760299632479e-06
6.21760236677727e-06
6.21760181210096e-06
6.21760133334029e-06
6.21760093279852e-06
6.21760062037527e-06
6.21760041775815e-06
6.21760030613775e-06
6.21760028926208e-06
6.21760036361047e-06
6.21760053500042e-06
6.2176007832773e-06
6.21760101712525e-06
6.21760056634703e-06
6.21759496482212e-06
6.21756398208832e-06
6.21741772056035e-06
6.21677571679086e-06
6.21413884201758e-06
6.20407921333482e-06
6.16886860554542e-06
6.05757424361874e-06
5.74598846323153e-06
4.99058230318889e-06
3.44542345005467e-06
1.17862260948639e-08
4.91503657967355e-11
5.2379937799405e-11
1.29161137330596e-08
3.81325446698629e-06
5.53521098929833e-06
6.3768530426326e-06
6.72181046222128e-06
6.84331086936271e-06
6.88091730741514e-06
6.89135039921683e-06
6.89398785933555e-06
6.8946029026379e-06
6.89473587694034e-06
6.89476154181126e-06
6.8947647610102e-06
6.89476386493977e-06
6.89476252623907e-06
6.89476121861224e-06
6.89476002644164e-06
6.89475894405408e-06
6.89475795401672e-06
6.89475704477894e-06
6.89475620924501e-06
6.89475544417153e-06
6.89475474704348e-06
6.89475411779879e-06
6.89475355592473e-06
6.89475306242835e-06
6.89475263901767e-06
6.89475229245582e-06
6.8947520355942e-06
6.89475187092666e-06
6.89475178636313e-06
6.89475178828342e-06
6.89475188017608e-06
6.8947520281519e-06
6.89475213889646e-06
6.89475138754219e-06
6.89474498251669e-06
6.89471119378541e-06
6.89455212124753e-06
6.89385196399691e-06
6.8909660664793e-06
6.87991953662117e-06
6.84114602970965e-06
6.71834098892826e-06
6.37412641606171e-06
5.53915256251204e-06
3.82984268650096e-06
1.30924202953256e-08
5.40718222577047e-11
5.56406559075145e-11
1.37961635884943e-08
4.07331668201901e-06
5.90485664801186e-06
6.80116916140423e-06
7.16981703715669e-06
7.30030893334402e-06
7.34094411603407e-06
7.35229610810651e-06
7.35518826210692e-06
7.35586868966164e-06
7.35601744920628e-06
7.35604700559501e-06
7.35605131069175e-06
7.35605078209592e-06
7.35604964805388e-06
7.35604849162836e-06
7.35604741761718e-06
7.35604643002728e-06
7.35604551730013e-06
7.35604467134735e-06
7.35604388692688e-06
7.35604316208986e-06
7.35604249520789e-06
7.35604188649442e-06
7.35604133555835e-06
7.35604084344475e-06
7.35604041119502e-06
7.3560400431155e-06
7.35603974613799e-06
7.35603952645297e-06
7.3560393753978e-06
7.3560393080462e-06
7.35603931454951e-06
7.35603936299149e-06
7.35603932769568e-06
7.35603826398763e-06
7.35603128322217e-06
7.35599562457518e-06
7.35582812060136e-06
7.35508949549225e-06
7.35203725319993e-06
7.34032535545609e-06
7.29913263030692e-06
7.16847862171089e-06
6.80198999339894e-06
5.9127840494045e-06
4.09184460132671e-06
1.39714161799136e-08
5.73026242381377e-11
5.76481919488129e-11
1.43514871233859e-08
4.24071890281424e-06
6.14387708913921e-06
7.07651835858268e-06
7.46122093272929e-06
7.59793975226084e-06
7.64072121540373e-06
7.65274004735774e-06
7.6558215868368e-06
7.65655187623374e-06
7.65671300797485e-06
7.65674570502624e-06
7.65675095907493e-06
7.65675079627513e-06
7.65674987075868e-06
7.6567488714993e-06
7.65674792314243e-06
7.65674703856402e-06
7.65674621167991e-06
7.65674543770743e-06
7.65674471326764e-06
7.65674403760564e-06
7.65674340984384e-06
7.65674283056177e-06
7.65674229957664e-06
7.65674181793007e-06
7.6567413862088e-06
7.65674100712697e-06
7.65674068427768e-06
7.65674042185144e-06
7.65674022032997e-06
7.65674008488018e-06
7.65674001008563e-06
7.656739956357e-06
7.65673977624533e-06
7.65673847214689e-06
7.65673111893346e-06
7.65669423476695e-06
7.65652138310679e-06
7.65575830966427e-06
7.65259945853259e-06
7.64045760218843e-06
7.59769170764377e-06
7.46191463889295e-06
7.0808728363111e-06
6.15627588066615e-06
4.26261112808514e-06
1.45360657824083e-08
5.93317782599486e-11
5.88282748294769e-11
1.46856540209591e-08
4.34375535120853e-06
6.29194234804446e-06
7.24785613525175e-06
7.64305836604945e-06
7.78394069943815e-06
7.82819075836016e-06
7.84067679815084e-06
7.84389425187505e-06
7.84466121510433e-06
7.84483169663306e-06
7.84486681995403e-06
7.84487283225866e-06
7.84487299565507e-06
7.84487225607095e-06
7.84487139755964e-06
7.84487056318054e-06
7.84486977329488e-06
7.84486902635481e-06
7.84486832034275e-06
7.84486765350845e-06
7.84486702609331e-06
7.84486643782688e-06
7.84486588964027e-06
7.84486538154358e-06
7.84486491459352e-06
7.84486448909713e-06
7.8448641068551e-06
7.84486376966465e-06
7.84486348043089e-06
7.84486324080196e-06
7.84486305287833e-06
7.84486291047349e-06
7.84486277869782e-06
7.84486248145025e-06
7.8448610233017e-06
7.84485340622193e-06
7.8448157472037e-06
7.84463962897184e-06
7.84386163031035e-06
7.8406372250152e-06
7.82822899368811e-06
7.78448279488678e-06
7.64550201080221e-06
7.2553476896723e-06
6.30860024375894e-06
4.36944600731578e-06
1.48840370622451e-08
6.05570131961661e-11
5.94941093638077e-11
1.48784084741152e-08
4.40463317224774e-06
6.38010760523243e-06
7.35041338695987e-06
7.75224971802959e-06
7.89582260970782e-06
7.94104397665098e-06
7.95384638783215e-06
7.95715808849875e-06
7.95795110032194e-06
7.95812839383338e-06
7.95816531542772e-06
7.95817191161046e-06
7.95817234034579e-06
7.95817175164153e-06
7.95817100810893e-06
7.95817026791089e-06
7.95816955723327e-06
7.95816887796657e-06
7.95816823020643e-06
7.95816761346737e-06
7.95816702875483e-06
7.95816647626957e-06
7.95816595722521e-06
7.95816547178364e-06
7.95816502102077e-06
7.95816460508131e-06
7.95816422525349e-06
7.95816388234469e-06
7.95816357830391e-06
7.95816331426253e-06
7.95816309113988e-06
7.95816290266778e-06
7.95816271439293e-06
7.9581623395076e-06
7.95816077577783e-06
7.95815298394158e-06
7.95811485239309e-06
7.9579368124361e-06
7.95715005428784e-06
7.95388692842622e-06
7.94132024921377e-06
7.89698768837849e-06
7.75608368593035e-06
7.3604493214137e-06
6.40037403860815e-06
4.43383006996942e-06
1.50906525881197e-08
6.12712093233645e-11
5.98563613169515e-11
1.49854735989576e-08
4.43928946126386e-06
6.43073815539183e-06
7.40965152964626e-06
7.81554416623668e-06
7.96080005180004e-06
8.00664327832104e-06
8.01965304782305e-06
8.0230279902797e-06
8.02383889823189e-06
8.02402098649505e-06
8.02405919846868e-06
8.02406622599956e-06
8.024066855535e-06
8.02406638013542e-06
8.02406572493107e-06
8.02406505808103e-06
8.02406440993351e-06
8.024063784798e-06
8.02406318426745e-06
8.02406260876256e-06
8.02406205983045e-06
8.02406153801651e-06
8.02406104473336e-06
8.02406058025749e-06
8.02406014567508e-06
8.02405974103857e-06
8.02405936734717e-06
8.02405902485965e-06
8.02405871487301e-06
8.0240584378684e-06
8.02405819412235e-06
8.02405797729923e-06
8.02405775261308e-06
8.0240573286804e-06
8.02405569741878e-06
8.02404779632991e-06
8.02400938757682e-06
8.02383025816379e-06
8.02303855005728e-06
8.01975341239513e-06
8.00709604504636e-06
7.96242602081681e-06
7.82041088098559e-06
7.42160280706153e-06
6.45379661875087e-06
4.47133229340059e-06
1.52093082436986e-08
6.16745417773549e-11
6.00471504562519e-11
1.50429679779759e-08
4.45836446028095e-06
6.45886894155421e-06
7.44277165593391e-06
7.85106898390561e-06
7.99734574304559e-06
8.04357504523836e-06
8.05671658987471e-06
8.06013266888218e-06
8.06095549137354e-06
8.06114084869738e-06
8.06117995874346e-06
8.06118729632636e-06
8.06118807254953e-06
8.06118767472774e-06
8.06118708503987e-06
8.06118647368833e-06
8.0611858736756e-06
8.06118529089766e-06
8.06118472794295e-06
8.06118418584009e-06
8.06118366649397e-06
8.06118317067831e-06
8.06118269993799e-06
8.06118225462256e-06
8.06118183582626e-06
8.0611814435452e-06
8.06118107861059e-06
8.06118074097827e-06
8.06118043153188e-06
8.06118015027532e-06
8.0611798970711e-06
8.06117966545957e-06
8.06117942030773e-06
8.06117896815365e-06
8.06117729729447e-06
8.06116933246854e-06
8.06113076822532e-06
8.0609510437035e-06
8.06015663755305e-06
8.05685942883162e-06
8.0441519884737e-06
7.99929457756321e-06
7.85665982425022e-06
7.4560764736935e-06
6.48393443764821e-06
4.49251095416706e-06
1.52754323911093e-08
6.18959036706363e-11
6.01447503922555e-11
1.50729205183429e-08
4.4685474417311e-06
6.4740356433444e-06
7.46074747737755e-06
7.87042986278319e-06
8.01730830437573e-06
8.06377048260503e-06
8.0769933744997e-06
8.08043543993606e-06
8.08126596404893e-06
8.08145348486307e-06
8.08149320069491e-06
8.08150076567536e-06
8.08150165436142e-06
8.08150129474544e-06
8.08150075276005e-06
8.08150018323401e-06
8.08149962027735e-06
8.08149907074105e-06
8.08149853784814e-06
8.08149802301566e-06
8.08149752836094e-06
8.0814970547999e-06
8.0814966039538e-06
8.08149617621965e-06
8.08149577268904e-06
8.08149539332514e-06
8.08149503885825e-06
8.08149470907285e-06
8.081494404601e-06
8.08149412514515e-06
8.08149387029117e-06
8.0814936334554e-06
8.08149337928001e-06
8.08149291339154e-06
8.0814912221728e-06
8.08148322356395e-06
8.08144457686781e-06
8.08126453955734e-06
8.0804687125721e-06
8.07716510229963e-06
8.06443091676063e-06
8.01947282105344e-06
7.8765035786756e-06
7.47495821911407e-06
6.50045807401038e-06
4.50413955344957e-06
1.53112937143504e-08
6.20142889891302e-11
6.0193380886995e-11
1.50881028567388e-08
4.47383462448934e-06
6.48199177920664e-06
7.47024328019489e-06
7.88070239693425e-06
8.02792609929184e-06
8.0745250189074e-06
8.08779678523114e-06
8.09125482396003e-06
8.09209019170757e-06
8.09227910579316e-06
8.09231921860477e-06
8.09232693927162e-06
8.09232789972076e-06
8.09232758205019e-06
8.09232707643425e-06
8.09232653943181e-06
8.09232600595485e-06
8.09232548342263e-06
8.09232497547845e-06
8.092324483779e-06
8.09232401054813e-06
8.0923235567766e-06
8.09232312412143e-06
8.0923227130075e-06
8.09232232451812e-06
8.09232195859373e-06
8.09232161589983e-06
8.09232129612267e-06
8.09232099973907e-06
8.0923207262707e-06
8.09232047512214e-06
8.09232023961737e-06
8.09231998429432e-06
8.09231951446269e-06
8.0923178156491e-06
8.09230980228574e-06
8.09227111566127e-06
8.09209092126779e-06
8.09129437095913e-06
8.08798746990232e-06
8.07523942635962e-06
8.03022882753217e-06
7.88708426018069e-06
7.48503240160344e-06
6.50928509442015e-06
4.51036300695801e-06
1.5330267510271e-08
6.20761240865081e-11
6.02170339320943e-11
1.50956082161578e-08
4.47651104621843e-06
6.48606219497e-06
7.47513698001456e-06
7.88602108558969e-06
8.03343807098628e-06
8.08011530732727e-06
8.09341570809887e-06
8.09688331931023e-06
8.09772165756121e-06
8.09791144788472e-06
8.09795181641465e-06
8.09795963800315e-06
8.09796065619954e-06
8.09796037507439e-06
8.09795989877224e-06
8.09795938838134e-06
8.09795887950809e-06
8.09795837992034e-06
8.09795789360353e-06
8.09795742237199e-06
8.09795696847277e-06
8.09795653291797e-06
8.09795611737224e-06
8.09795572227532e-06
8.09795534869612e-06
8.09795499656332e-06
8.09795466649056e-06
8.0979543581059e-06
8.09795407178483e-06
8.09795380693921e-06
8.09795356285309e-06
8.09795333279177e-06
8.09795308127389e-06
8.09795261359205e-06
8.09795091501426e-06
8.09794289821371e-06
8.09790419538287e-06
8.09772392678607e-06
8.09692702085184e-06
8.09361847632574e-06
8.08086344646487e-06
8.03582619570834e-06
7.89259213157827e-06
7.49028043187219e-06
6.51388997633824e-06
4.51361655856189e-06
1.53400813597196e-08
6.21077282095318e-11
6.02282791169147e-11
1.50992329127692e-08
4.47783445427731e-06
6.48809714184253e-06
7.47760230344873e-06
7.88871376157733e-06
8.03623652690422e-06
8.08295760212679e-06
8.09627439435452e-06
8.09974760995336e-06
8.10058772939491e-06
8.10077806055431e-06
8.10081859308168e-06
8.10082648351548e-06
8.10082754785314e-06
8.10082729834325e-06
8.10082684731516e-06
8.10082636023624e-06
8.1008258732281e-06
8.10082539425558e-06
8.10082492771773e-06
8.10082447555526e-06
8.10082403996107e-06
8.10082362191575e-06
8.10082322307062e-06
8.10082284386842e-06
8.10082248536551e-06
8.1008221474783e-06
8.10082183077947e-06
8.10082153485274e-06
8.10082126000231e-06
8.10082100556395e-06
8.10082077073794e-06
8.10082054875041e-06
8.10082030413424e-06
8.10081984228978e-06
8.10081814850711e-06
8.10081013462799e-06
8.10077142835187e-06
8.1005911283826e-06
8.09979405467959e-06
8.09648471147374e-06
8.0837262438074e-06
8.03867577840604e-06
7.89539708161764e-06
7.49295511857751e-06
6.5162404427938e-06
4.51528108137651e-06
1.53450516300261e-08
6.21235567894501e-11
6.0233507747549e-11
1.51009445333763e-08
4.47847448096551e-06
6.48909275827229e-06
7.47881833482138e-06
7.89004897309008e-06
8.03762845875574e-06
8.08437356899805e-06
8.09769954820304e-06
8.10117597658494e-06
8.10201714370088e-06
8.10220780463978e-06
8.10224844299944e-06
8.10225638292533e-06
8.10225748546285e-06
8.10225726420594e-06
8.10225683620458e-06
8.10225637065887e-06
8.10225590395613e-06
8.10225544412456e-06
8.10225499621595e-06
8.10225456232123e-06
8.10225414448007e-06
8.10225374358751e-06
8.10225336125724e-06
8.10225299793163e-06
8.10225265465323e-06
8.10225233133387e-06
8.10225202849824e-06
8.10225174569419e-06
8.10225148316274e-06
8.10225124018363e-06
8.10225101588337e-06
8.10225080345166e-06
8.10225056742146e-06
8.10225011329537e-06
8.10224842645515e-06
8.10224041841547e-06
8.10220171490487e-06
8.10202140476498e-06
8.10122425626138e-06
8.09791453483004e-06
8.08515440899167e-06
8.04009751617486e-06
7.89679699012198e-06
7.49429100650799e-06
6.5174161398963e-06
4.51611557665846e-06
1.53475190353459e-08
6.21313311517706e-11
6.02358828128503e-11
1.51017340643159e-08
4.47877722007636e-06
6.48956976553927e-06
7.47940620151742e-06
7.89069822110259e-06
8.03830758414564e-06
8.08506563289736e-06
8.09839666539131e-06
8.10187490187601e-06
8.10271667606886e-06
8.10290753754708e-06
8.10294824580438e-06
8.10295622355654e-06
8.10295735921284e-06
8.10295716417929e-06
8.10295675808833e-06
8.1029563132753e-06
8.10295586609047e-06
8.10295542444686e-06
8.1029549944951e-06
8.10295457852291e-06
8.10295417829402e-06
8.10295379454553e-06
8.10295342883227e-06
8.10295308159213e-06
8.10295275386168e-06
8.10295244555759e-06
8.10295215714247e-06
8.10295188811729e-06
8.10295163866399e-06
8.10295140801164e-06
8.10295119521678e-06
8.10295099341558e-06
8.10295076709655e-06
8.1029503217701e-06
8.10294864284267e-06
8.10294064181783e-06
8.10290194397143e-06
8.10272163391946e-06
8.10192445545901e-06
8.09861455960473e-06
8.08585364500379e-06
8.04079366596098e-06
7.89748261369854e-06
7.49494565758872e-06
6.51799299388867e-06
4.51652581698141e-06
1.534871977506e-08
6.21350704251342e-11
6.02369279332589e-11
1.51020878863538e-08
4.47891691911278e-06
6.48979337688081e-06
7.47968476015955e-06
7.89100795188724e-06
8.03863282965225e-06
8.08539773898511e-06
8.09873150717968e-06
8.10221074581595e-06
8.10305286840787e-06
8.10324385282306e-06
8.10328460902182e-06
8.10329261746807e-06
8.10329378261871e-06
8.1032936121888e-06
8.10329322709682e-06
8.10329280236958e-06
8.10329237398166e-06
8.10329194949834e-06
8.10329153676885e-06
8.10329113830295e-06
8.10329075544607e-06
8.10329038871624e-06
8.10329003958965e-06
8.10328970849817e-06
8.10328939649348e-06
8.10328910353063e-06
8.10328882996187e-06
8.10328857522187e-06
8.1032883394304e-06
8.10328812176426e-06
8.10328792120712e-06
8.10328773082462e-06
8.10328751499766e-06
8.10328707912502e-06
8.10328540852255e-06
8.10327741489593e-06
8.10323872396879e-06
8.10305841872321e-06
8.10226123121947e-06
8.09895125717033e-06
8.08618996851013e-06
8.04112851083331e-06
7.89781241200475e-06
7.49526061513127e-06
6.51827067190517e-06
4.51672347657984e-06
1.53492916001516e-08
6.21368278962012e-11
6.0237361554604e-11
1.51022385754892e-08
4.47897917782839e-06
6.48989546935604e-06
7.47981386059309e-06
7.8911527475375e-06
8.03878560929376e-06
8.08555411879644e-06
8.09888935052383e-06
8.10236913838604e-06
8.10321146019594e-06
8.10340252135776e-06
8.1034433120669e-06
8.10345134713246e-06
8.10345253882483e-06
8.10345239124103e-06
8.1034520259795e-06
8.10345162050398e-06
8.10345121013942e-06
8.10345080187658e-06
8.10345040573053e-06
8.10345002433583e-06
8.1034496585457e-06
8.10344930864659e-06
8.1034489760345e-06
8.1034486611403e-06
8.10344836507225e-06
8.10344808790463e-06
8.10344782977831e-06
8.10344759001436e-06
8.10344736866149e-06
8.10344716484583e-06
8.10344697747507e-06
8.10344679953073e-06
8.10344659524335e-06
8.10344616980184e-06
8.10344450834914e-06
8.10343652290618e-06
8.1033978400303e-06
8.103217542158e-06
8.10242035550809e-06
8.0991103481484e-06
8.08634887987479e-06
8.04128670340198e-06
7.89796816780727e-06
7.49540925836726e-06
6.51840159303952e-06
4.5168164991465e-06
1.53495563099505e-08
6.21376289852092e-11
6.02375099752336e-11
1.51022959409743e-08
4.47900525426142e-06
6.48994031322288e-06
7.47987200698249e-06
7.89121878952904e-06
8.03885576111303e-06
8.08562615750824e-06
8.09896216872781e-06
8.10244225587875e-06
8.10328469173778e-06
8.10347580185055e-06
8.10351661863437e-06
8.10352467901507e-06
8.10352589451478e-06
8.10352576726925e-06
8.10352541975103e-06
8.10352503188556e-06
8.10352463832212e-06
8.10352424547149e-06
8.10352386523478e-06
8.10352350013283e-06
8.10352315066921e-06
8.10352281698899e-06
8.10352250042534e-06
8.10352220141491e-06
8.10352192119172e-06
8.10352166011129e-06
8.1035214179187e-06
8.10352119374773e-06
8.10352098756689e-06
8.10352079844676e-06
8.10352062522333e-06
8.10352046079525e-06
8.103520269226e-06
8.1035198554655e-06
8.10351820445451e-06
8.10351022853442e-06
8.10347155508674e-06
8.10329126640868e-06
8.10249408565551e-06
8.09918406613542e-06
8.08642250901453e-06
8.04135996987667e-06
7.89804022792299e-06
7.49547784742601e-06
6.51846175426124e-06
4.51685883373814e-06
1.53496733081328e-08
6.21379889073695e-11
6.02374853954943e-11
1.51023058626469e-08
4.47901430219873e-06
6.48995846778522e-06
7.47989693821471e-06
7.89124771235021e-06
8.03888682205805e-06
8.08565822211024e-06
8.09899465323333e-06
8.10247490468995e-06
8.10331740690123e-06
8.10350854953852e-06
8.10354938763938e-06
8.10355747629695e-06
8.10355871443782e-06
8.10355860545362e-06
8.10355827367454e-06
8.10355790184269e-06
8.10355752433763e-06
8.10355714735218e-06
8.10355678318519e-06
8.10355643410676e-06
8.10355610064345e-06
8.10355578295722e-06
8.10355548235047e-06
8.10355519926956e-06
8.10355493511271e-06
8.10355469063417e-06
8.10355446501076e-06
8.10355425719981e-06
8.10355406710471e-06
8.10355389373952e-06
8.10355373587792e-06
8.10355358634689e-06
8.10355340906406e-06
8.10355300876997e-06
8.10355137022612e-06
8.10354340601577e-06
8.10350474414742e-06
8.10332446692858e-06
8.10252729585439e-06
8.09921727567604e-06
8.08645567437352e-06
8.04139294230206e-06
7.89807257126055e-06
7.49550839385052e-06
6.51848827899091e-06
4.5168769032381e-06
1.53497209090654e-08
6.21381024705832e-11
6.02373707811094e-11
1.51022929470154e-08
4.47901551713152e-06
6.48996373019012e-06
7.47990579889974e-06
7.89125909047165e-06
8.03889945669207e-06
8.08567141921101e-06
8.09900808360807e-06
8.10248842774497e-06
8.10333097046451e-06
8.10352213636937e-06
8.10356299276081e-06
8.10357111304479e-06
8.10357237358434e-06
8.10357228285912e-06
8.10357196685388e-06
8.10357161126045e-06
8.10357125092234e-06
8.10357089235953e-06
8.10357054615184e-06
8.10357021444629e-06
8.10356989816189e-06
8.1035695976466e-06
8.10356931420483e-06
8.10356904828643e-06
8.10356880129355e-06
8.10356857396052e-06
8.10356836537739e-06
8.10356817454471e-06
8.10356800135953e-06
8.10356784476038e-06
8.10356770346826e-06
8.10356757026894e-06
8.10356740897743e-06
8.10356702420342e-06
8.10356540057243e-06
8.10355745081476e-06
8.10351880333643e-06
8.10333854059003e-06
8.10254138334299e-06
8.09923137142369e-06
8.08646975310761e-06
8.04140691640243e-06
7.89808617605669e-06
7.49552093025669e-06
6.51849830498269e-06
4.51688307534854e-06
1.53497299519346e-08
6.21380543090765e-11
6.02372857248957e-11
1.51022765468034e-08
4.47901323948538e-06
6.489962615214e-06
7.47990665386539e-06
7.89126162931362e-06
8.03890280752409e-06
8.08567514652605e-06
8.09901197058605e-06
8.10249238293341e-06
8.10333496169132e-06
8.10352615313429e-06
8.10356702962665e-06
8.10357517029492e-06
8.1035764540792e-06
8.10357638750006e-06
8.10357609307453e-06
8.10357575898858e-06
8.10357542102142e-06
8.10357508621649e-06
8.10357476251073e-06
8.10357445207001e-06
8.10357415631308e-06
8.10357387588939e-06
8.10357361210159e-06
8.10357336538631e-06
8.10357313694637e-06
8.10357292709311e-06
8.10357273546045e-06
8.10357256116326e-06
8.10357240400406e-06
8.10357226288921e-06
8.10357213647223e-06
8.10357201748758e-06
8.10357186966498e-06
8.10357149752334e-06
8.10356988557091e-06
8.10356194652121e-06
8.10352330895029e-06
8.10334305558393e-06
8.10254590703202e-06
8.09923589944431e-06
8.0864742642728e-06
8.04141133376849e-06
7.89809027386713e-06
7.49552427796887e-06
6.5185000699228e-06
4.51688358560545e-06
1.53497208357049e-08
6.21380060895277e-11
6.0237194604739e-11
1.51022554946953e-08
4.4790086740766e-06
6.48995808110165e-06
7.47990309388779e-06
7.89125885384076e-06
8.0389006070167e-06
8.08567321995562e-06
8.09901016244725e-06
8.10249062956118e-06
8.10333324202153e-06
8.10352446006504e-06
8.10356535508092e-06
8.10357349974375e-06
8.10357480676537e-06
8.10357476664947e-06
8.1035744962221e-06
8.10357418576161e-06
8.10357387184579e-06
8.10357356189643e-06
8.10357326180392e-06
8.10357297365426e-06
8.10357269922774e-06
8.10357243932001e-06
8.10357219535097e-06
8.1035719677644e-06
8.10357175759817e-06
8.1035715649143e-06
8.10357138971451e-06
8.10357123116359e-06
8.10357108894334e-06
8.10357096185201e-06
8.10357084845086e-06
8.10357074142916e-06
8.10357060445693e-06
8.10357024202902e-06
8.10356863855405e-06
8.10356070656811e-06
8.10352207468018e-06
8.10334182632514e-06
8.1025446832171e-06
8.09923468020059e-06
8.08647303626405e-06
8.04141003845851e-06
7.89808875836625e-06
7.49552237402092e-06
6.51849789488909e-06
4.51688137714303e-06
1.53497078724034e-08
6.21379510994398e-11
6.0237083129457e-11
1.51022267392915e-08
4.47900120265183e-06
6.48994941754614e-06
7.47989469818765e-06
7.89125093819249e-06
8.03889304433171e-06
8.08566583476578e-06
8.09900285547588e-06
8.10248336002071e-06
8.10332599740372e-06
8.103517236452e-06
8.10355814586974e-06
8.10356629564184e-06
8.10356762189886e-06
8.10356760417032e-06
8.10356735425866e-06
8.10356706431814e-06
8.10356677134079e-06
8.10356648284953e-06
8.10356620352267e-06
8.10356593534195e-06
8.1035656802811e-06
8.10356543924971e-06
8.10356521372817e-06
8.10356500418436e-06
8.10356481160024e-06
8.10356463593692e-06
8.10356447734224e-06
8.10356433495234e-06
8.10356420828279e-06
8.10356409598118e-06
8.10356399653949e-06
8.10356390266464e-06
8.10356377805921e-06
8.10356342733021e-06
8.10356183485535e-06
8.10355391287363e-06
8.10351529013755e-06
8.10333505205726e-06
8.10253792514942e-06
8.09922795205399e-06
8.08646636101178e-06
8.04140344274918e-06
7.89808226739681e-06
7.49551606675844e-06
6.5184920574489e-06
4.51687681077666e-06
1.53496902442164e-08
6.21378879205371e-11
6.02369302626689e-11
1.51021821844402e-08
4.47898829409995e-06
6.48993324981549e-06
7.47987782078089e-06
7.89123413627256e-06
8.03887641979042e-06
8.08564932108652e-06
8.09898639550612e-06
8.10246692808828e-06
8.10330958613768e-06
8.10350084401183e-06
8.10354176861225e-06
8.10354992876816e-06
8.10355127291311e-06
8.10355127504861e-06
8.10355104351975e-06
8.10355077220639e-06
8.1035504981667e-06
8.10355022892592e-06
8.10354996848662e-06
8.10354971871215e-06
8.10354948166235e-06
8.10354925832275e-06
8.10354905022163e-06
8.10354885787772e-06
8.10354868228634e-06
8.10354852339042e-06
8.10354838135539e-06
8.10354825519797e-06
8.10354814418302e-06
8.10354804675086e-06
8.10354796134388e-06
8.10354788076798e-06
8.10354776886427e-06
8.10354743050792e-06
8.10354585011883e-06
8.10353793950295e-06
8.10349932792357e-06
8.103319105007e-06
8.10252200828078e-06
8.09921210349132e-06
8.08645066370974e-06
8.04138805772652e-06
7.89806748219472e-06
7.495502382572e-06
6.51848034322088e-06
4.5168686151045e-06
1.53496647860211e-08
6.21378079108007e-11
6.02366735173218e-11
1.51021040479358e-08
4.47896398619212e-06