/*--------------------------------*- C++ -*----------------------------------*\
  =========                 |
  \\      /  F ield         | OpenFOAM: The Open Source CFD Toolbox
   \\    /   O peration     | Website:  https://openfoam.org
    \\  /    A nd           | Version:  10
     \\/     M anipulation  |
\*---------------------------------------------------------------------------*/
FoamFile
{
    format      ascii;
    class       volScalarField;
    location    "2";
    object      h;
}
// * * * * * * * * * * * * * * * * * * * * * * * * * * * * * * * * * * * * * //

dimensions      [0 2 -2 0 0 0 0];

internalField   nonuniform List<scalar> 
2500
(
7150.97373197454
7086.00974539922
7058.02916567412
7050.60443582164
7048.82540983436
7048.4015968036
7048.30250113328
7048.27871645499
7048.27165715869
7048.26948274986
7048.26730819659
7048.26590380681
7048.26504662442
7048.26395174392
7048.2629310744
7048.26178890139
7048.26120097236
7048.26046642472
7048.25963373549
7048.25903840658
7048.25842141705
7048.25768639254
7048.25700842913
7048.25688414882
7048.25673338556
7048.25629949618
7048.25623748596
7048.25612582832
7048.25589493944
7048.25609258276
7048.2563000042
7048.25637346771
7048.25672054403
7048.25721154459
7048.25766781012
7048.25808075584
7048.2585403261
7048.25892902595
7048.25974689182
7048.26055548221
7048.26172236669
7048.26415089059
7048.27169843852
7048.3002943366
7048.41631008003
7048.8712726955
7050.68189353423
7058.09971163545
7086.49312592225
7150.931526827
4737.52646367265
4605.80959269049
4525.11221868455
4499.1611127719
4491.62490799958
4489.54440723734
4489.00717115855
4488.87839522294
4488.84930888838
4488.84310630094
4488.84127391817
4488.84060570618
4488.84037970075
4488.840053572
4488.83974567088
4488.8393977275
4488.83919842606
4488.83896201732
4488.83870086053
4488.83846785561
4488.83807994529
4488.83750387408
4488.83691088617
4488.83689219574
4488.83689626238
4488.83656916461
4488.83665240233
4488.83664254922
4488.83639085727
4488.83668905487
4488.8367810559
4488.83647778511
4488.8370203552
4488.8378052742
4488.83810114442
4488.83823256243
4488.83835184543
4488.83845321872
4488.83873455825
4488.83925532404
4488.84135961389
4488.85041164471
4488.88878114672
4489.04523573299
4489.64669879446
4491.81978287055
4499.35629085721
4525.09906104581
4607.2925569581
4740.5321367471
3165.06595558528
3051.53889886606
2979.85516409962
2955.6775552933
2948.56856986656
2946.5821035918
2946.06058164673
2945.93348993914
2945.90474106912
2945.89876550397
2945.8972513132
2945.89692505747
2945.89711306546
2945.89706313112
2945.89706237158
2945.89707656367
2945.89706858384
2945.89705049932
2945.89700115833
2945.89695419173
2945.89679083006
2945.89652395761
2945.8962225042
2945.89614147468
2945.89618250739
2945.89611363029
2945.89609804243
2945.89614350676
2945.89615489638
2945.89626524944
2945.89624813432
2945.8960351283
2945.89635669406
2945.8969037292
2945.89699905513
2945.89696686264
2945.89697507181
2945.89695085894
2945.89697967387
2945.89709177206
2945.8988159332
2945.90727692114
2945.94310127796
2946.08947414181
2946.65154440302
2948.68402737466
2955.75393999686
2979.8477096034
3053.17645128018
3171.81786038857
2372.21974556281
2305.55866112149
2269.46364600211
2257.10108320573
2253.58476717334
2252.62968902527
2252.38138174482
2252.3205595575
2252.30667334226
2252.30383007253
2252.30312339326
2252.30300124388
2252.30316634812
2252.30322178833
2252.30325015422
2252.30325231109
2252.30328638658
2252.30332713331
2252.30332432529
2252.30332510349
2252.30330035233
2252.30321058723
2252.30307756576
2252.30302984779
2252.30307033001
2252.3030643518
2252.30304392636
2252.3030859013
2252.30313503813
2252.30316906509
2252.30315324411
2252.30305472822
2252.30319431056
2252.30344342572
2252.30347200877
2252.3034330012
2252.30341091872
2252.30338024932
2252.30335615246
2252.30332061497
2252.30393947953
2252.30757315823
2252.32333427194
2252.38856550528
2252.64446331684
2253.60064574731
2257.08655398795
2269.50119423944
2306.66245521955
2378.34121623018
2038.50837220315
2007.59152568151
1993.4606332075
1988.48353091602
1987.08644219233
1986.71364905771
1986.61725018134
1986.59344798284
1986.58794538277
1986.58682768985
1986.58655277463
1986.58651354153
1986.58659852999
1986.58664175003
1986.58666281257
1986.58666899543
1986.58668900508
1986.58671369613
1986.58672052514
1986.58672777698
1986.58672980155
1986.58670468978
1986.5866529685
1986.58663959773
1986.58666001152
1986.58666061403
1986.58665498352
1986.58667618573
1986.58670423646
1986.58671565221
1986.5867091444
1986.58667379014
1986.58672337857
1986.58681128013
1986.58681435909
1986.58679650797
1986.5867857005
1986.58676297995
1986.58674049213
1986.58671781385
1986.5868902196
1986.58817576217
1986.59393510225
1986.617878165
1986.71302063443
1987.07703578982
1988.44922451921
1993.45726460089
2008.12039882198
2042.2318571284
1915.81557087141
1903.65298970434
1898.92993715258
1897.21010431169
1896.72662236771
1896.59875256503
1896.56579123824
1896.55759288216
1896.55567552267
1896.55528715773
1896.55519359462
1896.55518374323
1896.55521874702
1896.55523955675
1896.55525027708
1896.55525402593
1896.55526235377
1896.55527260063
1896.55527718583
1896.55528121908
1896.55528429277
1896.55527568693
1896.55526174181
1896.55526272879
1896.55526827425
1896.55526897224
1896.55526776767
1896.55527554479
1896.55528661043
1896.55529202479
1896.55528964269
1896.55527835056
1896.55529389674
1896.55531816222
1896.55531784622
1896.5553129194
1896.55530725522
1896.55529552252
1896.55528189438
1896.5552710068
1896.55531651961
1896.55572664783
1896.55761106221
1896.56545023577
1896.59677199228
1896.71843075571
1897.18682656281
1898.91424581386
1903.85371953187
1917.59353889768
1875.22336287456
1870.99259312126
1869.573546201
1869.04047517699
1868.88899143612
1868.84900894532
1868.83872213598
1868.8361500989
1868.83554278054
1868.83541715345
1868.83539116072
1868.83539250321
1868.83540272557
1868.83541072332
1868.83541523335
1868.83541793554
1868.83542081694
1868.83542324435
1868.83542519275
1868.83542681001
1868.83542811299
1868.83542561776
1868.83542266058
1868.83542463645
1868.83542624192
1868.83542617229
1868.83542622675
1868.83542811065
1868.835431565
1868.83543419202
1868.83543347966
1868.83543029857
1868.83543457271
1868.83544038624
1868.83543992486
1868.83543843765
1868.83543613143
1868.83543132225
1868.8354252525
1868.83542093833
1868.83543321542
1868.83555454914
1868.83612494734
1868.83849446801
1868.84796458808
1868.8850507972
1869.02948312589
1869.56290622848
1871.05636226395
1875.9412415921
1862.88573526347
1861.54894138662
1861.1531850314
1861.00094492797
1860.95698969925
1860.94535238349
1860.94236124884
1860.94161120484
1860.94143268658
1860.94139545595
1860.94138913065
1860.94139023363
1860.94139328911
1860.94139597803
1860.94139786042
1860.94139891387
1860.94139951361
1860.94140016647
1860.9414008287
1860.94140136374
1860.94140184329
1860.94140127498
1860.94140074243
1860.94140149576
1860.94140186808
1860.94140206613
1860.94140213826
1860.94140240294
1860.94140350347
1860.94140451596
1860.9414044006
1860.94140364407
1860.94140464189
1860.94140580038
1860.94140550478
1860.94140504553
1860.94140426243
1860.94140258011
1860.94140038637
1860.94139878134
1860.94140231321
1860.94143635027
1860.94159861467
1860.94227170714
1860.94495427733
1860.95549180764
1860.99670932391
1861.14834421183
1861.56632200895
1863.14150566089
1859.38850439625
1858.99762129083
1858.8930274735
1858.85224002735
1858.84025052721
1858.83705458459
1858.8362331658
1858.8360270114
1858.83597766004
1858.8359674578
1858.83596603035
1858.83596642137
1858.83596731053
1858.8359681277
1858.83596874659
1858.83596906497
1858.83596923242
1858.83596941347
1858.83596967828
1858.83596985885
1858.83596989041
1858.83596977368
1858.83596977651
1858.83597000406
1858.83597007957
1858.83597015896
1858.83597024712
1858.83597030862
1858.83597056938
1858.83597086748
1858.83597085872
1858.83597069036
1858.83597087925
1858.83597105638
1858.83597092779
1858.83597078092
1858.83597055652
1858.83597006785
1858.83596942456
1858.83596896891
1858.83596993636
1858.83597894065
1858.83602279767
1858.83620438089
1858.83692489912
1858.83975377171
1858.85081208027
1858.89122496816
1859.00168494339
1859.47114388281
1858.45344983226
1858.34624155409
1858.31969860351
1858.30931645992
1858.3062094741
1858.3053734457
1858.3051583427
1858.30510438652
1858.30509143459
1858.30508879256
1858.30508847697
1858.3050885961
1858.30508884216
1858.3050890711
1858.30508924873
1858.30508933832
1858.30508938923
1858.30508943848
1858.30508952428
1858.30508958628
1858.30508958548
1858.30508956503
1858.30508958764
1858.30508964748
1858.30508966008
1858.30508967855
1858.30508971913
1858.30508973948
1858.30508979668
1858.30508986846
1858.30508986581
1858.30508982391
1858.30508985504
1858.30508987478
1858.30508982783
1858.30508978634
1858.30508972614
1858.30508959893
1858.30508943717
1858.30508931986
1858.30508956386
1858.30509184592
1858.30510318313
1858.3051500145
1858.30533492819
1858.30605890597
1858.30887816289
1858.31910309705
1858.34702606654
1858.47812332996
1858.21556539014
1858.18770350315
1858.18118329802
1858.17864927958
1858.1778783151
1858.17766855388
1858.17761446038
1858.17760090825
1858.17759765405
1858.17759699672
1858.17759692645
1858.17759695933
1858.17759702318
1858.17759708271
1858.17759712925
1858.1775971527
1858.17759716751
1858.17759718016
1858.17759720299
1858.17759722255
1858.17759722757
1858.17759722909
1858.17759723407
1858.17759724344
1858.17759724464
1858.17759724825
1858.17759726125
1858.17759726837
1858.17759727977
1858.17759729386
1858.17759729245
1858.17759728175
1858.17759728563
1858.17759728627
1858.17759727173
1858.17759726152
1858.1775972465
1858.17759721615
1858.17759717876
1858.1775971502
1858.17759720969
1858.17759776893
1858.17760058429
1858.17761218445
1858.17765776506
1858.17783549276
1858.17852366995
1858.18100128423
1858.18780964362
1858.22246608659
1858.1575814276
1858.15066641963
1858.14910855717
1858.14851143534
1858.14832714679
1858.14827640225
1858.14826326901
1858.14825998234
1858.14825919421
1858.14825903414
1858.14825901611
1858.14825902419
1858.14825903927
1858.14825905321
1858.14825906412
1858.14825906951
1858.14825907343
1858.14825907576
1858.14825908042
1858.14825908592
1858.14825908807
1858.14825908932
1858.14825908978
1858.14825909163
1858.14825909196
1858.14825909167
1858.14825909506
1858.14825909707
1858.14825909914
1858.14825910156
1858.14825910101
1858.14825909817
1858.14825909865
1858.14825909828
1858.14825909407
1858.14825909216
1858.14825908893
1858.14825908253
1858.14825907492
1858.14825906889
1858.14825908376
1858.14825921768
1858.14825989269
1858.14826266295
1858.14827349634
1858.14831553671
1858.14847726971
1858.14905590561
1858.15066578547
1858.15940792671
1858.14396475526
1858.14231561267
1858.14195247358
1858.14181590272
1858.14177326156
1858.1417613754
1858.14175828338
1858.14175750906
1858.14175732295
1858.14175728415
1858.14175727791
1858.14175727828
1858.1417572811
1858.14175728318
1858.14175728493
1858.14175728586
1858.14175728631
1858.1417572859
1858.14175728632
1858.14175728733
1858.14175728767
1858.141757288
1858.1417572879
1858.14175728806
1858.14175728769
1858.14175728727
1858.14175728794
1858.14175728836
1858.14175728867
1858.14175728905
1858.14175728892
1858.14175728826
1858.14175728847
1858.14175728849
1858.14175728762
1858.14175728771
1858.14175728747
1858.14175728665
1858.14175728567
1858.14175728541
1858.14175729036
1858.14175732253
1858.14175747992
1858.14175812069
1858.14176061221
1858.14177022961
1858.14180698659
1858.14193788271
1858.14230843456
1858.1444259116
1858.14087003331
1858.14049023424
1858.14040741204
1858.14037694225
1858.14036734943
1858.14036464301
1858.14036393348
1858.14036375436
1858.14036371011
1858.1403636996
1858.14036369665
1858.1403636954
1858.14036369483
1858.14036369428
1858.14036369378
1858.14036369316
1858.14036369256
1858.1403636918
1858.14036369128
1858.14036369098
1858.14036369064
1858.14036369032
1858.14036368996
1858.14036368968
1858.14036368933
1858.14036368901
1858.14036368897
1858.14036368893
1858.14036368894
1858.140363689
1858.14036368901
1858.14036368897
1858.14036368921
1858.14036368947
1858.14036368963
1858.14036369013
1858.14036369064
1858.14036369115
1858.14036369177
1858.14036369276
1858.14036369509
1858.14036370373
1858.14036374059
1858.14036388571
1858.14036444298
1858.14036657881
1858.14037469128
1858.14040351208
1858.14048683444
1858.14098179311
1858.14018677177
1858.14010197781
1858.14008337613
1858.14007668958
1858.14007457857
1858.14007397615
1858.14007381567
1858.1400737736
1858.14007376185
1858.14007375781
1858.14007375562
1858.14007375399
1858.14007375264
1858.14007375144
1858.14007375036
1858.14007374935
1858.14007374844
1858.14007374757
1858.14007374682
1858.14007374619
1858.14007374562
1858.14007374511
1858.14007374466
1858.14007374426
1858.14007374391
1858.14007374361
1858.14007374343
1858.1400737433
1858.14007374324
1858.14007374325
1858.14007374332
1858.14007374345
1858.14007374371
1858.14007374406
1858.14007374447
1858.14007374507
1858.14007374578
1858.14007374661
1858.14007374762
1858.14007374886
1858.14007375059
1858.14007375391
1858.14007376358
1858.14007379698
1858.14007391978
1858.14007438321
1858.14007613365
1858.14008236444
1858.14010079678
1858.14021289534
1858.14003976743
1858.14002137071
1858.14001715479
1858.14001567249
1858.14001521066
1858.1400150776
1858.14001504042
1858.14001502916
1858.14001502471
1858.14001502211
1858.1400150201
1858.14001501836
1858.14001501683
1858.14001501545
1858.14001501421
1858.14001501309
1858.14001501208
1858.14001501116
1858.14001501034
1858.14001500961
1858.14001500897
1858.1400150084
1858.1400150079
1858.14001500746
1858.1400150071
1858.1400150068
1858.14001500658
1858.14001500644
1858.14001500636
1858.14001500637
1858.14001500646
1858.14001500663
1858.1400150069
1858.14001500728
1858.14001500777
1858.1400150084
1858.14001500917
1858.14001501009
1858.14001501119
1858.1400150125
1858.14001501409
1858.14001501621
1858.14001501988
1858.14001502879
1858.14001505674
1858.14001515692
1858.1400155338
1858.14001689626
1858.14002100956
1858.14004567499
1858.14000886387
1858.14000499264
1858.14000393132
1858.14000356373
1858.14000345697
1858.14000342616
1858.1400034161
1858.14000341166
1858.14000340884
1858.14000340658
1858.1400034046
1858.14000340283
1858.14000340124
1858.1400033998
1858.1400033985
1858.14000339733
1858.14000339627
1858.14000339532
1858.14000339447
1858.1400033937
1858.14000339302
1858.14000339243
1858.1400033919
1858.14000339145
1858.14000339108
1858.14000339077
1858.14000339054
1858.14000339039
1858.14000339031
1858.14000339032
1858.14000339041
1858.1400033906
1858.14000339088
1858.14000339128
1858.14000339179
1858.14000339244
1858.14000339323
1858.14000339418
1858.14000339531
1858.14000339663
1858.14000339818
1858.14000340003
1858.14000340238
1858.140003406
1858.1400034137
1858.14000343692
1858.14000352466
1858.14000386265
1858.1400048843
1858.14001015377
1858.14000250137
1858.14000172833
1858.14000134511
1858.14000121187
1858.14000118006
1858.14000117115
1858.140001167
1858.1400011641
1858.14000116167
1858.1400011595
1858.14000115753
1858.14000115574
1858.14000115412
1858.14000115266
1858.14000115133
1858.14000115012
1858.14000114904
1858.14000114806
1858.14000114718
1858.14000114639
1858.14000114569
1858.14000114507
1858.14000114454
1858.14000114407
1858.14000114369
1858.14000114337
1858.14000114314
1858.14000114298
1858.1400011429
1858.14000114291
1858.14000114301
1858.1400011432
1858.14000114349
1858.1400011439
1858.14000114443
1858.14000114509
1858.1400011459
1858.14000114686
1858.140001148
1858.14000114932
1858.14000115085
1858.14000115261
1858.14000115464
1858.14000115709
1858.14000116049
1858.14000116768
1858.14000119581
1858.14000132267
1858.14000169
1858.14000276672
1858.14000121571
1858.14000108869
1858.14000084868
1858.14000076399
1858.14000074783
1858.14000074362
1858.1400007408
1858.14000073828
1858.14000073597
1858.14000073384
1858.14000073188
1858.14000073008
1858.14000072845
1858.14000072696
1858.14000072561
1858.14000072438
1858.14000072327
1858.14000072227
1858.14000072137
1858.14000072057
1858.14000071985
1858.14000071922
1858.14000071867
1858.14000071819
1858.1400007178
1858.14000071748
1858.14000071724
1858.14000071708
1858.140000717
1858.14000071701
1858.14000071711
1858.14000071731
1858.14000071761
1858.14000071802
1858.14000071856
1858.14000071923
1858.14000072005
1858.14000072102
1858.14000072216
1858.14000072348
1858.140000725
1858.14000072671
1858.14000072863
1858.14000073077
1858.1400007332
1858.14000073703
1858.140000753
1858.14000083704
1858.14000106823
1858.14000125943
1858.14000096009
1858.14000096509
1858.14000075496
1858.1400006803
1858.14000066746
1858.14000066431
1858.14000066185
1858.14000065947
1858.14000065722
1858.14000065511
1858.14000065316
1858.14000065136
1858.14000064971
1858.14000064821
1858.14000064684
1858.14000064559
1858.14000064447
1858.14000064345
1858.14000064254
1858.14000064171
1858.14000064098
1858.14000064034
1858.14000063978
1858.14000063929
1858.14000063889
1858.14000063857
1858.14000063832
1858.14000063816
1858.14000063808
1858.14000063809
1858.14000063819
1858.1400006384
1858.1400006387
1858.14000063912
1858.14000063967
1858.14000064035
1858.14000064117
1858.14000064215
1858.14000064329
1858.14000064461
1858.14000064611
1858.14000064779
1858.14000064965
1858.14000065167
1858.14000065382
1858.14000065687
1858.14000067029
1858.14000074567
1858.14000094882
1858.14000095683
1858.14000090983
1858.14000094136
1858.14000073751
1858.14000066499
1858.14000065292
1858.14000065008
1858.14000064776
1858.14000064546
1858.14000064324
1858.14000064116
1858.14000063921
1858.14000063741
1858.14000063576
1858.14000063424
1858.14000063286
1858.1400006316
1858.14000063046
1858.14000062943
1858.1400006285
1858.14000062767
1858.14000062693
1858.14000062627
1858.1400006257
1858.14000062521
1858.1400006248
1858.14000062448
1858.14000062423
1858.14000062406
1858.14000062399
1858.140000624
1858.1400006241
1858.14000062431
1858.14000062462
1858.14000062505
1858.1400006256
1858.14000062628
1858.14000062711
1858.1400006281
1858.14000062924
1858.14000063055
1858.14000063204
1858.14000063369
1858.1400006355
1858.14000063744
1858.14000063947
1858.14000064227
1858.14000065509
1858.14000072862
1858.14000092592
1858.1400008967
1858.1400008999
1858.14000093671
1858.14000073427
1858.14000066228
1858.14000065045
1858.14000064774
1858.1400006455
1858.14000064325
1858.14000064107
1858.140000639
1858.14000063707
1858.14000063527
1858.14000063361
1858.14000063208
1858.14000063069
1858.14000062942
1858.14000062827
1858.14000062723
1858.14000062629
1858.14000062545
1858.1400006247
1858.14000062404
1858.14000062346
1858.14000062297
1858.14000062255
1858.14000062222
1858.14000062197
1858.14000062181
1858.14000062173
1858.14000062174
1858.14000062185
1858.14000062206
1858.14000062237
1858.1400006228
1858.14000062336
1858.14000062405
1858.14000062489
1858.14000062587
1858.14000062702
1858.14000062832
1858.14000062979
1858.14000063142
1858.1400006332
1858.14000063508
1858.14000063703
1858.14000063971
1858.14000065232
1858.14000072539
1858.14000092135
1858.14000088467
1858.14000089782
1858.14000093569
1858.14000073364
1858.14000066183
1858.1400006501
1858.14000064747
1858.14000064529
1858.14000064308
1858.14000064092
1858.14000063887
1858.14000063694
1858.14000063514
1858.14000063348
1858.14000063195
1858.14000063055
1858.14000062928
1858.14000062812
1858.14000062707
1858.14000062612
1858.14000062527
1858.14000062452
1858.14000062385
1858.14000062327
1858.14000062277
1858.14000062236
1858.14000062203
1858.14000062178
1858.14000062161
1858.14000062153
1858.14000062154
1858.14000062165
1858.14000062186
1858.14000062218
1858.14000062262
1858.14000062318
1858.14000062388
1858.14000062471
1858.1400006257
1858.14000062684
1858.14000062814
1858.14000062961
1858.14000063122
1858.14000063296
1858.1400006348
1858.14000063669
1858.1400006393
1858.14000065181
1858.14000072471
1858.14000092028
1858.1400008821
1858.14000089727
1858.14000093536
1858.14000073347
1858.14000066175
1858.14000065008
1858.14000064749
1858.14000064535
1858.14000064316
1858.14000064103
1858.14000063898
1858.14000063706
1858.14000063526
1858.1400006336
1858.14000063207
1858.14000063066
1858.14000062938
1858.14000062822
1858.14000062717
1858.14000062622
1858.14000062537
1858.14000062461
1858.14000062394
1858.14000062336
1858.14000062286
1858.14000062244
1858.14000062211
1858.14000062186
1858.14000062169
1858.14000062162
1858.14000062163
1858.14000062174
1858.14000062195
1858.14000062228
1858.14000062272
1858.14000062328
1858.14000062398
1858.14000062482
1858.14000062581
1858.14000062695
1858.14000062825
1858.1400006297
1858.1400006313
1858.14000063302
1858.14000063484
1858.14000063669
1858.14000063925
1858.1400006517
1858.14000072451
1858.14000091993
1858.14000088144
1858.14000089705
1858.14000093518
1858.14000073337
1858.14000066169
1858.14000065005
1858.14000064749
1858.14000064537
1858.14000064319
1858.14000064106
1858.14000063903
1858.14000063711
1858.14000063531
1858.14000063365
1858.14000063212
1858.14000063071
1858.14000062943
1858.14000062827
1858.14000062721
1858.14000062626
1858.14000062541
1858.14000062465
1858.14000062399
1858.1400006234
1858.1400006229
1858.14000062249
1858.14000062216
1858.14000062191
1858.14000062174
1858.14000062167
1858.14000062168
1858.14000062179
1858.14000062201
1858.14000062233
1858.14000062277
1858.14000062334
1858.14000062404
1858.14000062488
1858.14000062587
1858.14000062701
1858.14000062831
1858.14000062976
1858.14000063135
1858.14000063307
1858.14000063487
1858.1400006367
1858.14000063923
1858.14000065165
1858.14000072443
1858.14000091977
1858.14000088122
1858.14000089692
1858.14000093506
1858.14000073327
1858.14000066161
1858.14000064997
1858.14000064741
1858.14000064529
1858.14000064311
1858.14000064098
1858.14000063895
1858.14000063703
1858.14000063524
1858.14000063357
1858.14000063204
1858.14000063064
1858.14000062936
1858.1400006282
1858.14000062715
1858.1400006262
1858.14000062535
1858.14000062459
1858.14000062393
1858.14000062335
1858.14000062285
1858.14000062244
1858.14000062211
1858.14000062186
1858.1400006217
1858.14000062162
1858.14000062164
1858.14000062176
1858.14000062197
1858.1400006223
1858.14000062274
1858.14000062331
1858.14000062401
1858.14000062485
1858.14000062584
1858.14000062698
1858.14000062828
1858.14000062973
1858.14000063132
1858.14000063304
1858.14000063483
1858.14000063666
1858.1400006392
1858.14000065162
1858.14000072439
1858.14000091972
1858.14000088117
1858.14000089684
1858.14000093496
1858.14000073317
1858.14000066148
1858.14000064982
1858.14000064724
1858.14000064509
1858.14000064291
1858.14000064077
1858.14000063874
1858.14000063682
1858.14000063502
1858.14000063336
1858.14000063184
1858.14000063044
1858.14000062917
1858.14000062801
1858.14000062696
1858.14000062602
1858.14000062518
1858.14000062442
1858.14000062376
1858.14000062319
1858.1400006227
1858.14000062229
1858.14000062196
1858.14000062171
1858.14000062155
1858.14000062148
1858.1400006215
1858.14000062162
1858.14000062183
1858.14000062216
1858.1400006226
1858.14000062317
1858.14000062387
1858.14000062471
1858.1400006257
1858.14000062685
1858.14000062815
1858.1400006296
1858.1400006312
1858.14000063292
1858.14000063473
1858.14000063658
1858.14000063914
1858.14000065159
1858.14000072438
1858.14000091977
1858.14000088122
1858.14000089682
1858.14000093489
1858.14000073305
1858.14000066131
1858.1400006496
1858.14000064697
1858.14000064479
1858.14000064258
1858.14000064043
1858.14000063839
1858.14000063646
1858.14000063467
1858.14000063302
1858.1400006315
1858.14000063011
1858.14000062884
1858.14000062769
1858.14000062666
1858.14000062572
1858.14000062488
1858.14000062414
1858.14000062349
1858.14000062292
1858.14000062243
1858.14000062203
1858.1400006217
1858.14000062146
1858.14000062131
1858.14000062124
1858.14000062126
1858.14000062138
1858.14000062159
1858.14000062192
1858.14000062236
1858.14000062293
1858.14000062363
1858.14000062447
1858.14000062546
1858.1400006266
1858.14000062791
1858.14000062937
1858.14000063098
1858.14000063272
1858.14000063456
1858.14000063644
1858.14000063905
1858.14000065155
1858.14000072441
1858.1400009199
1858.14000088139
1858.14000089685
1858.14000093486
1858.14000073292
1858.1400006611
1858.14000064931
1858.14000064661
1858.14000064438
1858.14000064214
1858.14000063996
1858.1400006379
1858.14000063597
1858.14000063418
1858.14000063253
1858.14000063102
1858.14000062964
1858.14000062839
1858.14000062725
1858.14000062623
1858.1400006253
1858.14000062448
1858.14000062374
1858.1400006231
1858.14000062254
1858.14000062206
1858.14000062166
1858.14000062135
1858.14000062111
1858.14000062096
1858.14000062089
1858.14000062091
1858.14000062103
1858.14000062125
1858.14000062158
1858.14000062202
1858.14000062258
1858.14000062328
1858.14000062412
1858.14000062511
1858.14000062625
1858.14000062756
1858.14000062903
1858.14000063066
1858.14000063243
1858.14000063431
1858.14000063625
1858.14000063892
1858.14000065151
1858.14000072448
1858.14000092013
1858.14000088166
1858.14000089696
1858.14000093489
1858.1400007328
1858.14000066085
1858.14000064895
1858.14000064616
1858.14000064386
1858.14000064156
1858.14000063936
1858.14000063728
1858.14000063534
1858.14000063356
1858.14000063192
1858.14000063042
1858.14000062905
1858.14000062781
1858.14000062669
1858.14000062568
1858.14000062477
1858.14000062396
1858.14000062324
1858.14000062261
1858.14000062206
1858.14000062159
1858.1400006212
1858.14000062089
1858.14000062066
1858.14000062051
1858.14000062044
1858.14000062047
1858.14000062059
1858.14000062081
1858.14000062113
1858.14000062157
1858.14000062213
1858.14000062282
1858.14000062366
1858.14000062465
1858.14000062579
1858.14000062711
1858.14000062859
1858.14000063024
1858.14000063205
1858.14000063399
1858.140000636
1858.14000063877
1858.14000065147
1858.14000072459
1858.14000092046
1858.14000088207
1858.14000089717
1858.14000093498
1858.14000073268
1858.14000066057
1858.14000064852
1858.14000064561
1858.14000064322
1858.14000064086
1858.14000063862
1858.14000063652
1858.14000063458
1858.1400006328
1858.14000063117
1858.14000062968
1858.14000062833
1858.14000062711
1858.14000062601
1858.14000062501
1858.14000062412
1858.14000062333
1858.14000062262
1858.140000622
1858.14000062147
1858.14000062101
1858.14000062063
1858.14000062033
1858.1400006201
1858.14000061996
1858.1400006199
1858.14000061993
1858.14000062005
1858.14000062026
1858.14000062058
1858.14000062102
1858.14000062158
1858.14000062226
1858.1400006231
1858.14000062408
1858.14000062523
1858.14000062655
1858.14000062805
1858.14000062973
1858.14000063158
1858.14000063358
1858.14000063569
1858.14000063858
1858.14000065143
1858.14000072474
1858.14000092092
1858.14000088262
1858.1400008975
1858.14000093517
1858.14000073257
1858.14000066024
1858.14000064801
1858.14000064496
1858.14000064246
1858.14000064003
1858.14000063774
1858.14000063562
1858.14000063368
1858.1400006319
1858.14000063028
1858.14000062881
1858.14000062749
1858.14000062629
1858.14000062521
1858.14000062424
1858.14000062337
1858.14000062259
1858.1400006219
1858.1400006213
1858.14000062078
1858.14000062033
1858.14000061996
1858.14000061967
1858.14000061945
1858.14000061932
1858.14000061926
1858.14000061929
1858.14000061941
1858.14000061962
1858.14000061994
1858.14000062037
1858.14000062092
1858.1400006216
1858.14000062243
1858.14000062341
1858.14000062456
1858.14000062588
1858.1400006274
1858.14000062911
1858.14000063101
1858.14000063309
1858.14000063531
1858.14000063835
1858.1400006514
1858.14000072495
1858.14000092152
1858.14000088335
1858.14000089798
1858.14000093548
1858.14000073249
1858.14000065989
1858.14000064743
1858.1400006442
1858.14000064158
1858.14000063907
1858.14000063673
1858.14000063459
1858.14000063264
1858.14000063087
1858.14000062927
1858.14000062782
1858.14000062652
1858.14000062535
1858.14000062429
1858.14000062335
1858.1400006225
1858.14000062174
1858.14000062108
1858.14000062049
1858.14000061999
1858.14000061955
1858.1400006192
1858.14000061892
1858.14000061871
1858.14000061858
1858.14000061852
1858.14000061855
1858.14000061867
1858.14000061889
1858.1400006192
1858.14000061962
1858.14000062017
1858.14000062084
1858.14000062166
1858.14000062263
1858.14000062378
1858.14000062511
1858.14000062664
1858.14000062838
1858.14000063034
1858.14000063251
1858.14000063486
1858.14000063808
1858.14000065136
1858.14000072523
1858.1400009223
1858.14000088428
1858.14000089867
1858.14000093594
1858.14000073244
1858.14000065949
1858.14000064676
1858.14000064333
1858.14000064057
1858.14000063797
1858.14000063558
1858.14000063341
1858.14000063146
1858.14000062971
1858.14000062813
1858.14000062671
1858.14000062543
1858.14000062429
1858.14000062327
1858.14000062235
1858.14000062153
1858.1400006208
1858.14000062015
1858.14000061959
1858.1400006191
1858.14000061868
1858.14000061834
1858.14000061807
1858.14000061787
1858.14000061775
1858.1400006177
1858.14000061773
1858.14000061785
1858.14000061806
1858.14000061837
1858.14000061878
1858.14000061932
1858.14000061998
1858.14000062078
1858.14000062175
1858.14000062289
1858.14000062422
1858.14000062577
1858.14000062754
1858.14000062956
1858.14000063183
1858.14000063433
1858.14000063776
1858.14000065131
1858.14000072558
1858.14000092328
1858.14000088546
1858.14000089962
1858.1400009366
1858.14000073244
1858.14000065905
1858.140000646
1858.14000064234
1858.14000063942
1858.14000063672
1858.14000063428
1858.1400006321
1858.14000063015
1858.14000062841
1858.14000062686
1858.14000062547
1858.14000062423
1858.14000062312
1858.14000062213
1858.14000062124
1858.14000062045
1858.14000061975
1858.14000061913
1858.14000061859
1858.14000061812
1858.14000061772
1858.1400006174
1858.14000061714
1858.14000061695
1858.14000061683
1858.14000061678
1858.14000061682
1858.14000061694
1858.14000061714
1858.14000061744
1858.14000061785
1858.14000061837
1858.14000061902
1858.14000061981