/*--------------------------------*- C++ -*----------------------------------*\
  =========                 |
  \\      /  F ield         | OpenFOAM: The Open Source CFD Toolbox
   \\    /   O peration     | Website:  https://openfoam.org
    \\  /    A nd           | Version:  10
     \\/     M anipulation  |
\*---------------------------------------------------------------------------*/
FoamFile
{
    format      ascii;
    class       volScalarField;
    location    "2";
    object      k;
}
// * * * * * * * * * * * * * * * * * * * * * * * * * * * * * * * * * * * * * //

dimensions      [0 2 -2 0 0 0 0];

internalField   nonuniform List<scalar> 
2500
(
9.77275137144364e-09
1.18205327716155e-07
4.30391158922265e-07
6.31240967405493e-07
7.25767697488253e-07
7.6177891568457e-07
7.7341114299562e-07
7.76700358420899e-07
7.77534031262213e-07
7.77726707533534e-07
7.77767641303689e-07
7.77775415747408e-07
7.77776378172129e-07
7.77776122929046e-07
7.77775752032557e-07
7.77775395378807e-07
7.77775083640813e-07
7.77774814056598e-07
7.77774577233087e-07
7.77774365871755e-07
7.77774176209047e-07
7.77774005900916e-07
7.77773854041957e-07
7.77773720193918e-07
7.77773603923279e-07
7.77773504921521e-07
7.77773423769222e-07
7.77773361232183e-07
7.77773320468649e-07
7.77773308297366e-07
7.77773320782955e-07
7.77773356509584e-07
7.77773413619909e-07
7.77773483877118e-07
7.77773585589845e-07
7.77773706467003e-07
7.77773792902811e-07
7.77773426522536e-07
7.77770435067993e-07
7.77755254755877e-07
7.77687665627194e-07
7.77407503073797e-07
7.76324190322626e-07
7.72455258136497e-07
7.59877762410649e-07
7.23387296839129e-07
6.3143187600081e-07
4.37929834836233e-07
1.25112488914219e-07
1.07945856007741e-08
1.5613831721602e-07
3.07157360016164e-06
1.19077547738253e-05
1.77538286336132e-05
2.06085816319296e-05
2.17348454466251e-05
2.21101899001381e-05
2.22192707593826e-05
2.22475864582883e-05
2.22542698624142e-05
2.22557186284683e-05
2.22560024396315e-05
2.22560426892108e-05
2.22560370442143e-05
2.22560268953869e-05
2.22560168616072e-05
2.22560079787529e-05
2.22560002425122e-05
2.22559934291498e-05
2.22559873489931e-05
2.22559818937525e-05
2.22559769984597e-05
2.22559726319021e-05
2.22559687718529e-05
2.22559654130677e-05
2.22559625546821e-05
2.22559602043317e-05
2.22559583887935e-05
2.22559572007977e-05
2.2255956801565e-05
2.2255957075195e-05
2.2255957952306e-05
2.22559595108097e-05
2.22559615396408e-05
2.22559643416059e-05
2.22559675914956e-05
2.22559692642961e-05
2.22559539398719e-05
2.22558451101552e-05
2.22553134506484e-05
2.22529869996097e-05
2.2243490882104e-05
2.22073979822719e-05
2.20810084744239e-05
2.16793574879598e-05
2.05443110854427e-05
1.77692292328644e-05
1.2122538485038e-05
3.25177292769439e-06
1.76592187161865e-07
4.9646259487912e-07
1.2948412127653e-05
5.63810290671967e-05
8.38244959081393e-05
9.73480839139007e-05
0.000102800470135784
0.00010466427253613
0.000105219879571591
0.000105367635481067
0.000105403312185761
0.000105411221117526
0.000105412818676744
0.000105413072995552
0.000105413061933883
0.000105413021136475
0.000105412978911956
0.000105412941039034
0.000105412907859508
0.000105412878559393
0.000105412852369715
0.000105412828829355
0.00010541280766316
0.000105412788739195
0.00010541277196727
0.000105412757323319
0.00010541274479665
0.000105412734425396
0.000105412726328044
0.000105412720917121
0.000105412718740693
0.000105412719216402
0.000105412722328163
0.000105412728346357
0.000105412736586971
0.000105412747681903
0.000105412760068829
0.000105412762254212
0.00010541266976437
0.000105412083488959
0.00010540930004549
0.000105397261604633
0.000105348650186463
0.000105166110074854
0.000104535729941283
0.000102563886114703
9.70854472220637e-05
8.38989008417862e-05
5.72635982138137e-05
1.35924542991317e-05
5.46452927462498e-07
8.22905608941893e-07
2.19414771275761e-05
9.46470468227515e-05
0.000139295138794369
0.000161169864579111
0.000170025289505645
0.000173080048186648
0.00017400128692607
0.000174249440963231
0.000174310180462491
0.00017432384468104
0.000174326660945986
0.000174327136748079
0.000174327141996472
0.000174327086702786
0.000174327026397885
0.000174326971673319
0.000174326923475634
0.000174326880765059
0.000174326842479236
0.000174326807966227
0.000174326776837408
0.00017432674890576
0.000174326724046108
0.000174326702221899
0.000174326683409419
0.000174326667660631
0.000174326655138113
0.000174326646414316
0.000174326642205502
0.00017432664170247
0.000174326644995617
0.000174326652237971
0.000174326662867094
0.000174326677234341
0.000174326693060475
0.00017432669230691
0.000174326540283237
0.000174325615778657
0.000174321229537613
0.000174302148252054
0.000174224603338756
0.000173931696555105
0.000172915126572607
0.000169722824315204
0.000160825929018275
0.000139333938838115
9.56184270868952e-05
2.26728462912439e-05
8.79090314147036e-07
1.08843066561765e-06
2.93453836194044e-05
0.000125522301977865
0.000183463038302464
0.000211777367566537
0.000223287829381366
0.000227289950336809
0.000228509016873223
0.00022884112453408
0.000228923414616293
0.000228942178288959
0.000228946117105648
0.000228946817559327
0.000228946858048168
0.000228946801649584
0.00022894673486603
0.000228946673193396
0.000228946618432067
0.000228946569629251
0.000228946525673938
0.000228946485870583
0.000228946449800416
0.000228946417263546
0.000228946388125577
0.000228946362348595
0.000228946339902058
0.000228946320839732
0.000228946305319486
0.000228946293884891
0.000228946287555984
0.000228946285274056
0.000228946286578455
0.000228946292729782
0.000228946302764131
0.000228946316594264
0.000228946331120956
0.000228946322779457
0.000228946121365174
0.000228944951554214
0.000228939412754472
0.000228915193922871
0.000228816185871598
0.000228440130861546
0.00022712877227533
0.000222995435591477
0.000211444634949243
0.000183475349587556
0.000126370076934081
3.00106317297059e-05
1.14160077902164e-06
1.28541940984986e-06
3.49649780265936e-05
0.000148886122619587
0.000216665964548742
0.000249772056017632
0.00026328740467973
0.000268019403939536
0.000269473324668145
0.000269873322936119
0.000269973508959788
0.000269996629308995
0.000270001560970913
0.000270002477647043
0.000270002564973736
0.000270002516212469
0.000270002451344556
0.000270002389949128
0.000270002334803782
0.000270002285259284
0.000270002240333388
0.000270002199396149
0.000270002162061817
0.000270002128152646
0.00027000209754563
0.000270002070211573
0.000270002046120217
0.000270002025322212
0.000270002007937101
0.000270001994384592
0.000270001985590476
0.000270001980734115
0.000270001979976283
0.000270001983228163
0.000270001990709922
0.000270002001486673
0.000270002011628776
0.000270001992039573
0.000270001748766298
0.000270000403299868
0.000269994051807095
0.000269966172594478
0.000269851665899434
0.000269414825541393
0.000267885803590321
0.000263052852172559
0.000249522302722684
0.000216719101883817
0.000149621344874603
3.55449134577401e-05
1.33417118528575e-06
1.42143720808661e-06
3.89439372872125e-05
0.000165562580201163
0.000240325050132726
0.000276866769717586
0.000291843867657563
0.000297119085185086
0.000298751855603307
0.000299204832593769
0.00029931934412222
0.000299346047675627
0.000299351821078306
0.000299352935396868
0.000299353075176965
0.000299353036275386
0.000299352978152115
0.000299352921378159
0.000299352869615963
0.000299352822619196
0.000299352779631296
0.000299352740150829
0.000299352703862826
0.000299352670633123
0.00029935264036327
0.00029935261304006
0.000299352588638664
0.000299352567206399
0.000299352548820833
0.000299352533775107
0.000299352522622446
0.000299352515466152
0.000299352511783048
0.000299352511869857
0.000299352515866298
0.000299352522285472
0.000299352527086339
0.000299352494455674
0.000299352216352298
0.000299350749316086
0.000299343842780715
0.000299313443762368
0.000299188145701307
0.000298708534717975
0.000297025092745588
0.000291693229771742
0.000276748379099737
0.000240496165705557
0.000166282789999332
3.94755435668787e-05
1.46735695864219e-06
1.50979992181509e-06
4.15948085940438e-05
0.000176843996877756
0.000256360474022471
0.000295273966054013
0.000311278854953059
0.000316944177050081
0.000318708358956508
0.000319201207274709
0.00031932677055796
0.000319356311420074
0.000319362769838927
0.000319364053035932
0.000319364239942637
0.000319364216991756
0.00031936416775333
0.00031936411754196
0.000319364070908574
0.000319364028027079
0.000319363988395404
0.000319363951662576
0.000319363917598939
0.00031936388612221
0.00031936385716437
0.000319363830731178
0.00031936380680612
0.000319363785434691
0.000319363766662799
0.000319363750678789
0.000319363737781663
0.000319363728237995
0.000319363721672739
0.000319363718745414
0.00031936371902507
0.000319363721122645
0.000319363719584615
0.00031936367339744
0.000319363370318531
0.000319361822183595
0.000319354549962487
0.000319322482429654
0.000319189968871569
0.00031868149514572
0.000316893107270282
0.000311220746398282
0.000295309599497837
0.000256704636279069
0.000177648385006246
4.21231920543538e-05
1.55489979402154e-06
1.56423783856439e-06
4.32683531605209e-05
0.00018410904989744
0.000266733799919973
0.000307223997873672
0.00032392568763013
0.000329861274391286
0.000331718612688206
0.000332240404975822
0.000332374188655115
0.000332405893846195
0.000332412889307001
0.00033241430883194
0.000332414536930284
0.000332414529857767
0.000332414489671329
0.000332414446282837
0.00033241440510412
0.000332414366694373
0.000332414330789123
0.000332414297180623
0.000332414265722212
0.000332414236381738
0.000332414209121364
0.000332414183965444
0.000332414160906414
0.000332414139989528
0.000332414121240204
0.000332414104776792
0.000332414090754947
0.000332414079355853
0.000332414070600764
0.000332414064715152
0.000332414061463061
0.000332414059125098
0.00033241405130047
0.00033241399467852
0.000332413675436521
0.000332412074120858
0.000332404569835834
0.000332371441330375
0.000332234301188993
0.000331707167832022
0.000329850505380421
0.00032395580410564
0.000307413044442583
0.000267272085454748
0.000185059489431344
4.38248412157423e-05
1.60992149610377e-06
1.59624861473232e-06
4.42756448027708e-05
0.000188581625463416
0.000273161017970215
0.000314661452641066
0.000331818925464471
0.000337935249393277
0.000339856339789766
0.00034039841389781
0.00034053809776597
0.000340571395022172
0.00034057879637353
0.000340580321227099
0.000340580582242492
0.00034058058933054
0.000340580557215769
0.00034058051993755
0.000340580483706846
0.000340580449407752
0.00034058041697297
0.000340580386314854
0.00034058035735755
0.000340580330111712
0.000340580304565615
0.000340580280759519
0.000340580258694009
0.000340580238415021
0.000340580219935813
0.000340580203334709
0.000340580188689703
0.000340580176126732
0.000340580165717445
0.000340580157553298
0.000340580151365528
0.000340580145639306
0.000340580132729479
0.000340580069420022
0.000340579738724261
0.00034057810377543
0.000340570457700891
0.000340536681339347
0.000340396695664412
0.000339857999555239
0.00033795878393131
0.000331925014589797
0.000314986693601333
0.000273884209854541
0.000189696969563023
4.4873748235096e-05
1.64315653441717e-06
1.61431291856582e-06
4.48567332922464e-05
0.000191224433743086
0.00027698843372383
0.000319113658706871
0.000336559134436976
0.000342792262746023
0.000344755520432273
0.000345311329196557
0.000345455104630093
0.000345489532743755
0.000345497229826966
0.000345498832749781
0.000345499119113241
0.000345499137720463
0.000345499112155874
0.000345499079869282
0.000345499047727287
0.000345499016866797
0.000345498987369893
0.000345498959240738
0.000345498932458313
0.000345498907066316
0.000345498883073497
0.000345498860532542
0.00034549883945053
0.000345498819874213
0.000345498801809858
0.000345498785313438
0.000345498770420019
0.000345498757214191
0.0003454987457451
0.000345498736052728
0.000345498727864913
0.00034549871968587
0.000345498703405509
0.000345498635512445
0.00034549829723021
0.000345496641768349
0.000345488912269615
0.000345454755646986
0.000345313089050776
0.000344767514436701
0.000342842843709298
0.000336725583557578
0.000319549362315721
0.000277868288013105
0.000192491998702588
4.54966255007068e-05
1.66253281663094e-06
1.62414171047354e-06
4.51795135901865e-05
0.000192728982913002
0.000279186484677106
0.000321685397650689
0.000339306973080962
0.000345613166680158
0.000347603421742284
0.00034816823276136
0.000348314753777413
0.000348349958835312
0.000348357864078455
0.000348359523021917
0.000348359828111928
0.000348359855436668
0.000348359834791085
0.000348359806339183
0.000348359777381521
0.000348359749235696
0.000348359722088834
0.000348359696010117
0.000348359671017851
0.000348359647179233
0.000348359624517978
0.000348359603095434
0.000348359582923633
0.000348359564049765
0.000348359546476117
0.000348359530246093
0.000348359515370947
0.000348359501906995
0.000348359489875144
0.000348359479287424
0.000348359469868779
0.000348359460109001
0.000348359441699317
0.000348359370874454
0.000348359027849208
0.000348357360353017
0.000348349583557456
0.000348315212040494
0.000348172589835883
0.000347623078129489
0.000345683756906542
0.000339518258254299
0.000322204254679512
0.000280187553238307
0.000194120102292557
4.58543497818315e-05
1.67347621408052e-06
1.62931850739288e-06
4.53528522135206e-05
0.000193557111719691
0.000280407765516937
0.000323123287928303
0.000340849261658052
0.000347199775884166
0.0003492067921912
0.000349777324148246
0.000349925631082612
0.000349961353402907
0.000349969400570285
0.000349971098502987
0.000349971417053699
0.00034997145074679
0.000349971433469207
0.000349971407861676
0.000349971381313464
0.000349971355257396
0.000349971329949479
0.000349971305502119
0.000349971281960008
0.000349971259405877
0.000349971237873348
0.000349971217429518
0.000349971198089587
0.00034997117990109
0.000349971162863877
0.000349971147014054
0.000349971132349723
0.000349971118909263
0.000349971106692857
0.000349971095694552
0.000349971085633915
0.000349971074985676
0.00034997105535082
0.000349970982806899
0.000349970637014598
0.000349968962767951
0.000349961160136147
0.000349926671485225
0.00034978352522257
0.000349231839625255
0.000347284383116988
0.000341091984298622
0.000323700908087012
0.000281495968200964
0.000195039560308532
4.60537061752524e-05
1.67948255430881e-06
1.63196682344727e-06
4.54431572645231e-05
0.000193999206353361
0.00028106622853011
0.000323903708731417
0.000341689814530386
0.000348066450661574
0.000350083577211017
0.000350657640829693
0.000350807075954152
0.000350843132636867
0.000350851273731136
0.000350852997963727
0.000350853326386796
0.000350853364962421
0.000350853349343552
0.000350853325807031
0.000350853301074687
0.000350853276627427
0.000350853252762717
0.000350853229620516
0.000350853207262378
0.000350853185780257
0.000350853165213947
0.000350853145633862
0.000350853127057263
0.000350853109531566
0.000350853093055193
0.000350853077659871
0.00035085306333626
0.000350853050111818
0.000350853037973641
0.000350853026903764
0.000350853016616372
0.000350853005576436
0.000350852985345361
0.000350852911917593
0.00035085256465867
0.000350850886832375
0.000350843070620817
0.00035080852028403
0.00035066509609682
0.000350112249353857
0.000348160421606016
0.000341953500923968
0.000324520659043054
0.000282213341737038
0.000195544415607815
4.61618255657463e-05
1.68269485801399e-06
1.63328642960105e-06
4.54889322589929e-05
0.000194228754531176
0.000281411651473624
0.000324315977242261
0.000342135805130444
0.000348527430822916
0.000350550494003104
0.000351126679499915
0.000351276808101504
0.000351313075069207
0.000351321276651872
0.000351323018119199
0.000351323353301347
0.000351323394992566
0.000351323381194776
0.00035132335923726
0.00035132333591696
0.000351323312749597
0.000351323290057308
0.000351323267998299
0.000351323246644527
0.00035132322609257
0.00035132320638547
0.000351323187595195
0.000351323169740215
0.000351323152867586
0.000351323136974744
0.000351323122090601
0.000351323108201554
0.000351323095328321
0.000351323083450149
0.000351323072541202
0.000351323062311656
0.000351323051221956
0.000351323030819751
0.000351322957062315
0.00035132260916288
0.000351320929603108
0.000351313106571608
0.000351278524830733
0.000351134957769952
0.000350581509366233
0.000348627402142649
0.000342412869563937
0.000324958037578481
0.000282596573647601
0.000195814611471286
4.62190314098324e-05
1.68437275882181e-06
1.63392830384941e-06
4.55115621215658e-05
0.000194344958486099
0.000281588378759501
0.000324528448836471
0.000342366728157741
0.00034876674540269
0.000350793208746496
0.000351370637416192
0.000351521181607985
0.00035155757753992
0.000351565817164314
0.000351567569733611
0.000351567909297269
0.000351567953495599
0.00035156794128446
0.00035156792059964
0.000351567898434724
0.000351567876335577
0.000351567854639472
0.000351567833519469
0.000351567813054366
0.000351567793341749
0.000351567774425587
0.000351567756378177
0.000351567739218636
0.000351567722993394
0.000351567707699375
0.000351567693363241
0.000351567679968862
0.000351567667532557
0.000351567656028806
0.000351567645426539
0.000351567635433384
0.00035156762450895
0.000351567604200143
0.000351567530453007
0.000351567182404398
0.000351565502141026
0.000351557675887746
0.00035152307870611
0.000351379440288705
0.000350825688553359
0.000348870424164514
0.000342652005857704
0.000325185892241351
0.00028279650450712
0.000195955871236565
4.62486211438013e-05
1.68523037958891e-06
1.63423350466032e-06
4.55224922428154e-05
0.000194402422265387
0.000281676737525544
0.000324635494088554
0.000342483644592018
0.000348888254498467
0.000350916621172441
0.000351494761493367
0.000351645549003051
0.000351682022265959
0.00035169028537082
0.000351692045060086
0.000351692387612684
0.000351692433814265
0.00035169242297574
0.00035169240338824
0.000351692382235464
0.000351692361085645
0.000351692340284607
0.000351692320023366
0.000351692300386208
0.000351692281468367
0.000351692263312443
0.000351692245990156
0.000351692229520749
0.00035169221395011
0.000351692199274631
0.000351692185519193
0.000351692172665743
0.000351692160727503
0.00035169214967565
0.000351692139475478
0.000351692129832914
0.000351692119208185
0.000351692099152875
0.000351692025613983
0.00035169167769226
0.000351689997279307
0.000351682169663723
0.000351647565197004
0.000351503892098945
0.000350949991088279
0.000348994152904919
0.000342773796616012
0.000325302026902968
0.000282898561418419
0.000196028144377525
4.62636080525862e-05
1.68565994848153e-06
1.63437545263723e-06
4.55276546593284e-05
0.000194430217481232
0.000281719974425188
0.000324688302123437
0.000342541627572071
0.000348948700248765
0.000350978110480703
0.000351556649674934
0.000351707576672506
0.000351744095421244
0.000351752372843693
0.000351754137127728
0.000351754481829062
0.000351754529689126
0.000351754520077248
0.000351754501489504
0.000351754481271647
0.000351754461003447
0.000351754441033475
0.000351754421581086
0.000351754402737089
0.000351754384590062
0.000351754367178894
0.000351754350573668
0.000351754334793614
0.000351754319884017
0.000351754305841072
0.000351754292687576
0.000351754280403916
0.000351754269000575
0.000351754258446296
0.000351754248703169
0.000351754239475542
0.000351754229223642
0.000351754209503494
0.000351754136266075
0.000351753788597925
0.00035175210830503
0.00035174428024761
0.000351709672531966
0.000351565983007009
0.000351012009982672
0.00034905589266803
0.000342834588391835
0.000325360038469364
0.000282949616467548
0.000196064382403387
4.62710491093731e-05
1.68587097466018e-06
1.63443997206168e-06
4.55300370799851e-05
0.000194443369568612
0.000281740696233021
0.000324713838782247
0.000342569829876166
0.000348978199952669
0.000351008171994487
0.000351586930600522
0.000351737936102664
0.000351774481208969
0.000351782767338126
0.000351784534656852
0.000351784881000461
0.000351784930298417
0.000351784921825075
0.000351784904188625
0.000351784884870937
0.000351784865450168
0.000351784846269892
0.000351784827597168
0.000351784809531346
0.000351784792149026
0.000351784775482239
0.000351784759598513
0.000351784744516882
0.000351784730282373
0.000351784716891388
0.000351784704364032
0.000351784692678656
0.000351784681843175
0.000351784671824135
0.000351784662580588
0.000351784653814556
0.000351784643984338
0.000351784624646297
0.000351784551752479
0.000351784204388934
0.000351782524341945
0.000351774696288061
0.000351740087270356
0.000351596390166464
0.000351042382873326
0.000349086131483052
0.000342864369934625
0.000325388474564362
0.000282974673117967
0.000196082201665985
4.62746713126539e-05
1.68597251285085e-06
1.63446840478631e-06
4.55311058873824e-05
0.000194449443372319
0.000281750417013885
0.000324725947023664
0.000342583292250294
0.000348992336180816
0.000351022606163026
0.000351601483564203
0.000351752532581044
0.000351789092814579
0.000351797384281388
0.000351799153681593
0.000351799501357838
0.000351799551936337
0.000351799544531213
0.000351799527806491
0.000351799509360888
0.000351799490756253
0.000351799472321059
0.00035179945439611
0.000351799437090395
0.000351799420462354
0.000351799404534506
0.000351799389370964
0.000351799374990503
0.000351799361438802
0.000351799348713933
0.000351799336831206
0.000351799325766097
0.00035179931552382
0.00035179930606865
0.000351799297356478
0.000351799289086263
0.000351799279711632
0.000351799260784099
0.00035179918825178
0.000351798841209486
0.000351797161462893
0.000351789333617395
0.000351754724205581
0.000351611023700439
0.000351057000142589
0.000349100684469293
0.000342878703543959
0.000325402163075058
0.000282986741228937
0.000196090791868299
4.62763974091599e-05
1.68602027685344e-06
1.63448024510268e-06
4.55315622718765e-05
0.000194452155152188
0.000281754862128008
0.000324731566629014
0.000342589594067162
0.000348998984909674
0.00035102941128353
0.00035160835224947
0.000351759425117525
0.000351795994001686
0.000351804288800823
0.000351806059699406
0.000351806408531385
0.000351806460262243
0.000351806453849037
0.000351806437985313
0.000351806420375588
0.000351806402553503
0.000351806384822592
0.000351806367617685
0.00035180635105319
0.000351806335166177
0.00035180631996911
0.000351806305522622
0.000351806291845442
0.000351806278985709
0.000351806266946667
0.000351806255734451
0.000351806245319603
0.000351806235704253
0.000351806226850478
0.000351806218710868
0.00035180621098073
0.000351806202107164
0.000351806183632574
0.000351806111497563
0.00035180576481062
0.00035180408541357
0.0003517962578879
0.000351761648511657
0.00035161794655389
0.000351063915173078
0.000349107568204662
0.000342885481205279
0.000325408631152655
0.000282992437980335
0.000196094839318387
4.62771975875384e-05
1.68604209039684e-06
1.6344843467849e-06
4.55317372960073e-05
0.000194453296100402
0.000281756821828854
0.000324734105808003
0.000342592476842192
0.000349002046402266
0.000351032554786888
0.000351611529620388
0.000351762615488786
0.000351799189326021
0.000351807486250756
0.000351809258281487
0.000351809608212582
0.000351809660977087
0.000351809655446923
0.000351809640353588
0.000351809623508468
0.000351809606415873
0.000351809589354156
0.000351809572840028
0.000351809556982958
0.000351809541804837
0.000351809527311991
0.000351809513562324
0.000351809500574818
0.000351809488403067
0.000351809477062528
0.000351809466542153
0.000351809456804352
0.000351809447847774
0.000351809439632083
0.000351809432106754
0.000351809424963501
0.000351809416642168
0.000351809398674782
0.00035180932699317
0.000351808980719722
0.000351807301731995
0.00035179947460521
0.000351764865483474
0.000351621162991305
0.000351067127728087
0.00034911076492576
0.000342888625269702
0.000325411623727259
0.000282995062733534
0.000196096686181133
4.62775524319423e-05
1.68605193332315e-06
1.63448375427559e-06
4.55317692823341e-05
0.000194453697766821
0.000281757622829787
0.000324735202971174
0.000342593748111058
0.000349003410788379
0.000351033962838637
0.000351612955928376
0.000351764048936912
0.000351800625656491
0.000351808923993681
0.000351810696950011
0.000351811048108803
0.000351811101856329
0.000351811097119039
0.000351811082709083
0.00035181106656013
0.000351811050164781
0.000351811033791924
0.000351811017975538
0.000351811002814205
0.000351810988330816
0.000351810974532429
0.00035181096147561
0.000351810949179763
0.000351810937705613
0.000351810927085924
0.000351810917284978
0.000351810908257526
0.000351810899999388
0.000351810892467775
0.000351810885609457
0.000351810879113035
0.000351810871412022
0.000351810854029355
0.000351810782889075
0.000351810437124064
0.000351808758639051
0.000351800932009486
0.000351766323306461
0.000351622620779251
0.00035106858357276
0.000349112212305308
0.000342890045054451
0.000325412964704125
0.000282996227178967
0.000196097479589734
4.62776980513965e-05
1.68605509154705e-06
1.63448071876601e-06
4.55317324167252e-05
0.000194453759368072
0.000281757864125497
0.000324735602441268
0.000342594257687419
0.000349003975207371
0.000351034551769262
0.000351613555012833
0.000351764652051935
0.000351801230531856
0.000351809529879616
0.000351811303630155
0.000351811656162064
0.000351811710882083
0.000351811706937566
0.000351811693212496
0.000351811677768603
0.000351811662118627
0.000351811646545662
0.000351811631509053
0.000351811617102041
0.000351811603364552
0.00035181159031172
0.000351811578000198
0.000351811566449541
0.000351811555720644
0.000351811545845407
0.000351811536784345
0.000351811528494083
0.000351811520970168
0.000351811514166529
0.000351811508027652
0.000351811502240347
0.000351811495233672
0.000351811478524884
0.000351811408032116
0.000351811062894626
0.000351809385034353
0.000351801559032825
0.000351766950928603
0.000351623248753491
0.000351069210783213
0.000349112834884125
0.000342890651316815
0.000325413523786991
0.000282996675341717
0.000196097756480394
4.62777274225904e-05
1.68605386153286e-06
1.63447848528739e-06
4.55316850454856e-05
0.000194453669341092
0.000281757828551036
0.000324735654347871
0.000342594383511786
0.000349004136575696
0.00035103472957485
0.000351613739776477
0.000351764839783802
0.00035180141983001
0.000351809720286915
0.000351811494910256
0.000351811848327214
0.000351811904056456
0.000351811901160298
0.000351811888372173
0.000351811873862091
0.000351811859183419
0.000351811844641971
0.000351811830582356
0.000351811817098631
0.000351811804252419
0.000351811792071941
0.000351811780613775
0.0003518117698969
0.000351811759973558
0.000351811750857285
0.000351811742532208
0.000351811734959914
0.000351811728131846
0.000351811722000537
0.000351811716507542
0.000351811711337445
0.000351811704915599
0.000351811688755321
0.000351811618769651
0.000351811274097109
0.000351809596666965
0.000351801771072392
0.00035176716334417
0.000351623461350648
0.00035106942262345
0.000349113042563101
0.000342890844839144
0.000325413683948263
0.0002829967648559
0.000196097787565099
4.62777020461199e-05
1.68605262994361e-06
1.63447608726951e-06
4.55316236492909e-05
0.000194453479992259
0.00028175764453682
0.000324735514582362
0.000342594278618371
0.000349004056935963
0.000351034661920407
0.000351613677290057
0.000351764779681948
0.00035180136119303
0.000351809662805204
0.000351811438232867
0.000351811791823321
0.000351811848561468
0.000351811846814266
0.00035181183506808
0.000351811821583763
0.000351811807949346
0.000351811794487072
0.000351811781452697
0.000351811768936813
0.000351811757016737
0.000351811745727036
0.00035181173512938
0.000351811725243057
0.000351811716113148
0.000351811707742365
0.0003518117001308
0.000351811693242211
0.000351811687062797
0.000351811681540399
0.000351811676612566
0.000351811671961919
0.000351811666011222
0.000351811650272742
0.000351811580655197
0.00035181123628939
0.000351809559105977
0.000351801733728693
0.000351767126235318
0.000351623424433791
0.000351069385300912
0.000349113002229693
0.000342890794662947
0.000325413616111874
0.00028299668331849
0.000196097700618238
4.62776650711532e-05
1.68605121464228e-06
1.63447313693553e-06
4.5531539028512e-05
0.000194453164480474
0.0002817572812453
0.000324735164876859
0.000342593950567328
0.000349003744500514
0.000351034357283285
0.000351613376075129
0.000351764480098969
0.000351801062693755
0.000351809365218262
0.000351811141271307
0.000351811495083653
0.00035181155265696
0.000351811551881763
0.000351811541026329
0.000351811528432952
0.000351811515707647
0.000351811503177047
0.000351811491044286
0.000351811479395429
0.00035181146831619
0.000351811457846083
0.000351811448049404
0.000351811438946487
0.000351811430579986
0.000351811422948229
0.000351811416057656
0.000351811409870777
0.000351811404366576
0.000351811399486352
0.000351811395164649
0.00035181139108485
0.000351811385671135
0.00035181137044064
0.000351811301300738
0.000351810957369326
0.00035180928058324
0.000351801455651754
0.000351766848860208
0.000351623148351223
0.000351069111489567
0.000349112731782631
0.000342890528479771
0.000325413357108229
0.0002829964427799
0.000196097511304388
4.6277614032073e-05
1.68604957714579e-06
1.63446906348431e-06
4.55314067741489e-05
0.000194452612919055
0.000281756592164497
0.000324734446943135
0.00034259323672412
0.00034900303865
0.000351033656338264
0.00035161267748826
0.000351763782736232
0.000351800366229941
0.000351808669572184
0.000351810446284508
0.000351810800547737
0.000351810858897706
0.000351810858984963
0.000351810848927682
0.000351810837143068
0.000351810825240011
0.000351810813545241
0.000351810802232558
0.000351810791382883
0.000351810781085671
0.000351810771383732
0.000351810762343439
0.000351810753987335
0.000351810746358652
0.000351810739454933
0.000351810733283376
0.000351810727801309
0.000351810722976831
0.000351810718742243
0.000351810715029935
0.000351810711527587
0.000351810706665394
0.000351810691972134
0.000351810623357009
0.000351810279919104
0.000351808603617386
0.000351800779343948
0.000351766173861225
0.00035162247631124
0.000351068445991322
0.00034911207975278
0.000342889902207439
0.000325412777839837
0.000282995947104077
0.000196097164426396
4.62775393863876e-05
1.68604748296141e-06
1.63446217139185e-06
4.55311732748156e-05
0.000194451566461354
0.000281755223783618