/*--------------------------------*- C++ -*----------------------------------*\
  =========                 |
  \\      /  F ield         | OpenFOAM: The Open Source CFD Toolbox
   \\    /   O peration     | Website:  https://openfoam.org
    \\  /    A nd           | Version:  10
     \\/     M anipulation  |
\*---------------------------------------------------------------------------*/
FoamFile
{
    format      ascii;
    class       volScalarField;
    location    "2";
    object      nut;
}
// * * * * * * * * * * * * * * * * * * * * * * * * * * * * * * * * * * * * * //

dimensions      [0 2 -1 0 0 0 0];

internalField   nonuniform List<scalar> 
2500
(
7.60914059153378e-14
9.20173024834491e-13
3.35059690158905e-12
4.9142927654049e-12
5.65021749238136e-12
5.93057607566686e-12
6.02113622381371e-12
6.04674365843807e-12
6.05323406283399e-12
6.05473412068764e-12
6.05505284634746e-12
6.05511340365584e-12
6.05512091574592e-12
6.05511895418743e-12
6.0551160901238e-12
6.05511334029582e-12
6.05511092640753e-12
6.05510884456347e-12
6.0551070202798e-12
6.05510538818563e-12
6.05510392465185e-12
6.055102612729e-12
6.05510144309012e-12
6.05510040485683e-12
6.05509950439315e-12
6.05509874212308e-12
6.05509811220431e-12
6.0550976279e-12
6.05509731412523e-12
6.05509721675526e-12
6.05509731064829e-12
6.05509758611825e-12
6.05509802419243e-12
6.05509856208064e-12
6.05509934462796e-12
6.05510027620854e-12
6.05510093824407e-12
6.05509807710056e-12
6.05507476862874e-12
6.05495656884249e-12
6.05443035149167e-12
6.0522491958043e-12
6.0438153105412e-12
6.0136946347773e-12
5.91577519193526e-12
5.63168524886609e-12
4.9157783067225e-12
3.40928508952923e-12
9.73941041251635e-13
8.40474974286016e-14
4.90640359494802e-12
2.17262767821529e-10
8.42499279107832e-10
1.25622883027005e-09
1.45826214863635e-09
1.5379670438068e-09
1.5645293446452e-09
1.57224863309142e-09
1.57425241921214e-09
1.57472537299858e-09
1.57482789805133e-09
1.57484798417237e-09
1.57485083344048e-09
1.57485043570074e-09
1.5748497191734e-09
1.57484901099506e-09
1.57484838348723e-09
1.57484783730712e-09
1.57484735655902e-09
1.57484692754732e-09
1.57484654355783e-09
1.57484620016557e-09
1.57484589427459e-09
1.57484562124872e-09
1.57484538357457e-09
1.57484518302466e-09
1.57484501629724e-09
1.57484488789548e-09
1.57484480515173e-09
1.57484477537169e-09
1.57484479427181e-09
1.5748448579221e-09
1.57484496540512e-09
1.57484510491256e-09
1.57484530166078e-09
1.57484553095593e-09
1.57484564871755e-09
1.57484456383762e-09
1.57483686153444e-09
1.5747992383023e-09
1.5746346063483e-09
1.57396260855466e-09
1.57140845519331e-09
1.56246425552806e-09
1.53404017612513e-09
1.45371343660307e-09
1.25731774191086e-09
8.57695726359954e-10
2.30007752770305e-10
5.54907979589975e-12
1.56816250621782e-11
3.68236223176988e-09
1.11373898744468e-06
1.65598383983694e-06
1.92319251864299e-06
2.03092229265241e-06
2.06774707002805e-06
2.0787245146646e-06
2.08164377912444e-06
2.08234864952424e-06
2.08250490888322e-06
2.08253647253831e-06
2.08254149558505e-06
2.08254127741271e-06
2.08254047144316e-06
2.08253963717742e-06
2.08253888903525e-06
2.08253823368596e-06
2.08253765519404e-06
2.0825371381359e-06
2.08253667421944e-06
2.08253625791995e-06
2.08253588615608e-06
2.08253555538988e-06
2.08253526582318e-06
2.08253501884213e-06
2.08253481407613e-06
2.08253465381253e-06
2.08253454685619e-06
2.08253450311853e-06
2.08253451265372e-06
2.08253457561513e-06
2.08253469231406e-06
2.08253485136572e-06
2.08253506991728e-06
2.08253531487089e-06
2.08253535800373e-06
2.08253353095455e-06
2.08252194830783e-06
2.08246695781742e-06
2.08222911442548e-06
2.08126868865218e-06
2.07766217878037e-06
2.0652073862131e-06
2.02624788282717e-06
1.91800318028093e-06
1.65745331865238e-06
1.1311731009585e-06
3.86549863656978e-09
1.72602706211032e-11
2.60611657351424e-11
6.25529956129104e-09
1.87403965582575e-06
2.75819815524156e-06
3.19137916689115e-06
3.36673909754651e-06
3.42723042260211e-06
3.44547295076267e-06
3.45038691245163e-06
3.45158967352646e-06
3.45186025261159e-06
3.45191602009e-06
3.4519254397881e-06
3.45192554310957e-06
3.45192444792302e-06
3.45192325380846e-06
3.45192216982844e-06
3.45192121501451e-06
3.45192036935219e-06
3.45191961126573e-06
3.45191892817878e-06
3.45191831284756e-06
3.45191776131975e-06
3.45191726964571e-06
3.45191683706833e-06
3.45191646465857e-06
3.45191615307899e-06
3.45191590466952e-06
3.45191573139738e-06
3.45191564770033e-06
3.45191563795234e-06
3.45191570431918e-06
3.45191584616072e-06
3.45191605381077e-06
3.45191633800289e-06
3.4519166518551e-06
3.45191663721073e-06
3.45191362729985e-06
3.45189532109096e-06
3.45180846770232e-06
3.45143062402848e-06
3.44989508284284e-06
3.44409493179663e-06
3.4239646602738e-06
3.36074969922795e-06
3.18456861559602e-06
2.75896657287692e-06
1.8932730387688e-06
6.46378208355319e-09
2.78399533350585e-11
3.45084141635116e-11
8.37434925834636e-09
2.48765436204662e-06
3.63600854665261e-06
4.19718268226771e-06
4.42531220591239e-06
4.5046311567768e-06
4.52879204191836e-06
4.53537412553053e-06
4.5370050394083e-06
4.53737691850226e-06
4.53745498205173e-06
4.53746886301514e-06
4.53746966484749e-06
4.53746854681539e-06
4.53746722319057e-06
4.53746600065177e-06
4.537464915018e-06
4.53746394774503e-06
4.53746307653844e-06
4.53746228769807e-06
4.53746157325397e-06
4.53746092923634e-06
4.53746035200361e-06
4.53745984087292e-06
4.5374593960455e-06
4.5374590183824e-06
4.53745871051455e-06
4.53745848351555e-06
4.5374583579548e-06
4.5374583128691e-06
4.5374583392932e-06
4.53745846049793e-06
4.53745865808156e-06
4.53745893216852e-06
4.53745922037387e-06
4.53745905524966e-06
4.53745506381722e-06
4.53743187984473e-06
4.53732210742121e-06
4.5368421148023e-06
4.5348798670777e-06
4.52742679257184e-06
4.50143678089449e-06
4.41951730234019e-06
4.19058843842663e-06
3.63625295597241e-06
2.5044559554787e-06
8.56417738536651e-09
3.61937119515975e-11
4.07704818519506e-11
9.98146496824761e-09
2.95161399878394e-06
4.29534957609096e-06
4.95167765921272e-06
5.21961877431876e-06
5.31343026987633e-06
5.34225409850658e-06
5.35018401724735e-06
5.35217019182481e-06
5.35262854976925e-06
5.35272631918479e-06
5.3527444915257e-06
5.35274622243663e-06
5.35274525561285e-06
5.35274396960393e-06
5.35274275235671e-06
5.35274165898339e-06
5.35274067674738e-06
5.35273978608478e-06
5.35273897451405e-06
5.35273823457788e-06
5.35273756263962e-06
5.35273695590042e-06
5.35273641396549e-06
5.35273593640182e-06
5.35273552416108e-06
5.35273517941964e-06
5.35273491059911e-06
5.35273473621174e-06
5.35273464002653e-06
5.35273462525047e-06
5.35273468948768e-06
5.35273483742469e-06
5.35273505111898e-06
5.35273525231145e-06
5.35273486409788e-06
5.35273004149862e-06
5.35270336817465e-06
5.35257745134052e-06
5.35202475081225e-06
5.34975467149737e-06
5.34109436642164e-06
5.31078167770593e-06
5.21496885489703e-06
4.94672648953214e-06
4.29640334398e-06
2.96618967180051e-06
1.01470125910339e-08
4.2316523929723e-11
4.50907188440079e-11
1.1118544628294e-08
3.28253847752965e-06
4.76483042714993e-06
5.4893315161522e-06
5.78627747466831e-06
5.89086740933366e-06
5.92323977971844e-06
5.93222079476727e-06
5.93449117394504e-06
5.93502061572946e-06
5.93513508281459e-06
5.93515717583345e-06
5.93515994709436e-06
5.9351591757727e-06
5.93515802338767e-06
5.93515689775335e-06
5.93515587149574e-06
5.9351549397311e-06
5.9351540874561e-06
5.93515330472838e-06
5.93515258537146e-06
5.93515192665934e-06
5.93515132653358e-06
5.93515078483652e-06
5.93515030110134e-06
5.93514987623057e-06
5.93514951172829e-06
5.93514921341143e-06
5.93514899229568e-06
5.93514885047846e-06
5.93514877756966e-06
5.93514877925674e-06
5.93514885842628e-06
5.9351489857519e-06
5.93514908101003e-06
5.93514843414125e-06
5.93514292042515e-06
5.93511383421094e-06
5.93497690107195e-06
5.93437419104904e-06
5.93188995152983e-06
5.92238087518668e-06
5.8890038631227e-06
5.78329085638793e-06
5.48698430416898e-06
4.76822324391884e-06
3.29681788670189e-06
1.12703165295887e-08
4.65472706695105e-11
4.78957137703058e-11
1.18757437367026e-08
3.50630820156282e-06
5.08289397796893e-06
5.85443792990268e-06
6.17176932309555e-06
6.28409651780531e-06
6.31907521491568e-06
6.32884699124665e-06
6.33133655285154e-06
6.33192226383444e-06
6.3320503158334e-06
6.3320757579473e-06
6.33207946377084e-06
6.33207900873837e-06
6.33207803251883e-06
6.33207703702011e-06
6.33207611246306e-06
6.3320752622963e-06
6.33207447656774e-06
6.33207374831675e-06
6.33207307301044e-06
6.3320724489943e-06
6.33207187489316e-06
6.33207135085598e-06
6.33207087655071e-06
6.33207045287818e-06
6.33207008074171e-06
6.33206976386191e-06
6.33206950818643e-06
6.33206931902232e-06
6.33206918892315e-06
6.33206913091483e-06
6.33206913648623e-06
6.33206917813008e-06
6.33206914769143e-06
6.33206823199238e-06
6.33206222288147e-06
6.33203152787886e-06
6.3318873406041e-06
6.33125153310448e-06
6.32862416756644e-06
6.3185425844953e-06
6.28308395390375e-06
6.17061720672991e-06
5.85514447010079e-06
5.08971780301159e-06
3.52225696404122e-06
1.20266019348982e-08
4.93263850463017e-11
4.96232345388109e-11
1.23536621632977e-08
3.65038062045711e-06
5.2886049131782e-06
6.09141552267422e-06
6.4225646317161e-06
6.5402511778601e-06
6.57707714508323e-06
6.58742286693358e-06
6.59007543339725e-06
6.5907040611114e-06
6.5908427620987e-06
6.59087090744827e-06
6.59087543005632e-06
6.59087528987349e-06
6.59087449314075e-06
6.59087363292531e-06
6.59087281652503e-06
6.59087205502534e-06
6.59087134318575e-06
6.59087067688828e-06
6.5908700532247e-06
6.59086947155137e-06
6.59086893111547e-06
6.59086843240787e-06
6.5908679752749e-06
6.59086756061352e-06
6.59086718892823e-06
6.59086686256047e-06
6.5908665845998e-06
6.590866358646e-06
6.59086618511711e-06
6.59086606847217e-06
6.59086600404082e-06
6.59086595773848e-06
6.59086580264855e-06
6.59086468003975e-06
6.59085835039356e-06
6.59082660071728e-06
6.59067781121993e-06
6.59002096314708e-06
6.58730184727637e-06
6.57685022674333e-06
6.54003766027465e-06
6.42316176418733e-06
6.09516381345975e-06
5.29927767634249e-06
3.66922526887173e-06
1.25125463778569e-08
5.10724700147958e-11
5.06388871570856e-11
1.26412837085472e-08
3.73906663195058e-06
5.41604878059674e-06
6.23889091905333e-06
6.57907751084593e-06
6.7003477812165e-06
6.73843784201216e-06
6.74918571505893e-06
6.7519552708609e-06
6.75261546601774e-06
6.75276221497198e-06
6.75279244876915e-06
6.75279762405553e-06
6.7527977646491e-06
6.75279712796055e-06
6.7527963888976e-06
6.75279567060575e-06
6.75279499061301e-06
6.752794347586e-06
6.7527937397875e-06
6.75279316571218e-06
6.75279262556959e-06
6.75279211912707e-06
6.75279164718452e-06
6.75279120975205e-06
6.75279080773988e-06
6.75279044141158e-06
6.75279011231866e-06
6.75278982200781e-06
6.7527895729779e-06
6.75278936664857e-06
6.75278920483052e-06
6.75278908219668e-06
6.75278896871321e-06
6.75278871279557e-06
6.75278745758665e-06
6.75278090082488e-06
6.75274848422817e-06
6.75259688316018e-06
6.75192718871611e-06
6.74915164897992e-06
6.73847075267371e-06
6.70081441003636e-06
6.58118097593349e-06
6.24533957824576e-06
5.43038774148194e-06
3.76118091548995e-06
1.28120501404178e-08
5.21269749420091e-11
5.12119926935691e-11
1.28071986245699e-08
3.79146807152259e-06
5.49193840410745e-06
6.32716875016809e-06
6.67306579139169e-06
6.79665202470527e-06
6.83557816422217e-06
6.84659836278634e-06
6.84944904443098e-06
6.85013166172034e-06
6.85028427430593e-06
6.85031605602374e-06
6.85032173390071e-06
6.85032210289212e-06
6.85032159607784e-06
6.8503209559865e-06
6.85032031876383e-06
6.85031970695101e-06
6.85031912217545e-06
6.85031856451955e-06
6.85031803356602e-06
6.85031753018078e-06
6.85031705453699e-06
6.85031660767929e-06
6.85031618974756e-06
6.85031580166831e-06
6.850315443566e-06
6.85031511654994e-06
6.85031482131525e-06
6.8503145595394e-06
6.85031433219653e-06
6.85031414007867e-06
6.85031397778992e-06
6.85031381567303e-06
6.85031349292613e-06
6.85031214683522e-06
6.85030543964932e-06
6.85027261631853e-06
6.8501193611097e-06
6.84944212684333e-06
6.84663325786971e-06
6.83581597515655e-06
6.7976549117299e-06
6.6763660336992e-06
6.33580758807648e-06
5.50938356098053e-06
3.81660049132976e-06
1.29898964269387e-08
5.27417054998951e-11
5.15238071658307e-11
1.28993580180089e-08
3.82129956935963e-06
5.53552029205825e-06
6.37815992241428e-06
6.72754857160876e-06
6.85258350226783e-06
6.89204493011944e-06
6.90324362005351e-06
6.90614873944805e-06
6.90684676151081e-06
6.90700350136248e-06
6.90703639382331e-06
6.90704244299922e-06
6.90704298483659e-06
6.90704257555348e-06
6.90704201149403e-06
6.9070414374084e-06
6.90704087942052e-06
6.90704034124028e-06
6.90703982423914e-06
6.90703932877963e-06
6.9070388561938e-06
6.90703840695148e-06
6.90703798226883e-06
6.90703758238416e-06
6.90703720823276e-06
6.90703685985987e-06
6.90703653812586e-06
6.90703624325365e-06
6.90703597635977e-06
6.90703573785857e-06
6.90703552798832e-06
6.9070353412954e-06
6.90703514783638e-06
6.90703478287034e-06
6.90703337864916e-06
6.90702657742085e-06
6.9069935154782e-06
6.90683932248779e-06
6.90615782739258e-06
6.90333001106352e-06
6.89243466559498e-06
6.85398311942912e-06
6.73173779283751e-06
6.38844746994124e-06
5.55536880299587e-06
3.84888174288609e-06
1.30920328198692e-08
5.3088880545178e-11
5.16880355495073e-11
1.29488485873616e-08
3.83771914946473e-06
5.55973501728124e-06
6.40666942921687e-06
6.75812801587267e-06
6.88404170549471e-06
6.92383546383984e-06
6.93514758462532e-06
6.93808811399089e-06
6.93879639198056e-06
6.93895594580968e-06
6.93898961132285e-06
6.93899592738856e-06
6.93899659549331e-06
6.93899625298855e-06
6.93899574532522e-06
6.93899521901236e-06
6.93899470245861e-06
6.93899420073956e-06
6.9389937160836e-06
6.93899324937652e-06
6.93899280225832e-06
6.93899237539535e-06
6.93899197011768e-06
6.93899158672645e-06
6.93899122616386e-06
6.93899088842674e-06
6.93899057423078e-06
6.93899028353818e-06
6.93899001710971e-06
6.93898977494888e-06
6.93898955693748e-06
6.93898935751519e-06
6.93898914643994e-06
6.9389887571816e-06
6.93898731887564e-06
6.93898046278355e-06
6.93894726699693e-06
6.93879256174268e-06
6.93810874419541e-06
6.93527053720415e-06
6.92433208932511e-06
6.88571924233277e-06
6.76294055782041e-06
6.41812209203209e-06
5.5813111640329e-06
3.86711213615366e-06
1.31489518133274e-08
5.32794253994037e-11
5.17720493252367e-11
1.29746316757202e-08
3.84648463417758e-06
5.57279047507389e-06
6.42214296737501e-06
6.77479380533e-06
6.90122542002408e-06
6.94121963666021e-06
6.95260178062773e-06
6.95556467892689e-06
6.95627958641472e-06
6.95644100255947e-06
6.95647518952824e-06
6.956481701336e-06
6.95648246624807e-06
6.95648215663083e-06
6.95648169002972e-06
6.95648119972026e-06
6.95648071506445e-06
6.95648024195991e-06
6.95647978318132e-06
6.95647933994878e-06
6.9564789140852e-06
6.95647850637928e-06
6.95647811822687e-06
6.95647774996996e-06
6.95647740254842e-06
6.95647707593077e-06
6.95647677074583e-06
6.9564764868083e-06
6.95647622466237e-06
6.9564759840521e-06
6.95647576462111e-06
6.95647556070236e-06
6.95647534186026e-06
6.95647494077999e-06
6.95647348494921e-06
6.95646659977751e-06
6.95643333301612e-06
6.956278358514e-06
6.9555933179132e-06
6.952749600474e-06
6.94178813038771e-06
6.90308861413462e-06
6.78002200223343e-06
6.43437544150679e-06
5.59553465917816e-06
3.8771219960962e-06
1.31798211313069e-08
5.33813309999703e-11
5.18139110714208e-11
1.29877007723377e-08
3.85103587613905e-06
5.57963916532243e-06
6.43031700749399e-06
6.78363645640351e-06
6.91036527117211e-06
6.9504771944167e-06
6.96190140929423e-06
6.96487805732222e-06
6.96559713418223e-06
6.96575974964606e-06
6.96579427833242e-06
6.96580092415411e-06
6.96580175083961e-06
6.96580147732905e-06
6.9658010420349e-06
6.96580057972198e-06
6.96580012044257e-06
6.96579967058344e-06
6.96579923328106e-06
6.96579880996182e-06
6.96579840254029e-06
6.96579801186961e-06
6.96579763937639e-06
6.96579728542664e-06
6.96579695095307e-06
6.96579663590465e-06
6.96579634085442e-06
6.9657960655325e-06
6.96579581034949e-06
6.96579557489379e-06
6.96579535865301e-06
6.96579515588058e-06
6.96579493605119e-06
6.96579453157727e-06
6.9657930692095e-06
6.9657861713377e-06
6.96575287020624e-06
6.96559776048571e-06
6.96491209724037e-06
6.96206554706257e-06
6.95109214789444e-06
6.91234743659008e-06
6.78912990386347e-06
6.44304734584806e-06
5.60313299941286e-06
3.88247917205869e-06
1.31961538843858e-08
5.34345591651833e-11
5.1834272551176e-11
1.29941616094333e-08
3.85333980235839e-06
5.58314306794881e-06
6.43452960474743e-06
6.78821488814992e-06
6.91511008205613e-06
6.95528942052862e-06
6.96673828393537e-06
6.96972317193619e-06
6.97044480579489e-06
6.9706081755203e-06
6.97064292432781e-06
6.97064965702252e-06
6.97065053341683e-06
6.97065029136476e-06
6.97064988130421e-06
6.97064944189885e-06
6.9706490037987e-06
6.9706485736906e-06
6.97064815500552e-06
6.97064774930554e-06
6.9706473585252e-06
6.970646983536e-06
6.97064662577113e-06
6.97064628560936e-06
6.97064596397104e-06
6.97064566079499e-06
6.97064537660962e-06
6.97064511109495e-06
6.97064486457436e-06
6.97064463654173e-06
6.97064442638091e-06
6.97064422829483e-06
6.97064401174155e-06
6.97064360911882e-06
6.97064214695463e-06
6.97063524612463e-06
6.97060193104277e-06
6.97044675744584e-06
6.96976078806641e-06
6.9669128231416e-06
6.95593340996734e-06
6.91716575605117e-06
6.79387118253154e-06
6.44756494782504e-06
5.60709696617731e-06
3.88527988713187e-06
1.32046018533745e-08
5.3461764892869e-11
5.18439534788082e-11
1.29972820104261e-08
3.85447906752822e-06
5.58489485857697e-06
6.43665187895629e-06
6.79053287340616e-06
6.91751912459708e-06
6.95773620009265e-06
6.96919917337578e-06
6.97218888565028e-06
6.97291205275826e-06
6.97307588803433e-06
6.97311077801055e-06
6.9731175699673e-06
6.97311848608015e-06
6.97311827124278e-06
6.97311788293852e-06
6.97311746360054e-06
6.97311704432234e-06
6.97311663196034e-06
6.97311623030152e-06
6.97311584101675e-06
6.97311546599395e-06
6.97311510607749e-06
6.97311476268909e-06
6.9731144362101e-06
6.97311412755006e-06
6.97311383663723e-06
6.97311356396476e-06
6.97311330917451e-06
6.97311307252848e-06
6.97311285345506e-06
6.97311265126598e-06
6.97311246013046e-06
6.97311224951882e-06
6.97311185192154e-06
6.97311039388563e-06
6.97310349557089e-06
6.9730701775233e-06
6.97291497691839e-06
6.97222886311021e-06
6.96938021062507e-06
6.95839783797022e-06
6.91961880812738e-06
6.79628581241933e-06
6.44986744034777e-06
5.60912035375132e-06
3.88671278151503e-06
1.32088805167732e-08
5.34753912014745e-11
5.1848455415983e-11
1.29987556537041e-08
3.85503008441864e-06
5.58575200327525e-06
6.43769877422245e-06
6.79168236590862e-06
6.91871744434182e-06
6.95895520987924e-06
6.97042609148986e-06
6.97341856936704e-06
6.97414263832037e-06
6.97430675747173e-06
6.97434173854866e-06
6.97434857310843e-06
6.97434952210395e-06
6.97434933158709e-06
6.97434896310468e-06
6.97434856230297e-06
6.97434816050419e-06
6.97434776461927e-06
6.97434737899708e-06
6.97434700543778e-06
6.97434664569739e-06
6.97434630054666e-06
6.97434597137489e-06
6.97434565856312e-06
6.97434536300898e-06
6.97434508463682e-06
6.97434482389845e-06
6.97434458040486e-06
6.97434435436367e-06
6.97434414515503e-06
6.97434395202718e-06
6.97434376911798e-06
6.97434356589781e-06
6.97434317494516e-06
6.97434172288594e-06
6.97433482959831e-06
6.97430151393121e-06
6.9741463045687e-06
6.97346012635794e-06
6.97061114823559e-06
6.95962734799201e-06
6.92084278460621e-06
6.79749099565852e-06
6.45101750737263e-06
5.61013251082661e-06
3.88743119595024e-06
1.32110047375236e-08
5.34820845184567e-11
5.18505010310887e-11
1.29994355707442e-08
3.85529076727537e-06
5.58616273398735e-06
6.43820495112334e-06
6.79224138734952e-06
6.91930218685043e-06
6.95955109065549e-06
6.97102632235268e-06
6.9740203566967e-06
6.97474494823311e-06
6.97490924001103e-06
6.97494428125648e-06
6.97495114837745e-06
6.97495212588192e-06
6.97495195793854e-06
6.97495160831707e-06
6.97495122536257e-06
6.97495084036536e-06
6.97495046013723e-06
6.97495008997292e-06
6.97494973184196e-06
6.97494938726286e-06
6.9749490568704e-06
6.97494874200322e-06
6.97494844303848e-06
6.9749481608687e-06
6.97494789542236e-06
6.97494764709785e-06
6.9749474154658e-06
6.97494720068296e-06
6.97494700208588e-06
6.97494681886256e-06
6.97494664510478e-06
6.97494645024467e-06
6.97494606686742e-06
6.97494462162018e-06
6.97493773437146e-06
6.97490442358003e-06
6.97474921429041e-06
6.97406301027818e-06
6.97121388195e-06
6.96022940249736e-06
6.92144218163372e-06
6.79808132901195e-06
6.451581171993e-06
5.61062918927002e-06
3.8877844156272e-06
1.32120386242281e-08
5.34853044688385e-11
5.18514018419351e-11
1.29997404335587e-08
3.85541110672909e-06
5.58635534380649e-06
6.43844487848252e-06
6.79250815546812e-06
6.91958231279432e-06
6.95983712304199e-06
6.97131470986691e-06
6.97430960692234e-06
6.97503449837433e-06
6.97519889597943e-06
6.97523397849374e-06
6.97524087203661e-06
6.97524187493018e-06
6.97524172816604e-06
6.975241396621e-06
6.9752410309569e-06
6.97524066214065e-06
6.97524029668473e-06
6.97523994134598e-06
6.9752395982851e-06
6.9752392686605e-06
6.97523895291838e-06
6.97523865232969e-06
6.97523836726642e-06
6.97523809863407e-06
6.97523784639417e-06
6.97523761085011e-06
6.97523739151544e-06
6.97523718849341e-06
6.97523700107556e-06
6.97523682838717e-06
6.97523666445931e-06
6.97523647863146e-06
6.97523610339274e-06
6.97523466531229e-06
6.9752277844325e-06
6.97519447959711e-06
6.97503927444201e-06
6.97435306263053e-06
6.9715038669288e-06
6.96051906523993e-06
6.92173057069893e-06
6.79836537123003e-06
6.45185243152544e-06
5.61086833977233e-06
3.88795464776299e-06
1.32125311469904e-08
5.34868185021095e-11
5.18517762799797e-11
1.29998704414222e-08
3.85546478626028e-06
5.58644335129281e-06
6.43855615357775e-06
6.79263294892616e-06
6.91971398169335e-06
6.95997189185132e-06
6.97145073873354e-06
6.97444610862613e-06
6.97517117158e-06
6.97533563525207e-06
6.97537074747391e-06
6.97537766393116e-06
6.97537868967226e-06
6.97537856257451e-06
6.97537824810006e-06
6.97537789900841e-06
6.97537754570728e-06
6.9753771942146e-06
6.97537685315155e-06
6.97537652478623e-06
6.97537620985337e-06
6.97537590859984e-06
6.97537562222754e-06
6.9753753511076e-06
6.97537509619423e-06
6.97537485755159e-06
6.9753746353011e-06
6.97537442885852e-06
6.97537423826595e-06
6.9753740627713e-06
6.97537390143445e-06
6.97537374821406e-06
6.97537357232019e-06
6.97537320606129e-06
6.97537177585765e-06
6.97536490202289e-06
6.97533160411798e-06
6.97517640530697e-06
6.9744901942156e-06
6.97164096977635e-06
6.9606560132285e-06
6.9218668990718e-06
6.79849959924779e-06
6.4519805292192e-06
5.61098116328859e-06
3.88803480929593e-06
1.32127593077099e-08
5.34875092904543e-11
5.18519052198352e-11
1.29999201171337e-08
3.85548732041092e-06
5.58648207969668e-06
6.43860635207602e-06
6.79268995194996e-06
6.91977452531342e-06
6.96003406060819e-06
6.97151357873177e-06
6.97450920631784e-06
6.97523436746103e-06
6.97539887327382e-06
6.97543400794181e-06
6.97544094619083e-06
6.97544199242574e-06
6.97544188283568e-06
6.97544158363522e-06
6.9754412497029e-06
6.97544091086482e-06
6.97544057263964e-06
6.97544024527204e-06
6.97543993093222e-06
6.97543963005394e-06
6.97543934276235e-06
6.97543907020527e-06
6.97543881275882e-06
6.97543857148544e-06
6.97543834669136e-06
6.97543813815736e-06
6.97543794513795e-06
6.97543776760618e-06
6.97543760476216e-06
6.97543745560404e-06
6.97543731401916e-06
6.97543714907376e-06
6.97543679287057e-06
6.97543537165583e-06
6.97542850601893e-06
6.97539521622976e-06
6.97524002533032e-06
6.97455381929998e-06
6.97170458432906e-06
6.9607195510529e-06
6.92193012383479e-06
6.79856178277901e-06
6.45203971700475e-06
5.61103307731513e-06
3.88807133908064e-06
1.3212860319612e-08
5.34878203263902e-11
5.185188524253e-11
1.29999289536389e-08
3.85549519658622e-06
5.5864978341885e-06
6.43862795926741e-06
6.79271500312772e-06
6.91980141986266e-06
6.96006182001309e-06
6.97154169984739e-06
6.97453746893478e-06
6.97526268721025e-06
6.97542722102404e-06
6.97546237404287e-06
6.97546933663311e-06
6.97547040235799e-06
6.97547030848781e-06
6.97547002283619e-06
6.97546970270623e-06
6.97546937769186e-06
6.97546905312411e-06
6.97546873959001e-06
6.97546843904396e-06
6.97546815193947e-06
6.97546787841624e-06
6.9754676195956e-06
6.97546737586202e-06
6.97546714841929e-06
6.97546693791686e-06
6.97546674364633e-06
6.97546656471035e-06
6.97546640102591e-06
6.97546625174447e-06
6.97546611581053e-06
6.97546598704973e-06
6.97546583440278e-06
6.97546548979219e-06
6.97546407930982e-06
6.97545722375321e-06
6.97542394393147e-06
6.97526876289329e-06
6.9745825651797e-06
6.97173332957808e-06
6.9607482580214e-06
6.92195866384519e-06
6.79858977846741e-06
6.45206615803541e-06
5.61105603735404e-06
3.88808698169422e-06
1.32129015949899e-08
5.34879192987736e-11
5.18517877642049e-11
1.29999181319971e-08
3.85549633018161e-06
5.58650249122721e-06
6.43863573307655e-06
6.79272495198612e-06
6.91981245320955e-06
6.9600733384431e-06
6.97155341933909e-06
6.97454926827331e-06
6.97527452143479e-06
6.97543907528128e-06
6.9754742440458e-06
6.97548123386052e-06
6.97548231886666e-06
6.97548224071434e-06
6.97548196864144e-06
6.97548166249014e-06
6.97548135225373e-06
6.97548104354484e-06
6.97548074547081e-06
6.97548045988003e-06
6.97548018756387e-06
6.97547992882212e-06
6.97547968477783e-06
6.97547945581848e-06
6.97547924315123e-06
6.97547904740839e-06
6.97547886780687e-06
6.97547870348652e-06
6.97547855435887e-06
6.97547841951034e-06
6.97547829784012e-06
6.97547818313837e-06
6.97547804425744e-06
6.97547771300721e-06
6.97547631536249e-06
6.97546947224728e-06
6.9754362048124e-06
6.97528103622924e-06
6.97459485040312e-06
6.97174562184674e-06
6.96076053539558e-06
6.92197085026902e-06
6.79860164418862e-06
6.45207709620494e-06
5.61106479542835e-06
3.88809238314227e-06
1.32129096799344e-08
5.34878790599724e-11
5.18517157292815e-11
1.29999043108585e-08
3.8554944573962e-06
5.58650165867343e-06
6.43863661563427e-06
6.7927272920721e-06
6.91981549514307e-06
6.96007670536664e-06
6.97155692396062e-06
6.97455283167827e-06
6.97527811587814e-06
6.9754426917118e-06
6.97547787778033e-06
6.97548488514242e-06
6.97548599015809e-06
6.9754859327912e-06
6.97548567929467e-06
6.97548539165758e-06
6.97548510067869e-06
6.97548481242121e-06
6.97548453371748e-06
6.97548426643214e-06
6.97548401178673e-06
6.97548377034053e-06
6.9754835432151e-06
6.97548333078652e-06
6.97548313409037e-06
6.97548295339485e-06
6.97548278838504e-06
6.97548263829918e-06
6.97548250296743e-06
6.97548238144853e-06
6.97548227258356e-06
6.97548217011852e-06
6.97548204283235e-06
6.97548172245678e-06
6.97548033486566e-06
6.97547350096844e-06
6.97544024206181e-06
6.97528508155019e-06
6.97459890319395e-06
6.97174967830209e-06
6.96076457709258e-06
6.92197481034198e-06
6.79860532638211e-06
6.45208012482937e-06
5.61106644246368e-06
3.8880929109177e-06
1.32129021336893e-08
5.34878387712057e-11
5.18516384745666e-11
1.29998864854086e-08
3.85549061532509e-06
5.58649788295774e-06
6.43863369784836e-06
6.79272505764354e-06
6.91981375853346e-06
6.96007520547632e-06
6.97155552627677e-06
6.97455148120547e-06
6.97527679443297e-06
6.97544139316834e-06
6.97547659518308e-06
6.9754836059844e-06
6.97548473100324e-06
6.97548469641638e-06
6.97548446357798e-06
6.97548419627826e-06
6.97548392600335e-06
6.97548365914215e-06
6.97548340076535e-06
6.97548315266882e-06
6.97548291638531e-06
6.97548269259996e-06
6.97548248253523e-06
6.97548228657337e-06
6.97548210560797e-06
6.97548193969261e-06
6.97548178882895e-06
6.97548165229823e-06
6.97548152982667e-06
6.97548142037996e-06
6.97548132271977e-06
6.97548123055318e-06
6.97548111260777e-06
6.97548080059451e-06
6.97547942030151e-06
6.97547259248537e-06
6.97543933847068e-06
6.97528418227005e-06
6.97459800858503e-06
6.97174878756395e-06
6.96076367856022e-06
6.92197385299475e-06
6.79860417668765e-06
6.45207863287194e-06
5.6110646980049e-06
3.88809109844391e-06
1.3212891275919e-08
5.34877926544181e-11
5.18515436983401e-11
1.29998620290303e-08
3.85548427178133e-06
5.58649055265428e-06
6.43862661751578e-06
6.79271839859806e-06
6.91980740620944e-06
6.96006900685538e-06
6.97154939524717e-06
6.97454538246454e-06
6.97527071716212e-06
6.9754353339824e-06
6.97547054839546e-06
6.97547756359554e-06
6.97547870517272e-06
6.9754786898574e-06
6.97547847467948e-06
6.97547822504394e-06
6.97547797279347e-06
6.97547772440404e-06
6.97547748390296e-06
6.97547725299639e-06
6.97547703338356e-06
6.97547682584767e-06
6.97547663166328e-06
6.97547645123336e-06
6.97547628540337e-06
6.97547613414005e-06
6.97547599757082e-06
6.97547587495223e-06
6.97547576586746e-06
6.97547566915248e-06
6.97547558350933e-06
6.97547550266029e-06
6.97547539536094e-06
6.97547509341884e-06
6.97547372259543e-06
6.97546690339151e-06
6.97543365725469e-06
6.97527850989575e-06
6.97459235014091e-06
6.97174315481157e-06
6.96075809108945e-06
6.92196833311124e-06
6.79859874415444e-06
6.45207335058079e-06
5.61105980097941e-06
3.88808725630747e-06
1.32128764026567e-08
5.34877394887715e-11
5.1851413292674e-11
1.29998239726282e-08
3.85547324800701e-06
5.58647676282383e-06
6.43861223620592e-06
6.79270409032936e-06
6.91979325352056e-06
6.9600549505124e-06
6.97153538539843e-06
6.97453139681857e-06
6.97525674932248e-06
6.9754213823521e-06
6.97545660983558e-06
6.9754636339747e-06
6.97546479095032e-06
6.97546479273447e-06
6.97546459338103e-06
6.97546435978035e-06
6.97546412383206e-06
6.97546389201408e-06
6.9754636677721e-06
6.97546345271031e-06
6.9754632486021e-06
6.97546305629603e-06
6.97546287710786e-06
6.97546271148435e-06
6.97546256028246e-06
6.97546242345324e-06
6.97546230113929e-06
6.97546219249437e-06
6.97546209688581e-06
6.97546201297119e-06
6.97546193940984e-06
6.97546187000926e-06
6.97546177364429e-06
6.97546148235327e-06
6.97546012193398e-06
6.97545331251433e-06
6.97542007598117e-06
6.97526494167229e-06
6.9745788078827e-06
6.97172967128645e-06
6.96074473751879e-06
6.92195524746529e-06
6.7985861720198e-06
6.45206171829937e-06
5.61104984526743e-06
3.88808029009701e-06
1.32128547893933e-08
5.34876718352941e-11
5.18511934692677e-11
1.29997570094374e-08
3.85545241176834e-06
5.58644950429688e-06
6.43858274468247e-06