/*--------------------------------*- C++ -*----------------------------------*\
  =========                 |
  \\      /  F ield         | OpenFOAM: The Open Source CFD Toolbox
   \\    /   O peration     | Website:  https://openfoam.org
    \\  /    A nd           | Version:  10
     \\/     M anipulation  |
\*---------------------------------------------------------------------------*/
FoamFile
{
    format      ascii;
    class       volScalarField;
    location    "2";
    object      omega;
}
// * * * * * * * * * * * * * * * * * * * * * * * * * * * * * * * * * * * * * //

dimensions      [0 0 -1 0 0 0 0];

internalField   nonuniform List<scalar> 
2500
(
128434.364615594
128459.892352763
128452.085274164
128450.012553024
128449.515167666
128449.396140477
128449.368067237
128449.360894774
128449.358341546
128449.357483134
128449.356436725
128449.355759021
128449.35534641
128449.354804363
128449.354307368
128449.353739233
128449.353462508
128449.353103688
128449.352691564
128449.352407524
128449.352131271
128449.351835241
128449.351567764
128449.351487229
128449.351387039
128449.351207246
128449.351167669
128449.351113423
128449.351037558
128449.35109302
128449.351163224
128449.351219819
128449.351358542
128449.351551077
128449.351748437
128449.351949298
128449.35218014
128449.35236705
128449.352780516
128449.353172579
128449.353692803
128449.354599069
128449.356976315
128449.36516553
128449.398051258
128449.525297029
128450.031023023
128452.101638911
128460.023363872
128434.348803117
31823.3741261707
14137.5976701392
14133.8456531797
14132.6390589178
14132.2886637366
14132.1919309965
14132.1669521976
14132.1609647033
14132.1596122575
14132.1593237795
14132.1592384839
14132.1592073077
14132.1591966836
14132.1591813964
14132.1591669512
14132.1591506381
14132.1591412316
14132.1591300963
14132.159117807
14132.1591068249
14132.159088639
14132.1590617039
14132.159033982
14132.1590329634
14132.1590330038
14132.1590176484
14132.1590213745
14132.159020775
14132.1590089338
14132.1590226644
14132.1590268112
14132.1590125844
14132.1590376895
14132.1590740675
14132.159087712
14132.1590937152
14132.1590991599
14132.1591037772
14132.1591167673
14132.159140895
14132.1592386541
14132.1596594532
14132.1614433722
14132.1687176526
14132.1966825668
14132.297719865
14132.648129071
14133.845036731
14137.6666157064
31823.6885496493
31658.8741862294
3516.33307987451
50.6231978073744
50.6191509190048
50.6179610050634
50.6176285068621
50.6175412134474
50.6175199403797
50.6175151280621
50.6175141275417
50.6175138737391
50.6175138187431
50.6175138497962
50.617513840996
50.617513840404
50.617513842295
50.6175138404584
50.6175138369169
50.6175138281334
50.6175138197397
50.6175137918589
50.6175137466501
50.6175136956534
50.6175136815541
50.6175136878905
50.6175136758368
50.6175136727112
50.6175136798149
50.6175136812268
50.6175136992165
50.6175136958848
50.6175136597799
50.6175137131689
50.6175138043146
50.6175138198704
50.6175138141003
50.6175138151117
50.6175138107153
50.6175138152143
50.617513833673
50.6175141219814
50.6175155379317
50.6175215340298
50.617546033944
50.6176401140011
50.6179803142158
50.6191636878205
50.6231965428556
3516.35211316323
31659.5805163321
31575.9324546346
3507.6620891754
50.5042924404114
50.5022231740887
50.5016346071196
50.501474744375
50.5014331820845
50.5014230013194
50.5014206767381
50.501420200507
50.5014200818677
50.5014200610363
50.5014200882568
50.5014200970958
50.5014201013804
50.5014201012585
50.501420106463
50.5014201127708
50.501420111778
50.5014201113781
50.5014201067004
50.5014200911383
50.5014200683363
50.5014200598151
50.5014200660617
50.5014200645384
50.5014200606054
50.5014200671273
50.5014200748598
50.5014200800762
50.5014200769633
50.5014200600242
50.5014200829548
50.5014201242363
50.5014201286227
50.5014201217141
50.5014201176573
50.5014201121823
50.5014201078269
50.5014201015761
50.5014202048802
50.5014208128292
50.5014234507098
50.5014343690043
50.5014772014095
50.5016372486528
50.5022207256479
50.5042987085877
3507.67491820832
31576.5728328291
31541.0224434053
3504.19868029233
50.4580957438943
50.4572626682531
50.4570288210841
50.4569664221757
50.4569502865673
50.4569463022701
50.4569453809525
50.4569451935518
50.4569451471823
50.4569451402302
50.4569451540416
50.4569451608362
50.4569451638996
50.4569451644531
50.4569451673047
50.4569451709268
50.4569451715489
50.4569451722344
50.4569451720404
50.4569451673021
50.4569451581102
50.4569451553401
50.4569451582297
50.45694515781
50.4569451563555
50.4569451594026
50.4569451636077
50.4569451650415
50.4569451634896
50.4569451571246
50.456945164994
50.4569451792934
50.4569451794129
50.4569451760475
50.45694517388
50.4569451697376
50.4569451656535
50.456945161557
50.4569451901339
50.4569454050495
50.4569463688178
50.45695037623
50.4569663011385
50.4570272304362
50.4572569095349
50.4580951633974
3504.20482660537
31541.4119598542
31528.1878325006
3502.99060687203
50.4422741865732
50.4419863181246
50.4419053919887
50.441883988758
50.4418784714332
50.4418770989339
50.4418767777202
50.441876712396
50.441876696382
50.4418766943485
50.4418766997944
50.4418767028391
50.4418767041727
50.4418767043203
50.4418767052183
50.4418767064245
50.4418767066729
50.4418767068217
50.4418767068053
50.441876704832
50.4418767019653
50.4418767016006
50.4418767020038
50.4418767016023
50.441876700891
50.4418767016931
50.4418767030575
50.441876703489
50.44187670263
50.4418767002949
50.4418767024684
50.4418767061185
50.441876705672
50.4418767044722
50.4418767031678
50.4418767008667
50.4418766982677
50.4418766961469
50.4418767034862
50.4418767718752
50.4418770870532
50.44187839897
50.4418836414609
50.4419040047398
50.4419824054644
50.4422715435393
3502.99293894128
31528.3738215707
31523.942055661
3502.61105110013
50.4373616134306
50.4372723871469
50.4372470314305
50.4372403389266
50.4372386169008
50.4372381861447
50.4372380842084
50.4372380628621
50.4372380581588
50.4372380579999
50.4372380592989
50.4372380602005
50.4372380604962
50.4372380604704
50.4372380604587
50.4372380603582
50.4372380601674
50.4372380599142
50.4372380596037
50.4372380586556
50.4372380576307
50.4372380574341
50.4372380571803
50.4372380566529
50.4372380561548
50.4372380559732
50.4372380560662
50.4372380560338
50.4372380554567
50.4372380544819
50.4372380547712
50.4372380553354
50.4372380548671
50.4372380542455
50.4372380535057
50.437238052366
50.4372380510346
50.4372380500164
50.4372380517948
50.437238071847
50.4372381670843
50.4372385634822
50.4372401484101
50.4372463557925
50.4372705309623
50.437359815977
3502.61179118094
31524.017145077
31522.6520906581
3502.50136044051
50.4359533480068
50.4359278658237
50.4359205084136
50.4359185603736
50.4359180595101
50.4359179337227
50.43591790356
50.4359178970102
50.4359178955998
50.4359178954018
50.4359178955026
50.4359178955172
50.435917895375
50.4359178950753
50.435917894684
50.4359178942888
50.4359178938854
50.4359178934536
50.4359178930081
50.4359178923854
50.4359178917692
50.4359178913708
50.4359178909136
50.435917890434
50.4359178899418
50.4359178894922
50.4359178891941
50.4359178888944
50.4359178884202
50.4359178878541
50.435917887598
50.4359178873859
50.4359178869482
50.4359178865016
50.4359178860195
50.435917885406
50.4359178847261
50.4359178841641
50.4359178844813
50.4359178899239
50.435917916849
50.4359180292973
50.4359184781147
50.4359202417346
50.4359271406317
50.4359525213126
3502.50156131988
31522.67883734
31522.2869509037
3502.47178436446
50.4355761877745
50.4355693607067
50.4355673537759
50.4355668186677
50.4355666809746
50.4355666462246
50.4355666376825
50.4355666356573
50.4355666350677
50.4355666347518
50.4355666344917
50.4355666341949
50.4355666338434
50.4355666334231
50.435566632962
50.4355666324906
50.4355666320236
50.4355666315355
50.4355666310182
50.4355666304743
50.4355666299508
50.4355666294678
50.4355666289642
50.4355666284681
50.4355666279819
50.4355666275016
50.4355666270664
50.4355666266504
50.4355666261974
50.435566625733
50.4355666253447
50.4355666249716
50.4355666245651
50.4355666241739
50.4355666237885
50.4355666233779
50.4355666229606
50.4355666225939
50.4355666224847
50.43556662374
50.4355666308482
50.4355666610287
50.4355667814365
50.4355672547688
50.4355691055648
50.4355758697392
3502.47183045793
31522.2955858091
31522.1898494854
3502.46429267579
50.4354813717341
50.4354796339405
50.4354791137801
50.4354789736786
50.4354789374712
50.4354789281964
50.4354789257473
50.4354789249884
50.435478924586
50.4354789242261
50.4354789238602
50.4354789234672
50.4354789230443
50.4354789225883
50.4354789221107
50.4354789216204
50.4354789211266
50.4354789206221
50.4354789201028
50.4354789195785
50.435478919062
50.4354789185545
50.4354789180441
50.4354789175415
50.4354789170511
50.4354789165676
50.4354789161019
50.4354789156517
50.4354789152034
50.4354789147638
50.4354789143527
50.4354789139568
50.4354789135675
50.4354789131975
50.435478912843
50.4354789124963
50.435478912163
50.4354789118563
50.4354789116291
50.4354789117622
50.43547891343
50.435478921058
50.4354789518178
50.4354790728304
50.4354795445599
50.4354812558417
3502.46430066131
31522.1924204344
31522.1656814878
3502.46252964261
50.43545933549
50.4354589113143
50.4354587821596
50.4354587468837
50.4354587376258
50.4354587351139
50.4354587342884
50.4354587338626
50.4354587335025
50.43545873313
50.4354587327356
50.4354587323166
50.4354587318745
50.4354587314105
50.43545873093
50.435458730437
50.4354587299362
50.4354587294283
50.4354587289138
50.4354587283971
50.4354587278816
50.4354587273697
50.4354587268614
50.4354587263602
50.4354587258693
50.4354587253876
50.4354587249183
50.4354587244625
50.4354587240183
50.4354587235879
50.4354587231762
50.4354587227809
50.4354587224009
50.4354587220399
50.4354587216968
50.43545872137
50.4354587210611
50.4354587207728
50.4354587205183
50.4354587203664
50.4354587206109
50.4354587223448
50.4354587297856
50.4354587593678
50.4354588743957
50.4354592889339
3502.46252975159
31522.1663932397
31522.1603334978
3502.46217890153
50.4354551154175
50.4354550154305
50.435454984472
50.435454975812
50.4354549734095
50.4354549726158
50.4354549722036
50.435454971862
50.435454971512
50.4354549711372
50.435454970737
50.435454970313
50.4354549698679
50.4354549694041
50.4354549689254
50.4354549684343
50.4354549679344
50.4354549674281
50.4354549669173
50.4354549664047
50.4354549658927
50.4354549653839
50.4354549648798
50.4354549643824
50.4354549638942
50.4354549634159
50.4354549629494
50.4354549624959
50.4354549620562
50.4354549616313
50.4354549612233
50.435454960832
50.4354549604578
50.4354549601023
50.4354549597651
50.4354549594464
50.4354549591464
50.4354549588658
50.4354549586076
50.4354549583881
50.4354549582779
50.4354549585372
50.4354549601653
50.4354549670384
50.4354549939527
50.4354550906508
3502.46217777887
31522.1605145058
31522.1596269083
3502.46216159993
50.4354550662435
50.4354550433338
50.4354550360812
50.4354550339246
50.4354550332021
50.4354550328289
50.4354550325179
50.4354550321976
50.4354550318512
50.4354550314772
50.4354550310774
50.4354550306543
50.4354550302109
50.4354550297499
50.4354550292743
50.4354550287868
50.4354550282903
50.4354550277876
50.4354550272809
50.4354550267726
50.4354550262651
50.4354550257606
50.435455025261
50.4354550247683
50.4354550242843
50.4354550238104
50.4354550233482
50.435455022899
50.4354550224639
50.4354550220439
50.4354550216403
50.4354550212536
50.4354550208843
50.4354550205335
50.4354550202012
50.4354550198875
50.4354550195929
50.4354550193174
50.4354550190615
50.435455018829
50.435455018636
50.4354550185427
50.4354550187782
50.4354550202274
50.4354550262277
50.4354550479945
3502.46216041142
31522.1596651755
31522.1600210397
3502.46222014627
50.4354559562254
50.4354559510662
50.4354559493416
50.4354559487205
50.4354559483959
50.4354559481223
50.4354559478356
50.4354559475212
50.4354559471771
50.435455946805
50.4354559464073
50.4354559459869
50.4354559455465
50.435455945089
50.4354559446173
50.4354559441339
50.4354559436418
50.4354559431434
50.4354559426412
50.4354559421377
50.435455941635
50.4354559411353
50.4354559406406
50.4354559401528
50.4354559396736
50.4354559392047
50.4354559387473
50.4354559383029
50.4354559378727
50.4354559374576
50.4354559370587
50.4354559366767
50.4354559363123
50.4354559359661
50.4354559356384
50.4354559353295
50.4354559350395
50.4354559347685
50.4354559345166
50.4354559342844
50.4354559340755
50.4354559339032
50.4354559338191
50.4354559340196
50.435455935231
50.4354559399226
3502.4622190126
31522.1600228539
31522.1606674261
3502.46229539559
50.4354570505598
50.435457049374
50.4354570488979
50.4354570486276
50.4354570483942
50.4354570481434
50.4354570478628
50.4354570475507
50.4354570472086
50.4354570468388
50.4354570464439
50.4354570460266
50.4354570455898
50.4354570451362
50.4354570446687
50.4354570441898
50.4354570437023
50.4354570432087
50.4354570427114
50.4354570422128
50.4354570417152
50.4354570412207
50.4354570407312
50.4354570402486
50.4354570397746
50.4354570393107
50.4354570388586
50.4354570384193
50.4354570379941
50.4354570375841
50.4354570371902
50.4354570368131
50.4354570364536
50.4354570361123
50.4354570357894
50.4354570354853
50.4354570352
50.4354570349337
50.4354570346863
50.4354570344577
50.4354570342486
50.4354570340622
50.4354570339097
50.4354570338345
50.4354570339868
50.4354570349066
3502.46229429929
31522.160660386
31522.1613698974
3502.46237421937
50.4354581880252
50.435458187704
50.4354581875002
50.435458187307
50.4354581870934
50.4354581868477
50.435458186569
50.4354581862586
50.4354581859184
50.4354581855511
50.4354581851592
50.4354581847454
50.4354581843124
50.435458183863
50.4354581833999
50.4354581829257
50.435458182443
50.4354581819544
50.4354581814623
50.435458180969
50.4354581804768
50.4354581799876
50.4354581795035
50.4354581790263
50.4354581785577
50.4354581780993
50.4354581776525
50.4354581772186
50.4354581767987
50.435458176394
50.4354581760053
50.4354581756334
50.435458175279
50.4354581749427
50.4354581746247
50.4354581743256
50.4354581740452
50.4354581737838
50.435458173541
50.435458173317
50.4354581731118
50.4354581729259
50.4354581727622
50.4354581726308
50.4354581725593
50.4354581726725
3502.46237314473
31522.1613608512
31522.162084501
3502.46245378829
50.4354593343408
50.4354593342005
50.4354593340527
50.4354593338751
50.4354593336652
50.4354593334206
50.4354593331429
50.4354593328339
50.4354593324958
50.4354593321312
50.4354593317425
50.4354593313322
50.4354593309033
50.4354593304582
50.4354593299998
50.4354593295304
50.4354593290528
50.4354593285695
50.4354593280828
50.435459327595
50.4354593271082
50.4354593266247
50.4354593261463
50.4354593256747
50.4354593252118
50.435459324759
50.4354593243178
50.4354593238894
50.4354593234751
50.4354593230759
50.4354593226925
50.435459322326
50.4354593219769
50.4354593216458
50.435459321333
50.435459321039
50.4354593207637
50.4354593205072
50.4354593202695
50.4354593200504
50.4354593198499
50.4354593196681
50.4354593195061
50.4354593193667
50.435459319253
50.4354593192023
3502.46245272933
31522.1620750864
31522.1628016602
3502.46253350835
50.4354604824188
50.4354604823127
50.435460482174
50.4354604819986
50.4354604817888
50.4354604815445
50.4354604812677
50.4354604809602
50.4354604806244
50.4354604802625
50.435460479877
50.4354604794706
50.4354604790458
50.4354604786053
50.4354604781516
50.4354604776873
50.435460477215
50.4354604767371
50.4354604762559
50.4354604757738
50.4354604752928
50.435460474815
50.4354604743424
50.4354604738768
50.4354604734196
50.4354604729727
50.4354604725373
50.4354604721147
50.4354604717061
50.4354604713124
50.4354604709347
50.4354604705738
50.4354604702301
50.4354604699044
50.435460469597
50.4354604693082
50.4354604690381
50.4354604687869
50.4354604685544
50.4354604683405
50.4354604681451
50.4354604679683
50.4354604678107
50.4354604676738
50.4354604675563
50.4354604674774
3502.46253246343
31522.1627922597
31522.1635193399
3502.46261325779
50.4354616308304
50.4354616307278
50.4354616305887
50.4354616304124
50.4354616302021
50.435461629958
50.435461629682
50.4354616293761
50.4354616290425
50.4354616286835
50.4354616283015
50.435461627899
50.4354616274785
50.4354616270426
50.4354616265939
50.4354616261349
50.435461625668
50.4354616251957
50.4354616247203
50.4354616242439
50.4354616237689
50.4354616232971
50.4354616228304
50.4354616223708
50.4354616219197
50.4354616214787
50.4354616210492
50.4354616206326
50.4354616202298
50.435461619842
50.4354616194701
50.4354616191148
50.4354616187767
50.4354616184566
50.4354616181547
50.4354616178713
50.4354616176066
50.4354616173607
50.4354616171336
50.435461616925
50.435461616735
50.4354616165636
50.4354616164113
50.4354616162791
50.4354616161657
50.4354616160864
3502.46261222669
31522.1635100372
31522.1642371186
3502.46269301227
50.4354627792958
50.4354627791906
50.4354627790491
50.4354627788716
50.4354627786605
50.4354627784165
50.4354627781415
50.4354627778373
50.435462777506
50.43546277715
50.4354627767715
50.435462776373
50.435462775957
50.4354627755258
50.4354627750823
50.4354627746285
50.4354627741672
50.4354627737006
50.4354627732311
50.4354627727608
50.4354627722917
50.435462771826
50.4354627713656
50.435462770912
50.4354627704671
50.4354627700323
50.4354627696089
50.4354627691983
50.4354627688016
50.4354627684197
50.4354627680537
50.4354627677042
50.435462767372
50.4354627670574
50.4354627667612
50.4354627664833
50.4354627662242
50.4354627659838
50.4354627657622
50.4354627655591
50.4354627653746
50.4354627652087
50.435462765062
50.4354627649352
50.4354627648275
50.4354627647531
3502.46269199532
31522.1642279386
31522.1649549113
3502.46277276708
50.4354639277622
50.4354639276535
50.4354639275094
50.4354639273304
50.4354639271188
50.4354639268749
50.4354639266008
50.4354639262984
50.4354639259695
50.4354639256165
50.4354639252417
50.4354639248473
50.4354639244357
50.4354639240096
50.4354639235711
50.4354639231229
50.4354639226673
50.4354639222065
50.4354639217429
50.4354639212787
50.4354639208158
50.4354639203563
50.4354639199022
50.4354639194549
50.4354639190163
50.4354639185877
50.4354639181706
50.4354639177662
50.4354639173756
50.4354639169998
50.4354639166398
50.4354639162962
50.4354639159699
50.4354639156611
50.4354639153706
50.4354639150985
50.435463914845
50.4354639146102
50.4354639143942
50.4354639141967
50.4354639140179
50.4354639138578
50.4354639137167
50.4354639135954
50.4354639134937
50.4354639134253
3502.46277176447
31522.1649458585
31522.1656727022
3502.46285252147
50.435465076222
50.4354650761096
50.4354650759629
50.4354650757827
50.4354650755704
50.4354650753267
50.4354650750536
50.4354650747529
50.4354650744266
50.4354650740768
50.4354650737056
50.4354650733154
50.4354650729084
50.4354650724872
50.4354650720541
50.4354650716114
50.4354650711615
50.4354650707066
50.4354650702491
50.4354650697911
50.4354650693345
50.4354650688813
50.4354650684335
50.4354650679927
50.4354650675604
50.4354650671382
50.4354650667274
50.4354650663292
50.4354650659449
50.4354650655753
50.4354650652214
50.4354650648839
50.4354650645635
50.4354650642607
50.435465063976
50.4354650637096
50.4354650634619
50.4354650632328
50.4354650630224
50.4354650628307
50.4354650626577
50.4354650625034
50.4354650623681
50.4354650622526
50.4354650621568
50.4354650620945
3502.46285153353
31522.1656637833
31522.1663904894
3502.46293227541
50.435466224675
50.4354662245591
50.4354662244101
50.4354662242285
50.4354662240156
50.4354662237722
50.4354662235002
50.4354662232013
50.4354662228776
50.4354662225309
50.4354662221635
50.4354662217775
50.4354662213752
50.435466220959
50.4354662205312
50.4354662200941
50.4354662196501
50.4354662192012
50.4354662187499
50.435466218298
50.4354662178478
50.4354662174011
50.4354662169596
50.4354662165252
50.4354662160994
50.4354662156836
50.4354662152792
50.4354662148875
50.4354662145094
50.4354662141461
50.4354662137984
50.435466213467
50.4354662131526
50.4354662128558
50.435466212577
50.4354662123164
50.4354662120745
50.4354662118513
50.4354662116467
50.4354662114609
50.4354662112937
50.4354662111453
50.4354662110159
50.4354662109061
50.4354662108163
50.43546621076
3502.46293130226
31522.1663817032
31522.1671082738
3502.46301202902
50.4354673731236
50.4354673730043
50.435467372853
50.4354673726703
50.4354673724569
50.4354673722137
50.4354673719428
50.4354673716458
50.4354673713246
50.4354673709812
50.4354673706175
50.4354673702358
50.4354673698382
50.4354673694271
50.4354673690047
50.4354673685732
50.435467368135
50.4354673676922
50.435467367247
50.4354673668015
50.4354673663577
50.4354673659174
50.4354673654824
50.4354673650545
50.4354673646352
50.4354673642259
50.435467363828
50.4354673634426
50.4354673630709
50.4354673627139
50.4354673623724
50.4354673620472
50.4354673617389
50.4354673614481
50.4354673611752
50.4354673609206
50.4354673606845
50.4354673604671
50.4354673602684
50.4354673600885
50.4354673599272
50.4354673597848
50.4354673596614
50.4354673595573
50.4354673594735
50.4354673594231
3502.46301107086
31522.1670996227
31522.1678260566
3502.46309178246
50.4354685215696
50.4354685214471
50.4354685212937
50.4354685211098
50.4354685208959
50.4354685206532
50.4354685203834
50.4354685200883
50.4354685197697
50.4354685194295
50.4354685190696
50.4354685186921
50.4354685182993
50.4354685178932
50.4354685174762
50.4354685170504
50.4354685166181
50.4354685161814
50.4354685157424
50.4354685153032
50.4354685148657
50.4354685144319
50.4354685140035
50.4354685135821
50.4354685131693
50.4354685127665
50.4354685123751
50.4354685119961
50.4354685116309
50.4354685112802
50.4354685109449
50.4354685106259
50.4354685103237
50.435468510039
50.435468509772
50.4354685095234
50.4354685092932
50.4354685090817
50.4354685088889
50.4354685087149
50.4354685085596
50.4354685084231
50.4354685083057
50.4354685082074
50.4354685081296
50.4354685080851
3502.46309083939
31522.1678175426
31522.1685438393
3502.4631715359
50.4354696700158
50.43546966989
50.4354696697345
50.4354696695496
50.4354696693353
50.4354696690929
50.4354696688244
50.4354696685312
50.4354696682152
50.4354696678782
50.4354696675221
50.435469667149
50.4354696667608
50.4354696663598
50.4354696659482
50.4354696655281
50.4354696651016
50.4354696646709
50.4354696642381
50.4354696638053
50.4354696633742
50.4354696629468
50.4354696625249
50.4354696621101
50.4354696617038
50.4354696613075
50.4354696609225
50.4354696605501
50.4354696601912
50.4354696598468
50.4354696595178
50.435469659205
50.435469658909
50.4354696586303
50.4354696583694
50.4354696581266
50.4354696579024
50.4354696576967
50.4354696575098
50.4354696573418
50.4354696571925
50.435469657062
50.4354696569505
50.435469656858
50.4354696567861
50.4354696567475
3502.46317060794
31522.1685354594
31522.1692616233
3502.46325128948
50.435470818464
50.4354708183351
50.4354708181776
50.4354708179917
50.4354708177771
50.4354708175351
50.4354708172678
50.4354708169765
50.4354708166632
50.4354708163294
50.4354708159771
50.4354708156082
50.4354708152248
50.4354708148288
50.4354708144225
50.435470814008
50.4354708135874
50.4354708131628
50.4354708127362
50.4354708123096
50.4354708118849
50.4354708114639
50.4354708110485
50.4354708106401
50.4354708102403
50.4354708098505
50.4354708094721
50.435470809106
50.4354708087535
50.4354708084154
50.4354708080927
50.4354708077861
50.4354708074962
50.4354708072235
50.4354708069686
50.4354708067318
50.4354708065134
50.4354708063137
50.4354708061326
50.4354708059705
50.4354708058272
50.4354708057027
50.4354708055972
50.4354708055105
50.4354708054445
50.4354708054117
3502.46325037657
31522.1692533806
31522.1699794101
3502.46333104337
50.4354719669168
50.4354719667849
50.4354719666254
50.4354719664386
50.4354719662237
50.4354719659823
50.4354719657161
50.4354719654268
50.435471965116
50.4354719647855
50.4354719644369
50.4354719640722
50.4354719636934
50.4354719633025
50.4354719629016
50.4354719624926
50.4354719620777
50.4354719616591
50.4354719612386
50.4354719608182
50.4354719603999
50.4354719599853
50.4354719595763
50.4354719591744
50.435471958781
50.4354719583977
50.4354719580256
50.4354719576659
50.4354719573197
50.435471956988
50.4354719566715
50.435471956371
50.4354719560871
50.4354719558205
50.4354719555715
50.4354719553406
50.4354719551281
50.4354719549342
50.4354719547591
50.4354719546028
50.4354719544654
50.4354719543469
50.4354719542473
50.4354719541662
50.4354719541062
50.4354719540792
3502.46333014551
31522.1699713029
31522.170697201
3502.46341079772
50.4354731153761
50.4354731152412
50.4354731150799
50.4354731148923
50.4354731146771
50.4354731144362
50.4354731141713
50.4354731138839
50.4354731135757
50.4354731132483
50.4354731129035
50.435473112543
50.4354731121688
50.4354731117827
50.435473111387
50.4354731109836
50.4354731105745
50.4354731101616
50.4354731097472
50.435473109333
50.4354731089209
50.4354731085127
50.43547310811
50.4354731077144
50.4354731073275
50.4354731069505
50.4354731065848
50.4354731062314
50.4354731058915
50.4354731055659
50.4354731052556
50.4354731049612
50.4354731046833
50.4354731044226
50.4354731041796
50.4354731039545
50.4354731037478
50.4354731035597
50.4354731033904
50.43547310324
50.4354731031085
50.4354731029959
50.4354731029021
50.4354731028267
50.4354731027724
50.4354731027513
3502.46340991474
31522.170689229
31522.1714149975
3502.46349055269
50.4354742638446
50.4354742637066
50.4354742635434
50.435474263355
50.4354742631398
50.4354742628993
50.4354742626357
50.4354742623503
50.4354742620446
50.4354742617204
50.4354742613791
50.4354742610227
50.435474260653
50.4354742602719
50.4354742598813
50.4354742594832
50.4354742590797
50.4354742586727
50.4354742582642
50.4354742578561
50.4354742574501
50.4354742570481
50.4354742566517
50.4354742562624
50.4354742558817
50.435474255511
50.4354742551516
50.4354742548044
50.4354742544707
50.4354742541513
50.435474253847
50.4354742535585
50.4354742532866
50.4354742530318
50.4354742527946
50.4354742525753
50.4354742523743
50.435474252192
50.4354742520284
50.4354742518838
50.4354742517581
50.4354742516513
50.4354742515632
50.4354742514934
50.4354742514449
50.4354742514296
3502.46348968443
31522.1714071579
31522.1721328009
3502.46357030842
50.4354754123239
50.4354754121829
50.4354754120179
50.4354754118288
50.4354754116135
50.4354754113737
50.4354754111113
50.4354754108278
50.4354754105246
50.4354754102035
50.4354754098658
50.4354754095134
50.435475409148
50.4354754087717
50.4354754083861
50.4354754079934
50.4354754075954
50.4354754071941
50.4354754067913
50.4354754063892
50.4354754059892
50.4354754055933
50.435475405203
50.4354754048199
50.4354754044454
50.4354754040809
50.4354754037275
50.4354754033865
50.4354754030588
50.4354754027454
50.4354754024471
50.4354754021646
50.4354754018985
50.4354754016495
50.4354754014179
50.4354754012043
50.4354754010091
50.4354754008323
50.4354754006744
50.4354754005355
50.4354754004154
50.4354754003143
50.4354754002319
50.4354754001674
50.4354754001247
50.4354754001153
3502.46356945455
31522.1721250915
31522.1728506127
3502.46365006508
50.4354765608166
50.4354765606725
50.4354765605056
50.435476560316
50.4354765601007
50.4354765598615
50.4354765596004
50.4354765593188
50.4354765590181
50.4354765586999
50.4354765583657
50.4354765580172
50.4354765576561
50.4354765572843
50.4354765569037
50.4354765565161
50.4354765561235
50.4354765557277
50.4354765553307
50.4354765549343
50.4354765545403
50.4354765541503
50.435476553766
50.4354765533889
50.4354765530204
50.4354765526619
50.4354765523146
50.4354765519795
50.4354765516578
50.4354765513502
50.4354765510577
50.435476550781
50.4354765505207
50.4354765502773
50.4354765500514
50.4354765498434
50.4354765496536
50.4354765494824
50.43547654933
50.4354765491966
50.4354765490821
50.4354765489865
50.4354765489096
50.4354765488504
50.4354765488134
50.4354765488098
3502.46364922529
31522.1728430285
31522.1735684341
3502.4637298228
50.4354777093245
50.4354777091771
50.4354777090084
50.4354777088184
50.4354777086031
50.4354777083647
50.4354777081048
50.435477707825
50.4354777075268
50.4354777072114
50.4354777068806
50.4354777065359
50.435477706179
50.4354777058117
50.4354777054358
50.4354777050532
50.4354777046658
50.4354777042754
50.435477703884
50.4354777034932
50.4354777031049
50.4354777027206
50.4354777023422
50.435477701971
50.4354777016083
50.4354777012557
50.4354777009143
50.435477700585
50.435477700269
50.4354776999672
50.4354776996804
50.4354776994093
50.4354776991546
50.4354776989167
50.4354776986963
50.4354776984937
50.4354776983094
50.4354776981436
50.4354776979966
50.4354776978686
50.4354776977595
50.4354776976693
50.4354776975976
50.4354776975434
50.4354776975121
50.4354776975144
3502.46372899682
31522.1735609752
31522.1742862664
3502.46380958173
50.4354788578497
50.435478857699
50.4354788575285
50.4354788573382
50.4354788571231
50.4354788568854
50.4354788566268
50.4354788563488
50.4354788560528
50.4354788557403
50.4354788554127
50.4354788550716
50.4354788547188
50.4354788543558
50.4354788539845
50.4354788536068
50.4354788532244
50.4354788528392
50.4354788524531
50.4354788520678
50.435478851685
50.4354788513064
50.4354788509336
50.435478850568
50.4354788502111
50.4354788498641
50.4354788495283
50.4354788492047
50.4354788488944
50.4354788485982
50.4354788483168
50.4354788480512
50.4354788478019
50.4354788475694
50.4354788473543
50.435478847157
50.4354788469779
50.4354788468174
50.4354788466757
50.4354788465529
50.4354788464491
50.435478846364
50.4354788462974
50.4354788462481
50.4354788462222
50.4354788462306
3502.46380876914
31522.1742789292
31522.175004111
3502.463889342
50.4354800063942
50.4354800062397
50.4354800060675
50.4354800058772
50.4354800056623
50.4354800054254
50.4354800051681
50.4354800048918
50.4354800045981
50.4354800042883
50.4354800039638
50.4354800036262
50.4354800032772
50.4354800029183
50.4354800025515
50.4354800021784
50.4354800018009
50.4354800014207
50.4354800010397
50.4354800006597
50.4354800002822
50.4354799999091
50.4354799995417
50.4354799991816
50.4354799988302
50.4354799984887
50.4354799981583
50.4354799978402
50.4354799975352
50.4354799972444
50.4354799969684
50.435479996708
50.4354799964639
50.4354799962366
50.4354799960267