/*--------------------------------*- C++ -*----------------------------------*\
  =========                 |
  \\      /  F ield         | OpenFOAM: The Open Source CFD Toolbox
   \\    /   O peration     | Website:  https://openfoam.org
    \\  /    A nd           | Version:  10
     \\/     M anipulation  |
\*---------------------------------------------------------------------------*/
FoamFile
{
    format      ascii;
    class       volScalarField;
    location    "2";
    object      p;
}
// * * * * * * * * * * * * * * * * * * * * * * * * * * * * * * * * * * * * * //

dimensions      [1 -1 -2 0 0 0 0];

internalField   nonuniform List<scalar> 
2500
(
100062.615513319
100062.615515384
100062.615516497
100062.615517125
100062.615517614
100062.615517931
100062.615518158
100062.615518353
100062.615518526
100062.615518687
100062.61551884
100062.615518989
100062.615519133
100062.615519276
100062.615519417
100062.615519557
100062.615519696
100062.615519834
100062.615519971
100062.615520108
100062.615520243
100062.615520377
100062.61552051
100062.61552064
100062.615520768
100062.615520893
100062.615521015
100062.615521133
100062.615521246
100062.615521354
100062.615521457
100062.615521554
100062.615521643
100062.615521725
100062.615521798
100062.615521861
100062.615521914
100062.615521955
100062.615521983
100062.615521995
100062.615521991
100062.615521966
100062.615521915
100062.615521828
100062.615521694
100062.615521458
100062.615521034
100062.615520449
100062.615519334
100062.615517241
100062.613275581
100062.613277415
100062.613278635
100062.613279123
100062.613279531
100062.613279797
100062.613280005
100062.613280193
100062.613280364
100062.613280524
100062.613280678
100062.613280826
100062.613280971
100062.613281114
100062.613281255
100062.613281394
100062.613281533
100062.613281672
100062.613281809
100062.613281946
100062.613282081
100062.613282215
100062.613282348
100062.613282478
100062.613282606
100062.613282731
100062.613282853
100062.613282971
100062.613283084
100062.613283193
100062.613283296
100062.613283392
100062.613283482
100062.613283563
100062.613283636
100062.6132837
100062.613283752
100062.613283793
100062.613283821
100062.613283834
100062.613283829
100062.613283805
100062.613283757
100062.613283677
100062.613283563
100062.613283376
100062.613283029
100062.613282583
100062.61328137
100062.61327946
100062.611007926
100062.611008352
100062.611008538
100062.611008679
100062.611008958
100062.611009175
100062.611009366
100062.611009548
100062.611009717
100062.611009877
100062.61101003
100062.611010178
100062.611010323
100062.611010465
100062.611010606
100062.611010746
100062.611010885
100062.611011023
100062.611011161
100062.611011297
100062.611011433
100062.611011567
100062.611011699
100062.61101183
100062.611011958
100062.611012083
100062.611012205
100062.611012323
100062.611012436
100062.611012545
100062.611012648
100062.611012744
100062.611012834
100062.611012916
100062.611012989
100062.611013052
100062.611013105
100062.611013146
100062.611013174
100062.611013187
100062.611013183
100062.61101316
100062.611013114
100062.611013041
100062.611012944
100062.61101281
100062.611012594
100062.611012496
100062.611012334
100062.611011827
100062.608733029
100062.608732772
100062.608732717
100062.608732765
100062.608733015
100062.608733223
100062.608733409
100062.608733588
100062.608733755
100062.608733913
100062.608734065
100062.608734213
100062.608734357
100062.608734499
100062.60873464
100062.608734779
100062.608734918
100062.608735056
100062.608735194
100062.60873533
100062.608735465
100062.608735599
100062.608735732
100062.608735862
100062.60873599
100062.608736116
100062.608736237
100062.608736355
100062.608736469
100062.608736578
100062.608736681
100062.608736777
100062.608736867
100062.608736949
100062.608737022
100062.608737086
100062.608737139
100062.60873718
100062.608737209
100062.608737222
100062.60873722
100062.608737198
100062.608737154
100062.608737084
100062.608736993
100062.608736869
100062.608736686
100062.60873669
100062.608736768
100062.60873699
100062.606453743
100062.606453425
100062.606453398
100062.606453413
100062.606453638
100062.606453833
100062.606454011
100062.606454184
100062.606454347
100062.606454503
100062.606454653
100062.606454799
100062.606454943
100062.606455084
100062.606455224
100062.606455363
100062.606455502
100062.606455639
100062.606455776
100062.606455913
100062.606456048
100062.606456182
100062.606456314
100062.606456444
100062.606456572
100062.606456697
100062.606456819
100062.606456937
100062.606457051
100062.60645716
100062.606457263
100062.60645736
100062.606457449
100062.606457532
100062.606457605
100062.60645767
100062.606457723
100062.606457765
100062.606457795
100062.60645781
100062.606457808
100062.606457789
100062.606457749
100062.606457686
100062.606457604
100062.606457494
100062.606457337
100062.606457381
100062.606457429
100062.606457744
100062.604172537
100062.604172293
100062.604172289
100062.604172291
100062.604172492
100062.604172673
100062.604172839
100062.604173005
100062.604173163
100062.604173315
100062.604173463
100062.604173607
100062.604173749
100062.60417389
100062.604174029
100062.604174168
100062.604174305
100062.604174443
100062.604174579
100062.604174715
100062.60417485
100062.604174984
100062.604175116
100062.604175246
100062.604175374
100062.6041755
100062.604175621
100062.604175739
100062.604175853
100062.604175962
100062.604176065
100062.604176163
100062.604176253
100062.604176335
100062.60417641
100062.604176474
100062.604176529
100062.604176572
100062.604176603
100062.60417662
100062.604176621
100062.604176605
100062.604176571
100062.604176515
100062.604176445
100062.604176351
100062.604176219
100062.604176281
100062.604176303
100062.604176556
100062.601890755
100062.601890581
100062.601890595
100062.601890597
100062.601890776
100062.601890942
100062.601891098
100062.601891255
100062.601891407
100062.601891555
100062.6018917
100062.601891843
100062.601891983
100062.601892122
100062.60189226
100062.601892398
100062.601892535
100062.601892672
100062.601892808
100062.601892944
100062.601893078
100062.601893212
100062.601893344
100062.601893474
100062.601893602
100062.601893727
100062.601893849
100062.601893968
100062.601894082
100062.601894191
100062.601894294
100062.601894392
100062.601894483
100062.601894566
100062.601894641
100062.601894706
100062.601894762
100062.601894807
100062.601894839
100062.601894858
100062.601894862
100062.601894851
100062.601894822
100062.601894776
100062.601894717
100062.601894637
100062.601894531
100062.601894595
100062.601894597
100062.601894781
100062.599608842
100062.599608718
100062.599608743
100062.599608751
100062.599608908
100062.599609062
100062.599609207
100062.599609355
100062.599609502
100062.599609646
100062.599609787
100062.599609927
100062.599610066
100062.599610203
100062.59961034
100062.599610477
100062.599610614
100062.59961075
100062.599610886
100062.599611021
100062.599611155
100062.599611289
100062.599611421
100062.599611551
100062.599611679
100062.599611804
100062.599611926
100062.599612044
100062.599612159
100062.599612268
100062.599612372
100062.59961247
100062.599612561
100062.599612645
100062.599612721
100062.599612788
100062.599612845
100062.599612891
100062.599612925
100062.599612947
100062.599612954
100062.599612947
100062.599612925
100062.599612888
100062.599612841
100062.599612774
100062.599612691
100062.59961275
100062.599612742
100062.599612873
100062.597326906
100062.597326814
100062.597326843
100062.597326858
100062.597326995
100062.597327137
100062.597327272
100062.597327413
100062.597327553
100062.597327692
100062.597327831
100062.597327968
100062.597328104
100062.59732824
100062.597328376
100062.597328512
100062.597328648
100062.597328783
100062.597328918
100062.597329053
100062.597329187
100062.597329321
100062.597329453
100062.597329583
100062.597329711
100062.597329836
100062.597329958
100062.597330077
100062.597330191
100062.597330301
100062.597330406
100062.597330504
100062.597330596
100062.597330681
100062.597330758
100062.597330826
100062.597330884
100062.597330932
100062.597330969
100062.597330993
100062.597331005
100062.597331002
100062.597330987
100062.597330958
100062.597330921
100062.597330866
100062.597330805
100062.597330857
100062.597330846
100062.597330942
100062.595044965
100062.595044896
100062.595044923
100062.595044945
100062.595045065
100062.595045196
100062.595045323
100062.595045456
100062.59504559
100062.595045725
100062.595045859
100062.595045994
100062.595046128
100062.595046262
100062.595046397
100062.595046531
100062.595046666
100062.595046801
100062.595046936
100062.59504707
100062.595047204
100062.595047337
100062.595047469
100062.595047599
100062.595047727
100062.595047853
100062.595047975
100062.595048094
100062.595048209
100062.595048319
100062.595048424
100062.595048524
100062.595048616
100062.595048702
100062.59504878
100062.59504885
100062.59504891
100062.59504896
100062.595048999
100062.595049026
100062.595049041
100062.595049044
100062.595049034
100062.595049014
100062.595048985
100062.595048942
100062.595048899
100062.595048944
100062.595048936
100062.595049008
100062.592763024
100062.592762971
100062.592762995
100062.592763023
100062.592763129
100062.592763249
100062.592763368
100062.592763494
100062.592763622
100062.592763752
100062.592763883
100062.592764015
100062.592764147
100062.592764279
100062.592764412
100062.592764546
100062.59276468
100062.592764814
100062.592764948
100062.592765082
100062.592765216
100062.592765348
100062.59276548
100062.59276561
100062.592765738
100062.592765864
100062.592765987
100062.592766106
100062.592766222
100062.592766332
100062.592766438
100062.592766538
100062.592766632
100062.592766719
100062.592766798
100062.592766869
100062.592766931
100062.592766983
100062.592767025
100062.592767055
100062.592767074
100062.592767082
100062.592767079
100062.592767065
100062.592767045
100062.592767012
100062.592766984
100062.592767023
100062.592767019
100062.592767074
100062.590481083
100062.590481042
100062.590481062
100062.590481094
100062.590481189
100062.590481301
100062.590481412
100062.590481532
100062.590481655
100062.59048178
100062.590481907
100062.590482036
100062.590482165
100062.590482296
100062.590482427
100062.59048256
100062.590482693
100062.590482826
100062.590482959
100062.590483093
100062.590483226
100062.590483359
100062.590483491
100062.590483621
100062.590483749
100062.590483875
100062.590483998
100062.590484118
100062.590484234
100062.590484345
100062.590484452
100062.590484553
100062.590484647
100062.590484735
100062.590484816
100062.590484889
100062.590484952
100062.590485007
100062.590485051
100062.590485085
100062.590485108
100062.590485121
100062.590485123
100062.590485117
100062.590485104
100062.59048508
100062.590485064
100062.590485098
100062.590485099
100062.590485142
100062.588199144
100062.588199111
100062.588199128
100062.588199164
100062.58819925
100062.588199353
100062.588199458
100062.588199571
100062.588199689
100062.58819981
100062.588199933
100062.588200059
100062.588200186
100062.588200315
100062.588200445
100062.588200576
100062.588200707
100062.58820084
100062.588200973
100062.588201106
100062.588201239
100062.588201372
100062.588201503
100062.588201634
100062.588201762
100062.588201888
100062.588202012
100062.588202132
100062.588202248
100062.58820236
100062.588202468
100062.588202569
100062.588202665
100062.588202755
100062.588202837
100062.588202911
100062.588202977
100062.588203034
100062.588203081
100062.588203118
100062.588203145
100062.588203163
100062.58820317
100062.58820317
100062.588203164
100062.588203148
100062.588203142
100062.588203172
100062.588203177
100062.588203211
100062.585917205
100062.585917179
100062.585917194
100062.585917232
100062.585917311
100062.585917406
100062.585917506
100062.585917613
100062.585917726
100062.585917842
100062.585917962
100062.585918085
100062.58591821
100062.585918336
100062.585918465
100062.585918594
100062.585918725
100062.585918857
100062.585918989
100062.585919122
100062.585919255
100062.585919387
100062.585919519
100062.585919649
100062.585919777
100062.585919904
100062.585920028
100062.585920148
100062.585920265
100062.585920378
100062.585920486
100062.585920589
100062.585920686
100062.585920777
100062.585920861
100062.585920937
100062.585921005
100062.585921064
100062.585921114
100062.585921155
100062.585921186
100062.585921208
100062.585921221
100062.585921227
100062.585921227
100062.585921218
100062.585921219
100062.585921246
100062.585921254
100062.585921281
100062.583635268
100062.583635247
100062.583635261
100062.5836353
100062.583635373
100062.583635462
100062.583635556
100062.583635658
100062.583635766
100062.583635879
100062.583635995
100062.583636115
100062.583636237
100062.583636361
100062.583636488
100062.583636616
100062.583636746
100062.583636877
100062.583637009
100062.583637141
100062.583637273
100062.583637406
100062.583637537
100062.583637668
100062.583637796
100062.583637923
100062.583638047
100062.583638169
100062.583638286
100062.5836384
100062.583638509
100062.583638613
100062.583638711
100062.583638803
100062.583638888
100062.583638966
100062.583639037
100062.583639099
100062.583639152
100062.583639196
100062.583639231
100062.583639257
100062.583639276
100062.583639287
100062.583639293
100062.583639291
100062.583639297
100062.583639322
100062.583639332
100062.583639354
100062.581353332
100062.581353315
100062.581353328
100062.581353367
100062.581353437
100062.58135352
100062.581353608
100062.581353705
100062.581353809
100062.581353917
100062.581354031
100062.581354147
100062.581354267
100062.581354389
100062.581354514
100062.581354641
100062.58135477
100062.5813549
100062.581355031
100062.581355163
100062.581355295
100062.581355427
100062.581355559
100062.581355689
100062.581355818
100062.581355945
100062.58135607
100062.581356192
100062.58135631
100062.581356425
100062.581356535
100062.58135664
100062.581356739
100062.581356833
100062.58135692
100062.581357
100062.581357072
100062.581357137
100062.581357193
100062.58135724
100062.581357279
100062.58135731
100062.581357333
100062.58135735
100062.58135736
100062.581357364
100062.581357375
100062.581357399
100062.58135741
100062.581357427
100062.579071398
100062.579071384
100062.579071397
100062.579071436
100062.579071501
100062.579071579
100062.579071663
100062.579071755
100062.579071854
100062.579071959
100062.579072069
100062.579072183
100062.5790723
100062.579072421
100062.579072544
100062.579072669
100062.579072797
100062.579072926
100062.579073057
100062.579073188
100062.57907332
100062.579073452
100062.579073583
100062.579073714
100062.579073843
100062.579073971
100062.579074096
100062.579074218
100062.579074337
100062.579074453
100062.579074564
100062.57907467
100062.579074771
100062.579074866
100062.579074954
100062.579075036
100062.579075111
100062.579075178
100062.579075237
100062.579075288
100062.579075331
100062.579075366
100062.579075394
100062.579075415
100062.579075431
100062.57907544
100062.579075454
100062.579075477
100062.579075489
100062.579075503
100062.576789464
100062.576789453
100062.576789465
100062.576789504
100062.576789566
100062.576789639
100062.576789718
100062.576789807
100062.576789902
100062.576790003
100062.57679011
100062.57679022
100062.576790335
100062.576790454
100062.576790575
100062.576790699
100062.576790826
100062.576790954
100062.576791084
100062.576791215
100062.576791347
100062.576791478
100062.57679161
100062.576791741
100062.57679187
100062.576791998
100062.576792124
100062.576792247
100062.576792367
100062.576792483
100062.576792595
100062.576792702
100062.576792804
100062.576792901
100062.576792992
100062.576793076
100062.576793153
100062.576793223
100062.576793285
100062.576793339
100062.576793386
100062.576793425
100062.576793457
100062.576793483
100062.576793503
100062.576793517
100062.576793534
100062.576793557
100062.576793568
100062.57679358
100062.574507531
100062.574507522
100062.574507535
100062.574507573
100062.574507632
100062.5745077
100062.574507776
100062.57450786
100062.574507951
100062.574508049
100062.574508152
100062.57450826
100062.574508373
100062.574508489
100062.574508609
100062.574508732
100062.574508857
100062.574508984
100062.574509114
100062.574509244
100062.574509375
100062.574509507
100062.574509639
100062.57450977
100062.574509899
100062.574510028
100062.574510154
100062.574510278
100062.574510398
100062.574510515
100062.574510628
100062.574510737
100062.574510841
100062.574510939
100062.574511031
100062.574511117
100062.574511197
100062.574511269
100062.574511334
100062.574511392
100062.574511443
100062.574511486
100062.574511522
100062.574511552
100062.574511576
100062.574511594
100062.574511615
100062.574511637
100062.574511649
100062.574511658
100062.572225599
100062.572225592
100062.572225604
100062.572225641
100062.572225698
100062.572225762
100062.572225834
100062.572225914
100062.572226001
100062.572226096
100062.572226196
100062.572226301
100062.572226411
100062.572226525
100062.572226643
100062.572226765
100062.572226889
100062.572227016
100062.572227144
100062.572227274
100062.572227405
100062.572227537
100062.572227669
100062.5722278
100062.57222793
100062.572228059
100062.572228185
100062.57222831
100062.572228431
100062.572228549
100062.572228663
100062.572228773
100062.572228878
100062.572228978
100062.572229072
100062.572229161
100062.572229242
100062.572229318
100062.572229386
100062.572229447
100062.572229501
100062.572229548
100062.572229588
100062.572229622
100062.572229651
100062.572229673
100062.572229696
100062.572229719
100062.57222973
100062.572229738
100062.569943667
100062.569943661
100062.569943674
100062.56994371
100062.569943764
100062.569943824
100062.569943892
100062.569943969
100062.569944053
100062.569944143
100062.569944241
100062.569944343
100062.569944451
100062.569944563
100062.56994468
100062.5699448
100062.569944923
100062.569945048
100062.569945176
100062.569945306
100062.569945437
100062.569945568
100062.5699457
100062.569945831
100062.569945962
100062.569946091
100062.569946218
100062.569946343
100062.569946465
100062.569946584
100062.5699467
100062.569946811
100062.569946917
100062.569947019
100062.569947115
100062.569947205
100062.56994729
100062.569947367
100062.569947439
100062.569947503
100062.569947561
100062.569947611
100062.569947656
100062.569947694
100062.569947726
100062.569947752
100062.569947777
100062.569947801
100062.569947812
100062.569947818
100062.567661736
100062.567661731
100062.567661744
100062.567661779
100062.567661829
100062.567661886
100062.567661951
100062.567662024
100062.567662104
100062.567662192
100062.567662286
100062.567662386
100062.567662491
100062.567662602
100062.567662716
100062.567662835
100062.567662957
100062.567663082
100062.567663209
100062.567663338
100062.567663469
100062.5676636
100062.567663732
100062.567663863
100062.567663994
100062.567664124
100062.567664252
100062.567664377
100062.5676645
100062.56766462
100062.567664737
100062.567664849
100062.567664957
100062.56766506
100062.567665158
100062.567665251
100062.567665338
100062.567665418
100062.567665492
100062.56766556
100062.567665621
100062.567665676
100062.567665724
100062.567665766
100062.567665802
100062.567665831
100062.567665859
100062.567665883
100062.567665894
100062.567665899
100062.565379805
100062.565379801
100062.565379814
100062.565379848
100062.565379896
100062.565379949
100062.56538001
100062.56538008
100062.565380157
100062.565380241
100062.565380332
100062.56538043
100062.565380533
100062.565380641
100062.565380754
100062.565380871
100062.565380992
100062.565381116
100062.565381243
100062.565381372
100062.565381502
100062.565381633
100062.565381765
100062.565381896
100062.565382028
100062.565382158
100062.565382286
100062.565382412
100062.565382536
100062.565382657
100062.565382775
100062.565382889
100062.565382998
100062.565383103
100062.565383203
100062.565383298
100062.565383387
100062.56538347
100062.565383547
100062.565383618
100062.565383683
100062.565383741
100062.565383793
100062.565383839
100062.565383878
100062.565383911
100062.565383941
100062.565383966
100062.565383977
100062.565383981
100062.563097874
100062.563097872
100062.563097884
100062.563097917
100062.563097962
100062.563098012
100062.56309807
100062.563098136
100062.563098209
100062.563098291
100062.563098379
100062.563098474
100062.563098574
100062.563098681
100062.563098792
100062.563098908
100062.563099028
100062.563099151
100062.563099277
100062.563099405
100062.563099535
100062.563099666
100062.563099798
100062.56309993
100062.563100061
100062.563100192
100062.563100321
100062.563100448
100062.563100573
100062.563100695
100062.563100813
100062.563100929
100062.56310104
100062.563101146
100062.563101248
100062.563101345
100062.563101436
100062.563101522
100062.563101602
100062.563101676
100062.563101744
100062.563101806
100062.563101862
100062.563101911
100062.563101955
100062.563101991
100062.563102024
100062.563102049
100062.563102061
100062.563102063
100062.560815944
100062.560815943
100062.560815955
100062.560815986
100062.560816029
100062.560816075
100062.56081613
100062.560816192
100062.560816263
100062.560816341
100062.560816426
100062.560816518
100062.560816617
100062.560816721
100062.560816831
100062.560816946
100062.560817064
100062.560817187
100062.560817312
100062.56081744
100062.56081757
100062.560817701
100062.560817832
100062.560817965
100062.560818096
100062.560818227
100062.560818357
100062.560818485
100062.56081861
100062.560818733
100062.560818853
100062.56081897
100062.560819082
100062.56081919
100062.560819294
100062.560819393
100062.560819487
100062.560819576
100062.560819659
100062.560819736
100062.560819807
100062.560819873
100062.560819932
100062.560819985
100062.560820032
100062.560820072
100062.560820107
100062.560820134
100062.560820145
100062.560820146
100062.558534015
100062.558534015
100062.558534026
100062.558534056
100062.558534096
100062.558534139
100062.55853419
100062.558534249
100062.558534317
100062.558534392
100062.558534474
100062.558534564
100062.55853466
100062.558534763
100062.558534871
100062.558534984
100062.558535101
100062.558535223
100062.558535348
100062.558535475
100062.558535604
100062.558535735
100062.558535867
100062.558536
100062.558536132
100062.558536263
100062.558536393
100062.558536522
100062.558536648
100062.558536772
100062.558536893
100062.558537011
100062.558537125
100062.558537235
100062.558537341
100062.558537442
100062.558537538
100062.558537629
100062.558537715
100062.558537796
100062.55853787
100062.558537939
100062.558538002
100062.558538059
100062.558538109
100062.558538153
100062.558538191
100062.558538218
100062.55853823
100062.55853823
100062.556252087
100062.556252088
100062.556252099
100062.556252127
100062.556252164
100062.556252204
100062.556252252
100062.556252308
100062.556252371
100062.556252443
100062.556252523
100062.55625261
100062.556252704
100062.556252805
100062.556252911
100062.556253023
100062.55625314
100062.55625326
100062.556253384
100062.556253511
100062.55625364
100062.556253771
100062.556253903
100062.556254036
100062.556254168
100062.5562543
100062.556254431
100062.55625456
100062.556254687
100062.556254812
100062.556254935
100062.556255054
100062.556255169
100062.556255281
100062.556255388
100062.556255492
100062.55625559
100062.556255684
100062.556255773
100062.556255856
100062.556255934
100062.556256007
100062.556256074
100062.556256134
100062.556256188
100062.556256235
100062.556256275
100062.556256304
100062.556256316
100062.556256316
100062.553970161
100062.553970162
100062.553970172
100062.5539702
100062.553970234
100062.55397027
100062.553970314
100062.553970366
100062.553970427
100062.553970496
100062.553970573
100062.553970657
100062.553970749
100062.553970848
100062.553970953
100062.553971063
100062.553971179
100062.553971298
100062.553971422
100062.553971548
100062.553971677
100062.553971808
100062.55397194
100062.553972073
100062.553972205
100062.553972338
100062.553972469
100062.553972599
100062.553972727
100062.553972853
100062.553972977
100062.553973097
100062.553973214
100062.553973327
100062.553973437
100062.553973542
100062.553973643
100062.553973739
100062.553973831
100062.553973917
100062.553973999
100062.553974075
100062.553974145
100062.55397421
100062.553974267
100062.553974318
100062.553974361
100062.553974391
100062.553974403
100062.553974402
100062.551688236
100062.551688239
100062.551688248
100062.551688274
100062.551688305
100062.551688337
100062.551688378
100062.551688427
100062.551688484
100062.551688549
100062.551688623
100062.551688705
100062.551688795
100062.551688892
100062.551688995
100062.551689104
100062.551689219
100062.551689338
100062.551689461
100062.551689587
100062.551689715
100062.551689846
100062.551689978
100062.551690111
100062.551690244
100062.551690377
100062.551690509
100062.55169064
100062.551690769
100062.551690895
100062.55169102
100062.551691141
100062.55169126
100062.551691375
100062.551691486
100062.551691594
100062.551691697
100062.551691796
100062.55169189
100062.55169198
100062.551692065
100062.551692144
100062.551692218
100062.551692286
100062.551692348
100062.551692402
100062.551692448
100062.55169248
100062.551692493
100062.551692491
100062.549406314
100062.549406317
100062.549406326
100062.54940635
100062.549406377
100062.549406406
100062.549406443
100062.549406488
100062.549406542
100062.549406604
100062.549406675
100062.549406755
100062.549406842
100062.549406937
100062.549407039
100062.549407147
100062.54940726
100062.549407378
100062.549407501
100062.549407626
100062.549407755
100062.549407885
100062.549408017
100062.54940815
100062.549408284
100062.549408417
100062.54940855
100062.549408681
100062.549408811
100062.549408939
100062.549409064
100062.549409187
100062.549409307
100062.549409423
100062.549409537
100062.549409646
100062.549409751
100062.549409853
100062.54940995
100062.549410043
100062.549410131
100062.549410214
100062.549410292
100062.549410364
100062.549410429
100062.549410488
100062.549410537
100062.54941057
100062.549410583
100062.549410581
100062.547124394
100062.547124399
100062.547124407
100062.547124429
100062.547124453
100062.547124477
100062.54712451
100062.547124551
100062.547124601
100062.547124661
100062.547124729
100062.547124806
100062.547124891
100062.547124984
100062.547125084
100062.547125191
100062.547125303
100062.547125421
100062.547125542
100062.547125668
100062.547125796
100062.547125926
100062.547126058
100062.547126192
100062.547126325
100062.547126459
100062.547126592
100062.547126724
100062.547126855
100062.547126983
100062.54712711
100062.547127234
100062.547127355
100062.547127473
100062.547127588
100062.5471277
100062.547127808
100062.547127912
100062.547128012
100062.547128107
100062.547128199
100062.547128286
100062.547128367
100062.547128443
100062.547128512
100062.547128575
100062.547128628
100062.547128662
100062.547128677
100062.547128674
100062.544842478
100062.544842483
100062.54484249
100062.54484251
100062.54484253
100062.54484255
100062.544842578
100062.544842616
100062.544842662
100062.544842718
100062.544842784
100062.544842858
100062.544842941
100062.544843033
100062.544843131
100062.544843236
100062.544843348
100062.544843464
100062.544843585
100062.54484371
100062.544843838
100062.544843969
100062.544844101
100062.544844234
100062.544844368
100062.544844502
100062.544844636
100062.544844768
100062.5448449
100062.54484503
100062.544845157
100062.544845282
100062.544845405
100062.544845525
100062.544845641
100062.544845755
100062.544845865
100062.544845971
100062.544846074
100062.544846173
100062.544846268
100062.544846358
100062.544846444
100062.544846524
100062.544846597
100062.544846665
100062.544846721
100062.544846757
100062.544846773
100062.544846769
100062.542560565
100062.542560572
100062.542560577
100062.542560595
100062.542560611
100062.542560625
100062.542560649
100062.542560683
100062.542560725
100062.542560778
100062.54256084
100062.542560912
100062.542560993
100062.542561083
100062.54256118
100062.542561284
100062.542561394
100062.54256151
100062.542561631
100062.542561755
100062.542561883
100062.542562013
100062.542562145
100062.542562279
100062.542562413
100062.542562547
100062.542562682
100062.542562815
100062.542562947
100062.542563078
100062.542563206
100062.542563333
100062.542563457
100062.542563578
100062.542563696
100062.542563811
100062.542563924
100062.542564032
100062.542564138
100062.54256424
100062.542564338
100062.542564432
100062.542564522
100062.542564606
100062.542564684
100062.542564756
100062.542564817
100062.542564855
100062.542564872
100062.542564867
100062.540278657
100062.540278664
100062.540278668
100062.540278684
100062.540278694
100062.540278703
100062.540278723
100062.540278751
100062.54027879
100062.54027884
100062.540278899
100062.540278968
100062.540279047
100062.540279135
100062.54027923
100062.540279333
100062.540279443
100062.540279558
100062.540279678
100062.540279802
100062.540279929
100062.540280059
100062.540280192
100062.540280325
100062.54028046
100062.540280595
100062.540280729
100062.540280863
100062.540280996
100062.540281127
100062.540281257
100062.540281385
100062.54028151
100062.540281632
100062.540281752
100062.54028187
100062.540281984
100062.540282095
100062.540282203
100062.540282308
100062.540282409
100062.540282507
100062.540282601
100062.54028269
100062.540282773
100062.540282851
100062.540282915
100062.540282956
100062.540282974
100062.540282969
100062.537996753
100062.537996762
100062.537996764
100062.537996777
100062.537996782
100062.537996784
100062.537996799
100062.537996823
100062.537996858
100062.537996903
100062.53799696
100062.537997027
100062.537997103
100062.537997189
100062.537997283
100062.537997385
100062.537997494
100062.537997608
100062.537997727
100062.537997851
100062.537997978
100062.537998108
100062.53799824
100062.537998374
100062.537998509
100062.537998644
100062.537998779
100062.537998914
100062.537999047
100062.53799918
100062.53799931
100062.537999439
100062.537999565
100062.537999689
100062.537999811
100062.53799993