/*--------------------------------*- C++ -*----------------------------------*\
  =========                 |
  \\      /  F ield         | OpenFOAM: The Open Source CFD Toolbox
   \\    /   O peration     | Website:  https://openfoam.org
    \\  /    A nd           | Version:  10
     \\/     M anipulation  |
\*---------------------------------------------------------------------------*/
FoamFile
{
    format      ascii;
    class       volScalarField;
    location    "2";
    object      p_rgh;
}
// * * * * * * * * * * * * * * * * * * * * * * * * * * * * * * * * * * * * * //

dimensions      [1 -1 -2 0 0 0 0];

internalField   nonuniform List<scalar> 
2500
(
62.7286310051568
62.7286570417928
62.728668482654
62.7286718515243
62.7286729974294
62.7286734707595
62.7286737349496
62.7286739388073
62.7286741143471
62.7286742759316
62.7286744299199
62.7286745786405
62.7286747238104
62.728674866783
62.7286750081257
62.7286751483771
62.7286752875225
62.7286754259694
62.7286755636596
62.7286757003749
62.7286758360133
62.728675970342
62.7286761030264
62.7286762334552
62.7286763614829
62.7286764867313
62.728676608458
62.7286767263286
62.7286768398189
62.7286769481434
62.7286770508217
62.7286771472718
62.7286772365624
62.7286773180094
62.7286773908272
62.7286774540698
62.7286775066896
62.7286775474786
62.7286775748507
62.7286775872781
62.728677582345
62.7286775565153
62.7286775031826
62.7286774058302
62.7286772284133
62.7286768247432
62.728675731807
62.7286724090518
62.7286608138384
62.7286349426577
62.7295484385395
62.7296006400284
62.7296327399381
62.729643162078
62.7296464547253
62.7296475174662
62.7296479307406
62.7296481684316
62.7296483506216
62.7296485133993
62.7296486673004
62.7296488158318
62.7296489608707
62.7296491036395
62.7296492447931
62.7296493848116
62.7296495238843
62.7296496621857
62.7296497997013
62.7296499363292
62.729650071924
62.7296502062818
62.7296503389807
62.7296504694386
62.7296505974518
62.7296507227293
62.7296508444415
62.7296509623411
62.7296510758897
62.7296511842287
62.7296512869798
62.7296513836191
62.7296514728514
62.7296515542112
62.7296516271017
62.7296516904753
62.7296517431969
62.7296517840878
62.7296518116345
62.7296518241492
62.7296518189105
62.7296517910727
62.729651728092
62.7296515886555
62.7296512441098
62.7296502258105
62.7296469935827
62.7296366927621
62.7296040276997
62.7295511693665
62.7301543961512
62.7301995355956
62.7302279712458
62.730237643249
62.7302407258103
62.7302417261235
62.7302421221975
62.7302423548681
62.7302425350936
62.7302426970127
62.7302428504336
62.7302429986739
62.7302431434509
62.7302432860452
62.7302434270387
62.7302435669117
62.730243705897
62.7302438441257
62.730243981583
62.7302441181528
62.7302442537184
62.7302443879744
62.7302445206005
62.7302446511312
62.7302447791881
62.7302449044073
62.7302450262359
62.7302451441792
62.7302452576987
62.7302453661687
62.7302454690653
62.7302455657336
62.7302456551697
62.7302457366895
62.7302458097547
62.7302458733029
62.7302459261991
62.7302459672792
62.7302459951025
62.7302460080246
62.7302460034116
62.7302459766506
62.730245916624
62.7302457856858
62.7302454678575
62.7302445316891
62.7302415283775
62.7302319327282
62.7302028722333
62.7301556384919
62.7304678830988
62.7304945178039
62.7305090290465
62.7305140659882
62.7305157354713
62.7305163291458
62.7305166155274
62.7305168195162
62.7305169918254
62.730517151067
62.7305173031637
62.7305174506473
62.730517594915
62.7305177371018
62.7305178777751
62.7305180173862
62.7305181561678
62.7305182942073
62.7305184315046
62.7305185679725
62.7305187033635
62.7305188374885
62.7305189699982
62.7305191004707
62.7305192284985
62.7305193536886
62.7305194755318
62.7305195935041
62.7305197070673
62.7305198156246
62.7305199185794
62.730520015306
62.7305201049166
62.7305201867275
62.7305202600255
62.730520323792
62.7305203769647
62.7305204184231
62.7305204467848
62.730520460449
62.7305204572622
62.7305204339063
62.7305203838478
62.7305202875286
62.7305200928677
62.7305195830413
62.73051799323
62.730512986207
62.730498068835
62.7304693755868
62.7306012718909
62.7306136847474
62.7306194787525
62.7306215433055
62.7306223441265
62.7306226926885
62.7306229100068
62.7306230933609
62.7306232585834
62.7306234145799
62.7306235647557
62.7306237109151
62.730623854266
62.7306239956815
62.7306241357728
62.7306242748891
62.7306244132487
62.7306245509535
62.7306246879743
62.7306248241803
62.7306249593821
62.7306250933325
62.7306252256822
62.7306253560528
62.7306254840223
62.7306256091833
62.7306257310265
62.7306258490426
62.7306259626494
62.7306260713231
62.7306261744088
62.7306262712809
62.7306263611536
62.7306264433137
62.7306265169464
62.730626581164
62.7306266348896
62.7306266770465
62.7306267063395
62.7306267212844
62.7306267200765
62.7306267002859
62.7306266581581
62.7306265846273
62.7306264633371
62.7306262036873
62.730625481825
62.7306234629505
62.7306174711848
62.7306037394155
62.7306494674267
62.7306543274899
62.730656306434
62.7306570298533
62.7306574342365
62.730657668144
62.7306578487041
62.7306580179429
62.7306581767625
62.7306583290774
62.7306584767939
62.730658621178
62.7306587632338
62.7306589036307
62.7306590429071
62.7306591813685
62.7306593191752
62.7306594564434
62.7306595931004
62.7306597290299
62.7306598639989
62.7306599977601
62.7306601299642
62.7306602602475
62.730660388188
62.730660513349
62.7306606352213
62.7306607533246
62.7306608670624
62.7306609759107
62.7306610792293
62.7306611763488
62.7306612665998
62.730661349211
62.7306614233821
62.7306614882546
62.7306615428097
62.7306615859998
62.7306616166316
62.7306616333517
62.7306616346614
62.7306616187416
62.7306615834386
62.7306615247508
62.7306614411646
62.7306612958928
62.730660968009
62.7306603047473
62.7306582534075
62.7306527400506
62.7306638902519
62.7306655245193
62.7306661448965
62.7306663750205
62.7306666183576
62.7306668015954
62.7306669615064
62.7306671198894
62.7306672724808
62.7306674207357
62.7306675655564
62.730667707845
62.730667848271
62.7306679874164
62.7306681256887
62.7306682633352
62.7306684005162
62.7306685372605
62.7306686735101
62.7306688091048
62.7306689438119
62.7306690773839
62.7306692094571
62.7306693396677
62.7306694675935
62.7306695927837
62.7306697147433
62.7306698329776
62.7306699469191
62.7306700560148
62.730670159639
62.7306702571805
62.7306703478971
62.730670431105
62.7306705060037
62.7306705717201
62.7306706273375
62.7306706718664
62.7306707041862
62.7306707231182
62.7306707274256
62.7306707158132
62.7306706870149
62.7306706396193
62.7306705771043
62.7306704816001
62.7306703132926
62.7306701491325
62.730669513694
62.7306676097796
62.73066651111
62.7306669684622
62.7306671654515
62.7306672401028
62.7306674161518
62.7306675745058
62.7306677207962
62.730667869866
62.7306680162874
62.7306681601476
62.7306683017814
62.7306684416399
62.7306685802032
62.7306687178934
62.7306688550016
62.7306689917459
62.7306691281847
62.7306692643469
62.7306694001163
62.7306695353473
62.7306696697924
62.7306698031898
62.7306699351466
62.7306700652989
62.7306701932393
62.7306703185022
62.7306704406074
62.7306705590308
62.7306706732488
62.7306707826647
62.7306708866963
62.730670984718
62.7306710760458
62.7306711599813
62.7306712357386
62.7306713025173
62.7306713594298
62.7306714055449
62.7306714398728
62.7306714613951
62.7306714690785
62.7306714620645
62.7306714397564
62.7306714020815
62.7306713536236
62.7306712825084
62.7306711816927
62.7306711745623
62.7306709844852
62.7306704309012
62.7306653827545
62.7306654646382
62.7306655392022
62.730665572788
62.7306657152658
62.7306658581656
62.730665993935
62.7306661345792
62.7306662748742
62.7306664141943
62.7306665523793
62.7306666895893
62.7306668261153
62.7306669621757
62.7306670980033
62.7306672337145
62.7306673693383
62.7306675048603
62.7306676401349
62.7306677749875
62.7306679091853
62.730668042379
62.7306681742339
62.7306683043571
62.7306684323412
62.7306685577205
62.7306686799857
62.7306687986711
62.7306689131801
62.730669023018
62.7306691275444
62.7306692261627
62.7306693182181
62.7306694029976
62.730669479788
62.7306695477891
62.730669606186
62.73066965412
62.730669690689
62.7306697150489
62.7306697263994
62.7306697241875
62.7306697083113
62.7306696794694
62.73066964194
62.7306695860752
62.7306695199513
62.7306695539592
62.7306694943254
62.7306693825376
62.7306631501706
62.7306631295505
62.730663168506
62.7306631953397
62.730663316921
62.7306634478737
62.7306635747082
62.7306637075962
62.7306638419104
62.7306639765884
62.7306641111791
62.7306642456097
62.7306643799238
62.7306645142526
62.7306646486977
62.7306647833029
62.7306649180537
62.7306650528772
62.7306651876133
62.7306653220876
62.7306654559798
62.7306655889988
62.7306657207664
62.7306658508896
62.7306659789465
62.7306661044713
62.7306662269693
62.7306663459458
62.7306664608623
62.7306665711658
62.7306666762888
62.7306667755911
62.7306668684469
62.7306669542013
62.7306670321559
62.7306671015394
62.7306671615806
62.7306672115374
62.7306672505656
62.7306672779669
62.7306672931591
62.7306672958512
62.730667286276
62.7306672655395
62.7306672373234
62.7306671933329
62.7306671494298
62.7306671896513
62.7306671690894
62.7306671818806
62.7306606121856
62.7306605717458
62.7306605986378
62.7306606276397
62.7306607341598
62.7306608547515
62.7306609736843
62.7306610993983
62.7306612279062
62.7306613580004
62.7306614889385
62.7306616204733
62.7306617524737
62.7306618849543
62.7306620179297
62.7306621513562
62.7306622851756
62.7306624192715
62.7306625534547
62.730662687507
62.7306628211081
62.7306629539526
62.7306630856474
62.7306632157997
62.7306633439584
62.7306634696724
62.7306635924324
62.7306637117726
62.7306638271257
62.7306639379822
62.7306640437309
62.7306641438045
62.7306642376061
62.7306643244519
62.730664403658
62.7306644745549
62.7306645364297
62.7306645885255
62.7306646301877
62.7306646608049
62.7306646799407
62.7306646875368
62.7306646840443
62.7306646707875
62.7306646507641
62.730664617091
62.7306645893696
62.7306646267098
62.7306646203215
62.7306646593934
62.7306579942524
62.730657955748
62.7306579769502
62.7306580095028
62.7306581045996
62.7306582158781
62.7306583276513
62.7306584467442
62.730658569737
62.7306586952764
62.7306588225474
62.7306589511136
62.7306590807275
62.7306592112873
62.7306593427056
62.7306594749098
62.7306596077542
62.7306597410934
62.7306598747236
62.7306600083393
62.7306601416494
62.7306602743338
62.7306604059559
62.7306605361518
62.7306606644415
62.7306607903738
62.7306609134539
62.7306610332016
62.730661149064
62.7306612605316
62.730661367008
62.7306614679401
62.7306615627313
62.7306616507412
62.7306617313443
62.7306618038856
62.7306618676812
62.7306619220908
62.7306619665032
62.7306620004238
62.7306620235759
62.7306620360177
62.7306620383606
62.7306620319723
62.7306620193413
62.7306619949231
62.7306619794545
62.7306620124727
62.7306620132731
62.730662051923
62.730655357067
62.73065532482
62.7306553426606
62.7306553781527
62.7306554644165
62.7306555672985
62.7306556725089
62.7306557855045
62.7306559032295
62.7306560243596
62.7306561479782
62.7306562735612
62.7306564007304
62.7306565293256
62.7306566591578
62.7306567900814
62.7306569219072
62.7306570544606
62.7306571874651
62.7306573206588
62.730657453707
62.7306575862167
62.7306577178097
62.7306578480493
62.7306579764991
62.7306581026933
62.7306582261226
62.7306583463214
62.7306584627222
62.7306585748447
62.7306586821214
62.7306587839994
62.7306588798674
62.730658969158
62.7306590512308
62.7306591255183
62.7306591913366
62.7306592481618
62.7306592954264
62.730659332723
62.7306593598914
62.7306593770772
62.7306593849935
62.7306593849498
62.7306593789981
62.7306593629037
62.7306593567191
62.7306593860412
62.7306593913818
62.7306594240945
62.7306527160545
62.7306526898319
62.7306527054025
62.7306527429173
62.7306528222689
62.7306529176567
62.7306530168571
62.730653124192
62.7306532369112
62.730653353763
62.7306534737727
62.7306535963726
62.730653721097
62.7306538476696
62.730653975872
62.7306541054713
62.7306542362639
62.730654368017
62.7306545004103
62.7306546331674
62.73065476591
62.7306548982742
62.7306550298381
62.730655160165
62.730655288804
62.7306554152892
62.7306555390969
62.7306556597905
62.7306557768025
62.730655889638
62.7306559977587
62.7306561006117
62.7306561976438
62.7306562882877
62.7306563719467
62.7306564480532
62.7306565160106
62.7306565753242
62.7306566254993
62.7306566662301
62.7306566973857
62.7306567192136
62.7306567324122
62.7306567382475
62.7306567384076
62.7306567297346
62.7306567306514
62.7306567572232
62.7306567656051
62.7306567922496
62.7306500753475
62.7306500541745
62.7306500683626
62.730650107027
62.7306501808634
62.7306502695865
62.7306503632572
62.7306504653388
62.7306505733286
62.7306506860477
62.7306508025504
62.7306509221526
62.7306510444032
62.7306511689385
62.7306512954674
62.7306514237425
62.7306515534729
62.7306516843819
62.730651816164
62.73065194847
62.7306520809216
62.7306522131548
62.7306523446896
62.7306524751184
62.7306526039611
62.7306527307519
62.7306528549962
62.7306529761991
62.7306530938658
62.7306532074726
62.7306533164956
62.7306534203963
62.7306535186653
62.7306536107062
62.7306536960095
62.7306537740078
62.7306538441771
62.7306539060519
62.7306539591955
62.730654003346
62.7306540384598
62.7306540647987
62.7306540830323
62.7306540943391
62.7306541001017
62.7306540980208
62.7306541043945
62.7306541291327
62.7306541393918
62.730654161016
62.7306474355864
62.730647418357
62.730647431672
62.7306474708312
62.7306475401856
62.7306476229714
62.730647711549
62.7306478087121
62.7306479122199
62.7306480209518
62.7306481339911
62.7306482506538
62.7306483704306
62.7306484929286
62.7306486177695
62.7306487446913
62.7306488733302
62.7306490034243
62.7306491345662
62.7306492664356
62.7306493985961
62.7306495306839
62.7306496622186
62.7306497927493
62.7306499218103
62.7306500489503
62.7306501736457
62.7306502954307
62.7306504137814
62.7306505282031
62.7306506381719
62.7306507431931
62.7306508427137
62.7306509362388
62.7306510232447
62.730651103222
62.7306511756615
62.7306512401265
62.7306512962678
62.7306513438671
62.7306513828808
62.7306514135853
62.7306514366355
62.7306514530501
62.7306514639931
62.7306514677621
62.7306514784723
62.7306515020464
62.7306515133532
62.7306515309028
62.7306447970186
62.7306447830051
62.7306447959272
62.7306448350573
62.7306449005555
62.730644978059
62.7306450619071
62.7306451544864
62.7306452537305
62.7306453586498
62.730645468313
62.7306455820944
62.730645699412
62.7306458198582
62.730645943011
62.7306460685359
62.730646196098
62.730646325319
62.7306464558351
62.7306465872389
62.7306467191374
62.7306468510797
62.7306469826144
62.7306471132761
62.7306472425989
62.7306473700883
62.7306474952638
62.7306476176454
62.7306477367092
62.7306478519749
62.7306479629333
62.7306480691186
62.7306481699779
62.7306482650456
62.7306483537977
62.7306484357832
62.7306485105219
62.7306485776498
62.7306486368034
62.7306486878224
62.7306487306632
62.7306487656169
62.7306487932365
62.7306488144532
62.7306488301983
62.7306488391769
62.7306488534668
62.7306488764152
62.7306488881586
62.7306489024486
62.7306421591929
62.730642147726
62.7306421603862
62.7306421991525
62.7306422612892
62.7306423340196
62.7306424134877
62.7306425017596
62.7306425969437
62.7306426981522
62.7306428045413
62.7306429154705
62.7306430303579
62.7306431487377
62.7306432702026
62.730643394345
62.7306435208011
62.7306436491635
62.7306437790394
62.7306439100066
62.7306440416141
62.7306441734254
62.7306443049747
62.7306444357819
62.7306445653667
62.7306446932489
62.7306448189192
62.7306449419266
62.7306450617616
62.730645177915
62.7306452899065
62.7306453972706
62.7306454994978
62.730645596137
62.7306456866936
62.7306457707309
62.730645847827
62.7306459176179
62.7306459798128
62.7306460342079
62.7306460808322
62.7306461199041
62.7306461519329
62.7306461776898
62.7306461979169
62.7306462116103
62.7306462289707
62.7306462516717
62.7306462635024
62.7306462751003
62.7306395221531
62.7306395128398
62.7306395254418
62.7306395635824
62.7306396226195
62.7306396909989
62.7306397663779
62.7306398505461
62.7306399418594
62.7306400394882
62.7306401426904
62.7306402508111
62.7306403632974
62.73064047964
62.7306405994022
62.7306407221622
62.7306408474979
62.7306409750163
62.7306411042373
62.7306412347389
62.7306413660699
62.7306414977647
62.7306416293286
62.7306417602958
62.7306418901571
62.7306420184323
62.730642144641
62.7306422683032
62.7306423888949
62.7306425059651
62.7306426190335
62.7306427276199
62.7306428312586
62.7306429294986
62.7306430219032
62.730643108036
62.730643187504
62.7306432599871
62.7306433251797
62.7306433829508
62.7306434332713
62.7306434763595
62.7306435126229
62.7306435426872
62.7306435671344
62.7306435851351
62.7306436052604
62.7306436280051
62.7306436396902
62.7306436491053
62.7306368853897
62.7306368778227
62.7306368903228
62.7306369276484
62.7306369837897
62.7306370481674
62.7306371196901
62.730637199973
62.730637287561
62.730637381741
62.730637481829
62.7306375871995
62.7306376972847
62.7306378116045
62.7306379296788
62.7306380510563
62.730638175286
62.7306383019168
62.7306384304975
62.7306385605625
62.7306386916171
62.7306388231809
62.7306389547884
62.7306390859158
62.7306392160681
62.7306393447798
62.7306394715124
62.7306395958294
62.7306397172506
62.7306398352666
62.7306399494119
62.7306400592643
62.7306401643436
62.730640264228
62.7306403584953
62.7306404467527
62.7306405286217
62.7306406037824
62.7306406719872
62.7306407330907
62.7306407870492
62.7306408340373
62.7306408743752
62.7306409085868
62.7306409370503
62.7306409590528
62.7306409817684
62.7306410047895
62.7306410163001
62.7306410238089
62.7306342490774
62.730634243082
62.7306342555239
62.7306342919182
62.730634345251
62.7306344058452
62.7306344737008
62.730634550273
62.7306346342521
62.7306347250997
62.7306348221318
62.7306349247956
62.730635032538
62.7306351448497
62.7306352612359
62.7306353812164
62.7306355043256
62.7306356300978
62.7306357580237
62.7306358876231
62.7306360184157
62.7306361498777
62.7306362814998
62.7306364128162
62.7306365432742
62.7306366724079
62.7306367997226
62.7306369247235
62.7306370469305
62.730637165907
62.7306372811872
62.7306373923202
62.7306374988693
62.7306376004126
62.7306376965716
62.7306377869536
62.7306378712237
62.7306379490765
62.730638020279
62.7306380846712
62.7306381422241
62.7306381930248
62.7306382373208
62.7306382755196
62.7306383077812
62.7306383335817
62.7306383588002
62.730638382287
62.7306383935793
62.7306383995165
62.730631612867
62.7306316081667
62.7306316204631
62.7306316557806
62.7306317063922
62.7306317634066
62.7306318277406
62.7306319007184
62.7306319812196
62.730632068764
62.730632162813
62.7306322628137
62.7306323682278
62.7306324785604
62.7306325932732
62.7306327118858
62.7306328338891
62.7306329587882
62.7306330860592
62.730633215222
62.7306333457236
62.7306334770838
62.7306336087495
62.7306337402406
62.7306338710332
62.730634000618
62.7306341284857
62.7306342541851
62.7306343772507
62.7306344972021
62.7306346136029
62.730634726031
62.7306348340499
62.7306349372957
62.7306350353465
62.7306351278821
62.7306352145679
62.7306352951127
62.7306353692838
62.7306354369503
62.7306354980246
62.7306355525652
62.7306356007321
62.7306356427871
62.7306356787594
62.7306357081834
62.7306357358757
62.7306357599591
62.7306357711495
62.7306357756606
62.7306289770204
62.7306289735716
62.7306289857224
62.7306290198903
62.7306290677952
62.7306291213317
62.7306291822752
62.7306292517605
62.7306293288566
62.730629413214
62.730629504309
62.7306296016905
62.7306297048053
62.7306298131589
62.7306299261982
62.7306300434284
62.7306301643257
62.7306302883517
62.7306304149824
62.7306305437087
62.7306306739483
62.730630805192
62.730630936916
62.7306310685817
62.7306311996799
62.7306313297158
62.7306314581656
62.7306315845926
62.7306317084876
62.7306318294432
62.7306319469935
62.7306320607313
62.730632170249
62.7306322751829
62.7306323751545
62.7306324698293
62.7306325589161
62.730632642124
62.7306327192637
62.730632790146
62.7306328546983
62.7306329129206
62.7306329648709
62.7306330106949
62.7306330502615
62.7306330832216
62.7306331134023
62.7306331382279
62.7306331493601
62.7306331526779
62.7306263413775
62.7306263390346
62.730626350909
62.7306263838691
62.7306264290528
62.7306264791841
62.7306265367952
62.7306266028463
62.7306266765954
62.7306267577951
62.7306268460088
62.7306269408
62.7306270416302
62.7306271480193
62.7306272593996
62.7306273752911
62.7306274950824
62.7306276182499
62.7306277442403
62.7306278725009
62.7306280024786
62.7306281336205
62.7306282653881
62.7306283972575
62.7306285286759
62.730628659192
62.7306287882238
62.7306289153639
62.7306290401175
62.7306291620625
62.7306292807625
62.7306293958245
62.7306295068411
62.7306296134775
62.7306297153555
62.7306298121839
62.7306299036718
62.7306299895718
62.7306300696364
62.7306301437202
62.7306302117213
62.7306302735524
62.730630329228
62.7306303787773
62.7306304218946
62.7306304583326
62.7306304910016
62.7306305166712
62.7306305278762
62.7306305301026
62.7306237064186
62.7306237051525
62.7306237168086
62.730623748459
62.7306237908924
62.7306238376477
62.7306238919264
62.7306239545869
62.7306240250327
62.7306241031183
62.7306241884653
62.7306242806662
62.73062437927
62.7306244837091
62.7306245934597
62.7306247079687
62.7306248266541
62.7306249489629
62.7306250743131
62.7306252021517
62.7306253318529
62.7306254629075
62.7306255947478
62.7306257268065
62.7306258585595
62.7306259894976
62.7306261191407
62.7306262469938
62.7306263726059
62.730626495555
62.7306266154046
62.7306267317908
62.7306268443062
62.7306269526453
62.7306270564441
62.7306271554116
62.730627249286
62.7306273378199
62.7306274208095
62.7306274980656
62.7306275694573
62.7306276348827
62.73062769424
62.7306277474563
62.7306277940952
62.7306278339966
62.7306278692267
62.7306278958567
62.7306279071927
62.7306279085024
62.7306210721727
62.7306210718234
62.7306210830575
62.7306211133546
62.7306211530085
62.7306211963441
62.7306212473195
62.7306213065895
62.7306213737465
62.7306214487035
62.7306215312419
62.7306216208963
62.7306217172445
62.7306218197627
62.7306219278689
62.7306220410246
62.7306221586332
62.730622280098
62.7306224048079
62.7306225321954
62.7306226616492
62.7306227926165
62.7306229245005
62.7306230567483
62.730623188836
62.7306233202398
62.7306234504649
62.7306235790456
62.7306237055163
62.7306238294696
62.7306239504833
62.7306240681792
62.730624182208
62.730624292235
62.7306243979256
62.7306244990323
62.7306245952786
62.7306246864464
62.7306247723172
62.7306248527311
62.7306249274989
62.7306249964749
62.7306250595138
62.7306251164118
62.7306251665723
62.7306252099661
62.7306252478011
62.7306252754643
62.7306252870912
62.7306252875424
62.7306184390764
62.7306184397021
62.7306184505869
62.7306184794288
62.7306185162015
62.7306185560592
62.7306186036585
62.7306186595233
62.7306187233771
62.730618795249
62.7306188749208
62.7306189620576
62.7306190561794
62.7306191567768
62.7306192632823
62.7306193750992
62.7306194916164
62.7306196122372
62.7306197363214
62.7306198632723
62.7306199924642
62.7306201233441
62.7306202552718
62.7306203877233
62.7306205201312
62.7306206520007
62.7306207828224
62.7306209121161
62.7306210394454
62.7306211643881
62.7306212865369
62.7306214055425
62.7306215210556
62.7306216327561
62.7306217403529
62.7306218435697
62.7306219421735
62.7306220359606
62.7306221246981
62.7306222082261
62.7306222863554
62.7306223588821
62.7306224255881
62.7306224861532
62.7306225398934
62.7306225868379
62.7306226273504
62.7306226561777
62.7306226681103
62.7306226677902
62.7306158072024
62.7306158087595
62.730615819135
62.7306158464344
62.7306158802385
62.7306159165164
62.7306159606669
62.7306160130538
62.7306160735752
62.7306161423476
62.7306162191817
62.7306163037865
62.7306163956819
62.7306164943875
62.7306165992923
62.730616709785
62.7306168252253
62.7306169450167
62.7306170684751
62.7306171949895
62.730617323934
62.730617454712
62.7306175866979
62.7306177193532
62.7306178520812
62.7306179844018
62.7306181158056
62.7306182458124
62.7306183739856
62.7306184999179
62.7306186232163
62.730618743517
62.7306188604853
62.7306189738592
62.7306190833333
62.7306191886455
62.7306192895921
62.7306193859549
62.7306194775447
62.7306195641868
62.730619645663
62.7306197217404
62.730619792128
62.7306198564183
62.730619913782
62.7306199644081
62.7306200077001
62.7306200377789
62.7306200501771
62.7306200490857
62.7306131773075
62.7306131798105
62.7306131896476
62.7306132153171
62.7306132459926
62.7306132785016
62.7306133190723
62.7306133679085
62.7306134250393
62.7306134906685
62.730613564665
62.7306136467378
62.7306137364358
62.7306138332497
62.7306139365392
62.7306140457222
62.7306141601293
62.7306142790912
62.7306144019385
62.7306145280309
62.7306146567134
62.7306147873896
62.7306149194337
62.730615052249
62.7306151853118
62.7306153180834
62.7306154500693
62.7306155807892
62.7306157097919
62.7306158366846
62.7306159611035
62.7306160826847
62.7306162011082
62.730616316112
62.7306164274196
62.7306165347982
62.730616638044
62.7306167369825
62.7306168313953
62.7306169211224
62.7306170059601
62.7306170855882
62.7306171596865
62.7306172277895
62.730617288893
62.7306173433171
62.7306173895486
62.7306174209807
62.7306174339174
62.7306174321711
62.730610549479
62.7306105528551
62.73061056195
62.7306105858734
62.730610613231
62.7306106417382
62.7306106785836
62.7306107237382
62.7306107774202
62.7306108398916
62.7306109110359
62.7306109905767
62.7306110780773
62.730611173014
62.7306112747465
62.7306113826198
62.7306114959647
62.7306116140971
62.7306117363332
62.7306118620181
62.7306119904679
62.7306121210568
62.7306122531445
62.730612386149
62.7306125195319
62.7306126527401
62.7306127852789
62.7306129166682
62.7306130465004
62.7306131743535
62.7306132998638
62.730613422711
62.7306135425752
62.7306136591942
62.7306137723062
62.7306138817366
62.7306139872526
62.7306140887085
62.7306141859299
62.7306142787274
62.7306143668829
62.7306144501053
62.7306145279726
62.730614599961
62.7306146649498
62.7306147234049
62.7306147727359
62.7306148056377
62.7306148192438
62.7306148167991
62.7306079244299
62.7306079287373
62.7306079370028
62.7306079590489
62.7306079828268
62.7306080070557
62.7306080399285
62.7306080812996
62.7306081314309
62.7306081906572
62.7306082589203
62.7306083359435
62.7306084212614
62.7306085143209
62.7306086144963
62.7306087210891
62.7306088334153
62.7306089507474
62.7306090723869
62.7306091976498
62.7306093258521
62.7306094563392
62.7306095884705
62.7306097216642
62.7306098553381
62.7306099889684
62.7306101220747
62.7306102541479
62.7306103847659
62.7306105135503
62.7306106401375
62.7306107642071
62.7306108854536
62.7306110036443
62.7306111185462
62.7306112299702
62.7306113377272
62.7306114416861
62.7306115416723
62.7306116375257
62.7306117290282
62.7306118158449
62.7306118975685
62.7306119735586
62.7306120426074
62.7306121053552
62.7306121580041
62.7306121925212
62.7306122069131
62.7306122038426
62.7306053023203
62.7306053075154
62.7306053146895
62.7306053347129
62.7306053546054
62.7306053741777
62.7306054028741
62.7306054402434
62.7306054867367
62.7306055426889
62.7306056080561
62.7306056825328
62.730605765697
62.7306058569229
62.7306059555413
62.730606060868
62.7306061721756
62.7306062887219
62.7306064097647
62.7306065346202
62.7306066625606
62.7306067929603
62.7306069251354
62.7306070585182
62.7306071924977
62.7306073265499
62.7306074601656
62.7306075928791
62.7306077242829
62.7306078539841
62.7306079816044
62.7306081068673
62.7306082294817
62.7306083492149
62.730608465863
62.730608579237
62.7306086891913
62.7306087955949
62.7306088983314
62.7306089972117
62.7306090920465
62.7306091825158
62.7306092681392
62.7306093482766
62.7306094216328
62.7306094890082
62.730609545295
62.7306095815584
62.7306095969543
62.7306095931854
62.7306026839215
62.730602690106
62.730602695985
62.7306027138256
62.7306027293816
62.7306027438462
62.7306027680752
62.7306028012827
62.7306028440071
62.7306028966123
62.7306029590545
62.7306030310137
62.7306031119952
62.7306032014021
62.730603298507
62.7306034025823
62.7306035129004
62.7306036286609
62.7306037491362
62.7306038735987
62.7306040013063
62.7306041316042
62.7306042638229
62.7306043973513
62.7306045316218
62.7306046660669
62.7306048001919
62.7306049335457
62.7306050656916
62.7306051962514
62.7306053248903
62.7306054513174
62.730605575256
62.7306056964735
62.7306058147951
62.7306059300754
62.7306060421688
62.730606150988
62.7306062564166
62.7306063583092
62.7306064564764
62.7306065506127
62.7306066402525
62.7306067246973
62.7306068025791
62.7306068750186
62.7306069353217
62.730606973535
62.7306069901533
62.730606985715
62.7306000695244
62.7306000766839
62.7306000808749
62.730600096329
62.7306001069956
62.7306001158431
62.7306001352699
62.7306001641118
62.7306002029509
62.7306002521509
62.7306003116391
62.7306003810809
62.7306004599086
62.7306005475111
62.7306006431318
62.7306007460138
62.7306008553423
62.7306009703461
62.7306010902685
62.7306012143235
62.7306013417983
62.7306014720089
62.7306016042567
62.7306017379451
62.7306018724776
62.7306020073011
62.7306021419208
62.7306022758712
62.7306024087447
62.7306025401485
62.7306026697624
62.7306027972809
62.7306029225001
62.7306030451582
62.7306031651096
62.730603282238
62.7306033964269
62.730603507589
62.730603615666
62.7306037205417
62.7306038220413
62.7306039198884
62.7306040136318
62.7306041025586
62.7306041852717
62.7306042632699
62.7306043281278
62.7306043684803
62.7306043866847
62.7306043815188
62.7305974599876
62.730597468224
62.730597470334
62.7305974831979
62.7305974882329
62.7305974908231
62.7305975051277
62.7305975293566
62.7305975641939
62.7305976099306
62.7305976664356
62.7305977333599
62.7305978100921
62.7305978959193
62.7305979900848
62.7305980917736
62.7305982001562
62.730598314447
62.7305984338018
62.7305985574785
62.7305986847205
62.7305988148291
62.7305989471206
62.73059908094
62.7305992157198
62.7305993509217
62.7305994860071
62.730599620525
62.730599754068
62.7305998862867
62.7306000168173
62.7306001454126
62.7306002718251
62.7306003958802
62.7306005174032
62.7306006363069