/*--------------------------------*- C++ -*----------------------------------*\
  =========                 |
  \\      /  F ield         | OpenFOAM: The Open Source CFD Toolbox
   \\    /   O peration     | Website:  https://openfoam.org
    \\  /    A nd           | Version:  10
     \\/     M anipulation  |
\*---------------------------------------------------------------------------*/
FoamFile
{
    format      ascii;
    class       surfaceScalarField;
    location    "2";
    object      phi;
}
// * * * * * * * * * * * * * * * * * * * * * * * * * * * * * * * * * * * * * //

dimensions      [1 0 -1 0 0 0 0];

internalField   nonuniform List<scalar> 
4900
(
-5.77992698121493e-12
5.6317815921686e-12
-7.06457210930215e-12
1.05311217039093e-12
-4.96682845266939e-12
-2.34307941525557e-12
-3.58416107527385e-12
-1.61943253385727e-12
-2.65252773414547e-12
-1.16257049539485e-12
-2.0809525062553e-12
-8.00964854313119e-13
-1.71768370685802e-12
-5.92321799745549e-13
-1.46475224204862e-12
-4.80938603263796e-13
-1.27613744798409e-12
-4.1426349457872e-13
-1.12813373323788e-12
-3.69965227823138e-13
-1.00804231161663e-12
-3.3732773769444e-13
-9.08238453986541e-13
-3.11527383778645e-13
-8.23666806588926e-13
-2.90301093508677e-13
-7.50786458625652e-13
-2.72280721366286e-13
-6.87108668588025e-13
-2.5662311102752e-13
-6.30646947988175e-13
-2.42868796306786e-13
-5.7993722950872e-13
-2.30641368111306e-13
-5.33745676152227e-13
-2.19694705063594e-13
-4.91122685303162e-13
-2.09861362800469e-13
-4.51213584964553e-13
-2.01000868506109e-13
-4.1333457836697e-13
-1.93046053029452e-13
-3.76832765580334e-13
-1.85904770544683e-13
-3.41185805520773e-13
-1.79541840605398e-13
-3.05833044935442e-13
-1.73924403173079e-13
-2.70319799079526e-13
-1.690338295216e-13
-2.34116369860251e-13
-1.64867212595009e-13
-1.96769981902185e-13
-1.61427468397697e-13
-1.57712741429119e-13
-1.58748746520425e-13
-1.16432821939623e-13
-1.56849048776578e-13
-7.23342489734977e-14
-1.5573299662672e-13
-2.47899811200321e-14
-1.5550384346074e-13
2.69988854825632e-14
-1.56259568914839e-13
8.382028083176e-14
-1.58061520922692e-13
1.46704111445968e-13
-1.61085988740879e-13
2.16851415683678e-13
-1.6557235327872e-13
2.957809949693e-13
-1.71773163853177e-13
3.85404932708609e-13
-1.8013172213529e-13
4.88282837925116e-13
-1.91207663413696e-13
6.07842809648212e-13
-2.05868621668893e-13
7.49163951471735e-13
-2.25618360743546e-13
9.20003647842171e-13
-2.5305281222426e-13
1.13352588644608e-12
-2.93371657079883e-13
1.41442914774471e-12
-3.58031441718215e-13
1.81079675441163e-12
-4.70399220480937e-13
2.42206546633935e-12
-6.82232304655312e-13
3.4033065601525e-12
-1.0499553219656e-12
4.84313223677036e-12
-1.50827565810965e-12
7.0637622173696e-12
-2.2916104128251e-12
5.86297683504429e-12
1.12727354716472e-12
5.80948209826208e-12
-6.61843829128698e-12
1.2040889788666e-11
-1.02956866472606e-11
4.42496072235909e-12
-8.43684101825952e-12
-4.5142954410976e-12
-6.53956498951201e-12
-3.81477504482335e-12
-5.21138241255693e-12
-2.780268439195e-12
-4.27928709803953e-12
-2.01993066140768e-12
-3.59654582255393e-12
-1.56097537290299e-12
-3.07424091648507e-12
-1.28743977190068e-12
-2.65999141212819e-12
-1.10947886509245e-12
-2.32293488572396e-12
-9.83225533572363e-13
-2.04312109679163e-12
-8.87389786070972e-13
-1.80692970777518e-12
-8.11116934849717e-13
-1.60467735177917e-12
-7.4855682003216e-13
-1.42926801120066e-12
-6.95928833471098e-13
-1.27546250244934e-12
-6.50767040470098e-13
-1.13910350574913e-12
-6.11587586286467e-13
-1.01696850793717e-12
-5.77239221851057e-13
-9.06375380940946e-13
-5.46926655713888e-13
-8.05167048630936e-13
-5.20083340830147e-13
-7.11418562533969e-13
-4.96294898243018e-13
-6.23523871395456e-13
-4.75284907283774e-13
-5.39988821546686e-13
-4.56789563083807e-13
-4.59534437129529e-13
-4.40658239749414e-13
-3.80889319791175e-13
-4.26778967255384e-13
-3.02901682969934e-13
-4.15103362065647e-13
-2.24348567193907e-13
-4.05619990987796e-13
-1.44094440766213e-13
-3.98325522595756e-13
-6.08843375981741e-14
-3.932894766265e-13
2.65169429857646e-14
-3.90586128458668e-13
1.19503931945654e-13
-3.90297552576393e-13
2.19555535960079e-13
-3.92684322051149e-13
3.28410863031511e-13
-3.98030397376565e-13
4.47928275336963e-13
-4.0659033290164e-13
5.80383579332883e-13
-4.18891552617702e-13
7.2842481981147e-13
-4.35615646801119e-13
8.95349689276663e-13
-4.57596268319709e-13
1.08523688059313e-12
-4.86102737527212e-13
1.30337204217733e-12
-5.22800858163053e-13
1.5567118334951e-12
-5.70210268836629e-13
1.85496429157874e-12
-6.32406466210814e-13
2.21184172257812e-12
-7.15871815682104e-13
2.6478514209055e-12
-8.32358817065192e-13
3.19535064816137e-12
-1.0050938512293e-12
3.91033931407284e-12
-1.28114620598824e-12
4.8864979119148e-12
-1.75058375480484e-12
6.27242093164658e-12
-2.52592564619219e-12
8.25070321908083e-12
-3.57745332424503e-12
1.03417266263147e-11
-4.47793097031765e-12
6.75822923358876e-12
4.61297592598006e-12
1.250015083081e-11
-6.07775563512412e-12
1.78895454601179e-11
-8.20070816543921e-12
6.22554737198403e-12
-7.77654833766066e-12
-5.25245884058287e-12
-6.78968891526083e-12
-5.09485231203632e-12
-5.76631420613564e-12
-4.08585226764374e-12
-4.88938977471506e-12
-3.17536216460654e-12
-4.17844931690059e-12
-2.54895921548586e-12
-3.60866696662552e-12
-2.13233038162961e-12
-3.14588701095006e-12
-1.84411832379729e-12
-2.76453509012685e-12
-1.63181856005967e-12
-2.44554666404778e-12
-1.46793315859959e-12
-2.17490195685125e-12
-1.33683125154708e-12
-1.94231085582849e-12
-1.22925106965369e-12
-1.74001690279413e-12
-1.13903454277137e-12
-1.56214252736774e-12
-1.06204894937022e-12
-1.40403662289546e-12
-9.9563347385052e-13
-1.26203078591368e-12
-9.37800210298181e-13
-1.13305804513276e-12
-8.87143126722514e-13
-1.01461567657592e-12
-8.42646821450948e-13
-9.04492729429634e-13
-8.03566238328147e-13
-8.00837115547774e-13
-7.69367389450117e-13
-7.01918346942038e-13
-7.3960971394074e-13
-6.06233810979332e-13
-7.14006227146887e-13
-5.12314216243127e-13
-6.92345684230493e-13
-4.18816059713039e-13
-6.74536294091805e-13
-3.24334270477137e-13
-6.60554994465507e-13
-2.27556126902482e-13
-6.50379895582127e-13
-1.27060518910021e-13
-6.44113015794859e-13
-2.14191856642207e-14
-6.41903920468727e-13
9.0993019618681e-14
-6.43957059848107e-13
2.1186758541433e-13
-6.50666548674176e-13
3.43167775357465e-13
-6.6252044982447e-13
4.87056786090014e-13
-6.8004096002542e-13
6.46118440834613e-13
-7.04116402659508e-13
8.23344943947875e-13
-7.35900361268936e-13
1.02244767616978e-12
-7.76882458499098e-13
1.2479817675084e-12
-8.2921619323823e-13
1.50576406059558e-12
-8.95734714454763e-13
1.80335789807632e-12
-9.80681288427545e-13
2.15100386715536e-12
-1.0906399301599e-12
2.56258320824103e-12
-1.23561622835194e-12
3.05724065742291e-12
-1.43239846631678e-12
3.66097820162057e-12
-1.71100189188644e-12
4.40919731543529e-12
-2.12799428509213e-12
5.32875784529208e-12
-2.76561112966244e-12
6.40230346033446e-12
-3.69352913824202e-12
7.47861401446353e-12
-4.75008941963808e-12
8.12126678391867e-12
-5.2235885250414e-12
6.08113079106698e-12
6.54452895214701e-12
1.85067112575796e-11
-7.16401479047586e-12
2.48103393170029e-11
-6.99698758316461e-12
5.72214542195465e-12
-6.89123431403793e-12
-5.67381550845301e-12
-6.34179030695471e-12
-5.934266384024e-12
-5.53723007471659e-12
-5.16754159500522e-12
-4.77629006327175e-12
-4.20896797627429e-12
-4.13696472246631e-12
-3.45914945882716e-12
-3.61674207782337e-12
-2.92138079493595e-12
-3.19115313850147e-12
-2.5353573599936e-12
-2.83887581616162e-12
-2.24533943633823e-12
-2.54330459262294e-12
-2.01938274647909e-12
-2.29192313221369e-12
-1.83800843891103e-12
-2.07542231641344e-12
-1.68903703736287e-12
-1.88667195608138e-12
-1.56427053743221e-12
-1.72019126797819e-12
-1.45811966195591e-12
-1.57161781721856e-12
-1.36684730788227e-12
-1.43748997004119e-12
-1.28769960607973e-12
-1.3148979868674e-12
-1.21870758793892e-12
-1.20146223409936e-12
-1.15843268098673e-12
-1.09508159827639e-12
-1.105814818871e-12
-9.93999139624319e-13
-1.06007014677068e-12
-8.96570700072607e-13
-1.02059360461985e-12
-8.01379105839973e-13
-9.86956066630783e-13
-7.07023624050885e-13
-9.58868635093049e-13
-6.12246295204484e-13
-9.36173773396327e-13
-5.15739692353011e-13
-9.18828869335912e-13
-4.16273823101272e-13
-9.06804232102579e-13
-3.12506845639431e-13
-9.00241738154312e-13
-2.03099179144692e-13
-8.99353585128333e-13
-8.65211258515929e-14
-9.04463986605939e-13
3.88179153480877e-14
-9.16091715911825e-13
1.74758405204145e-13
-9.34910752515744e-13
3.23347637147337e-13
-9.61714318249168e-13
4.87012275696781e-13
-9.97714002982201e-13
6.68553619279442e-13
-1.04449825150005e-12
8.71431587789867e-13
-1.10415685491274e-12
1.0998585037261e-12
-1.17963360575277e-12
1.35917411130712e-12
-1.27480154514011e-12
1.65623988337334e-12
-1.39540497334557e-12
2.00019604424705e-12
-1.55014788823913e-12
2.40316909859709e-12
-1.75191016598883e-12
2.88130425020891e-12
-2.02128003731089e-12
3.45499813483631e-12
-2.39245549060486e-12
4.14704323514642e-12
-2.92450654111289e-12
4.95853411281322e-12
-3.67871645391706e-12
5.81716357088419e-12
-4.65289080855161e-12
6.47796070626327e-12
-5.51499261522458e-12
6.7856583974819e-12
-5.64420620481628e-12
7.05575071490287e-12
6.15245525346737e-12
2.54786433459071e-11
-5.63201011474163e-12
3.01878607708159e-11
-6.42227699771933e-12
6.16370305741366e-12
-6.44992240317105e-12
-5.96444019081046e-12
-5.90296011552014e-12
-6.77074375003846e-12
-5.18417067227597e-12
-6.16192205881096e-12
-4.51640286712553e-12
-5.14736920879163e-12
-3.9551437644733e-12
-4.28899699839736e-12
-3.49458144940634e-12
-3.64841061719167e-12
-3.11496193664981e-12
-3.17831325556534e-12
-2.79863882927649e-12
-2.82074974257814e-12
-2.53179651393422e-12
-2.54019278566933e-12
-2.30384665427925e-12
-2.31415554510038e-12
-2.10678727013249e-12
-2.12814025970696e-12
-1.93437036798831e-12
-1.97231811663223e-12
-1.78172347236403e-12
-1.83990395324701e-12
-1.64491782301907e-12
-1.72625097311913e-12
-1.52080989593738e-12
-1.62794618149267e-12
-1.40672570814659e-12
-1.54253793868716e-12
-1.30047889349482e-12
-1.4682019497288e-12
-1.20012918685175e-12
-1.40359548633423e-12
-1.10404947426099e-12
-1.34771088200202e-12
-1.01072255674137e-12
-1.29978374896065e-12
-9.18837971783402e-13
-1.25925949466233e-12
-8.27101042906766e-13
-1.22577397501184e-12
-7.34351156732247e-13
-1.19910958675687e-12
-6.39395963962489e-13
-1.17918909467065e-12
-5.41091925359879e-13
-1.16600077575086e-12
-4.38210507408012e-13
-1.15970298881658e-12
-3.29515413188451e-13
-1.1605773314312e-12
-2.13603082375418e-13
-1.1690486784683e-12
-8.90030427516267e-14
-1.18576277308703e-12
4.59678622634939e-14
-1.21154662013675e-12
1.93188342119686e-13
-1.24744980454982e-12
3.54872736659109e-13
-1.29496646861623e-12
5.33561222600872e-13
-1.35606870280071e-12
7.32362631580847e-13
-1.43336019021984e-12
9.55021415506354e-13
-1.53045826816522e-12
1.20622530420183e-12
-1.65209764383241e-12
1.49188838330785e-12
-1.80523150433107e-12
1.81973822455805e-12
-2.00022814937338e-12
2.19979084108055e-12
-2.25214831427245e-12
2.64502834901989e-12
-2.58433203925453e-12
3.17136719211298e-12
-3.03383418277806e-12
3.79535095097192e-12
-3.66044964653004e-12
4.51966554346637e-12
-4.51236541578839e-12
5.29688661163708e-12
-5.53894114643851e-12
5.96992794283234e-12
-6.30107652624302e-12
6.15191906590245e-12
-5.94970778692585e-12
5.50189621256008e-12
6.66706183166503e-12
3.08884238967263e-11
-3.83862191947722e-12
3.37606739179002e-11
-5.76071525607134e-12
7.72401455265115e-12
-5.94480021323723e-12
-6.10499556084018e-12
-5.44421604211183e-12
-7.56490860355894e-12
-4.82979129972947e-12
-7.05508308198677e-12
-4.25976463055509e-12
-5.99075099121668e-12
-3.77351452883772e-12
-5.04634467716844e-12
-3.36656385532015e-12
-4.32425731879691e-12
-3.02585144830301e-12
-3.78481570100502e-12
-2.73842319779633e-12
-3.36983166262364e-12
-2.49364078616528e-12
-3.04169177009657e-12
-2.28298669244699e-12
-2.77598955147829e-12
-2.09980289244083e-12
-2.55661886286997e-12
-1.93873512254144e-12
-2.37255833210724e-12
-1.79551337921283e-12
-2.21610631313418e-12
-1.66662196698231e-12
-2.08189065102977e-12
-1.54920619377633e-12
-1.96595682207961e-12
-1.44081185116954e-12
-1.86543749581608e-12
-1.33941463984895e-12
-1.77817667329455e-12
-1.24320111147538e-12
-1.70258396278859e-12
-1.15064837861138e-12
-1.63744836310566e-12
-1.06033016966792e-12
-1.58185942155002e-12
-9.71009068085386e-13
-1.53515337199649e-12
-8.8146970271754e-13
-1.49688590995234e-12
-7.90613475626365e-13
-1.46679417187868e-12
-6.97321094514417e-13
-1.44475763799812e-12
-6.00515213448445e-13
-1.43078730941064e-12
-4.99035269054543e-13
-1.42505831176736e-12
-3.91720209773759e-13
-1.42791277694243e-12
-2.77252865529057e-13
-1.43986690118474e-12
-1.54256116682222e-13
-1.46168534914297e-12
-2.11598495820909e-14
-1.49432984139208e-12
1.23771138768886e-13
-1.53907427860161e-12
2.82584118177379e-13
-1.59767386496279e-12
4.57588348245176e-13
-1.67241921637933e-12
6.51577191201484e-13
-1.7663461281769e-12
8.67858798555827e-13
-1.88362507909168e-12
1.11049138392233e-12
-2.02966440071466e-12
1.38446475637276e-12
-2.21233529105111e-12
1.69607818155094e-12
-2.44317395026847e-12
2.05317480282614e-12
-2.7386804568094e-12
2.46538863435223e-12
-3.12377270885874e-12
2.94371192138319e-12
-3.63677321205992e-12
3.49784311518735e-12
-4.3362662865078e-12
4.12924811555443e-12
-5.26297971644615e-12
4.80807692439164e-12
-6.33675279507075e-12
5.43926038697175e-12
-7.05617105278954e-12
5.4737599038207e-12
-6.12007289674371e-12
3.70255798173511e-12
8.28822283552434e-12
3.44892776908455e-11
-2.64388176012901e-12
3.61294124068095e-11
-4.9387945448164e-12
9.64716065760234e-12
-5.26878625267736e-12
-6.10385545485294e-12
-4.93515516079113e-12
-8.19499084938277e-12
-4.46440174693607e-12
-7.80700450821194e-12
-4.00148271338394e-12
-6.72917218987741e-12
-3.58979951919381e-12
-5.73108618665761e-12
-3.2336852647316e-12
-4.95113395426067e-12
-2.92841368591968e-12
-4.35773429527502e-12
-2.66637897568676e-12
-3.89544261792023e-12
-2.44032377446419e-12
-3.52651130889912e-12
-2.24387981918681e-12
-3.22583187902338e-12
-2.07175590320389e-12
-2.9764581937913e-12
-1.91949897056664e-12
-2.76663064771417e-12
-1.78343991429418e-12
-2.58802302817082e-12
-1.66048067113814e-12
-2.43471511190331e-12
-1.54804362089983e-12
-2.30234644101296e-12
-1.44388662861035e-12
-2.18769699216683e-12
-1.34612680162396e-12
-2.08834663607018e-12
-1.25307278050367e-12
-2.00247593815529e-12
-1.16328785185554e-12
-1.92870512120249e-12
-1.0754184045443e-12
-1.86599132156967e-12
-9.88290318091746e-13
-1.81356929419163e-12
-9.00742189728979e-13
-1.77092428941506e-12
-8.11731996068044e-13
-1.73774491870662e-12
-7.201842149103e-13
-1.7138808801609e-12
-6.25079875849663e-13
-1.6993508128704e-12
-5.25302973708497e-13
-1.69436102502255e-12
-4.1975368016526e-13
-1.69929683753841e-12
-3.07180285814073e-13
-1.71476279464688e-12
-1.86288247351927e-13
-1.74162435314522e-12
-5.55965889441505e-14
-1.78097231706052e-12
8.65043915391841e-14
-1.8342679964262e-12
2.41906439475693e-13
-1.90349861202501e-12
4.12702983450207e-13
-1.99121278358128e-12
6.0138945087223e-13
-2.10079847267267e-12
8.10848139352242e-13
-2.23685195638768e-12
1.04452148864482e-12
-2.40527051542388e-12
1.30647935781013e-12
-2.61454267813572e-12
1.60160739180397e-12
-2.87688570970752e-12
1.93557286951718e-12
-3.2094796001508e-12
2.31462913444542e-12
-3.63761386479035e-12
2.74457688378376e-12
-4.19905404466098e-12
3.22740887485963e-12
-4.9486419616928e-12
3.75684597284469e-12
-5.91961537996576e-12
4.29946295991101e-12
-7.00658599038347e-12
4.76103765812868e-12
-7.65048923084226e-12
4.64649565010157e-12
-6.15128362121576e-12
2.49802298019835e-12
1.02753033939704e-11
3.68795360347835e-11
-1.93906777401863e-12
3.77846632689933e-11
-4.11399349021126e-12
1.14413325153812e-11
-4.55174614178029e-12
-6.00051651856009e-12
-4.41214323444864e-12
-8.63561556216086e-12
-4.08962650955043e-12
-8.41479145893488e-12
-3.73220804071215e-12
-7.36591391656438e-12
-3.39296189032799e-12
-6.34703056263124e-12
-3.08641845000049e-12
-5.53198312132649e-12
-2.81569297144993e-12
-4.89962945402376e-12
-2.57833359276604e-12
-4.39994345902254e-12
-2.37036229783485e-12
-3.9969050342233e-12
-2.18752196336097e-12
-3.66585679841737e-12
-2.0258862710951e-12
-3.38974812804575e-12
-1.88191631392616e-12
-3.1565228274396e-12
-1.75255523025472e-12
-2.95752421869983e-12
-1.63512544447067e-12
-2.7864719396155e-12
-1.52733959305506e-12
-2.63872583925841e-12
-1.42717225383244e-12
-2.51078520513534e-12
-1.33288898360939e-12
-2.40003213848828e-12
-1.24291670222434e-12
-2.3044477108835e-12
-1.15590635601548e-12
-2.22251294791095e-12
-1.0705801337836e-12
-2.15306425671166e-12
-9.85819910717522e-13
-2.09525432586097e-12
-9.00518346163637e-13
-2.04850052291248e-12
-8.13685775585612e-13
-2.01244340861619e-12
-7.24287851279963e-13
-1.98691521273971e-12
-6.31355966577744e-13
-1.97193175398865e-12
-5.33823085266834e-13
-1.96773355509094e-12
-4.30641049310799e-13
-1.97474533779708e-12
-3.20626172456472e-13
-1.99364484996271e-12
-2.02558121443135e-13
-2.02539125662933e-12
-7.50498224935489e-14
-2.07118546015854e-12
6.33882945901312e-14
-2.13264963563439e-12
2.14487511724493e-13
-2.21196316153032e-12
3.8012636749369e-13
-2.31187827687535e-12
5.62500964250253e-13
-2.43605217348841e-12
7.64060255430671e-13
-2.58937471295373e-12
9.87634371850594e-13
-2.7780562272582e-12
1.23637498532677e-12
-3.01090084731899e-12
1.51379022550756e-12
-3.30035280672267e-12
1.82346152087939e-12
-3.66356582121535e-12
2.16846763251561e-12
-4.12511061728843e-12
2.54980993853905e-12
-4.72055707083183e-12
2.96250989747006e-12
-5.4988159748272e-12
3.39130947070898e-12
-6.48363721539403e-12
3.79251192649825e-12
-7.54322864522078e-12
4.0539152193816e-12
-8.05341089024785e-12
3.81771743995551e-12
-6.07060582207313e-12
1.78569529904477e-12
1.21352968354486e-11
3.85508295581144e-11
-1.50607795625713e-12
3.90026409547998e-11
-3.39340428581972e-12
1.2945440675499e-11
-3.89492617206467e-12
-5.83280517262365e-12
-3.91295372693179e-12
-8.91790093123136e-12
-3.7193352229863e-12
-8.89301312974885e-12
-3.45702727445562e-12
-7.90674617554847e-12
-3.18528918485685e-12
-6.89451774845648e-12
-2.92644738449455e-12
-6.0640824578948e-12
-2.68974273690363e-12
-5.40642242695138e-12
-2.47710150003246e-12
-4.87867038986496e-12
-2.28747255188505e-12
-4.44797314905364e-12
-2.11855454454417e-12
-4.09108313533142e-12
-1.967731842856e-12
-3.79147914187038e-12
-1.83235186159463e-12
-3.53722409481049e-12
-1.70997223847052e-12
-3.31959763891558e-12
-1.59833552391517e-12
-3.13214826767429e-12
-1.49546156540134e-12
-2.9700659881121e-12
-1.39953724399665e-12
-2.82966273787799e-12
-1.30899454848716e-12
-2.70816680049767e-12
-1.22237893505995e-12
-2.60340741694567e-12
-1.13843469553842e-12
-2.51375014240067e-12
-1.05596379743896e-12
-2.43792478355603e-12
-9.73907040106466e-13
-2.37502120193883e-12
-8.91217423856757e-13
-2.32438823604768e-12
-8.06952908760236e-13
-2.28563082641231e-12
-7.20133336764051e-13
-2.2585575655657e-12
-6.29834669656596e-13
-2.24319047451014e-12
-5.35046880244901e-13
-2.23979245303798e-12
-4.34773341417344e-13
-2.24883271504144e-12
-3.2790069811248e-13
-2.27104389394946e-12
-2.13289751846667e-13
-2.30746779006586e-12
-8.96494195725369e-14
-2.35940125299605e-12
4.43884166096781e-14
-2.42860102785421e-12
1.90383650415377e-13
-2.51738960502287e-12
3.49997159147066e-13
-2.62867641225532e-12
5.25121097568624e-13
-2.76630311339931e-12
7.17771304070757e-13
-2.93532506733665e-12
9.3017515798238e-13
-3.1420999702056e-12
1.16459624918652e-12
-3.39546544258137e-12
1.42324863633877e-12
-3.70769144244017e-12
1.70781488616676e-12
-4.09530368966984e-12
2.01860017790956e-12
-4.5812769618494e-12
2.35262509699183e-12
-5.19776745312936e-12
2.69957383771211e-12
-5.98638278858133e-12
3.03733416520497e-12
-6.95987440186865e-12
3.31472333553367e-12
-7.95951737582454e-12
3.4118580428437e-12
-8.29595987868955e-12
3.09352111211283e-12
-5.91215994412184e-12
1.34964125637271e-12
1.37026098898766e-11
3.97849494634648e-11
-1.21526817254008e-12
3.99275016991603e-11
-2.80448554076833e-12
1.41512799524966e-11
-3.33211920235018e-12
-5.63823029756836e-12
-3.45720696241967e-12
-9.09240679125255e-12
-3.36560996334986e-12
-9.26841719892607e-12
-3.18417564504108e-12
-8.36576345778178e-12
-2.9730137417531e-12
-7.38034442322268e-12
-2.75890344910035e-12
-6.55027585312394e-12
-2.555193173778e-12
-5.87901974467084e-12
-2.36716206980346e-12
-5.33161315925128e-12
-2.19618301316196e-12
-4.87928495977107e-12
-2.04166450234399e-12
-4.50089928741025e-12
-1.90218414923333e-12
-4.18097114032189e-12
-1.77592199795268e-12
-3.9080358412936e-12
-1.66102875776328e-12
-3.67354312712781e-12
-1.55565923259516e-12
-3.47104805655556e-12
-1.45813875313257e-12
-3.29567562254426e-12
-1.36686911619534e-12
-3.14363913923932e-12
-1.28045352512818e-12
-3.01205529546216e-12
-1.19755913141228e-12
-2.8986515842393e-12
-1.11703226930118e-12
-2.8016961678298e-12
-1.03775683095024e-12
-2.71983287363167e-12
-9.5874443761309e-13
-2.6520996138625e-12
-8.79008267766631e-13
-2.59778768396668e-12
-7.97660561559854e-13
-2.55647133300605e-12
-7.13773394032529e-13
-2.52793839454195e-12
-6.26475719773652e-13
-2.51221626802014e-12
-5.34816516876711e-13
-2.50958427265173e-12
-4.37861271792838e-13
-2.52055307266137e-12
-3.3456588893773e-13
-2.54590345164666e-12
-2.23878183521598e-13
-2.58674142458461e-12
-1.04609310643195e-13
-2.64444534679845e-12
2.44803034599336e-14
-2.72087929151938e-12
1.64779474805375e-13
-2.81846775224581e-12
3.17729866419499e-13
-2.94022769278397e-12
4.84915368018493e-13
-3.09009874771866e-12
6.67934647378988e-13
-3.27319302732935e-12
8.68440593783376e-13
-3.49586129718577e-12
1.08786959325989e-12
-3.76672464071074e-12
1.32727071584413e-12
-4.09754663796852e-12
1.5866876364624e-12
-4.50375240004581e-12
1.86416541444539e-12
-5.00610054511862e-12
2.1537119494751e-12
-5.6325714951099e-12
2.44149974896468e-12
-6.41695991159523e-12
2.70152353920066e-12
-7.36064427269233e-12
2.88016390598351e-12
-8.2794990340788e-12
2.86468129243525e-12
-8.42873110795612e-12
2.50247244923194e-12
-5.71320724993407e-12
1.05907847496031e-12
1.49663042957884e-11
4.07266702051353e-11
-1.00453883755946e-12
4.06453156430759e-11
-2.3350213592904e-12
1.51065330545426e-11
-2.86104504978053e-12
-5.43624494431333e-12
-3.05053987960932e-12
-9.19441707280461e-12
-3.03508008576614e-12
-9.56007670276456e-12
-2.91973613143464e-12
-8.75110899794543e-12
-2.76127854477827e-12
-7.80578848071026e-12
-2.58802440266188e-12
-6.98785621814228e-12
-2.41561149040442e-12
-6.31253958556369e-12
-2.25163524076408e-12
-5.75275055294971e-12
-2.09933375211476e-12
-5.28423942422e-12
-1.95953125213181e-12
-4.88841855702905e-12
-1.83183939428225e-12
-4.5512113290922e-12
-1.71518882917713e-12
-4.26190161906852e-12
-1.60827567497401e-12
-4.01230976016031e-12
-1.5096490601506e-12
-3.79614506749327e-12
-1.41792978487148e-12
-3.60856330691508e-12
-1.33173301152562e-12
-3.44576062300357e-12
-1.24983349024242e-12
-3.30478282389855e-12
-1.17102458236434e-12
-3.18330004268713e-12
-1.09425972179785e-12
-3.07950165188299e-12
-1.01850323413591e-12
-2.99197225680267e-12
-9.42847188796662e-13
-2.91969724995616e-12
-8.66363005311965e-13
-2.86193247355428e-12
-7.88228399261817e-13
-2.81821447513251e-12
-7.0757025190927e-13
-2.78832089614185e-12
-6.23576640654571e-13
-2.77228007009036e-12
-5.35357126716462e-13
-2.77038702584546e-12
-4.42045694885933e-13
-2.78318519807966e-12
-3.42670881877184e-13
-2.81150023234113e-12
-2.36271845274967e-13
-2.85648303634316e-12
-1.21764453995752e-13
-2.9195804544169e-12
1.960176109355e-15
-3.00273756604718e-12
1.36117344321209e-13
-3.1084380153266e-12
2.81933511875662e-13
-3.23976532319226e-12
4.40694770994156e-13
-3.4006744932426e-12
6.13606356816166e-13
-3.5962394676772e-12
8.01789915529287e-13
-3.83266968960805e-12
1.00594701478383e-12
-4.11816857543769e-12
1.22611857529928e-12
-4.46372383602027e-12
1.46100901734089e-12
-4.8833329063165e-12
1.70694558775125e-12
-5.39516078634208e-12
1.95588579048014e-12
-6.02267541075514e-12
2.19211061121842e-12
-6.79200847872948e-12
2.38830193689311e-12
-7.69374391966863e-12
2.49259829057359e-12
-8.52148407796487e-12
2.40840519213713e-12
-8.48938612919118e-12
2.03239811058324e-12
-5.4969582956239e-12
8.49690913357293e-13
1.59734928074298e-11
4.1463622118275e-11
-8.43706421717011e-13
4.12078862126629e-11
-1.96139771065643e-12
1.58588070974889e-11
-2.46784888980193e-12
-5.24514347222958e-12
-2.69139952401971e-12
-9.25455190994134e-12
-2.73018460815512e-12
-9.78994129952837e-12
-2.66725376010718e-12
-9.07648484895439e-12
-2.55351334636979e-12
-8.17886988082431e-12
-2.41671643017899e-12
-7.38127039398839e-12
-2.27336095238487e-12
-6.70928453896308e-12
-2.13243299902641e-12
-6.14316368589297e-12
-1.99849937195771e-12
-5.66322787034642e-12
-1.87348089887997e-12
-5.25365693957389e-12
-1.75784327383067e-12
-4.90201559596607e-12
-1.65116726928146e-12
-4.59853451028553e-12
-1.55263532051134e-12
-4.33556278515427e-12
-1.46115902712534e-12
-4.10708638852371e-12
-1.37563534060652e-12
-3.90837574649636e-12
-1.29488969096825e-12
-3.73567509483615e-12
-1.21786146145845e-12
-3.58600381991283e-12
-1.14347224254992e-12
-3.45701111289613e-12
-1.07078229359848e-12
-3.34682855973107e-12
-9.98840789441704e-13
-3.25400369265633e-12
-9.26821720399722e-13
-3.17747134895267e-12
-8.53864012062075e-13
-3.11646798166393e-12
-7.792077660689e-13
-3.07049588084686e-12
-7.02043842311135e-13
-3.03932284849542e-12
-6.21619659788009e-13
-3.02298101097458e-12
-5.37112679551851e-13
-3.02177404771885e-12
-4.4772445750057e-13
-3.03627788024203e-12
-3.52562723160245e-13
-3.06735175684176e-12
-2.50760258249467e-13
-3.11617659404965e-12
-1.4134267999214e-13
-3.18425226609592e-12
-2.33279683826801e-14
-3.27358645404602e-12
1.04332352637061e-13
-3.38668327401721e-12
2.42653666354965e-13
-3.52664694472384e-12
3.92642352948152e-13
-3.69738076742484e-12
5.55141357577672e-13
-3.90383818726907e-12
7.30802726177159e-13
-4.15198146534118e-12
9.19704657493502e-13
-4.44944493378431e-12
1.1210501422843e-12
-4.80623075731544e-12
1.33251391990044e-12
-5.23471952174614e-12
1.54922193904777e-12
-5.75031595480186e-12
1.76193186302059e-12
-6.37197559742737e-12
1.95429896543159e-12
-7.1187384165727e-12
2.09957772326979e-12
-7.97158970390398e-12
2.15037380665324e-12
-8.70576664540002e-12
2.02890063368513e-12
-8.50875249848661e-12
1.66001666946044e-12
-5.28390945641564e-12
6.90827110100777e-13
1.67719805909597e-11
4.20446560679189e-11
-7.16670321869467e-13
4.16550235136892e-11
-1.66160061208891e-12
1.6456241494074e-11
-2.13761201223232e-12
-5.06742995832064e-12
-2.37513429835574e-12
-9.28539771060811e-12
-2.45083210128455e-12
-9.96841448057727e-12
-2.42841590941425e-12
-9.34703993059739e-12
-2.35182561280651e-12
-8.50046048713294e-12
-2.24693165745499e-12
-7.72839687011935e-12
-2.13005948509764e-12
-7.06516412940266e-12
-2.01083355447705e-12
-6.49754458071706e-12
-1.8946638846251e-12
-6.01021130036294e-12
-1.78426137863512e-12
-5.59015241210318e-12
-1.68076309873139e-12
-5.22668311206282e-12
-1.58428358329051e-12
-4.9111115069087e-12
-1.49442275383795e-12
-4.63642783294908e-12
-1.4104197386759e-12
-4.39698158826644e-12
-1.33142201685461e-12
-4.18823333392073e-12
-1.25645330629384e-12
-4.00652643206832e-12
-1.18460652584278e-12
-3.84889782455746e-12
-1.1149342129018e-12
-3.71299800358695e-12
-1.04660079938649e-12
-3.5969266928321e-12
-9.78747146889327e-13
-3.49920711101908e-12
-9.10621561359977e-13
-3.41874065640176e-12
-8.41439721249386e-13
-3.35474187408398e-12
-7.70506546917806e-13
-3.30669088433554e-12
-6.97080153841849e-13
-3.27434276676012e-12
-6.20469847655936e-13
-3.25773946345944e-12
-5.39922556690372e-13
-3.25718594867535e-12
-4.54714039559293e-13
-3.273285090181e-12
-3.64030776487121e-13
-3.30692635552048e-12
-2.67100532389484e-13
-3.35930356773873e-12
-1.63056622914601e-13
-3.4319570639372e-12
-5.10444799772363e-14
-3.52693717753687e-12
6.98236632838348e-14
-3.6467350394293e-12
2.00365088323753e-13
-3.79443761483905e-12
3.41333878201754e-13
-3.97384293332317e-12
4.93249742175155e-13
-4.18971252276474e-12
6.56362350116893e-13
-4.44768514922975e-12
8.30238661891417e-13
-4.75471759934536e-12
1.01342960432937e-12
-5.11969062250993e-12
1.20287926292747e-12
-5.55329330583493e-12
1.39296310994103e-12
-6.06815625383218e-12
1.57392716188602e-12
-6.67896495371389e-12
1.72972970015599e-12
-7.39847950754027e-12
1.83540906274399e-12
-8.19955456210159e-12
1.84941390638327e-12
-8.84311527397663e-12
1.71149080180933e-12
-8.50152659134009e-12
1.36338642168066e-12
-5.08086790689482e-12
5.6634448914966e-13
1.74102159638332e-11
4.25106507405108e-11
-6.13552215672378e-13
4.20112640820186e-11
-1.41757875746661e-12
1.69303527225085e-11
-1.85756189287939e-12
-4.91079863063633e-12
-2.09627702869536e-12
-9.30155872624888e-12
-2.19560274156498e-12
-1.01102893620748e-11
-2.20369286919604e-12
-9.57422829026964e-12
-2.15739364137233e-12
-8.77886762783358e-12
-2.07996767480516e-12
-8.03513349901797e-12
-1.98686903418063e-12
-7.38436650662389e-12
-1.88778773948001e-12
-6.818941659544e-12
-1.78856390131558e-12
-6.32750806839689e-12
-1.69242569841934e-12
-5.89976172942527e-12
-1.60099788349852e-12
-5.52678826467355e-12
-1.51481390606488e-12
-5.20103645799435e-12
-1.43382151470368e-12
-4.91620471336149e-12
-1.35753786771861e-12
-4.66707386017208e-12
-1.28533162870227e-12
-4.44934974005461e-12
-1.21641408983693e-12
-4.25950807147107e-12
-1.15001958709261e-12
-4.09464826106084e-12
-1.08532925426268e-12
-3.95243587851916e-12
-1.02160510652739e-12
-3.8309686844624e-12
-9.58083775929432e-13
-3.72874835945158e-12
-8.94088474835847e-13
-3.64466261524327e-12
-8.28913021252455e-13
-3.57790189025398e-12
-7.61930485356633e-13
-3.52793350632667e-12
-6.92464542719513e-13
-3.49450333619717e-12
-6.19895110087053e-13
-3.4776572772926e-12
-5.43536635769877e-13
-3.47770563509165e-12
-4.62742300254181e-13
-3.49526804880563e-12
-3.76781617964526e-13
-3.53125872426062e-12
-2.84973212751721e-13
-3.58687606799638e-12
-1.86557206282467e-13
-3.66368545709086e-12
-8.08030488640311e-14