/*--------------------------------*- C++ -*----------------------------------*\
  =========                 |
  \\      /  F ield         | OpenFOAM: The Open Source CFD Toolbox
   \\    /   O peration     | Website:  https://openfoam.org
    \\  /    A nd           | Version:  10
     \\/     M anipulation  |
\*---------------------------------------------------------------------------*/
FoamFile
{
    format      ascii;
    class       volScalarField;
    location    "2";
    object      rho;
}
// * * * * * * * * * * * * * * * * * * * * * * * * * * * * * * * * * * * * * //

dimensions      [1 -3 0 0 0 0 0];

internalField   nonuniform List<scalar> 
2500
(
1.14166879299719
1.14191073681498
1.14201497581774
1.14204263914424
1.14204926770645
1.14205084682765
1.14205121606111
1.14205130468803
1.14205133099726
1.14205133910628
1.14205134721662
1.14205135245807
1.1420513556613
1.14205135975078
1.14205136356427
1.14205136783093
1.14205137003286
1.14205137278139
1.14205137589583
1.14205137812604
1.14205138043706
1.14205138318794
1.1420513857262
1.14205138620139
1.14205138677515
1.14205138840368
1.1420513886464
1.14205138907388
1.14205138994535
1.14205138921982
1.14205138845753
1.14205138819402
1.14205138691066
1.14205138509066
1.14205138339968
1.14205138186968
1.14205138016555
1.14205137872504
1.14205137568503
1.14205137267914
1.1420513683378
1.14205135929514
1.14205133117858
1.14205122463564
1.14205079236739
1.14204909719158
1.14204235091731
1.14201471336043
1.14190893657511
1.14166895052933
1.1507265023128
1.15122497720613
1.15153058515917
1.15162889872898
1.15165745215204
1.151665335075
1.15166737065931
1.15166785859612
1.15166796881057
1.15166799231943
1.15166799927039
1.15166800181104
1.15166800267684
1.1516680039226
1.15166800509982
1.1516680064292
1.15166800719576
1.15166800810322
1.15166800910469
1.15166800999967
1.15166801148169
1.15166801367671
1.15166801593581
1.15166801601885
1.15166801601555
1.15166801726688
1.15166801696326
1.15166801701213
1.15166801797705
1.15166801685815
1.1516680165202
1.15166801767958
1.15166801563371
1.15166801266918
1.15166801155725
1.151668011068
1.15166801062431
1.15166801024805
1.15166800918945
1.15166800722322
1.15166799925656
1.15166796496448
1.15166781958813
1.15166722678778
1.15166494785858
1.15165671415754
1.15162815962827
1.15153063538327
1.15121936299406
1.15071513293842
1.15670569283631
1.15713978069282
1.15741404213435
1.15750657480906
1.15753378517438
1.15754138880799
1.15754338506735
1.15754387154908
1.1575439815993
1.15754400447965
1.15754401028372
1.1575440115414
1.15754401083126
1.15754401103251
1.15754401104605
1.1575440110028
1.1575440110448
1.15754401112579
1.15754401132666
1.15754401151861
1.1575440121562
1.15754401319005
1.15754401435627
1.1575440146787
1.15754401453379
1.15754401480944
1.15754401488092
1.15754401471847
1.15754401468618
1.15754401427478
1.15754401435098
1.15754401517664
1.15754401395572
1.15754401187135
1.15754401151562
1.15754401164757
1.15754401162444
1.15754401172498
1.1575440116221
1.15754401119997
1.15754400460681
1.15754397222622
1.15754383510479
1.1575432748302
1.15754112337199
1.15753334361199
1.15750628282501
1.15741407104544
1.15713351733385
1.1566798865547
1.15974405673094
1.16000024672999
1.16013901331518
1.16018654858073
1.16020006987536
1.16020374249618
1.16020469733492
1.16020493122479
1.16020498462905
1.16020499556984
1.16020499829543
1.160204998774
1.16020499814865
1.16020499794558
1.16020499784715
1.16020499784995
1.16020499773038
1.16020499758547
1.16020499760828
1.16020499761746
1.16020499772493
1.16020499808245
1.16020499860629
1.16020499880206
1.16020499865855
1.16020499869355
1.1602049987839
1.16020499863407
1.16020499845643
1.16020499833659
1.1602049984081
1.16020499879725
1.16020499827045
1.16020499732206
1.16020499722129
1.16020499738001
1.16020499747321
1.16020499759899
1.16020499769905
1.16020499784265
1.16020499546938
1.16020498150253
1.16020492090063
1.16020467006698
1.1602036860491
1.16020000919006
1.16018660482872
1.16013886932831
1.15999600412436
1.15972053692688
1.16102767643972
1.16114674426778
1.16120117369055
1.16122034572568
1.16122572749501
1.16122716355474
1.16122753490312
1.16122762659864
1.16122764780205
1.16122765211493
1.16122765318209
1.16122765334209
1.16122765302423
1.16122765286786
1.16122765279736
1.16122765278462
1.16122765271899
1.16122765263563
1.16122765262131
1.16122765260554
1.16122765261
1.16122765271905
1.16122765293059
1.16122765299435
1.16122765292784
1.1612276529375
1.16122765297098
1.16122765290085
1.16122765280407
1.16122765277108
1.16122765280679
1.16122765295328
1.16122765277217
1.16122765244308
1.16122765244033
1.16122765251778
1.16122765256766
1.161227652663
1.16122765275699
1.16122765285127
1.16122765219359
1.16122764724748
1.16122762506709
1.16122753283961
1.16122716634032
1.16122576410242
1.16122047825648
1.16120118704963
1.16114470763701
1.16101333848371
1.16150031186539
1.16154718796753
1.16156539222009
1.16157202118242
1.16157388474278
1.1615743776156
1.16157450466843
1.16157453627431
1.16157454367121
1.1615745451755
1.16157454554427
1.1615745455911
1.16157454546569
1.16157454539557
1.16157454536486
1.16157454536147
1.16157454534079
1.16157454531301
1.16157454530729
1.16157454530386
1.16157454530424
1.16157454534968
1.1615745454157
1.16157454542409
1.16157454541481
1.16157454542406
1.16157454544044
1.16157454542196
1.16157454539055
1.16157454538061
1.16157454540039
1.16157454545416
1.16157454540411
1.16157454532006
1.16157454533034
1.16157454535797
1.16157454538801
1.161574545441
1.16157454550085
1.16157454554968
1.16157454538068
1.16157454380581
1.1615745365479
1.16157450633711
1.16157438561315
1.16157391668828
1.1615721112827
1.16156545308286
1.16154641468351
1.1614934600574
1.16165674760285
1.16167305747834
1.16167852809331
1.16168058316594
1.16168116716378
1.16168132130694
1.16168136096901
1.16168137089028
1.1616813732381
1.16168137372975
1.16168137383807
1.16168137384174
1.16168137381182
1.16168137379105
1.16168137378424
1.16168137378483
1.1616813737851
1.16168137378742
1.16168137379181
1.16168137379765
1.1616813738048
1.16168137382663
1.16168137385024
1.16168137385477
1.16168137386061
1.16168137387276
1.16168137388423
1.16168137388841
1.16168137388627
1.16168137388702
1.16168137390031
1.16168137392276
1.1616813739161
1.1616813739031
1.16168137391389
1.16168137392821
1.16168137394525
1.1616813739715
1.16168137400216
1.16168137402561
1.16168137398465
1.16168137352281
1.16168137132928
1.16168136219936
1.16168132569496
1.16168118272521
1.16168062591793
1.16167856949245
1.1616728120238
1.16165398056567
1.16170428473728
1.16170943853028
1.16171096431382
1.16171155125517
1.16171172072146
1.16171176559149
1.16171177712809
1.1617117800254
1.16171178072015
1.16171178087101
1.1617117809035
1.16171178090806
1.16171178090574
1.1617117809054
1.16171178090868
1.16171178091558
1.1617117809246
1.1617117809337
1.16171178094299
1.16171178095293
1.1617117809632
1.16171178097754
1.16171178099173
1.16171178100091
1.16171178101144
1.16171178102249
1.16171178103382
1.16171178104418
1.16171178105105
1.16171178105795
1.16171178106887
1.16171178108191
1.16171178108781
1.1617117810927
1.16171178110278
1.16171178111306
1.16171178112417
1.1617117811383
1.16171178115396
1.1617117811669
1.1617117811596
1.16171178103424
1.16171178041406
1.16171177782399
1.16171176748619
1.16171172686399
1.16171156795882
1.16171098335539
1.16170937190263
1.16170329904267
1.16171774138837
1.16171924840423
1.16171965165737
1.16171980891025
1.16171985513738
1.16171986746292
1.16171987063451
1.16171987143493
1.16171987163169
1.16171987167834
1.16171987169192
1.16171987169919
1.16171987170518
1.16171987171202
1.16171987172012
1.1617198717298
1.16171987174042
1.16171987175128
1.16171987176203
1.16171987177328
1.16171987178519
1.16171987179772
1.16171987180978
1.1617198718209
1.1617198718325
1.16171987184393
1.16171987185513
1.16171987186619
1.16171987187622
1.1617198718858
1.16171987189623
1.16171987190693
1.16171987191587
1.16171987192447
1.16171987193383
1.16171987194284
1.16171987195172
1.16171987196118
1.16171987197079
1.16171987197923
1.16171987198175
1.16171987195284
1.16171987178911
1.16171987109394
1.1617198683205
1.16171985741788
1.16171981478713
1.16171965898291
1.16171923311568
1.1617174231589
1.16172131996083
1.16172173329435
1.16172183562894
1.16172187565696
1.16172188763825
1.16172189086532
1.16172189169932
1.16172189191295
1.16172189196936
1.16172189198684
1.16172189199611
1.1617218920044
1.16172189201283
1.16172189202188
1.16172189203162
1.16172189204212
1.16172189205313
1.16172189206442
1.16172189207579
1.16172189208742
1.16172189209938
1.16172189211145
1.16172189212335
1.16172189213504
1.1617218921468
1.16172189215837
1.16172189216967
1.16172189218081
1.16172189219153
1.1617218922019
1.16172189221223
1.16172189222235
1.16172189223182
1.16172189224094
1.16172189224991
1.16172189225843
1.1617218922666
1.16172189227458
1.16172189228226
1.16172189228932
1.16172189229456
1.16172189229149
1.16172189225308
1.16172189207737
1.16172189136886
1.16172188858148
1.16172187771574
1.16172183829838
1.16172173064566
1.16172122521085
1.16172221065084
1.16172231806976
1.16172234320805
1.16172235297845
1.16172235595338
1.16172235676592
1.16172235697916
1.16172235703702
1.16172235705604
1.16172235706584
1.16172235707414
1.16172235708272
1.1617223570918
1.16172235710145
1.16172235711164
1.16172235712233
1.16172235713339
1.16172235714475
1.16172235715628
1.16172235716798
1.16172235717983
1.16172235719174
1.16172235720361
1.1617223572154
1.16172235722711
1.16172235723865
1.16172235724996
1.16172235726106
1.16172235727187
1.16172235728237
1.1617223572926
1.16172235730251
1.161722357312
1.1617223573211
1.16172235732985
1.16172235733817
1.16172235734607
1.1617223573536
1.16172235736071
1.16172235736735
1.16172235737321
1.16172235737671
1.16172235737108
1.16172235733114
1.16172235715975
1.16172235647836
1.16172235382883
1.16172234428042
1.16172231803361
1.16172218441981
1.16172240774643
1.16172243440613
1.16172244041254
1.16172244271563
1.16172244342872
1.16172244362819
1.16172244368353
1.16172244370181
1.16172244371131
1.16172244371918
1.16172244372724
1.16172244373587
1.16172244374509
1.16172244375486
1.16172244376511
1.16172244377579
1.16172244378682
1.16172244379813
1.16172244380964
1.1617224438213
1.16172244383307
1.16172244384488
1.16172244385667
1.16172244386839
1.16172244388
1.16172244389146
1.16172244390271
1.16172244391372
1.16172244392447
1.16172244393491
1.16172244394504
1.16172244395483
1.16172244396423
1.16172244397324
1.16172244398186
1.16172244399005
1.16172244399781
1.16172244400516
1.16172244401206
1.16172244401853
1.16172244402448
1.16172244402953
1.16172244403207
1.1617224440261
1.1617224439886
1.16172244383028
1.16172244321034
1.16172244098301
1.16172243477851
1.16172240107551
1.16172243378718
1.16172244014485
1.16172244154521
1.16172244207291
1.16172244223996
1.16172244228964
1.16172244230628
1.16172244231487
1.16172244232204
1.16172244232942
1.16172244233739
1.16172244234601
1.16172244235522
1.16172244236496
1.16172244237518
1.1617224423858
1.16172244239675
1.16172244240798
1.16172244241941
1.16172244243099
1.16172244244267
1.16172244245437
1.16172244246606
1.16172244247768
1.16172244248919
1.16172244250054
1.16172244251169
1.1617224425226
1.16172244253325
1.1617224425436
1.16172244255362
1.16172244256329
1.16172244257259
1.1617224425815
1.16172244259
1.16172244259808
1.16172244260574
1.16172244261296
1.16172244261975
1.1617224426261
1.16172244263199
1.16172244263735
1.16172244264179
1.16172244264394
1.16172244263852
1.16172244260514
1.16172244246692
1.16172244196555
1.16172244053907
1.16172243237685
1.1617224192618
1.16172242072577
1.1617224210455
1.16172242116434
1.16172242120406
1.16172242121837
1.16172242122585
1.16172242123215
1.16172242123875
1.16172242124599
1.16172242125392
1.16172242126249
1.16172242127165
1.16172242128133
1.16172242129148
1.16172242130202
1.16172242131288
1.16172242132402
1.16172242133535
1.16172242134683
1.1617224213584
1.16172242137
1.16172242138158
1.16172242139309
1.16172242140448
1.16172242141572
1.16172242142675
1.16172242143756
1.16172242144809
1.16172242145833
1.16172242146824
1.1617224214778
1.16172242148699
1.16172242149579
1.16172242150418
1.16172242151215
1.1617224215197
1.16172242152682
1.1617224215335
1.16172242153974
1.16172242154554
1.16172242155089
1.1617224215557
1.16172242155967
1.16172242156161
1.16172242155699
1.16172242152909
1.16172242142102
1.1617224211018
1.16172241919492
1.16172239543978
1.16172239576652
1.16172239583878
1.16172239586609
1.16172239587706
1.16172239588328
1.16172239588866
1.16172239589443
1.1617223959009
1.16172239590809
1.16172239591597
1.16172239592449
1.16172239593358
1.16172239594319
1.16172239595325
1.1617223959637
1.16172239597447
1.1617223959855
1.16172239599673
1.1617223960081
1.16172239601955
1.16172239603104
1.1617223960425
1.16172239605389
1.16172239606517
1.16172239607628
1.1617223960872
1.16172239609788
1.1617223961083
1.16172239611842
1.16172239612821
1.16172239613766
1.16172239614673
1.16172239615541
1.16172239616369
1.16172239617156
1.161722396179
1.161722396186
1.16172239619257
1.1617223961987
1.1617223962044
1.16172239620967
1.16172239621448
1.16172239621878
1.16172239622229
1.16172239622402
1.16172239622052
1.16172239619933
1.16172239613016
1.16172239569921
1.1617223695508
1.16172236962168
1.16172236963858
1.16172236964598
1.16172236965067
1.16172236965512
1.16172236966004
1.1617223696657
1.16172236967212
1.16172236967927
1.1617223696871
1.16172236969557
1.16172236970459
1.16172236971412
1.1617223697241
1.16172236973445
1.16172236974512
1.16172236975604
1.16172236976716
1.16172236977841
1.16172236978975
1.16172236980111
1.16172236981245
1.16172236982371
1.16172236983486
1.16172236984586
1.16172236985665
1.16172236986721
1.1617223698775
1.16172236988749
1.16172236989717
1.16172236990649
1.16172236991544
1.16172236992401
1.16172236993217
1.16172236993992
1.16172236994724
1.16172236995413
1.16172236996059
1.16172236996661
1.1617223699722
1.16172236997736
1.16172236998209
1.16172236998637
1.16172236999014
1.16172236999317
1.16172236999482
1.16172236999221
1.16172236997811
1.16172236988413
1.1617223432147
1.16172234322968
1.16172234323452
1.16172234323776
1.16172234324116
1.16172234324525
1.16172234325009
1.16172234325572
1.16172234326212
1.16172234326923
1.16172234327702
1.16172234328542
1.16172234329438
1.16172234330382
1.1617223433137
1.16172234332396
1.16172234333452
1.16172234334533
1.16172234335633
1.16172234336746
1.16172234337867
1.16172234338991
1.16172234340112
1.16172234341226
1.16172234342328
1.16172234343414
1.1617223434448
1.16172234345523
1.16172234346539
1.16172234347526
1.1617223434848
1.161722343494
1.16172234350283
1.16172234351127
1.16172234351931
1.16172234352694
1.16172234353414
1.16172234354092
1.16172234354726
1.16172234355317
1.16172234355864
1.16172234356369
1.16172234356831
1.16172234357249
1.16172234357623
1.16172234357944
1.16172234358206
1.16172234358322
1.16172234358092
1.1617223435616
1.16172231678441
1.16172231678754
1.16172231678988
1.16172231679232
1.16172231679552
1.16172231679956
1.16172231680439
1.16172231681002
1.16172231681639
1.16172231682348
1.16172231683121
1.16172231683955
1.16172231684843
1.16172231685779
1.16172231686757
1.16172231687772
1.16172231688817
1.16172231689886
1.16172231690974
1.16172231692075
1.16172231693183
1.16172231694294
1.16172231695402
1.16172231696502
1.16172231697591
1.16172231698664
1.16172231699717
1.16172231700746
1.16172231701749
1.16172231702722
1.16172231703664
1.1617223170457
1.1617223170544
1.16172231706272
1.16172231707063
1.16172231707814
1.16172231708522
1.16172231709187
1.16172231709809
1.16172231710388
1.16172231710923
1.16172231711416
1.16172231711866
1.16172231712273
1.16172231712636
1.16172231712951
1.16172231713222
1.16172231713404
1.16172231713413
1.16172231713087
1.16172229033494
1.16172229033567
1.16172229033755
1.16172229033991
1.16172229034312
1.16172229034718
1.16172229035202
1.16172229035765
1.161722290364
1.16172229037105
1.16172229037873
1.161722290387
1.1617222903958
1.16172229040507
1.16172229041476
1.1617222904248
1.16172229043513
1.16172229044571
1.16172229045646
1.16172229046734
1.16172229047829
1.16172229048926
1.16172229050021
1.16172229051107
1.16172229052182
1.16172229053241
1.1617222905428
1.16172229055296
1.16172229056285
1.16172229057245
1.16172229058172
1.16172229059066
1.16172229059922
1.16172229060741
1.16172229061519
1.16172229062257
1.16172229062952
1.16172229063605
1.16172229064215
1.16172229064781
1.16172229065304
1.16172229065785
1.16172229066222
1.16172229066617
1.16172229066968
1.16172229067272
1.16172229067533
1.16172229067716
1.16172229067766
1.16172229067772
1.16172226388182
1.16172226388212
1.16172226388399
1.16172226388641
1.16172226388967
1.16172226389376
1.16172226389862
1.16172226390424
1.16172226391057
1.16172226391758
1.16172226392521
1.16172226393341
1.16172226394213
1.16172226395131
1.16172226396089
1.16172226397082
1.16172226398104
1.16172226399149
1.16172226400212
1.16172226401286
1.16172226402368
1.16172226403451
1.16172226404532
1.16172226405604
1.16172226406665
1.1617222640771
1.16172226408734
1.16172226409736
1.16172226410711
1.16172226411657
1.16172226412571
1.1617222641345
1.16172226414293
1.16172226415098
1.16172226415864
1.16172226416588
1.16172226417271
1.16172226417911
1.16172226418507
1.16172226419061
1.16172226419572
1.16172226420039
1.16172226420464
1.16172226420846
1.16172226421185
1.16172226421477
1.16172226421725
1.16172226421896
1.16172226421944
1.16172226422012
1.16172223742819
1.16172223742847
1.1617222374304
1.1617222374329
1.16172223743622
1.16172223744034
1.16172223744522
1.16172223745084
1.16172223745715
1.16172223746412
1.16172223747169
1.16172223747982
1.16172223748845
1.16172223749754
1.16172223750702
1.16172223751684
1.16172223752693
1.16172223753726
1.16172223754775
1.16172223755837
1.16172223756904
1.16172223757974
1.1617222375904
1.16172223760098
1.16172223761144
1.16172223762175
1.16172223763185
1.16172223764172
1.16172223765133
1.16172223766064
1.16172223766964
1.1617222376783
1.16172223768659
1.1617222376945
1.16172223770202
1.16172223770913
1.16172223771582
1.16172223772209
1.16172223772793
1.16172223773334
1.16172223773831
1.16172223774286
1.16172223774698
1.16172223775067
1.16172223775392
1.16172223775671
1.16172223775905
1.16172223776063
1.16172223776102
1.16172223776175
1.16172221097462
1.16172221097495
1.16172221097696
1.16172221097955
1.16172221098293
1.16172221098708
1.16172221099197
1.16172221099759
1.16172221100388
1.1617222110108
1.16172221101832
1.16172221102638
1.16172221103493
1.16172221104391
1.16172221105329
1.16172221106299
1.16172221107297
1.16172221108316
1.16172221109353
1.161722211104
1.16172221111454
1.16172221112509
1.16172221113561
1.16172221114605
1.16172221115636
1.16172221116652
1.16172221117647
1.1617222111862
1.16172221119566
1.16172221120483
1.16172221121368
1.1617222112222
1.16172221123035
1.16172221123812
1.1617222112455
1.16172221125248
1.16172221125904
1.16172221126517
1.16172221127088
1.16172221127615
1.161722211281
1.16172221128541
1.1617222112894
1.16172221129296
1.16172221129607
1.16172221129873
1.16172221130094
1.16172221130237
1.16172221130266
1.16172221130334
1.1617221845212
1.16172218452159
1.16172218452369
1.16172218452636
1.16172218452979
1.16172218453397
1.16172218453887
1.16172218454448
1.16172218455075
1.16172218455763
1.16172218456509
1.16172218457307
1.16172218458154
1.16172218459043
1.16172218459969
1.16172218460928
1.16172218461913
1.1617221846292
1.16172218463943
1.16172218464977
1.16172218466016
1.16172218467057
1.16172218468094
1.16172218469123
1.1617221847014
1.16172218471141
1.16172218472121
1.16172218473079
1.16172218474011
1.16172218474913
1.16172218475784
1.16172218476621
1.16172218477422
1.16172218478185
1.16172218478909
1.16172218479593
1.16172218480235
1.16172218480835
1.16172218481392
1.16172218481907
1.16172218482378
1.16172218482806
1.16172218483191
1.16172218483533
1.16172218483831
1.16172218484084
1.1617221848429
1.1617221848442
1.16172218484437
1.16172218484498
1.16172215806787
1.16172215806834
1.16172215807051
1.16172215807326
1.16172215807674
1.16172215808095
1.16172215808587
1.16172215809147
1.16172215809771
1.16172215810455
1.16172215811195
1.16172215811986
1.16172215812824
1.16172215813703
1.16172215814619
1.16172215815566
1.16172215816539
1.16172215817532
1.16172215818542
1.16172215819562
1.16172215820587
1.16172215821613
1.16172215822636
1.1617221582365
1.16172215824652
1.16172215825637
1.16172215826603
1.16172215827546
1.16172215828463
1.1617221582935
1.16172215830206
1.16172215831029
1.16172215831815
1.16172215832564
1.16172215833274
1.16172215833944
1.16172215834573
1.16172215835159
1.16172215835703
1.16172215836204
1.16172215836662
1.16172215837076
1.16172215837447
1.16172215837776
1.1617221583806
1.161722158383
1.16172215838493
1.16172215838609
1.16172215838615
1.16172215838668
1.16172213161461
1.16172213161514
1.1617221316174
1.16172213162022
1.16172213162375
1.16172213162799
1.16172213163292
1.16172213163851
1.16172213164472
1.16172213165152
1.16172213165886
1.16172213166669
1.16172213167498
1.16172213168368
1.16172213169273
1.16172213170208
1.16172213171168
1.16172213172149
1.16172213173145
1.16172213174151
1.16172213175162
1.16172213176174
1.16172213177181
1.16172213178181
1.16172213179167
1.16172213180138
1.16172213181089
1.16172213182017
1.16172213182918
1.16172213183791
1.16172213184633
1.1617221318544
1.16172213186213
1.16172213186947
1.16172213187643
1.16172213188299
1.16172213188914
1.16172213189487
1.16172213190017
1.16172213190504
1.16172213190948
1.16172213191349
1.16172213191707
1.16172213192021
1.16172213192292
1.16172213192518
1.16172213192697
1.161722131928
1.16172213192795
1.1617221319284
1.16172210516135
1.16172210516195
1.16172210516428
1.16172210516718
1.16172210517076
1.16172210517502
1.16172210517995
1.16172210518554
1.16172210519172
1.16172210519848
1.16172210520576
1.16172210521352
1.16172210522172
1.16172210523032
1.16172210523926
1.16172210524849
1.16172210525797
1.16172210526765
1.16172210527747
1.16172210528739
1.16172210529736
1.16172210530733
1.16172210531726
1.16172210532711
1.16172210533682
1.16172210534638
1.16172210535574
1.16172210536487
1.16172210537373
1.16172210538231
1.16172210539058
1.16172210539851
1.16172210540609
1.16172210541329
1.16172210542011
1.16172210542653
1.16172210543254
1.16172210543813
1.1617221054433
1.16172210544804
1.16172210545234
1.16172210545621
1.16172210545965
1.16172210546266
1.16172210546522
1.16172210546736
1.16172210546901
1.1617221054699
1.16172210546974
1.16172210547012
1.16172207870805
1.16172207870871
1.16172207871112
1.16172207871409
1.16172207871772
1.161722078722
1.16172207872694
1.16172207873251
1.16172207873867
1.16172207874538
1.1617220787526
1.16172207876029
1.1617220787684
1.1617220787769
1.16172207878573
1.16172207879485
1.16172207880421
1.16172207881376
1.16172207882345
1.16172207883323
1.16172207884305
1.16172207885288
1.16172207886266
1.16172207887236
1.16172207888193
1.16172207889133
1.16172207890054
1.16172207890952
1.16172207891824
1.16172207892667
1.16172207893479
1.16172207894258
1.16172207895001
1.16172207895707
1.16172207896375
1.16172207897003
1.1617220789759
1.16172207898136
1.16172207898639
1.16172207899099
1.16172207899516
1.16172207899889
1.16172207900219
1.16172207900506
1.16172207900749
1.16172207900949
1.16172207901101
1.16172207901176
1.1617220790115
1.1617220790118
1.16172205225464
1.16172205225537
1.16172205225785
1.16172205226089
1.16172205226457
1.16172205226887
1.16172205227382
1.16172205227938
1.16172205228551
1.16172205229217
1.16172205229933
1.16172205230695
1.16172205231497
1.16172205232337
1.1617220523321
1.1617220523411
1.16172205235034
1.16172205235976
1.16172205236932
1.16172205237896
1.16172205238864
1.16172205239833
1.16172205240796
1.16172205241751
1.16172205242693
1.16172205243619
1.16172205244525
1.16172205245408
1.16172205246265
1.16172205247094
1.16172205247891
1.16172205248655
1.16172205249384
1.16172205250076
1.1617220525073
1.16172205251344
1.16172205251918
1.1617220525245
1.16172205252939
1.16172205253386
1.16172205253789
1.16172205254149
1.16172205254466
1.16172205254739
1.16172205254968
1.16172205255155
1.16172205255293
1.16172205255355
1.16172205255318
1.1617220525534
1.16172202580109
1.16172202580188
1.16172202580444
1.16172202580754
1.16172202581126
1.16172202581558
1.16172202582054
1.16172202582609
1.16172202583219
1.16172202583881
1.16172202584591
1.16172202585345
1.16172202586139
1.1617220258697
1.16172202587832
1.16172202588721
1.16172202589632
1.16172202590562
1.16172202591504
1.16172202592455
1.16172202593409
1.16172202594363
1.16172202595313
1.16172202596253
1.16172202597181
1.16172202598092
1.16172202598983
1.16172202599851
1.16172202600694
1.16172202601508
1.1617220260229
1.1617220260304
1.16172202603755
1.16172202604433
1.16172202605073
1.16172202605674
1.16172202606234
1.16172202606752
1.16172202607228
1.16172202607662
1.16172202608051
1.16172202608398
1.16172202608701
1.1617220260896
1.16172202609176
1.1617220260935
1.16172202609475
1.16172202609524
1.16172202609475
1.1617220260949
1.16172199934733
1.16172199934818
1.16172199935081
1.16172199935399
1.16172199935775
1.16172199936209
1.16172199936705
1.16172199937259
1.16172199937866
1.16172199938523
1.16172199939227
1.16172199939974
1.1617219994076
1.16172199941581
1.16172199942433
1.16172199943311
1.1617219994421
1.16172199945127
1.16172199946057
1.16172199946994
1.16172199947935
1.16172199948875
1.1617219994981
1.16172199950736
1.16172199951649
1.16172199952546
1.16172199953423
1.16172199954277
1.16172199955105
1.16172199955904
1.16172199956673
1.16172199957409
1.1617219995811
1.16172199958774
1.161721999594
1.16172199959987
1.16172199960534
1.16172199961039
1.16172199961502
1.16172199961922
1.16172199962298
1.16172199962632
1.16172199962921
1.16172199963167
1.1617219996337
1.16172199963531
1.16172199963643
1.16172199963678
1.16172199963619
1.16172199963626
1.16172197289331
1.16172197289423
1.16172197289694
1.16172197290019
1.16172197290399
1.16172197290834
1.1617219729133
1.16172197291883
1.16172197292487
1.1617219729314
1.16172197293838
1.16172197294578
1.16172197295356
1.16172197296168
1.16172197297009
1.16172197297876
1.16172197298764
1.16172197299669
1.16172197300586
1.1617219730151
1.16172197302437
1.16172197303364
1.16172197304285
1.16172197305197
1.16172197306096
1.16172197306979
1.16172197307841
1.16172197308681
1.16172197309495
1.1617219731028
1.16172197311035
1.16172197311757
1.16172197312444
1.16172197313095
1.16172197313708
1.16172197314281
1.16172197314815
1.16172197315307
1.16172197315756
1.16172197316163
1.16172197316527
1.16172197316847
1.16172197317124
1.16172197317357
1.16172197317547
1.16172197317695
1.16172197317793
1.16172197317815
1.16172197317746
1.16172197317745
1.16172194643899
1.16172194643998
1.16172194644276
1.16172194644608
1.16172194644992
1.16172194645429
1.16172194645925
1.16172194646476
1.16172194647077
1.16172194647726
1.16172194648419
1.16172194649152
1.16172194649921
1.16172194650724
1.16172194651556
1.16172194652412
1.16172194653289
1.16172194654182
1.16172194655086
1.16172194655998
1.16172194656912
1.16172194657825
1.16172194658733
1.16172194659631
1.16172194660516
1.16172194661385
1.16172194662233
1.16172194663059
1.16172194663859
1.16172194664631
1.16172194665372
1.16172194666081
1.16172194666754
1.16172194667392
1.16172194667991
1.16172194668552
1.16172194669072
1.16172194669551
1.16172194669989
1.16172194670383
1.16172194670734
1.16172194671041
1.16172194671305
1.16172194671525
1.16172194671702
1.16172194671839
1.16172194671924
1.16172194671932
1.16172194671852
1.16172194671843
1.16172191998431
1.16172191998538
1.16172191998823
1.16172191999162
1.16172191999551
1.16172191999989
1.16172192000485
1.16172192001034
1.16172192001632
1.16172192002277
1.16172192002964
1.1617219200369
1.16172192004452
1.16172192005246
1.16172192006068
1.16172192006914
1.1617219200778
1.16172192008661
1.16172192009554
1.16172192010453
1.16172192011355
1.16172192012255
1.16172192013149
1.16172192014034
1.16172192014906
1.16172192015761
1.16172192016596
1.16172192017408
1.16172192018195
1.16172192018953
1.16172192019681
1.16172192020376
1.16172192021037
1.16172192021661
1.16172192022248
1.16172192022796
1.16172192023304
1.1617219202377
1.16172192024195
1.16172192024577
1.16172192024915
1.1617219202521
1.16172192025462
1.16172192025669
1.16172192025834
1.16172192025959
1.16172192026031
1.16172192026026
1.16172192025935
1.16172192025918
1.16172189352924
1.16172189353037
1.1617218935333
1.16172189353678
1.1617218935407
1.16172189354508
1.16172189355004
1.16172189355552
1.16172189356147
1.16172189356787
1.16172189357469
1.16172189358189
1.16172189358944
1.16172189359729
1.16172189360542
1.16172189361378
1.16172189362233
1.16172189363103
1.16172189363984
1.16172189364871
1.16172189365761
1.16172189366648
1.1617218936753
1.16172189368402
1.16172189369261
1.16172189370103
1.16172189370925
1.16172189371724
1.16172189372498
1.16172189373243
1.16172189373958
1.1617218937464
1.16172189375288
1.161721893759
1.16172189376474
1.1617218937701
1.16172189377505
1.1617218937796
1.16172189378372
1.16172189378742
1.16172189379068
1.16172189379351
1.1617218937959
1.16172189379786
1.1617218937994
1.16172189380053
1.16172189380113
1.16172189380093
1.16172189379991
1.16172189379966
1.16172186707371
1.16172186707492
1.16172186707793
1.16172186708149
1.16172186708546
1.16172186708984
1.16172186709479
1.16172186710025
1.16172186710618
1.16172186711254
1.1617218671193
1.16172186712644
1.16172186713391
1.16172186714169
1.16172186714973
1.16172186715799
1.16172186716644
1.16172186717504
1.16172186718373
1.16172186719249
1.16172186720127
1.16172186721002
1.16172186721871
1.16172186722731
1.16172186723577
1.16172186724407
1.16172186725216
1.16172186726003
1.16172186726764
1.16172186727496
1.16172186728199
1.16172186728869
1.16172186729504
1.16172186730104
1.16172186730667
1.1617218673119
1.16172186731674
1.16172186732116