/*--------------------------------*- C++ -*----------------------------------*\
  =========                 |
  \\      /  F ield         | OpenFOAM: The Open Source CFD Toolbox
   \\    /   O peration     | Website:  https://openfoam.org
    \\  /    A nd           | Version:  10
     \\/     M anipulation  |
\*---------------------------------------------------------------------------*/
FoamFile
{
    format      ascii;
    class       volScalarField;
    location    "2";
    object      T;
}
// * * * * * * * * * * * * * * * * * * * * * * * * * * * * * * * * * * * * * //

dimensions      [0 0 0 1 0 0 0];

internalField   nonuniform List<scalar> 
2500
(
305.269647283925
305.204967886698
305.177109882192
305.169717678038
305.167946445474
305.167524489052
305.167425827492
305.167402147008
305.167395118637
305.167392953753
305.167390788726
305.167389390489
305.167388537061
305.167387446977
305.167386430779
305.167385293609
305.167384708256
305.167383976926
305.167383147885
305.167382555164
305.167381940877
305.167381209073
305.167380534079
305.167380410343
305.16738026024
305.167379828252
305.167379766513
305.167379655345
305.167379425467
305.167379622245
305.167379828758
305.167379901899
305.167380247455
305.167380736305
305.167381190572
305.167381601708
305.167382059265
305.167382446262
305.167383260545
305.167384065594
305.167385227366
305.167387645251
305.167395159736
305.167423630363
305.167539137873
305.167992107423
305.16979479643
305.177180119111
305.205449149664
305.269605263667
302.866772663951
302.735632808334
302.655288947316
302.629451526057
302.621948335324
302.619876948663
302.619342066068
302.619213854264
302.619184895349
302.619178719933
302.619176895578
302.619176230293
302.619176005277
302.619175680577
302.619175374025
302.619175027606
302.619174829178
302.619174593805
302.619174333792
302.619174101808
302.619173715597
302.619173142049
302.619172551659
302.61917253305
302.619172537099
302.619172211434
302.619172294307
302.619172284497
302.619172033908
302.619172330799
302.619172422397
302.619172120455
302.619172660648
302.619173442129
302.619173736703
302.619173867545
302.619173986306
302.619174087235
302.619174367342
302.619174885826
302.619176980898
302.619185993274
302.61922419469
302.619379963892
302.619978792109
302.622142356502
302.629645849121
302.655275847318
302.737109276143
302.869765169999
301.301200672626
301.188170946701
301.11680123865
301.092729545294
301.085651702376
301.083673938263
301.083154700962
301.083028166009
301.08299954308
301.082993593692
301.082992086134
301.082991761308
301.082991948492
301.082991898776
301.08299189802
301.08299191215
301.082991904205
301.0829918862
301.082991837075
301.082991790314
301.082991627668
301.082991361965
301.082991061832
301.082990981158
301.082991022011
301.082990953435
301.082990937916
301.082990983181
301.08299099452
301.08299110439
301.08299108735
301.082990875277
301.082991195434
301.082991740073
301.082991834981
301.08299180293
301.082991811103
301.082991786996
301.082991815685
301.082991927292
301.0829936439
301.083002067823
301.083037735243
301.083183466887
301.083743074874
301.085766654097
301.092805595377
301.116793816809
301.189801325448
301.307922999192
300.511827703667
300.445458643092
300.409521750301
300.39721334449
300.39371243247
300.392761538257
300.392514318742
300.392453763
300.392439937617
300.392437106803
300.392436403219
300.392436281605
300.392436445986
300.392436501183
300.392436529425
300.392436531572
300.392436565498
300.392436606067
300.392436603271
300.392436604046
300.392436579403
300.392436490031
300.392436357592
300.392436310083
300.392436350388
300.392436344436
300.3924363241
300.392436365891
300.392436414813
300.392436448691
300.392436432939
300.392436334855
300.392436473826
300.39243672185
300.392436750307
300.392436711471
300.392436689485
300.39243665895
300.392436634959
300.392436599577
300.39243721573
300.392440833491
300.392456525559
300.392521471033
300.392776247826
300.393728241485
300.397198878921
300.40955913405
300.446557601772
300.517922357856
300.179578228
300.148796819675
300.134727830752
300.129772531776
300.128381563314
300.128010403283
300.127914426704
300.127890728776
300.127885250282
300.127884137485
300.127883863774
300.127883824713
300.127883909329
300.12788395236
300.12788397333
300.127883979486
300.127883999408
300.127884023991
300.12788403079
300.12788403801
300.127884040025
300.127884015024
300.127883963529
300.127883950217
300.127883970541
300.127883971141
300.127883965535
300.127883986644
300.127884014572
300.127884025938
300.127884019459
300.127883984259
300.127884033631
300.127884121147
300.127884124213
300.12788410644
300.127884095679
300.127884073058
300.127884050669
300.12788402809
300.127884199741
300.127885479652
300.127891213762
300.127915051936
300.128009777613
300.128372198118
300.129738375666
300.134724476902
300.149323375968
300.183285401362
300.057422910067
300.045313609821
300.040611247663
300.038898948936
300.038417584994
300.038290275353
300.038257458421
300.03824929598
300.03824738702
300.038247000356
300.038246907203
300.038246897395
300.038246932245
300.038246952964
300.038246963637
300.03824696737
300.038246975661
300.038246985863
300.038246990428
300.038246994444
300.038246997504
300.038246988936
300.038246975052
300.038246976034
300.038246981555
300.03824698225
300.038246981051
300.038246988794
300.038246999811
300.038247005202
300.03824700283
300.038246991588
300.038247007066
300.038247031225
300.03824703091
300.038247026005
300.038247020366
300.038247008684
300.038246995116
300.038246984276
300.038247029589
300.038247437921
300.03824931408
300.038257118913
300.038288303457
300.038409429267
300.038875773161
300.040595625064
300.045513460306
300.059193089305
300.017008525363
300.012796289448
300.011383458981
300.010852723195
300.010701903063
300.010662095724
300.010651853978
300.010649293209
300.010648688551
300.010648563474
300.010648537595
300.010648538932
300.010648549109
300.010648557072
300.010648561562
300.010648564253
300.010648567122
300.010648569538
300.010648571478
300.010648573088
300.010648574386
300.010648571901
300.010648568957
300.010648570924
300.010648572523
300.010648572453
300.010648572508
300.010648574383
300.010648577823
300.010648580438
300.010648579729
300.010648576562
300.010648580817
300.010648586605
300.010648586146
300.010648584665
300.010648582369
300.010648577581
300.010648571538
300.010648567242
300.010648579466
300.010648700268
300.010649268167
300.010651627308
300.010661055942
300.010697979687
300.010841779297
300.01137286562
300.012859779235
300.017723259251
300.004724945503
300.003394007752
300.002999985097
300.002848411916
300.002804649243
300.002793062907
300.002790084875
300.002789338117
300.002789160381
300.002789123313
300.002789117016
300.002789118114
300.002789121156
300.002789123833
300.002789125707
300.002789126756
300.002789127353
300.002789128003
300.002789128663
300.002789129195
300.002789129673
300.002789129107
300.002789128577
300.002789129327
300.002789129697
300.002789129895
300.002789129966
300.00278913023
300.002789131326
300.002789132334
300.002789132219
300.002789131466
300.002789132459
300.002789133612
300.002789133318
300.002789132861
300.002789132081
300.002789130406
300.002789128222
300.002789126624
300.002789130141
300.002789164029
300.002789325582
300.002789995726
300.002792666545
300.002803157913
300.002844194866
300.002995165484
300.003411312235
300.004979595441
300.001243035042
300.000853864288
300.000749728667
300.0007091199
300.000697182922
300.00069400098
300.00069318316
300.000692977909
300.000692928773
300.000692918616
300.000692917195
300.000692917584
300.000692918469
300.000692919283
300.000692919899
300.000692920216
300.000692920383
300.000692920563
300.000692920827
300.000692921006
300.000692921038
300.000692920922
300.000692920924
300.000692921151
300.000692921226
300.000692921305
300.000692921393
300.000692921454
300.000692921714
300.000692922011
300.000692922002
300.000692921834
300.000692922022
300.000692922199
300.000692922071
300.000692921924
300.000692921701
300.000692921214
300.000692920574
300.00069292012
300.000692921084
300.000692930048
300.000692973713
300.000693154501
300.000693871863
300.000696688343
300.000707698208
300.000747934058
300.000857910139
300.001325312508
300.000312076695
300.000205338067
300.000178911393
300.000168574731
300.000165481356
300.00016464899
300.000164434829
300.00016438111
300.000164368214
300.000164365584
300.00016436527
300.000164365388
300.000164365633
300.000164365861
300.000164366038
300.000164366127
300.000164366178
300.000164366227
300.000164366313
300.000164366374
300.000164366373
300.000164366353
300.000164366376
300.000164366435
300.000164366448
300.000164366466
300.000164366506
300.000164366527
300.000164366584
300.000164366655
300.000164366653
300.000164366611
300.000164366642
300.000164366661
300.000164366615
300.000164366573
300.000164366513
300.000164366387
300.000164366226
300.000164366109
300.000164366352
300.000164368624
300.000164379911
300.000164426538
300.000164610641
300.000165331448
300.000168138354
300.000178318496
300.000206119142
300.000336642105
300.000075234359
300.000047494527
300.000041002885
300.000038479968
300.000037712381
300.000037503538
300.000037449682
300.000037436189
300.000037432949
300.000037432295
300.000037432225
300.000037432257
300.000037432321
300.00003743238
300.000037432427
300.00003743245
300.000037432465
300.000037432477
300.0000374325
300.000037432519
300.000037432524
300.000037432526
300.000037432531
300.00003743254
300.000037432541
300.000037432545
300.000037432558
300.000037432565
300.000037432576
300.00003743259
300.000037432589
300.000037432578
300.000037432582
300.000037432583
300.000037432568
300.000037432558
300.000037432543
300.000037432513
300.000037432476
300.000037432447
300.000037432507
300.000037433063
300.000037435866
300.000037447416
300.000037492797
300.000037669746
300.000038354908
300.000040821669
300.000047600203
300.000082104825
300.000017504408
300.000010619693
300.000009068655
300.000008474149
300.000008290668
300.000008240146
300.00000822707
300.000008223798
300.000008223013
300.000008222854
300.000008222836
300.000008222844
300.000008222859
300.000008222873
300.000008222883
300.000008222889
300.000008222893
300.000008222895
300.0000082229
300.000008222905
300.000008222907
300.000008222908
300.000008222909
300.000008222911
300.000008222911
300.000008222911
300.000008222914
300.000008222916
300.000008222918
300.000008222921
300.00000822292
300.000008222917
300.000008222918
300.000008222917
300.000008222913
300.000008222911
300.000008222908
300.000008222902
300.000008222894
300.000008222888
300.000008222903
300.000008223036
300.000008223708
300.000008226466
300.000008237252
300.000008279109
300.000008440133
300.000009016234
300.000010619062
300.000019322906
300.000003947387
300.000002305469
300.00000194392
300.000001807948
300.000001765493
300.000001753659
300.000001750581
300.00000174981
300.000001749625
300.000001749586
300.00000174958
300.00000174958
300.000001749583
300.000001749585
300.000001749587
300.000001749588
300.000001749588
300.000001749588
300.000001749588
300.000001749589
300.000001749589
300.00000174959
300.00000174959
300.00000174959
300.000001749589
300.000001749589
300.00000174959
300.00000174959
300.00000174959
300.000001749591
300.000001749591
300.00000174959
300.00000174959
300.00000174959
300.000001749589
300.00000174959
300.000001749589
300.000001749588
300.000001749587
300.000001749587
300.000001749592
300.000001749624
300.000001749781
300.000001750419
300.000001752899
300.000001762475
300.000001799071
300.000001929393
300.000002298322
300.000004406523
300.000000866222
300.000000488087
300.000000405627
300.000000375291
300.00000036574
300.000000363046
300.000000362339
300.000000362161
300.000000362117
300.000000362106
300.000000362103
300.000000362102
300.000000362102
300.000000362101
300.000000362101
300.0000003621
300.000000362099
300.000000362099
300.000000362098
300.000000362098
300.000000362097
300.000000362097
300.000000362097
300.000000362096
300.000000362096
300.000000362096
300.000000362096
300.000000362096
300.000000362096
300.000000362096
300.000000362096
300.000000362096
300.000000362096
300.000000362096
300.000000362096
300.000000362097
300.000000362097
300.000000362098
300.000000362098
300.0000003621
300.000000362102
300.00000036211
300.000000362147
300.000000362292
300.000000362846
300.000000364973
300.00000037305
300.000000401744
300.000000484702
300.000000977492
300.000000185954
300.000000101531
300.000000083011
300.000000076354
300.000000074252
300.000000073652
300.000000073492
300.00000007345
300.000000073439
300.000000073435
300.000000073432
300.000000073431
300.00000007343
300.000000073428
300.000000073427
300.000000073426
300.000000073425
300.000000073424
300.000000073424
300.000000073423
300.000000073423
300.000000073422
300.000000073422
300.000000073421
300.000000073421
300.000000073421
300.00000007342
300.00000007342
300.00000007342
300.00000007342
300.00000007342
300.00000007342
300.000000073421
300.000000073421
300.000000073421
300.000000073422
300.000000073423
300.000000073424
300.000000073425
300.000000073426
300.000000073427
300.000000073431
300.00000007344
300.000000073474
300.000000073596
300.000000074057
300.0000000758
300.000000082004
300.000000100355
300.000000211963
300.000000039593
300.000000021277
300.00000001708
300.000000015604
300.000000015144
300.000000015011
300.000000014974
300.000000014963
300.000000014959
300.000000014956
300.000000014954
300.000000014953
300.000000014951
300.00000001495
300.000000014948
300.000000014947
300.000000014946
300.000000014945
300.000000014945
300.000000014944
300.000000014943
300.000000014943
300.000000014942
300.000000014942
300.000000014941
300.000000014941
300.000000014941
300.000000014941
300.000000014941
300.000000014941
300.000000014941
300.000000014941
300.000000014941
300.000000014942
300.000000014942
300.000000014943
300.000000014943
300.000000014944
300.000000014945
300.000000014947
300.000000014948
300.00000001495
300.000000014954
300.000000014963
300.000000014991
300.000000015091
300.000000015466
300.000000016822
300.000000020918
300.000000045475
300.000000008825
300.000000004971
300.000000003914
300.000000003548
300.000000003442
300.000000003411
300.000000003401
300.000000003397
300.000000003394
300.000000003392
300.00000000339
300.000000003388
300.000000003386
300.000000003385
300.000000003384
300.000000003382
300.000000003381
300.00000000338
300.00000000338
300.000000003379
300.000000003378
300.000000003378
300.000000003377
300.000000003377
300.000000003376
300.000000003376
300.000000003376
300.000000003376
300.000000003375
300.000000003375
300.000000003376
300.000000003376
300.000000003376
300.000000003376
300.000000003377
300.000000003378
300.000000003378
300.000000003379
300.00000000338
300.000000003382
300.000000003383
300.000000003385
300.000000003387
300.000000003391
300.000000003399
300.000000003422
300.000000003509
300.000000003846
300.000000004863
300.000000010109
300.00000000249
300.000000001721
300.000000001339
300.000000001207
300.000000001175
300.000000001166
300.000000001162
300.000000001159
300.000000001157
300.000000001154
300.000000001152
300.000000001151
300.000000001149
300.000000001148
300.000000001146
300.000000001145
300.000000001144
300.000000001143
300.000000001142
300.000000001141
300.000000001141
300.00000000114
300.000000001139
300.000000001139
300.000000001139
300.000000001138
300.000000001138
300.000000001138
300.000000001138
300.000000001138
300.000000001138
300.000000001138
300.000000001138
300.000000001139
300.000000001139
300.00000000114
300.000000001141
300.000000001142
300.000000001143
300.000000001144
300.000000001146
300.000000001148
300.00000000115
300.000000001152
300.000000001155
300.000000001163
300.000000001191
300.000000001317
300.000000001683
300.000000002755
300.00000000121
300.000000001084
300.000000000845
300.000000000761
300.000000000745
300.00000000074
300.000000000738
300.000000000735
300.000000000733
300.000000000731
300.000000000729
300.000000000727
300.000000000725
300.000000000724
300.000000000722
300.000000000721
300.00000000072
300.000000000719
300.000000000718
300.000000000717
300.000000000717
300.000000000716
300.000000000715
300.000000000715
300.000000000715
300.000000000714
300.000000000714
300.000000000714
300.000000000714
300.000000000714
300.000000000714
300.000000000714
300.000000000714
300.000000000715
300.000000000715
300.000000000716
300.000000000717
300.000000000718
300.000000000719
300.00000000072
300.000000000722
300.000000000724
300.000000000725
300.000000000728
300.00000000073
300.000000000734
300.00000000075
300.000000000833
300.000000001064
300.000000001254
300.000000000956
300.000000000961
300.000000000752
300.000000000677
300.000000000664
300.000000000661
300.000000000659
300.000000000657
300.000000000654
300.000000000652
300.00000000065
300.000000000648
300.000000000647
300.000000000645
300.000000000644
300.000000000643
300.000000000642
300.000000000641
300.00000000064
300.000000000639
300.000000000638
300.000000000637
300.000000000637
300.000000000636
300.000000000636
300.000000000636
300.000000000636
300.000000000635
300.000000000635
300.000000000635
300.000000000635
300.000000000636
300.000000000636
300.000000000636
300.000000000637
300.000000000637
300.000000000638
300.000000000639
300.00000000064
300.000000000642
300.000000000643
300.000000000645
300.000000000647
300.000000000649
300.000000000651
300.000000000654
300.000000000667
300.000000000742
300.000000000945
300.000000000953
300.000000000906
300.000000000937
300.000000000734
300.000000000662
300.00000000065
300.000000000647
300.000000000645
300.000000000643
300.00000000064
300.000000000638
300.000000000636
300.000000000635
300.000000000633
300.000000000631
300.00000000063
300.000000000629
300.000000000628
300.000000000627
300.000000000626
300.000000000625
300.000000000624
300.000000000624
300.000000000623
300.000000000622
300.000000000622
300.000000000622
300.000000000621
300.000000000621
300.000000000621
300.000000000621
300.000000000621
300.000000000622
300.000000000622
300.000000000622
300.000000000623
300.000000000624
300.000000000624
300.000000000625
300.000000000626
300.000000000628
300.000000000629
300.000000000631
300.000000000633
300.000000000635
300.000000000637
300.000000000639
300.000000000652
300.000000000725
300.000000000922
300.000000000893
300.000000000896
300.000000000933
300.000000000731
300.000000000659
300.000000000648
300.000000000645
300.000000000643
300.00000000064
300.000000000638
300.000000000636
300.000000000634
300.000000000632
300.000000000631
300.000000000629
300.000000000628
300.000000000627
300.000000000626
300.000000000624
300.000000000624
300.000000000623
300.000000000622
300.000000000621
300.000000000621
300.00000000062
300.00000000062
300.000000000619
300.000000000619
300.000000000619
300.000000000619
300.000000000619
300.000000000619
300.000000000619
300.00000000062
300.00000000062
300.000000000621
300.000000000621
300.000000000622
300.000000000623
300.000000000624
300.000000000626
300.000000000627
300.000000000629
300.00000000063
300.000000000632
300.000000000634
300.000000000637
300.000000000649
300.000000000722
300.000000000917
300.000000000881
300.000000000894
300.000000000932
300.00000000073
300.000000000659
300.000000000647
300.000000000645
300.000000000642
300.00000000064
300.000000000638
300.000000000636
300.000000000634
300.000000000632
300.000000000631
300.000000000629
300.000000000628
300.000000000626
300.000000000625
300.000000000624
300.000000000623
300.000000000622
300.000000000622
300.000000000621
300.000000000621
300.00000000062
300.00000000062
300.000000000619
300.000000000619
300.000000000619
300.000000000619
300.000000000619
300.000000000619
300.000000000619
300.000000000619
300.00000000062
300.00000000062
300.000000000621
300.000000000622
300.000000000623
300.000000000624
300.000000000625
300.000000000627
300.000000000628
300.00000000063
300.000000000632
300.000000000634
300.000000000636
300.000000000649
300.000000000722
300.000000000916
300.000000000878
300.000000000893
300.000000000931
300.00000000073
300.000000000659
300.000000000647
300.000000000645
300.000000000643
300.00000000064
300.000000000638
300.000000000636
300.000000000634
300.000000000632
300.000000000631
300.000000000629
300.000000000628
300.000000000627
300.000000000625
300.000000000624
300.000000000623
300.000000000623
300.000000000622
300.000000000621
300.000000000621
300.00000000062
300.00000000062
300.000000000619
300.000000000619
300.000000000619
300.000000000619
300.000000000619
300.000000000619
300.000000000619
300.00000000062
300.00000000062
300.000000000621
300.000000000621
300.000000000622
300.000000000623
300.000000000624
300.000000000625
300.000000000627
300.000000000629
300.00000000063
300.000000000632
300.000000000634
300.000000000636
300.000000000649
300.000000000721
300.000000000916
300.000000000878
300.000000000893
300.000000000931
300.00000000073
300.000000000659
300.000000000647
300.000000000645
300.000000000643
300.00000000064
300.000000000638
300.000000000636
300.000000000634
300.000000000632
300.000000000631
300.000000000629
300.000000000628
300.000000000627
300.000000000626
300.000000000624
300.000000000624
300.000000000623
300.000000000622
300.000000000621
300.000000000621
300.00000000062
300.00000000062
300.000000000619
300.000000000619
300.000000000619
300.000000000619
300.000000000619
300.000000000619
300.000000000619
300.00000000062
300.00000000062
300.000000000621
300.000000000621
300.000000000622
300.000000000623
300.000000000624
300.000000000626
300.000000000627
300.000000000629
300.00000000063
300.000000000632
300.000000000634
300.000000000636
300.000000000649
300.000000000721
300.000000000916
300.000000000877
300.000000000893
300.000000000931
300.00000000073
300.000000000659
300.000000000647
300.000000000645
300.000000000642
300.00000000064
300.000000000638
300.000000000636
300.000000000634
300.000000000632
300.000000000631
300.000000000629
300.000000000628
300.000000000627
300.000000000625
300.000000000624
300.000000000623
300.000000000623
300.000000000622
300.000000000621
300.000000000621
300.00000000062
300.00000000062
300.000000000619
300.000000000619
300.000000000619
300.000000000619
300.000000000619
300.000000000619
300.000000000619
300.00000000062
300.00000000062
300.000000000621
300.000000000621
300.000000000622
300.000000000623
300.000000000624
300.000000000626
300.000000000627
300.000000000629
300.00000000063
300.000000000632
300.000000000634
300.000000000636
300.000000000649
300.000000000721
300.000000000916
300.000000000877
300.000000000893
300.000000000931
300.00000000073
300.000000000659
300.000000000647
300.000000000644
300.000000000642
300.00000000064
300.000000000638
300.000000000636
300.000000000634
300.000000000632
300.000000000631
300.000000000629
300.000000000628
300.000000000626
300.000000000625
300.000000000624
300.000000000623
300.000000000622
300.000000000622
300.000000000621
300.00000000062
300.00000000062
300.00000000062
300.000000000619
300.000000000619
300.000000000619
300.000000000619
300.000000000619
300.000000000619
300.000000000619
300.000000000619
300.00000000062
300.00000000062
300.000000000621
300.000000000622
300.000000000623
300.000000000624
300.000000000625
300.000000000627
300.000000000628
300.00000000063
300.000000000632
300.000000000634
300.000000000636
300.000000000649
300.000000000721
300.000000000916
300.000000000877
300.000000000893
300.000000000931
300.00000000073
300.000000000658
300.000000000647
300.000000000644
300.000000000642
300.00000000064
300.000000000638
300.000000000636
300.000000000634
300.000000000632
300.00000000063
300.000000000629
300.000000000627
300.000000000626
300.000000000625
300.000000000624
300.000000000623
300.000000000622
300.000000000621
300.000000000621
300.00000000062
300.00000000062
300.000000000619
300.000000000619
300.000000000619
300.000000000619
300.000000000619
300.000000000619
300.000000000619
300.000000000619
300.000000000619
300.00000000062
300.00000000062
300.000000000621
300.000000000622
300.000000000623
300.000000000624
300.000000000625
300.000000000627
300.000000000628
300.00000000063
300.000000000632
300.000000000634
300.000000000636
300.000000000649
300.000000000721
300.000000000916
300.000000000877
300.000000000893
300.000000000931
300.00000000073
300.000000000658
300.000000000646
300.000000000644
300.000000000642
300.000000000639
300.000000000637
300.000000000635
300.000000000633
300.000000000631
300.00000000063
300.000000000628
300.000000000627
300.000000000626
300.000000000624
300.000000000623
300.000000000623
300.000000000622
300.000000000621
300.00000000062
300.00000000062
300.000000000619
300.000000000619
300.000000000619
300.000000000618
300.000000000618
300.000000000618
300.000000000618
300.000000000618
300.000000000619
300.000000000619
300.000000000619
300.00000000062
300.000000000621
300.000000000621
300.000000000622
300.000000000623
300.000000000625
300.000000000626
300.000000000628
300.00000000063
300.000000000632
300.000000000633
300.000000000636
300.000000000649
300.000000000721
300.000000000916
300.000000000878
300.000000000893
300.000000000931
300.00000000073
300.000000000658
300.000000000646
300.000000000643
300.000000000641
300.000000000639
300.000000000637
300.000000000634
300.000000000633
300.000000000631
300.000000000629
300.000000000628
300.000000000626
300.000000000625
300.000000000624
300.000000000623
300.000000000622
300.000000000621
300.000000000621
300.00000000062
300.000000000619
300.000000000619
300.000000000618
300.000000000618
300.000000000618
300.000000000618
300.000000000618
300.000000000618
300.000000000618
300.000000000618
300.000000000618
300.000000000619
300.000000000619
300.00000000062
300.000000000621
300.000000000622
300.000000000623
300.000000000624
300.000000000626
300.000000000627
300.000000000629
300.000000000631
300.000000000633
300.000000000636
300.000000000649
300.000000000721
300.000000000916
300.000000000878
300.000000000893
300.000000000931
300.000000000729
300.000000000658
300.000000000646
300.000000000643
300.00000000064
300.000000000638
300.000000000636
300.000000000634
300.000000000632
300.00000000063
300.000000000628
300.000000000627
300.000000000626
300.000000000624
300.000000000623
300.000000000622
300.000000000621
300.000000000621
300.00000000062
300.000000000619
300.000000000619
300.000000000618
300.000000000618
300.000000000618
300.000000000617
300.000000000617
300.000000000617
300.000000000617
300.000000000617
300.000000000618
300.000000000618
300.000000000618
300.000000000619
300.00000000062
300.00000000062
300.000000000621
300.000000000622
300.000000000624
300.000000000625
300.000000000627
300.000000000629
300.000000000631
300.000000000633
300.000000000636
300.000000000649
300.000000000722
300.000000000917
300.000000000879
300.000000000894
300.000000000931
300.000000000729
300.000000000657
300.000000000645
300.000000000642
300.00000000064
300.000000000637
300.000000000635
300.000000000633
300.000000000631
300.000000000629
300.000000000627
300.000000000626
300.000000000625
300.000000000624
300.000000000622
300.000000000621
300.000000000621
300.00000000062
300.000000000619
300.000000000619
300.000000000618
300.000000000618
300.000000000617
300.000000000617
300.000000000617
300.000000000617
300.000000000617
300.000000000617
300.000000000617
300.000000000617
300.000000000617
300.000000000618
300.000000000618
300.000000000619
300.00000000062
300.000000000621
300.000000000622
300.000000000623
300.000000000625
300.000000000626
300.000000000628
300.00000000063
300.000000000632
300.000000000636
300.000000000649
300.000000000722
300.000000000917
300.000000000879
300.000000000894
300.000000000931
300.000000000729
300.000000000657
300.000000000645
300.000000000641
300.000000000639
300.000000000636
300.000000000634
300.000000000632
300.00000000063
300.000000000628
300.000000000626
300.000000000625
300.000000000624
300.000000000623
300.000000000622
300.000000000621
300.00000000062
300.000000000619
300.000000000618
300.000000000618
300.000000000617
300.000000000617
300.000000000616
300.000000000616
300.000000000616
300.000000000616
300.000000000616
300.000000000616
300.000000000616
300.000000000616
300.000000000616
300.000000000617
300.000000000617
300.000000000618
300.000000000619
300.00000000062
300.000000000621
300.000000000622
300.000000000624
300.000000000626
300.000000000628
300.00000000063
300.000000000632
300.000000000635
300.000000000648
300.000000000722
300.000000000918
300.00000000088
300.000000000895
300.000000000932
300.000000000729
300.000000000657
300.000000000644
300.000000000641
300.000000000638
300.000000000635
300.000000000633
300.000000000631
300.000000000629
300.000000000627
300.000000000625
300.000000000624
300.000000000623
300.000000000622
300.000000000621
300.00000000062
300.000000000619
300.000000000618
300.000000000617
300.000000000617
300.000000000616
300.000000000616
300.000000000616
300.000000000615
300.000000000615
300.000000000615
300.000000000615
300.000000000615
300.000000000615
300.000000000615
300.000000000616
300.000000000616
300.000000000617
300.000000000617
300.000000000618
300.000000000619
300.00000000062
300.000000000621
300.000000000623
300.000000000625
300.000000000627
300.000000000629
300.000000000632
300.000000000635
300.000000000648
300.000000000722
300.000000000919
300.000000000882
300.000000000896
300.000000000932
300.000000000729
300.000000000656
300.000000000643
300.000000000639
300.000000000637
300.000000000634
300.000000000631
300.000000000629
300.000000000627
300.000000000626
300.000000000624
300.000000000623
300.000000000621
300.00000000062
300.000000000619
300.000000000619
300.000000000618
300.000000000617
300.000000000616
300.000000000616
300.000000000615
300.000000000615
300.000000000615
300.000000000614
300.000000000614
300.000000000614
300.000000000614
300.000000000614
300.000000000614
300.000000000614
300.000000000615
300.000000000615
300.000000000616
300.000000000616
300.000000000617