/*--------------------------------*- C++ -*----------------------------------*\
  =========                 |
  \\      /  F ield         | OpenFOAM: The Open Source CFD Toolbox
   \\    /   O peration     | Website:  https://openfoam.org
    \\  /    A nd           | Version:  10
     \\/     M anipulation  |
\*---------------------------------------------------------------------------*/
FoamFile
{
    format      ascii;
    class       volVectorField;
    location    "2";
    object      U;
}
// * * * * * * * * * * * * * * * * * * * * * * * * * * * * * * * * * * * * * //

dimensions      [0 1 -1 0 0 0 0];

internalField   nonuniform List<vector> 
2500
(
(-1.93611516705064e-06 -1.98825787673357e-05 5.00575513208383e-25)
(-3.6995865288521e-06 -2.15742238702652e-05 6.77302755248389e-24)
(-2.49728447065894e-06 -2.20479732024988e-05 5.40152019121834e-25)
(-1.73890495934123e-06 -2.16955763568747e-05 -2.43056812463275e-25)
(-1.32107518102397e-06 -2.15024816913503e-05 -8.43107113785728e-26)
(-1.04573011314473e-06 -2.14143396727922e-05 6.28388340344852e-25)
(-8.66403953162183e-07 -2.13802764639498e-05 1.11071963984418e-25)
(-7.58686349278819e-07 -2.13691374373222e-05 1.94165356236341e-25)
(-6.81887502205549e-07 -2.13647361196671e-05 1.2567366196895e-24)
(-6.25603923294005e-07 -2.13626922147695e-05 3.43052035835812e-24)
(-5.82263334712151e-07 -2.13614162699956e-05 -9.26698679003922e-25)
(-5.47740731038206e-07 -2.13604480311016e-05 2.11678302206206e-24)
(-5.1936389178185e-07 -2.13596291435465e-05 7.04505899329057e-24)
(-4.95315323742253e-07 -2.13588824869691e-05 -9.76970419704497e-25)
(-4.74379307921804e-07 -2.13581866702681e-05 2.5204085917554e-24)
(-4.5564293440987e-07 -2.13575314260071e-05 -1.13919389401699e-25)
(-4.38422324761162e-07 -2.13569066747079e-05 6.17607697411897e-24)
(-4.22199889119759e-07 -2.13562984539325e-05 5.61054930766791e-24)
(-4.0657638416001e-07 -2.13557165458675e-05 3.53960972326204e-25)
(-3.91233435987761e-07 -2.13551531933722e-05 5.99776462113197e-24)
(-3.75901049963969e-07 -2.13546092909915e-05 6.07433605430111e-25)
(-3.60360198993288e-07 -2.13540830020069e-05 1.04155611652043e-24)
(-3.44416790485273e-07 -2.13535689201944e-05 1.87191528426294e-24)
(-3.27915450956558e-07 -2.13530877895699e-05 -4.00497694566989e-26)
(-3.10723022460241e-07 -2.13526235240104e-05 1.07848196617509e-24)
(-2.92672127686601e-07 -2.13521760254718e-05 3.56480901203007e-24)
(-2.73621173254279e-07 -2.13517464247069e-05 9.03747982148806e-25)
(-2.53431274850104e-07 -2.13513467378113e-05 -1.33438673200055e-24)
(-2.3190959097554e-07 -2.13509703000939e-05 9.56808459009809e-25)
(-2.0889153987764e-07 -2.13506172140109e-05 4.81174261782262e-25)
(-1.84189953129868e-07 -2.13502931200578e-05 -9.85989449141348e-25)
(-1.57545841298596e-07 -2.1350005327676e-05 5.91586589801173e-25)
(-1.28681413467382e-07 -2.13497292701352e-05 -1.10161036199606e-24)
(-9.72693088132078e-08 -2.13494878568593e-05 -9.57835033088685e-25)
(-6.29043835831523e-08 -2.13493080347716e-05 5.60060141859304e-25)
(-2.50753541090004e-08 -2.13491779733911e-05 4.98847130849562e-24)
(1.68940643130567e-08 -2.13491215317655e-05 -3.87512378384346e-24)
(6.38786565898924e-08 -2.13491549000756e-05 -2.67341476654741e-25)
(1.17079579479146e-07 -2.13493181222644e-05 -5.87089270943126e-25)
(1.78238831231279e-07 -2.13496958942888e-05 1.01340394540309e-24)
(2.49990729122034e-07 -2.13504947326068e-05 -5.76324327507568e-24)
(3.3654654944851e-07 -2.13522653263487e-05 -3.27130374658938e-24)
(4.45671079887107e-07 -2.13567695085571e-05 3.1901541473244e-24)
(5.88364470382667e-07 -2.13686662181615e-05 -2.85541200049427e-24)
(8.04961987723427e-07 -2.14037675427084e-05 -5.18653225329768e-24)
(1.12651229618652e-06 -2.14922635238719e-05 3.98170193944001e-24)
(1.5933704347832e-06 -2.16802933861802e-05 3.65365015680236e-26)
(2.41137715141893e-06 -2.20328813515388e-05 -4.9136925538268e-24)
(3.6993586899648e-06 -2.15634009305274e-05 3.40534345418736e-24)
(1.96142894001292e-06 -1.9750665834115e-05 -5.3554499988352e-24)
(-9.45071701854326e-07 -1.68760596614031e-05 1.55079816941276e-24)
(-5.12616078603842e-06 -1.85399352456527e-05 8.673328043642e-24)
(-4.03340304594485e-06 -1.89885162461112e-05 1.72991391053236e-24)
(-2.90743130041582e-06 -1.82170257035332e-05 2.95585569992064e-25)
(-2.44138736457515e-06 -1.77780702424544e-05 9.92346004543785e-24)
(-2.05479136219331e-06 -1.75538663724629e-05 3.52510617924429e-24)
(-1.748757634222e-06 -1.74498935323345e-05 7.07951201839275e-25)
(-1.5284577808317e-06 -1.74006808392471e-05 1.00902394956663e-24)
(-1.35336464896579e-06 -1.73734877835828e-05 5.27622023554491e-24)
(-1.21457722286444e-06 -1.735581995652e-05 3.49064426875727e-24)
(-1.10197953877102e-06 -1.73428238708094e-05 -2.05822167011365e-24)
(-1.00881169809192e-06 -1.73325310936945e-05 1.03178277077642e-25)
(-9.30176031590946e-07 -1.73240184936403e-05 3.11342576726936e-24)
(-8.62560776624834e-07 -1.73167334434401e-05 -2.75907943456185e-24)
(-8.03433698317536e-07 -1.73103550381841e-05 2.19990238937434e-24)
(-7.50857551798175e-07 -1.73047025564796e-05 8.47678478234595e-25)
(-7.03333745117933e-07 -1.72996229933442e-05 1.07317248140173e-24)
(-6.59685267317999e-07 -1.72950263108699e-05 3.35590069610904e-24)
(-6.18976807109993e-07 -1.72908464565347e-05 2.04519063914104e-24)
(-5.8042396320699e-07 -1.72870222380967e-05 6.3666490536486e-24)
(-5.43362044998541e-07 -1.72835345965595e-05 2.21780945590289e-24)
(-5.0720697093847e-07 -1.72803488039673e-05 4.65369401802197e-24)
(-4.71457804276785e-07 -1.72774467191831e-05 1.20350346123898e-25)
(-4.35669812810143e-07 -1.72748496316291e-05 8.14746443706394e-25)
(-3.99424722521196e-07 -1.72725246568715e-05 3.64201679193434e-24)
(-3.62291056627631e-07 -1.72704689306261e-05 2.33364832792245e-24)
(-3.23852571803177e-07 -1.72687029124923e-05 2.98505869420174e-24)
(-2.836992514312e-07 -1.72672304610989e-05 -3.77846321513647e-24)
(-2.41364131983936e-07 -1.72660462607903e-05 -1.46599965152684e-24)
(-1.96380497551198e-07 -1.72651855198957e-05 2.78783139231713e-24)
(-1.48227873677987e-07 -1.72646856713261e-05 -3.55377662236731e-24)
(-9.62749551056012e-08 -1.72645682330583e-05 1.48897592036695e-24)
(-3.98424603664495e-08 -1.72648567657911e-05 -3.66336913385494e-24)
(2.1840753159218e-08 -1.72656355479456e-05 -3.49770129197127e-24)
(8.97490622728857e-08 -1.72670021925525e-05 2.63833648665009e-24)
(1.65056867416963e-07 -1.72690535328655e-05 -4.97817540186245e-25)
(2.49249083375427e-07 -1.72719711518033e-05 -1.10096317816928e-24)
(3.44214129640826e-07 -1.72759737710874e-05 -9.27303379095534e-25)
(4.52432705839904e-07 -1.72814139719066e-05 -2.57931970019616e-24)
(5.77328649766125e-07 -1.72889011387915e-05 -4.80420497168104e-24)
(7.23711626410818e-07 -1.72995083328037e-05 6.78753809358527e-25)
(8.98361343472911e-07 -1.73154555995464e-05 2.8306727456034e-24)
(1.11160304655432e-06 -1.73420597348801e-05 -5.94188619597799e-25)
(1.3734162130297e-06 -1.73925801516591e-05 1.19518430469023e-24)
(1.72483706300334e-06 -1.74997470745887e-05 1.44355330632274e-24)
(2.17289290366843e-06 -1.77273133182859e-05 8.18959500586875e-25)
(2.70137637268139e-06 -1.81649499229814e-05 3.53603631625253e-24)
(3.90447415633986e-06 -1.89628328290575e-05 2.32307531959785e-24)
(5.18951908921669e-06 -1.85211125905355e-05 -2.20246222331861e-24)
(1.05167565423724e-06 -1.67246013397559e-05 1.40884344321174e-24)
(-9.7271113331015e-07 1.50498522724854e-05 2.34697145319128e-24)
(-3.12805392910768e-06 1.59586737021694e-05 9.50229480266268e-24)
(-3.17163888590768e-06 1.36589789904854e-05 2.64637967263996e-24)
(-2.85586547254618e-06 1.33190519612866e-05 8.29196204590948e-25)
(-2.63458744684179e-06 1.33069289194992e-05 -9.47091592137792e-25)
(-2.30368848363261e-06 1.33955538572329e-05 4.34117691759208e-24)
(-1.9944630389298e-06 1.34833804946928e-05 1.21497410848611e-24)
(-1.75422739447741e-06 1.35494623535635e-05 1.57267852203011e-24)
(-1.55649095575093e-06 1.35973293598215e-05 2.95888976880311e-24)
(-1.39628599486103e-06 1.36330466957506e-05 2.40920572453359e-24)
(-1.26451425215139e-06 1.36607532008321e-05 2.99560365293858e-24)
(-1.15439398971071e-06 1.36830467358061e-05 2.59341836651508e-24)
(-1.06081246930196e-06 1.37014923828763e-05 -3.68433893415806e-25)
(-9.80017780582563e-07 1.37171303313693e-05 9.09355633506994e-25)
(-9.09176385778082e-07 1.3730662781498e-05 1.45809625043994e-24)
(-8.46110622907071e-07 1.37425184765514e-05 1.7277918272378e-24)
(-7.89137469549817e-07 1.37530149807213e-05 4.05286010000184e-24)
(-7.36891824382068e-07 1.37623692599111e-05 3.83133692185166e-24)
(-6.8826617664407e-07 1.37707555819611e-05 3.22973787960068e-24)
(-6.42346203180327e-07 1.37782865826069e-05 4.81279331786456e-24)
(-5.98344107047794e-07 1.37850402502801e-05 3.17229749567363e-24)
(-5.55569368505056e-07 1.37910930703969e-05 2.1567029700034e-24)
(-5.13430537952211e-07 1.37964676720673e-05 3.14907314097199e-24)
(-4.71370276143315e-07 1.38011966279058e-05 1.39202196680018e-24)
(-4.28867436290764e-07 1.38052914292755e-05 -5.70152693598531e-25)
(-3.8542861197011e-07 1.38087631624512e-05 4.64077525580756e-24)
(-3.40542758220064e-07 1.38115935182462e-05 -6.51795075760829e-25)
(-2.93705024123703e-07 1.38137792177124e-05 -3.99110250231652e-24)
(-2.4439987308997e-07 1.38152949295403e-05 1.28315051371343e-24)
(-1.92052287426732e-07 1.38160912015326e-05 3.5258126708587e-24)
(-1.36014278926094e-07 1.38161071058326e-05 -4.43455729314186e-24)
(-7.5587282824564e-08 1.38152788852566e-05 -3.66754774054067e-24)
(-9.97190071448381e-09 1.38134813188528e-05 -3.06674941577084e-24)
(6.17615564334786e-08 1.38105860124503e-05 -3.81892141869428e-24)
(1.40718138372807e-07 1.38064145363098e-05 -7.58195311651303e-25)
(2.28230555303781e-07 1.38007081759244e-05 2.1800316341056e-24)
(3.25980606111445e-07 1.37930988834828e-05 -2.21449588609193e-24)
(4.36077028409795e-07 1.37830955424881e-05 -1.25465821441784e-24)
(5.61240720650041e-07 1.37699789736004e-05 1.16995331882393e-24)
(7.05140775492523e-07 1.37526200680152e-05 -5.65347889363432e-25)
(8.72764017254508e-07 1.37292973916113e-05 -9.69843410455866e-25)
(1.07075393931886e-06 1.36972619256858e-05 -2.5067987676866e-25)
(1.30819043401243e-06 1.36520913695947e-05 5.47789473759938e-24)
(1.59044194853598e-06 1.3587321822751e-05 -4.17462474862652e-25)
(1.94262922475346e-06 1.34992628970989e-05 -5.09136283853232e-25)
(2.32797400649311e-06 1.34073903196165e-05 2.70906539934298e-24)
(2.60048939298315e-06 1.34046509359121e-05 3.54424041840392e-25)
(2.99620671369186e-06 1.36688751936966e-05 4.06035097526903e-25)
(3.12389614398228e-06 1.60087521389877e-05 4.12147834695759e-24)
(1.01119084686918e-06 1.50593145152178e-05 -4.16529391702844e-25)
(-2.6027205721511e-06 1.56134204801137e-05 2.13356549926277e-24)
(-2.13896380072352e-06 1.32541995388122e-05 1.7336748735969e-23)
(-2.74142913046097e-06 9.25479608816442e-06 2.34013128512804e-24)
(-2.68771669930047e-06 8.45425236366184e-06 7.09595565039269e-25)
(-2.53752535121312e-06 8.29698200326996e-06 2.59853766736122e-24)
(-2.2424458107164e-06 8.36953598145337e-06 3.77097798767083e-24)
(-1.96016071400328e-06 8.47612037813839e-06 7.63306870116854e-25)
(-1.73967186466607e-06 8.56677076663874e-06 9.77281731732485e-25)
(-1.55789451110724e-06 8.63585987316346e-06 5.38733827886023e-24)
(-1.41015517778112e-06 8.68882236604141e-06 9.40618355177077e-24)
(-1.288263408279e-06 8.73040763080276e-06 -1.21233492016294e-24)
(-1.18611427958887e-06 8.76401652783202e-06 7.20160547853729e-24)
(-1.09909871790147e-06 8.79183049118789e-06 8.97873640394797e-24)
(-1.02378698728914e-06 8.81534557904852e-06 -1.7430781839824e-24)
(-9.57545724259559e-07 8.83559762469712e-06 1.06628438804484e-23)
(-8.98352769573335e-07 8.85325287111607e-06 2.00679727727488e-24)
(-8.4462018104684e-07 8.86878738925351e-06 6.71935464436e-24)
(-7.95046681782363e-07 8.88256262455375e-06 9.14393888294979e-24)
(-7.48587461334518e-07 8.89481874307103e-06 2.68116127322584e-24)
(-7.04365456702761e-07 8.9057353219422e-06 1.09659098958024e-23)
(-6.61633227309254e-07 8.91544799908241e-06 2.30933111539205e-24)
(-6.19744000679375e-07 8.92405127912142e-06 4.87783390575299e-24)
(-5.78121123499309e-07 8.93162444120034e-06 6.80556560974656e-24)
(-5.36239961438201e-07 8.93821540474523e-06 1.23076885326226e-24)
(-4.93609637640354e-07 8.94383447662614e-06 3.71672203418226e-24)
(-4.49763163803203e-07 8.94848638133312e-06 7.97527171577795e-24)
(-4.04232161407402e-07 8.95218244620714e-06 3.07588888424366e-24)
(-3.5653866657393e-07 8.95487545001777e-06 -3.07826021144531e-24)
(-3.06190877997454e-07 8.95653689428329e-06 5.68526068948279e-24)
(-2.52648665162822e-07 8.95710671462708e-06 3.15751174723654e-24)
(-1.95304345127716e-07 8.95649451776802e-06 -3.34850908681973e-24)
(-1.33507423744784e-07 8.9545666627112e-06 1.42336721343541e-24)
(-6.65035785592002e-08 8.95117782390096e-06 -3.48960160907493e-24)
(6.59672956116598e-09 8.94610956930132e-06 -3.31670512309547e-24)
(8.68263433059944e-08 8.93907718599826e-06 2.99877096237406e-24)
(1.75422153499819e-07 8.92969235081802e-06 5.97395283397404e-24)
(2.73943894958019e-07 8.91741919810782e-06 -5.60305933551569e-24)
(3.84335715747781e-07 8.90152582084228e-06 -1.06291248772418e-24)
(5.09083777586524e-07 8.88094999651068e-06 -2.47732158715104e-24)
(6.51494041673412e-07 8.85406916345986e-06 3.37664695851693e-24)
(8.16004818873315e-07 8.81853413784536e-06 -5.9990885896903e-24)
(1.00846869383015e-06 8.7707710654182e-06 -6.26710845002123e-24)
(1.23675680216266e-06 8.70569779143629e-06 4.03205933295295e-24)
(1.50511312655895e-06 8.61740687237532e-06 -5.51693323051921e-24)
(1.83318815141988e-06 8.51142076944819e-06 -5.86340881237022e-24)
(2.18019298607372e-06 8.43666406826181e-06 4.99019941751244e-24)
(2.37695627498943e-06 8.57520989268974e-06 -6.01178632689727e-24)
(2.53232283907456e-06 9.29165187488702e-06 -6.84488146054708e-24)
(2.04034507225172e-06 1.33874559997874e-05 7.59254345200572e-24)
(2.53818579142975e-06 1.569368009732e-05 -6.09616642914189e-24)
(-1.859276872086e-06 1.15311777292032e-05 8.07200781740025e-25)
(-2.00063850755744e-06 6.58443159068203e-06 6.69328650853172e-24)
(-2.74343801541375e-06 2.9072428162735e-06 8.85196986330622e-25)
(-2.56233579355691e-06 2.34231907702951e-06 1.00286519177257e-25)
(-2.38875891876395e-06 2.30823107860658e-06 -9.17884012518882e-25)
(-2.1169971919984e-06 2.45517131399489e-06 1.48950515296362e-24)
(-1.86631081024047e-06 2.60619767139233e-06 2.33393215065216e-25)
(-1.67140980189927e-06 2.72602318117089e-06 3.04513764169269e-25)
(-1.51044370039843e-06 2.81574728021743e-06 2.14326749407524e-24)
(-1.37885554285579e-06 2.88447882706549e-06 3.14356910416659e-24)
(-1.26968642639367e-06 2.93861703230754e-06 -8.25621021215968e-25)
(-1.17775153006064e-06 2.98245251691623e-06 2.18381778111105e-24)
(-1.0991141770159e-06 3.01877161751752e-06 3.24182728981058e-24)
(-1.03078139154121e-06 3.04947478933475e-06 -9.3413137819693e-25)
(-9.70424074190833e-07 3.07584900712701e-06 3.73980717924285e-24)
(-9.16235771935805e-07 3.09877532324184e-06 6.97801636412549e-25)
(-8.66777136455809e-07 3.11889595729221e-06 2.6704532721175e-24)
(-8.20866077316347e-07 3.13666397329249e-06 3.67263000926503e-24)
(-7.77542779954066e-07 3.15240154349275e-06 9.21199687018325e-25)
(-7.3599424120208e-07 3.16635787929511e-06 3.79181362761364e-24)
(-6.95535565873922e-07 3.17870720509567e-06 7.75103102713456e-25)
(-6.55562830156756e-07 3.18958244153503e-06 1.991057922149e-24)
(-6.15548171159865e-07 3.19909110378741e-06 1.94558355818704e-24)
(-5.75013514534726e-07 3.20728137469732e-06 4.19386672585164e-25)
(-5.33504134553406e-07 3.2141986685571e-06 1.69235300156577e-24)
(-4.90586968150032e-07 3.21983204160824e-06 2.37580875482676e-24)
(-4.45840996101297e-07 3.22419545113094e-06 1.38281151608541e-24)
(-3.98827127134782e-07 3.22724691143132e-06 -1.37868537383051e-24)
(-3.49088414589886e-07 3.22893567141877e-06 1.60500570064844e-24)
(-2.96133025484357e-07 3.229175749109e-06 1.33459600564125e-24)
(-2.39405224947536e-07 3.22784385560073e-06 -1.44643683000379e-24)
(-1.78308174403443e-07 3.22477870814315e-06 9.4216187030196e-25)
(-1.12147927915306e-07 3.21978394465158e-06 -1.6086187620173e-24)
(-4.01182213991381e-08 3.2125749062542e-06 -1.47519643212409e-24)
(3.87192354221993e-08 3.20276381501237e-06 1.33802267077164e-24)
(1.25483377250966e-07 3.18985541905607e-06 1.66886188190562e-24)
(2.21562551933002e-07 3.17315866391976e-06 -1.50823867441444e-24)
(3.28666942084516e-07 3.1517430539997e-06 -3.56537332871796e-25)
(4.48961152379533e-07 3.1242535106125e-06 -1.02121138970235e-24)
(5.85276112412482e-07 3.08865088811466e-06 4.88860812253602e-24)
(7.41331553490743e-07 3.0419972883405e-06 -1.58133413964e-24)
(9.21970310298234e-07 2.97977928263772e-06 -1.66364646947754e-24)
(1.13362143719813e-06 2.89521586425387e-06 4.34730323783547e-24)
(1.37998827425478e-06 2.77875104426824e-06 -1.42440502322564e-24)
(1.67866244419339e-06 2.62921673997237e-06 -1.63779306992929e-24)
(2.00174341055124e-06 2.4805478904235e-06 4.76199636848837e-24)
(2.2204283921144e-06 2.48858345599571e-06 -1.67347783085138e-24)
(2.52093421402441e-06 2.9656192528848e-06 -1.7421716240864e-24)
(1.8635678580181e-06 6.76482704372674e-06 5.00453591672862e-24)
(1.76938214218015e-06 1.17314899405016e-05 -2.3347686344146e-24)
(-9.00325439485951e-07 8.67762557282339e-06 2.44279276018113e-25)
(-1.90889129909546e-06 2.83181452580929e-06 3.48198353993553e-24)
(-2.63417183074223e-06 -4.07052734106276e-07 2.6747320598248e-25)
(-2.39064783835469e-06 -8.10319741242422e-07 5.69598198831329e-26)
(-2.22496116226795e-06 -7.47401079221663e-07 8.3087236646666e-25)
(-1.99106552222138e-06 -5.44226989676575e-07 1.37175150575825e-24)
(-1.77483842827048e-06 -3.58409059596246e-07 1.03915543318876e-25)
(-1.60435283718595e-06 -2.15140900062351e-07 1.03444567513487e-25)
(-1.46165238476387e-06 -1.08136286700042e-07 1.2481541507416e-24)
(-1.34335035913492e-06 -2.58632077900281e-08 1.47807212653089e-24)
(-1.24411636206558e-06 3.92721822263614e-08 -1.18258966831951e-24)
(-1.15980773552858e-06 9.22014323240103e-08 5.0331126915331e-25)
(-1.08717432113752e-06 1.36167719642613e-07 1.71305882318672e-24)
(-1.02368155394361e-06 1.73364206679588e-07 -1.08868014992271e-24)
(-9.67309430713289e-07 2.05307598137818e-07 1.76434048618735e-24)
(-9.16446445609272e-07 2.33039445779497e-07 2.03577512085827e-25)
(-8.69798305466368e-07 2.57331665359638e-07 6.84687736558477e-25)
(-8.26288861195731e-07 2.78718223650864e-07 1.44985840554463e-24)
(-7.85029472086051e-07 2.97614442352803e-07 3.00656899365098e-25)
(-7.45265327690149e-07 3.14308613186267e-07 1.81188256726951e-24)
(-7.06356681404585e-07 3.29025601382499e-07 2.55295298679068e-25)
(-6.67738429699327e-07 3.41931864874529e-07 1.2242428146266e-24)
(-6.28913753328283e-07 3.53139315880733e-07 5.03687009899308e-25)
(-5.89426657742917e-07 3.62728022131007e-07 1.49143171211674e-25)
(-5.48856837196926e-07 3.70746272921076e-07 1.41491032074683e-24)
(-5.06798724362334e-07 3.77208287435987e-07 6.45075758769092e-25)
(-4.62848965252285e-07 3.82093760088862e-07 1.22231870101429e-24)
(-4.16599245362229e-07 3.8538051537884e-07 -1.22313679962114e-24)
(-3.6761815150325e-07 3.8698448626675e-07 4.01383416490414e-25)
(-3.15447697401822e-07 3.86814170728364e-07 1.10618750905441e-24)
(-2.59565157067808e-07 3.84712303941559e-07 -1.25876380886852e-24)
(-1.99412570495866e-07 3.80489575504561e-07 1.16671855935355e-24)
(-1.34350592063868e-07 3.73895328304694e-07 -1.20405272729094e-24)
(-6.36349948183596e-08 3.64588606680828e-07 -1.34926817388176e-24)
(1.35937935317976e-08 3.52111451974175e-07 1.09996695318779e-24)
(9.8349407885008e-08 3.35868329871235e-07 4.43932014946398e-25)
(1.91859951190704e-07 3.15027705087916e-07 -3.78641697438261e-25)
(2.95619471873949e-07 2.88505369299972e-07 -1.28431738391318e-25)
(4.11482251685461e-07 2.54723620683279e-07 -1.18211542465042e-24)
(5.41799826027679e-07 2.11331879182561e-07 1.9551213063137e-24)
(6.89561430486594e-07 1.54963730720555e-07 -3.21422806323302e-25)
(8.58514476291157e-07 8.05060691176065e-08 -3.26944958837649e-25)
(1.05337519591883e-06 -1.98918355087345e-08 1.76092085654739e-24)
(1.27659917765213e-06 -1.57957361772229e-07 -3.19117375837899e-25)
(1.54198707159461e-06 -3.40038013742316e-07 -3.46455886190566e-25)
(1.82748364197067e-06 -5.44326873713588e-07 2.12812756926516e-24)
(2.04021006392843e-06 -6.45018130082028e-07 -3.41792007221886e-25)
(2.40824860723461e-06 -3.41028896712749e-07 -3.24138548291204e-25)
(1.76728164271024e-06 3.03619201077761e-06 3.51611649179217e-24)
(8.19436369389021e-07 8.93259432899691e-06 -6.43650357548317e-25)
(-3.99557959859408e-07 7.37598546131727e-06 8.032289492095e-26)
(-1.68663946613669e-06 1.40267606875286e-06 1.1544921913045e-24)
(-2.34833069316323e-06 -1.81431279735445e-06 8.61295466338571e-26)
(-2.16533121346082e-06 -2.20831799066193e-06 1.5183317879047e-26)
(-2.0456481034874e-06 -2.1095022560503e-06 1.76881522939645e-25)
(-1.86295457448869e-06 -1.87820129777816e-06 2.96183780724814e-25)
(-1.68362821367592e-06 -1.67065722844962e-06 2.98975933555342e-26)
(-1.53725995064901e-06 -1.51065181899578e-06 3.15030932402531e-26)
(-1.41162706256891e-06 -1.38999683412665e-06 2.93063145887347e-25)
(-1.30526333319817e-06 -1.29638679566863e-06 5.84809183542784e-25)
(-1.2146344834976e-06 -1.22171301655237e-06 -2.22462620369248e-25)
(-1.13670026202906e-06 -1.16068713854478e-06 3.27271480081555e-25)
(-1.0689274563765e-06 -1.10980044001736e-06 7.04032698357234e-25)
(-1.00923317238402e-06 -1.06666312399073e-06 -1.77578724733563e-25)
(-9.55902676941621e-07 -1.02958359666938e-06 5.93153808982795e-25)
(-9.07533269576389e-07 -9.97388455901349e-07 7.94952027113884e-26)
(-8.62968641138613e-07 -9.69218317781238e-07 4.12836106355848e-25)
(-8.21229312893852e-07 -9.4445111096769e-07 6.33873263513057e-25)
(-7.81497753001208e-07 -9.2261383892294e-07 1.04091045091877e-25)
(-7.43073913540488e-07 -9.03372862097666e-07 6.15867747125125e-25)
(-7.0535166484427e-07 -8.86458641456717e-07 7.91733203177599e-26)
(-6.67802587699038e-07 -8.7168545123684e-07 2.74667680225395e-25)
(-6.29953606684196e-07 -8.58910247478808e-07 4.33415047439525e-25)
(-5.91370920770624e-07 -8.48037013845784e-07 4.78053522977362e-26)
(-5.51651276968783e-07 -8.39029408280726e-07 3.14014199744343e-25)
(-5.10412653727414e-07 -8.31848161564342e-07 3.86663273346349e-25)
(-4.67272883640512e-07 -8.26514961499623e-07 2.44146847981129e-25)
(-4.21838558108238e-07 -8.23067906321685e-07 -2.1618868660462e-25)
(-3.73699095292807e-07 -8.21598947644613e-07 4.33136013878066e-25)
(-3.22417766878152e-07 -8.22222208807437e-07 2.2231689234648e-25)
(-2.67507452613566e-07 -8.25110687721953e-07 -2.47914384307343e-25)
(-2.08442012685001e-07 -8.30491530498918e-07 2.38923324922858e-25)
(-1.44622189505631e-07 -8.386507944065e-07 -2.17705797853509e-25)
(-7.53611556847909e-08 -8.49990734944199e-07 -2.76026043135161e-25)
(1.25688732270118e-10 -8.6501914656822e-07 2.15587362707524e-25)
(8.27474997611709e-08 -8.84421310158778e-07 3.28678378397046e-25)
(1.73584672302213e-07 -9.0914182029111e-07 -3.70199655115486e-25)
(2.73923410734922e-07 -9.40370235475922e-07 -4.33101620149119e-26)
(3.85304182837822e-07 -9.79857262400829e-07 -2.33014319167006e-25)
(5.09600853239685e-07 -1.03014970413464e-06 3.6562503163497e-25)
(6.49080615919933e-07 -1.09485749980864e-06 -3.26116368838099e-25)
(8.06378756339698e-07 -1.17936835302379e-06 -4.15195576681068e-25)
(9.84421046373833e-07 -1.2918904880308e-06 3.18079620625791e-25)
(1.18388915667816e-06 -1.44466003134505e-06 -4.73611474046047e-25)
(1.41343851631563e-06 -1.64598058721548e-06 -4.15479550890204e-25)
(1.64881031049245e-06 -1.87777872106731e-06 3.98799478973815e-25)
(1.81955408660116e-06 -2.02492151171243e-06 -3.35495318276763e-25)
(2.12169843106116e-06 -1.74425628857078e-06 -4.78356642155396e-25)
(1.54762155515921e-06 1.62914616920607e-06 5.8220963428634e-25)
(3.29758212095786e-07 7.645748038052e-06 -7.79672370597271e-25)
(-2.0626646910346e-07 6.97810522323655e-06 3.33094970926164e-26)
(-1.41324883026937e-06 1.08128986187494e-06 2.66762578027988e-25)
(-2.00250668875109e-06 -2.33776910825213e-06 3.5609058302926e-26)
(-1.92333170393244e-06 -2.79458720083323e-06 3.86549000966573e-27)
(-1.85953423732712e-06 -2.70413037320383e-06 -3.10991902567524e-26)
(-1.73015619366918e-06 -2.46631339060078e-06 7.78976500613633e-26)
(-1.587534138283e-06 -2.24811016771874e-06 1.33909540068853e-26)
(-1.4650346504153e-06 -2.077435025131e-06 1.57351101072956e-26)
(-1.35617154943611e-06 -1.9466419225161e-06 1.0426969418569e-25)
(-1.26153633787256e-06 -1.84388406253942e-06 1.68972049299272e-25)
(-1.17933112256579e-06 -1.76110491257594e-06 -5.06596890332266e-26)
(-1.10760158851962e-06 -1.69296915459393e-06 7.56967657643992e-26)
(-1.04452121519065e-06 -1.6358685579218e-06 1.45831762776537e-25)
(-9.88465667847752e-07 -1.58729040157111e-06 -3.83137142441498e-26)
(-9.38029912698025e-07 -1.54546094424047e-06 1.47356824636685e-25)
(-8.9202158720692e-07 -1.50910440394812e-06 2.99313328288544e-26)
(-8.49427511529691e-07 -1.47729740712492e-06 1.05382287329046e-25)
(-8.09369569196695e-07 -1.44934620068271e-06 1.57492755943342e-25)
(-7.7110549995014e-07 -1.42474082523497e-06 3.75153763148886e-26)
(-7.33984773183503e-07 -1.40308765246464e-06 1.46919220458624e-25)
(-6.97444495893853e-07 -1.38410306581761e-06 2.61511816758127e-26)
(-6.60987405986658e-07 -1.36756264335679e-06 7.10283142978763e-26)
(-6.24161106257361e-07 -1.35331446854749e-06 7.18186950578187e-26)
(-5.86561301899517e-07 -1.34124717313969e-06 1.50466918011683e-26)
(-5.47802206030507e-07 -1.33131085556756e-06 7.3959077293902e-26)
(-5.07514198281435e-07 -1.32347129248341e-06 9.30034205520002e-26)
(-4.653365918806e-07 -1.31773615419753e-06 5.3714357797839e-26)
(-4.20897625075647e-07 -1.31416782634201e-06 -4.35919722129563e-26)
(-3.73803781603259e-07 -1.31284957298581e-06 7.66374184923839e-26)
(-3.23639941049205e-07 -1.31392933188452e-06 5.17803134867494e-26)
(-2.6994950898064e-07 -1.31759760095224e-06 -4.63428060807003e-26)
(-2.12238575926507e-07 -1.32410284695474e-06 4.14876885767759e-26)
(-1.49952723827393e-07 -1.33376968015666e-06 -5.45118044095076e-26)
(-8.24602776334292e-08 -1.34704280792434e-06 -5.84279993956379e-26)
(-9.05038784934464e-09 -1.36448790419187e-06 5.18141113368841e-26)
(7.10743558166726e-08 -1.38685168184014e-06 7.42664135813457e-26)
(1.58852103717525e-07 -1.41514687523775e-06 -7.40641798594246e-26)
(2.55355465666312e-07 -1.45065581047429e-06 -9.32690689299805e-27)
(3.61810048839698e-07 -1.4952314721182e-06 -3.02500140269045e-26)
(4.79623553681978e-07 -1.55150921256456e-06 1.59772168829468e-25)
(6.10357155996453e-07 -1.62317078884924e-06 -6.72491601664054e-26)
(7.55582353734193e-07 -1.71559555216156e-06 -6.81130146964499e-26)
(9.16562766975376e-07 -1.83680031880333e-06 1.48032601567051e-25)
(1.09216635739779e-06 -1.99840460045917e-06 -7.46683898867735e-26)
(1.28600934619248e-06 -2.20828879741631e-06 -6.04676869333663e-26)
(1.46931138483478e-06 -2.44632294302405e-06 1.78711638595137e-25)
(1.58854163212308e-06 -2.59282904999498e-06 -6.76210272683133e-26)
(1.77636684243493e-06 -2.26233068789681e-06 -8.383074498498e-26)
(1.27493817161776e-06 1.333338407121e-06 2.7363319750175e-25)
(1.44513515243942e-07 7.25427456539027e-06 -1.57029441060045e-25)
(-1.38868990263932e-07 6.96154144815855e-06 2.75493630522756e-26)
(-1.15963913562656e-06 1.16260949531583e-06 1.89296662822351e-25)
(-1.67991377855691e-06 -2.50183151413552e-06 3.03245970047844e-26)
(-1.69267241941307e-06 -3.03886753460093e-06 1.46360588522946e-26)
(-1.6776723323366e-06 -2.98000870266559e-06 6.78250888098778e-26)
(-1.59606933315502e-06 -2.74943538501615e-06 9.04373095481682e-26)
(-1.48762374995226e-06 -2.52879728127791e-06 1.6885474155603e-26)
(-1.38807450272618e-06 -2.352476057096e-06 1.97722214248318e-26)
(-1.2956619660217e-06 -2.21472790840763e-06 1.09720134380681e-25)
(-1.2127839255765e-06 -2.10489903471769e-06 1.3343653853841e-25)
(-1.13915689293214e-06 -2.01541822652119e-06 -7.06431286496672e-26)
(-1.07382921685163e-06 -1.94114936431834e-06 1.48312914535024e-26)
(-1.01563488509439e-06 -1.87852330551982e-06 8.28561440022816e-26)
(-9.63399190310215e-07 -1.82501801269153e-06 -5.22247548106756e-26)
(-9.16026888138979e-07 -1.77881212595254e-06 1.04562751761298e-25)
(-8.72532767657551e-07 -1.73858994370436e-06 2.0292692150075e-26)
(-8.32050525670841e-07 -1.70336918494875e-06 3.39501489525987e-26)
(-7.93809153854224e-07 -1.67241668351959e-06 1.0170684433623e-25)
(-7.57137320555443e-07 -1.64518697927712e-06 2.79149776557476e-26)
(-7.21446291560094e-07 -1.62125195847081e-06 8.75959039712673e-26)
(-6.86213632138889e-07 -1.60030023000201e-06 2.1936928708084e-26)
(-6.50975571459804e-07 -1.58208095118387e-06 7.32873596015051e-26)
(-6.15312091739874e-07 -1.56643127411625e-06 2.06622333044278e-26)
(-5.78835366241263e-07 -1.55323551315519e-06 1.24409679129472e-26)
(-5.41182201491215e-07 -1.54241425501205e-06 7.48636642692734e-26)
(-5.02003906506841e-07 -1.53394725698023e-06 3.30927858027416e-26)
(-4.60960562743658e-07 -1.52784585971707e-06 6.12794984028881e-26)
(-4.17696970459558e-07 -1.52416910680193e-06 -5.70928094918117e-26)
(-3.71844711041511e-07 -1.52301295848398e-06 1.2348494854352e-26)
(-3.23011375895576e-07 -1.52453464376075e-06 2.9338737132283e-26)
(-2.70770456007914e-07 -1.52895048347648e-06 -2.89361835416181e-26)
(-2.1466558044004e-07 -1.53652773705964e-06 4.04561996597234e-26)
(-1.54180399901697e-07 -1.54762411310673e-06 -7.10674197535335e-26)
(-8.87496348755942e-08 -1.56272032845869e-06 -6.58317921451361e-26)
(-1.7741989485587e-08 -1.58242257504623e-06 5.39577969840719e-26)
(5.95407014757253e-08 -1.60752043698759e-06 1.83983538583856e-26)
(1.43880355711701e-07 -1.63907023232203e-06 -1.00082390194671e-26)
(2.36134509826739e-07 -1.67841760478083e-06 -4.52741730054248e-27)
(3.37228950250349e-07 -1.72743759517112e-06 -3.23291149902787e-26)
(4.4812323435322e-07 -1.78877522925002e-06 7.76741923238705e-26)
(5.6972252271512e-07 -1.86604160979777e-06 -3.58037372161333e-27)
(7.02639875358399e-07 -1.96437569589092e-06 -5.83802263703449e-27)
(8.46720267877431e-07 -2.09122313952679e-06 5.0215687139014e-26)