/*--------------------------------*- C++ -*----------------------------------*\
  =========                 |
  \\      /  F ield         | OpenFOAM: The Open Source CFD Toolbox
   \\    /   O peration     | Website:  https://openfoam.org
    \\  /    A nd           | Version:  10
     \\/     M anipulation  |
\*---------------------------------------------------------------------------*/
FoamFile
{
    format      ascii;
    class       volScalarField;
    location    "2";
    object      wallHeatFlux;
}
// * * * * * * * * * * * * * * * * * * * * * * * * * * * * * * * * * * * * * //

dimensions      [1 0 -3 0 0 0 0];

internalField   uniform 0;

boundaryField
{
    back
    {
        type            calculated;
        value           uniform 0;
    }
    bottom
    {
        type            calculated;
        value           nonuniform List<scalar> 
50
(
325.110574943059
341.981647593429
349.246144999038
351.171772679646
351.631783549932
351.740373040645
351.765312839295
351.770490920375
351.771238472258
351.771335827101
351.771083436105
351.770917620097
351.770819171542
351.77066507722
351.770537121663
351.770371501842
351.770316693097
351.770223336873
351.770107254571
351.770044740435
351.770013625148
351.770037680212
351.770070439292
351.770019841139
351.769953289471
351.769959070648
351.769936131602
351.769924521895
351.769965502156
351.769917056602
351.769888373021
351.769938660419
351.769928587058
351.769906499111
351.769920373587
351.769974442415
351.770047901941
351.770094696655
351.770228856148
351.770330299295
351.770391122309
351.770187641614
351.768734466132
351.761703088912
351.732542652139
351.614987320397
351.145890613406
349.221729223849
341.84904071966
325.11527056383
)
;
    }
    left
    {
        type            calculated;
        value           uniform 0;
    }
    front
    {
        type            calculated;
        value           uniform 0;
    }
    right
    {
        type            calculated;
        value           uniform 0;
    }
    top
    {
        type            calculated;
        value           uniform 0;
    }
}


// ************************************************************************* //
