/*--------------------------------*- C++ -*----------------------------------*\
  =========                 |
  \\      /  F ield         | OpenFOAM: The Open Source CFD Toolbox
   \\    /   O peration     | Website:  https://openfoam.org
    \\  /    A nd           | Version:  10
     \\/     M anipulation  |
\*---------------------------------------------------------------------------*/
FoamFile
{
    format      ascii;
    class       volScalarField;
    location    "6.2";
    object      alphat;
}
// * * * * * * * * * * * * * * * * * * * * * * * * * * * * * * * * * * * * * //

dimensions      [1 -1 -1 0 0 0 0];

internalField   nonuniform List<scalar> 
2500
(
9.1386394451321e-15
1.79077489375616e-13
7.62487057002384e-13
1.31308889744674e-12
1.77450218327908e-12
2.13076528688207e-12
2.38524048361139e-12
2.55384659122494e-12
2.65776852823755e-12
2.71753982023066e-12
2.74972272836025e-12
2.76599723310267e-12
2.77375101509806e-12
2.7772420647114e-12
2.77873151558721e-12
2.77933506261582e-12
2.77956762900112e-12
2.77965276235442e-12
2.77968215426955e-12
2.77969147927289e-12
2.77969395734497e-12
2.779694261216e-12
2.77969396802828e-12
2.77969358737484e-12
2.77969327992334e-12
2.77969308115186e-12
2.77969298504105e-12
2.77969290808526e-12
2.77969258317216e-12
2.77969128972777e-12
2.77968691595558e-12
2.77967345811797e-12
2.77963468169476e-12
2.77952852068856e-12
2.77925090254753e-12
2.77855667514458e-12
2.77689809301435e-12
2.77311950332462e-12
2.76493068997876e-12
2.74809599264899e-12
2.71536434727527e-12
2.65536845996137e-12
2.55203762910313e-12
2.38537334450977e-12
2.13445024117005e-12
1.78289140033705e-12
1.32576519584503e-12
7.7607256103632e-13
1.84915312616845e-13
9.62629786993904e-15
9.05652049324717e-13
4.65612643418635e-11
2.02422114189659e-10
3.48933486031983e-10
4.7200346211269e-10
5.67375212248517e-10
6.35809399780891e-10
6.81393388381127e-10
7.09657352813832e-10
7.26018917446728e-10
7.34889066114784e-10
7.39406664509764e-10
7.41574816914602e-10
7.42558271675881e-10
7.4298101255711e-10
7.43153608640568e-10
7.43220627755277e-10
7.43245358394456e-10
7.432539755576e-10
7.4325674679244e-10
7.43257505646794e-10
7.43257618198271e-10
7.43257549330992e-10
7.43257449407302e-10
7.43257367362437e-10
7.43257313603523e-10
7.43257285888916e-10
7.43257260067791e-10
7.43257159663231e-10
7.43256771488266e-10
7.43255478036713e-10
7.43251538783725e-10
7.43240276263382e-10
7.43209657794131e-10
7.43130125463479e-10
7.42932561511615e-10
7.42463695513469e-10
7.41402637260081e-10
7.39118457832924e-10
7.34453670850495e-10
7.25442923320413e-10
7.09030825010516e-10
6.80934624682106e-10
6.35872760316808e-10
5.68375838471894e-10
4.74229656231261e-10
3.52261623478312e-10
2.05964094402863e-10
4.80441606473289e-11
9.51976044652922e-13
3.21478236269384e-12
8.37226961730916e-10
2.85777227702851e-07
4.9135996235461e-07
6.62846666197358e-07
7.95307052421814e-07
8.90261592910454e-07
9.53571787155684e-07
9.92926365186749e-07
1.01579314569655e-06
1.02824691431699e-06
1.03462257203677e-06
1.03769958909609e-06
1.03910349377162e-06
1.03971063282745e-06
1.03996006491714e-06
1.04005754935919e-06
1.04009377354633e-06
1.04010650005578e-06
1.04011064313792e-06
1.0401118081189e-06
1.04011200633039e-06
1.04011192750831e-06
1.0401117960687e-06
1.0401116854643e-06
1.04011161157199e-06
1.04011157067058e-06
1.04011152790794e-06
1.04011137368062e-06
1.04011079536683e-06
1.04010889148623e-06
1.04010313838963e-06
1.0400867820235e-06
1.04004252732297e-06
1.03992808685158e-06
1.03964505038468e-06
1.0389762703258e-06
1.03746942529866e-06
1.03423972699926e-06
1.02767215058351e-06
1.01503745773741e-06
9.92109515986583e-07
9.52978475373362e-07
8.90349804148066e-07
7.96610989987032e-07
6.65736905266741e-07
4.95675437057602e-07
2.9036331811162e-07
8.61337734389655e-10
3.35299188351175e-12
5.69114935889532e-12
1.49257319614447e-09
5.10565188099566e-07
8.7387102671866e-07
1.17467736551738e-06
1.40579143314269e-06
1.5708824911907e-06
1.68073634998099e-06
1.74897083360717e-06
1.78862457707019e-06
1.81023905882106e-06
1.82131922607969e-06
1.82667577235839e-06
1.82912453903242e-06
1.83018588003334e-06
1.83062297231454e-06
1.83079425898599e-06
1.83085810334444e-06
1.83088062037508e-06
1.8308879947572e-06
1.83089009486799e-06
1.83089047226585e-06
1.83089035127342e-06
1.83089013417093e-06
1.83088994700226e-06
1.83088982010584e-06
1.83088974735173e-06
1.83088966987215e-06
1.8308894022724e-06
1.83088840792416e-06
1.83088513467844e-06
1.83087523924663e-06
1.83084707779727e-06
1.83077079744935e-06
1.83057332391452e-06
1.83008443437774e-06
1.82892822391911e-06
1.82632118087784e-06
1.82072989137027e-06
1.80935401172415e-06
1.78745803785933e-06
1.74769982134149e-06
1.67978442934985e-06
1.57093216041394e-06
1.40763952173674e-06
1.17887575267568e-06
8.80169528977855e-07
5.17220019509513e-07
1.52696040187974e-09
5.88509169146966e-12
8.11329623108243e-12
2.12897872342369e-09
7.2583654579099e-07
1.23717942428948e-06
1.65793623212501e-06
1.97977840587526e-06
2.20901342668351e-06
2.36130246784223e-06
2.45583720049859e-06
2.51078344962316e-06
2.54075514043822e-06
2.55613698082569e-06
2.5635840071765e-06
2.56699433357652e-06
2.56847533544443e-06
2.5690865976586e-06
2.56932673210564e-06
2.56941649953314e-06
2.56944827988446e-06
2.56945875215216e-06
2.56946177501996e-06
2.56946234823902e-06
2.56946220555776e-06
2.56946192270842e-06
2.56946167187993e-06
2.56946149847678e-06
2.56946139450631e-06
2.56946128137087e-06
2.56946090888211e-06
2.5694595409036e-06
2.56945504629013e-06
2.56944145875636e-06
2.56940275789553e-06
2.56929781096616e-06
2.56902580183626e-06
2.56835161522422e-06
2.5667555292047e-06
2.56315336615794e-06
2.55542178598792e-06
2.53968060518577e-06
2.50936334001529e-06
2.45427701080048e-06
2.36009738731405e-06
2.20896192710149e-06
1.98181167930326e-06
1.66269619595154e-06
1.24436616092666e-06
7.33422271055824e-07
2.16842110510174e-09
8.33875760276622e-12
1.0401912399434e-11
2.72995344907865e-09
9.27239152475991e-07
1.574599680569e-06
2.10445434397165e-06
2.50823923952342e-06
2.79515557361766e-06
2.98552011300335e-06
3.1036401378794e-06
3.17231008623707e-06
3.20979422363899e-06
3.22905226774257e-06
3.23838869001151e-06
3.24267114960498e-06
3.24453430910449e-06
3.24530489380705e-06
3.24560833387392e-06
3.24572208789362e-06
3.24576251377546e-06
3.24577591958112e-06
3.24577984586769e-06
3.24578063329603e-06
3.24578049151576e-06
3.2457801627748e-06
3.24577986273347e-06
3.24577965034189e-06
3.24577951635251e-06
3.24577936622481e-06
3.24577889383499e-06
3.24577718814644e-06
3.245771608831e-06
3.24575475747623e-06
3.24570674319973e-06
3.24557642743763e-06
3.24523831996444e-06
3.24439945465748e-06
3.24241163699959e-06
3.2379216450574e-06
3.22827751750987e-06
3.20863029328186e-06
3.17076883405227e-06
3.10193509923119e-06
2.9841682981825e-06
2.79498975622494e-06
2.51022770089028e-06
2.10926067928287e-06
1.58191055715978e-06
9.34984016481561e-07
2.77102880581683e-09
1.06427368578226e-11
1.25101896935308e-11
3.28397541317482e-09
1.11161591888672e-06
1.88153763886477e-06
2.50885725246788e-06
2.98543326884154e-06
3.32341838662485e-06
3.54744307719021e-06
3.68641166865229e-06
3.76722501241431e-06
3.81136870896698e-06
3.83407144688755e-06
3.84509202406366e-06
3.85015460864089e-06
3.85236096778578e-06
3.85327527597793e-06
3.85363612024159e-06
3.85377176403247e-06
3.85382015038334e-06
3.85383629866588e-06
3.85384109930878e-06
3.85384211729709e-06
3.85384200035615e-06
3.85384164575105e-06
3.85384131118812e-06
3.85384106778958e-06
3.85384090561681e-06
3.8538407168692e-06
3.85384014751206e-06
3.85383813584576e-06
3.85383159914393e-06
3.85381189080345e-06
3.85375574059396e-06
3.85360325011503e-06
3.8532072756413e-06
3.85222397529752e-06
3.84989196615229e-06
3.84462063715234e-06
3.83329105363419e-06
3.81019765423278e-06
3.76567381945589e-06
3.68468885152323e-06
3.54605298028255e-06
3.32317002167169e-06
2.98726180385219e-06
2.51339772050754e-06
1.8884873881091e-06
1.11902499903117e-06
3.32445124604462e-09
1.27552872781383e-11
1.44094159565158e-11
3.78374514762388e-09
1.27704681292062e-06
2.15545361697774e-06
2.86843431516308e-06
3.40869890185371e-06
3.79125667706629e-06
4.04463354115635e-06
4.20178804091753e-06
4.29320702542987e-06
4.34317840313737e-06
4.36890324145966e-06
4.38140587061471e-06
4.38715736645783e-06
4.38966799424864e-06
4.39071029123601e-06
4.39112252019067e-06
4.39127788511438e-06
4.39133350904372e-06
4.39135218904899e-06
4.39135782468014e-06
4.39135908574165e-06
4.39135901606649e-06
4.39135865460399e-06
4.3913582993244e-06
4.39135803266377e-06
4.39135784440883e-06
4.39135761557861e-06
4.39135695165195e-06
4.39135466275228e-06
4.39134728629828e-06
4.39132510120454e-06
4.39126192303299e-06
4.39109028063117e-06
4.39064426984831e-06
4.38953588429832e-06
4.38690531978701e-06
4.38095527191462e-06
4.36815980141501e-06
4.34206618954364e-06
4.29173750915241e-06
4.20015803196885e-06
4.04331354465542e-06
3.79099441732306e-06
3.41034962989635e-06
2.87256891021417e-06
2.16178969204597e-06
1.28384627150653e-06
3.82228676434676e-09
1.46514992529014e-11
1.60853026568925e-11
4.22556405041837e-09
1.42270400737063e-06
2.39554928643869e-06
3.18267298709643e-06
3.77787221463656e-06
4.19881037456788e-06
4.47745212096065e-06
4.65027034284816e-06
4.75083736916876e-06
4.80584602333171e-06
4.834189927582e-06
4.84798091437052e-06
4.85433338292479e-06
4.85711048389667e-06
4.85826536906356e-06
4.85872303360777e-06
4.85889594949005e-06
4.85895807382742e-06
4.85897906301626e-06
4.85898548530023e-06
4.85898699575096e-06
4.85898699225601e-06
4.85898664042139e-06
4.85898627657845e-06
4.85898599365116e-06
4.85898578154084e-06
4.85898551188829e-06
4.85898475626118e-06
4.85898221678684e-06
4.85897410861485e-06
4.85894979709669e-06
4.8588806146412e-06
4.85869262415209e-06
4.85820386955712e-06
4.85698848620314e-06
4.8541021737486e-06
4.84756996407143e-06
4.83351576562443e-06
4.80484367968068e-06
4.74952279163697e-06
4.64882709279258e-06
4.47630662023988e-06
4.19862849425706e-06
3.77940178265312e-06
3.18639691648218e-06
2.4012022996716e-06
1.42879275252037e-06
4.26153624843973e-09
1.63201373886401e-11
1.75352723614029e-11
4.60868740387397e-09
1.54864693105601e-06
2.60239226795111e-06
3.4527437550322e-06
4.09467099931044e-06
4.54822134217027e-06
4.8483325162687e-06
5.03447407269888e-06
5.14283514714773e-06
5.20214503744937e-06
5.23273134316028e-06
5.24762884066638e-06
5.25449927207772e-06
5.25750694214691e-06
5.25875967699655e-06
5.25925703312937e-06
5.25944538037457e-06
5.25951327252813e-06
5.25953634233894e-06
5.25954349532028e-06
5.25954525494322e-06
5.25954533187342e-06
5.2595450029986e-06
5.25954464061469e-06
5.25954434748806e-06
5.2595441139023e-06
5.25954380370201e-06
5.25954296027169e-06
5.25954019555888e-06
5.25953145467812e-06
5.2595053358685e-06
5.25943108162312e-06
5.25922930228785e-06
5.25870447931142e-06
5.25739870589281e-06
5.25429606557094e-06
5.24727084281072e-06
5.23214961025945e-06
5.20129003898054e-06
5.14173153839248e-06
5.03329437814118e-06
4.84745717665113e-06
4.54822696676768e-06
4.09618558097732e-06
3.45614781284773e-06
2.60742532198958e-06
1.55405077594766e-06
4.64198456862026e-09
1.77610387661157e-11
1.87659911230114e-11
4.93471934437251e-09
1.65562641172075e-06
2.77758273595429e-06
3.68106220033848e-06
4.36218459399432e-06
4.84307641043774e-06
5.16119569139532e-06
5.3585263118965e-06
5.47344492381128e-06
5.53638214023841e-06
5.56886476132205e-06
5.5847009578242e-06
5.592012355816e-06
5.59521709397888e-06
5.59655383144473e-06
5.59708543765708e-06
5.59728718647877e-06
5.59736013340421e-06
5.59738505416837e-06
5.59739287565831e-06
5.59739487821523e-06
5.59739504515334e-06
5.59739474899033e-06
5.5973943959162e-06
5.59739409767434e-06
5.59739384515014e-06
5.59739349579119e-06
5.59739256970409e-06
5.59738960431159e-06
5.5973803213484e-06
5.597352683124e-06
5.59727419573894e-06
5.59706093058339e-06
5.59650605844242e-06
5.59512490737509e-06
5.59184166027568e-06
5.5844043871502e-06
5.56839054053206e-06
5.53569978712549e-06
5.47259218122965e-06
5.35766926732269e-06
5.16067273121987e-06
4.84337697364764e-06
4.36381558305558e-06
3.68429471874402e-06
2.78214361630657e-06
1.66045555445986e-06
4.96560813458226e-09
1.89826689797963e-11
1.97911203819755e-11
5.20706454237903e-09
1.74491197735871e-06
2.92347389120171e-06
3.87093338709208e-06
4.58446794026741e-06
5.08796981857313e-06
5.4209932347322e-06
5.62759798804884e-06
5.74796278741427e-06
5.81392000392653e-06
5.8479859568786e-06
5.86460845111651e-06
5.87229054671155e-06
5.87566160647914e-06
5.87706955498343e-06
5.87763034506107e-06
5.87784358629998e-06
5.87792090690908e-06
5.87794745265476e-06
5.87795587613782e-06
5.8779581104007e-06
5.87795837271458e-06
5.87795811509645e-06
5.87795777707004e-06
5.87795747785136e-06
5.87795720907455e-06
5.87795682298812e-06
5.87795582064405e-06
5.87795267859638e-06
5.87794293623982e-06
5.87791403573604e-06
5.87783205985878e-06
5.8776093524075e-06
5.87702977917372e-06
5.87558661569709e-06
5.87215462986809e-06
5.86437767327493e-06
5.84762736363075e-06
5.81342481531361e-06
5.74738587113257e-06
5.62710474884541e-06
5.42088748696227e-06
5.08866215583181e-06
4.58635061182211e-06
3.87416681958339e-06
2.92775317313673e-06
1.74932350487972e-06
5.23604044833542e-09
1.99999019398023e-11
2.06292466931995e-11
5.43041836724162e-09
1.81813599689157e-06
3.04292830347518e-06
4.0262485359253e-06
4.76619996788825e-06
5.28813802056245e-06
5.63332811197233e-06
5.84751651277342e-06
5.97234446437825e-06
6.04078297299553e-06
6.07615366564616e-06
6.09342624216742e-06
6.10141593103796e-06
6.10492555135799e-06
6.10639308930803e-06
6.10697842602969e-06
6.10720139518812e-06
6.10728245079519e-06
6.10731040382008e-06
6.10731935991507e-06
6.10732181133194e-06
6.10732217211099e-06
6.1073219538807e-06
6.1073216346329e-06
6.10732133768031e-06
6.10732105541042e-06
6.10732063589564e-06
6.10731956475381e-06
6.10731626947945e-06
6.10730614266986e-06
6.10727620695894e-06
6.10719139478119e-06
6.10696103172035e-06
6.10636143672069e-06
6.10486797355896e-06
6.10131522633165e-06
6.09326222200926e-06
6.07591294821256e-06
6.04048013742414e-06
5.97205481236593e-06
5.84741065797991e-06
5.63368443601337e-06
5.28930008887833e-06
4.76845660611629e-06
4.02965260158517e-06
3.04712535649129e-06
1.82230292258837e-06
5.45808225190088e-09
2.08320087952952e-11
2.13019684249122e-11
5.61028712980186e-09
1.87714994531009e-06
3.13909793056508e-06
4.15121443211201e-06
4.91238084690551e-06
5.44913715959831e-06
5.80412031068371e-06
6.02442455420804e-06
6.15286023417971e-06
6.22330989915032e-06
6.2597413478221e-06
6.27754422663019e-06
6.28578576141799e-06
6.28940928922941e-06
6.29092603416512e-06
6.2915317450884e-06
6.29176283978736e-06
6.29184704238231e-06
6.29187619731954e-06
6.29188561772825e-06
6.29188826680752e-06
6.29188871999354e-06
6.29188854576965e-06
6.29188824757292e-06
6.29188795537489e-06
6.29188766240495e-06
6.29188721343093e-06
6.291886081734e-06
6.29188265582633e-06
6.29187221180587e-06
6.29184143883444e-06
6.2917543531747e-06
6.29151787227594e-06
6.29090228384696e-06
6.28936861698846e-06
6.28571926040841e-06
6.27744522134696e-06
6.25961599122477e-06
6.223196805428e-06
6.15285746983092e-06
6.02471321553634e-06
5.80496267440163e-06
5.45082291528281e-06
4.91510910491494e-06
4.15493676589166e-06
3.14339581515371e-06
1.88123772820152e-06
5.63724737564725e-09
2.15008353461792e-11
2.18321783209179e-11
5.7525498102609e-09
1.92389460315838e-06
3.2152279766904e-06
4.25011362882775e-06
5.02806438341331e-06
5.57655820105014e-06
5.93931152105906e-06
6.16447856875859e-06
6.29578996742969e-06
6.36784727391936e-06
6.40512932766602e-06
6.42335892103021e-06
6.43180387101738e-06
6.43551977944706e-06
6.43707661275265e-06
6.43769900808437e-06
6.43793679874595e-06
6.43802361689321e-06
6.43805378396439e-06
6.4380636042053e-06
6.43806642836239e-06
6.4380669676892e-06
6.43806683727339e-06
6.43806656104301e-06
6.43806627542851e-06
6.43806597450074e-06
6.43806550045642e-06
6.43806431686562e-06
6.43806078172289e-06
6.43805008004475e-06
6.43801863989228e-06
6.43792975884987e-06
6.43768846195932e-06
6.43706028972106e-06
6.43549497282462e-06
6.43176949574129e-06
6.42332114880147e-06
6.40511314891718e-06
6.36791511053089e-06
6.29606389506352e-06
6.16515433994778e-06
5.94064379680771e-06
5.57879571013575e-06
5.03133096169945e-06
4.25426800377373e-06
3.21977729626039e-06
1.92804537353989e-06
5.77935296558779e-09
2.20291951872248e-11
2.22426116829129e-11
5.86308188403882e-09
1.96028932908188e-06
3.27449106960409e-06
4.3271025251721e-06
5.11813298819478e-06
5.67578740339706e-06
6.04461671412824e-06
6.27359507633764e-06
6.40716634771708e-06
6.48049076336751e-06
6.51844543762003e-06
6.53701365892995e-06
6.54562065525958e-06
6.54941046411204e-06
6.55099951333529e-06
6.55163538629047e-06
6.55187861992057e-06
6.55196758210429e-06
6.55199858938019e-06
6.55200874882897e-06
6.55201172561345e-06
6.55201234305433e-06
6.55201225405256e-06
6.55201199973626e-06
6.55201172200097e-06
6.55201141574542e-06
6.55201092120745e-06
6.55200969443743e-06
6.5520060699126e-06
6.55199516253627e-06
6.55196319911085e-06
6.55187292222227e-06
6.55162789287454e-06
6.55098997300245e-06
6.54940012620688e-06
6.54561560233278e-06
6.53703192776398e-06
6.51852964506454e-06
6.4807261399401e-06
6.40769915884311e-06
6.27463857670783e-06
6.04642498438902e-06
5.67857985886326e-06
5.1219721350379e-06
4.33176396243298e-06
3.27940201407895e-06
1.96461331155699e-06
5.89017132849141e-09
2.24395326870175e-11
2.25547188208457e-11
5.94745873570293e-09
1.98814504060357e-06
3.3198580642991e-06
4.3860547319486e-06
5.18712345130435e-06
5.75182097276456e-06
6.12533189628954e-06
6.35725424279182e-06
6.49257601512145e-06
6.56688498242882e-06
6.60536405800204e-06
6.62419725489289e-06
6.63293155280071e-06
6.63677966415976e-06
6.63839424776511e-06
6.63904085903492e-06
6.63928845656932e-06
6.63937915201289e-06
6.63941084682763e-06
6.63942128936991e-06
6.63942439678393e-06
6.63942508329474e-06
6.63942503290203e-06
6.63942479980118e-06
6.63942453081651e-06
6.63942422168532e-06
6.63942371119081e-06
6.6394224496686e-06
6.639418753771e-06
6.63940768530525e-06
6.63937531845251e-06
6.63928397411906e-06
6.63903609885938e-06
6.63839074971344e-06
6.6367821958422e-06
6.63295260045402e-06
6.62426553387358e-06
6.60553823969275e-06
6.56727150604698e-06
6.49334458078497e-06
6.35863711212946e-06
6.12758788797288e-06
5.75515000359132e-06
5.19153936508559e-06
4.3912602645995e-06
3.32519925649462e-06
1.99271807592374e-06
5.97515797850303e-09
2.2752900390194e-11
2.27878835978025e-11
6.01074612962207e-09
2.0091028659488e-06
3.35400804422108e-06
4.43045276725179e-06
5.23910698871745e-06
5.8091377278034e-06
6.18620214322035e-06
6.42036506449601e-06
6.55702304875491e-06
6.63208599882566e-06
6.67096808260728e-06
6.69000568780924e-06
6.69883858792924e-06
6.70273205475482e-06
6.70436659648969e-06
6.70502164549808e-06
6.70527269360505e-06
6.70536477084927e-06
6.70539702036016e-06
6.70540769560883e-06
6.70541091289052e-06
6.70541165947782e-06
6.70541164423276e-06
6.70541143118087e-06
6.70541117149716e-06
6.70541086172437e-06
6.70541033959804e-06
6.70540905119485e-06
6.70540529990328e-06
6.70539410802769e-06
6.70536143601144e-06
6.70526928985154e-06
6.70501928208623e-06
6.70436836678393e-06
6.70274578604621e-06
6.69888235947342e-06
6.69011760548572e-06
6.6712210899953e-06
6.6326057343998e-06
6.55800115686408e-06
6.422053123677e-06
6.18886732195621e-06
5.81296823193394e-06
5.24407897086581e-06
4.43620631733183e-06
3.35981044093132e-06
2.0139685677626e-06
6.03926142565418e-09
2.29882628603918e-11
2.29589695972993e-11
6.05737440322958e-09
2.02459745569464e-06
3.37927577285203e-06
4.46332589671087e-06
5.27762117549939e-06
5.85162732797515e-06
6.23134746924856e-06
6.46718973550317e-06
6.60485239438996e-06
6.68048419259215e-06
6.719671449665e-06
6.73886445113521e-06
6.74777262649522e-06
6.75170087447125e-06
6.75335079563995e-06
6.75401238180337e-06
6.75426612029016e-06
6.75435928382148e-06
6.75439197461568e-06
6.75440283844912e-06
6.75440614679873e-06
6.75440694480413e-06
6.75440696088418e-06
6.7544067664692e-06
6.75440651639589e-06
6.7544062079578e-06
6.75440567816731e-06
6.75440437000074e-06
6.75440057718038e-06
6.75438929321308e-06
6.75435639543338e-06
6.75426365911159e-06
6.75401208416978e-06
6.7533570765024e-06
6.75172417031829e-06
6.74783580522714e-06
6.73901370927976e-06
6.71999214891027e-06
6.68111894499556e-06
6.60601280030589e-06
6.46914605353431e-06
6.23437732187822e-06
5.85591304217659e-06
5.28311034329989e-06
4.46960566395379e-06
3.38553978744499e-06
2.02977242711226e-06
6.08681061132335e-09
2.31621039925364e-11
2.30821438501828e-11
6.09108455098695e-09
2.03584153702974e-06
3.39763131392158e-06
4.48722760707951e-06
5.30564649258399e-06
5.88256634401377e-06
6.2642385596198e-06
6.50131909121682e-06
6.63972506455929e-06
6.71577926785357e-06
6.75519402185702e-06
6.77450334904729e-06
6.78346812299767e-06
6.78742264573537e-06
6.78908424389698e-06
6.78975082130252e-06
6.79000662745428e-06
6.79010063291946e-06
6.79013366990901e-06
6.79014468446997e-06
6.79014806729084e-06
6.79014890877138e-06
6.79014895249693e-06
6.79014877524885e-06
6.79014853493261e-06
6.79014822953566e-06
6.7901476956042e-06
6.79014637392417e-06
6.79014255136737e-06
6.7901312009758e-06
6.7900981408127e-06
6.79000498096369e-06
6.78975228119018e-06
6.78909433158516e-06
6.78745398701962e-06
6.78354761856377e-06
6.77468404832967e-06
6.75557189889978e-06
6.71651164573694e-06
6.6410412574337e-06
6.50350674984332e-06
6.26758666468499e-06
5.88725546138301e-06
5.31160298911022e-06
4.49399452345462e-06
3.40433548894342e-06
2.04132218246118e-06
6.12146841309862e-09
2.32882878492369e-11
2.31689107812079e-11
6.11492958320223e-09
2.04382690276015e-06
3.4106844721653e-06
4.50424363824831e-06
5.32561728432187e-06
5.90463125916145e-06
6.28771102789982e-06
6.52568754639472e-06
6.66463339617805e-06
6.74099563389923e-06
6.78057699968981e-06
6.79997190796196e-06
6.80897852202431e-06
6.81295256722607e-06
6.81462288889959e-06
6.81529321751908e-06
6.8155505885537e-06
6.8156452369894e-06
6.81567854180133e-06
6.81568967526463e-06
6.81569311831144e-06
6.81569399628479e-06
6.81569406426536e-06
6.81569390273475e-06
6.81569367219545e-06
6.81569337125774e-06
6.81569283620355e-06
6.81569150634019e-06
6.81568766387882e-06
6.81567626786e-06
6.81564309551653e-06
6.81554964239854e-06
6.81529616129415e-06
6.81463616023044e-06
6.8129906082811e-06
6.80907159047497e-06
6.80017878781969e-06
6.78100261735913e-06
6.74180987846053e-06
6.66608102526975e-06
6.52807196349926e-06
6.29133262502722e-06
5.90967157110675e-06
5.33198715400758e-06
4.51144973512164e-06
3.41779434970986e-06
2.04959663377645e-06
6.14623556616003e-09
2.33781091553901e-11
2.32282843468074e-11
6.13131298404862e-09
2.0493365127699e-06
3.41970592537161e-06
4.51602050300889e-06
5.33945575542803e-06
5.9199361902159e-06
6.30400546850619e-06
6.54261449187226e-06
6.68194315948071e-06
6.75852485948355e-06
6.79822552743387e-06
6.81768204172257e-06
6.8267189431254e-06
6.83070720357661e-06
6.83238391709592e-06
6.83305701317695e-06
6.83331554795519e-06
6.83341067949339e-06
6.83344418855608e-06
6.83345541475696e-06
6.83345890615478e-06
6.83345981467536e-06
6.83345990388258e-06
6.83345975668271e-06
6.83345953585392e-06
6.83345924051804e-06
6.83345870683803e-06
6.83345737321288e-06
6.83345351891428e-06
6.83344209401998e-06
6.8334088492731e-06
6.8333152049366e-06
6.83306120973168e-06
6.83239984689209e-06
6.83075081015621e-06
6.82682326729603e-06
6.81791064448332e-06
6.79869084714769e-06
6.75940744748334e-06
6.68350111108477e-06
6.54516524426512e-06
6.30786036677574e-06
5.92527942734183e-06
5.34618693372265e-06
4.52361639675149e-06
3.42718216158563e-06
2.05537248178496e-06
6.16348812411429e-09
2.3440466521188e-11
2.32670315772913e-11
6.14204714530554e-09
2.05296262840777e-06
3.42565726059929e-06
4.52380480583215e-06
5.34861802240243e-06
5.93008349214071e-06
6.31482093304573e-06
6.55385945847533e-06
6.69344964489147e-06
6.77018222957525e-06
6.80996547127626e-06
6.82946492626713e-06
6.83852309410673e-06
6.84252141261152e-06
6.84420268535688e-06
6.84487777282381e-06
6.84513715356627e-06
6.84523264093946e-06
6.84526630333663e-06
6.84527760116165e-06
6.84528113123404e-06
6.84528206543306e-06
6.84528217330419e-06
6.84528203906693e-06
6.84528182780099e-06
6.84528153891827e-06
6.84528100858587e-06
6.84527967474911e-06
6.84527581512898e-06
6.84526437489e-06
6.845231089688e-06
6.84513733551129e-06
6.84488303786044e-06
6.84422085621339e-06
6.84256968380007e-06
6.83863683146237e-06
6.82971169838533e-06
6.81046405948003e-06
6.77112227709406e-06
6.69510079565009e-06
6.55655161003587e-06
6.31887571130106e-06
5.93568871824796e-06
5.35566514948941e-06
4.531745848754e-06
3.43346241340624e-06
2.05924145493022e-06
6.17503264546764e-09
2.34820969628474e-11
2.32899313245612e-11
6.14841713998014e-09
2.05512656422355e-06
3.42922311093293e-06
4.52848485982758e-06
5.35414254519389e-06
5.93621679099403e-06
6.32137087808587e-06
6.56067979450791e-06
6.70043630075348e-06
6.7772658837084e-06
6.81710280035921e-06
6.83663049087228e-06
6.84570280897631e-06
6.84970790168242e-06
6.85139228396263e-06
6.85206874799037e-06
6.85232872257901e-06
6.85242446469761e-06
6.85245823996587e-06
6.85246959263387e-06
6.85247315363272e-06
6.85247410987607e-06
6.85247423451558e-06
6.85247411166473e-06
6.852473909741e-06
6.85247362789046e-06
6.85247310236785e-06
6.85247177106316e-06
6.85246791134012e-06
6.85245646686459e-06
6.85242316774998e-06
6.85232937136396e-06
6.85207494618662e-06
6.85141239105293e-06
6.84976018076397e-06
6.84582461618279e-06
6.83689283751563e-06
6.81762994622136e-06
6.7782553898394e-06
6.70216799893177e-06
6.56349478414764e-06
6.32560041640567e-06
5.94205284557246e-06
5.36147052346204e-06
4.53673578129457e-06
3.43732684668964e-06
2.06162879163442e-06
6.18216555071821e-09
2.35078199868499e-11
2.33000051148227e-11
6.1512384694139e-09
2.05609656943052e-06
3.43083998201678e-06
4.53062769741575e-06
5.35669300562238e-06
5.93906785792088e-06
6.32443259814791e-06
6.56388163772065e-06
6.70372657410588e-06
6.78060912616217e-06
6.82047613188588e-06
6.84002007641136e-06
6.84910075914436e-06
6.85310996375778e-06
6.85479628515943e-06
6.85547363283449e-06
6.85573400181515e-06
6.8558299208466e-06
6.85586377954154e-06
6.85587517611114e-06
6.85587876377004e-06
6.85587974006967e-06
6.85587988023408e-06
6.85587976910986e-06
6.85587957633354e-06
6.85587930145865e-06
6.85587878094092e-06
6.85587745298112e-06
6.85587359567374e-06
6.85586215431154e-06
6.85582886207977e-06
6.85573508062051e-06
6.85548067967337e-06
6.85481813922789e-06
6.85316584385183e-06
6.84922980406689e-06
6.84029638869924e-06
6.82102890941594e-06
6.78164311019257e-06
6.70553093179721e-06
6.56680783738364e-06
6.32882107628215e-06
5.94511499683804e-06
5.36427943652441e-06
4.53916580175049e-06
3.43922264972841e-06
2.06280977403681e-06
6.18572600144497e-09
2.35207512945914e-11
2.32986836676157e-11
6.15089891924513e-09
2.05600105726735e-06
3.43071777440919e-06
4.5305069143091e-06
5.35659059391497e-06
5.93899180172093e-06
6.324384211951e-06
6.56385794647271e-06
6.70372251002268e-06
6.78061924830185e-06
6.82049568386795e-06
6.84004544943098e-06
6.84912949029261e-06
6.85314051961647e-06
6.85482778360408e-06
6.85550560045615e-06
6.85576619949012e-06
6.85586223372684e-06
6.85589615434058e-06
6.85590758822556e-06
6.85591120103581e-06
6.85591219696877e-06
6.855912352977e-06
6.8559122538147e-06
6.8559120699199e-06
6.85591180140197e-06
6.85591128503817e-06
6.85590995971394e-06
6.85590610535827e-06
6.85589467204757e-06
6.85586140465186e-06
6.85576769165342e-06
6.85551346071991e-06
6.85485130888556e-06
6.85319984077226e-06
6.84926544826637e-06
6.84033510109744e-06
6.82107295317576e-06
6.78169575699708e-06
6.70559638814652e-06
6.56689073169126e-06
6.32892535741817e-06
5.94524224368777e-06
5.36442676098737e-06
4.53932361396652e-06
3.43937244942952e-06
2.06292187043892e-06
6.18613454863889e-09
2.35224579256206e-11
2.32859088253613e-11
6.14738485696909e-09
2.05483644481823e-06
3.42885172286377e-06
4.52811763674766e-06
5.35383109618235e-06
5.93598557140442e-06
6.32122406615591e-06
6.56060844967103e-06
6.70042502684388e-06
6.77729807539492e-06
6.81716392375206e-06
6.83670948078195e-06
6.84579210987821e-06
6.84980280561799e-06
6.85149008105386e-06
6.85216798351992e-06
6.85242866178227e-06
6.85252475485038e-06
6.85255871762024e-06
6.85257018253518e-06
6.85257381887226e-06
6.85257483392531e-06
6.85257500557106e-06
6.85257491819007e-06
6.85257474274402e-06
6.85257447993528e-06
6.85257396699828e-06
6.85257264392669e-06
6.85256879374776e-06
6.85255737484829e-06
6.85252415330576e-06
6.85243056909597e-06
6.85217666895416e-06
6.85151531185124e-06
6.84986564943119e-06
6.84593515486183e-06
6.83701281368601e-06
6.81776630958453e-06
6.7784181731156e-06
6.70237007446619e-06
6.56375026684815e-06
6.32592126472448e-06
5.94244367890653e-06
5.36192224070715e-06
4.53721882302556e-06
3.43778458785037e-06
2.06197068595002e-06
6.18341058779182e-09
2.35130201299915e-11
2.32601549890175e-11
6.1402857847976e-09
2.05246795321071e-06
3.42502311699576e-06
4.52317698880226e-06
5.34808514778075e-06
5.92968807029379e-06
6.31457076245334e-06
6.55373962484726e-06
6.69343387147274e-06
6.77024193477599e-06
6.81007551328939e-06
6.82960609719569e-06
6.83868224729883e-06
6.84269034194188e-06
6.84437666181007e-06
6.84505425597958e-06
6.84531485997019e-06
6.84541095463801e-06
6.84544493919929e-06
6.84545642825511e-06
6.84546008593169e-06
6.84546111916826e-06
6.84546130579556e-06
6.84546122969469e-06
6.84546106214749e-06
6.84546080447159e-06
6.84546029452421e-06
6.84545897393306e-06
6.84545513033447e-06
6.84544373465047e-06
6.84541058547025e-06
6.84531720334529e-06
6.84506382572617e-06
6.84440374214878e-06
6.84275702922548e-06
6.83883304501198e-06
6.82992440489304e-06
6.81070536959778e-06
6.77140962640762e-06
6.69545646231705e-06
6.55699985726134e-06
6.31943680903211e-06
5.93636994356117e-06
5.35644986663363e-06
4.53258219198725e-06
3.4342523895723e-06
2.05982966054679e-06
6.17717304314242e-09
2.34910503368848e-11
2.32183309788699e-11
6.12877023551203e-09
2.04862299625753e-06