/*--------------------------------*- C++ -*----------------------------------*\
  =========                 |
  \\      /  F ield         | OpenFOAM: The Open Source CFD Toolbox
   \\    /   O peration     | Website:  https://openfoam.org
    \\  /    A nd           | Version:  10
     \\/     M anipulation  |
\*---------------------------------------------------------------------------*/
FoamFile
{
    format      ascii;
    class       volScalarField;
    location    "6.2";
    object      h;
}
// * * * * * * * * * * * * * * * * * * * * * * * * * * * * * * * * * * * * * //

dimensions      [0 2 -2 0 0 0 0];

internalField   nonuniform List<scalar> 
2500
(
6459.16534333367
6452.17074214837
6438.87180318287
6429.60136858733
6424.15205029861
6421.13709957202
6419.52604270478
6418.69365542511
6418.28055079823
6418.08543817553
6417.9962112476
6417.95740312547
6417.94118546198
6417.93405331364
6417.93072417143
6417.92874027876
6417.92782156982
6417.92696966611
6417.92609783657
6417.92549398926
6417.92498371437
6417.92454418929
6417.92418336744
6417.92395967531
6417.92373131905
6417.9235390876
6417.92346840604
6417.92344233635
6417.92347457502
6417.92357975925
6417.92376629057
6417.92411483622
6417.92454418641
6417.92513894595
6417.92601722671
6417.92758960832
6417.93087928284
6417.93821638297
6417.95614395028
6417.99722265477
6418.08973798146
6418.290455666
6418.70809532085
6419.54132330497
6421.14600342047
6424.14010003623
6429.57358566314
6438.88751586363
6452.30036006537
6459.04720169467
5474.98004423166
5440.90814302968
5402.69797937515
5376.4634376739
5360.61586788157
5351.53271167864
5346.49205690634
5343.78923211829
5342.39875408796
5341.71619550206
5341.39642675279
5341.25376722063
5341.19305080933
5341.1680484063
5341.15797141081
5341.15380590973
5341.15213860909
5341.15124641092
5341.15059413208
5341.15014643878
5341.14977456182
5341.14944112199
5341.14916031107
5341.14897122347
5341.14880276414
5341.1486588796
5341.14858741665
5341.14854495469
5341.14852860049
5341.14856818958
5341.14866990114
5341.14889586163
5341.14935228112
5341.15022802144
5341.1520536596
5341.15648190294
5341.16758081277
5341.19490595819
5341.26048191854
5341.41092434783
5341.74201280858
5342.43885186869
5343.84077898242
5346.54219951384
5351.55560332648
5360.58301112037
5376.4049049427
5402.80190111208
5441.41976516697
5474.61651577273
4489.73284152766
4433.03836617958
4379.8725358634
4344.48922634301
4323.30581297994
4311.21055924086
4304.50747167662
4300.91117172404
4299.05693924408
4298.14329292021
4297.71385564708
4297.52155067442
4297.43945773773
4297.40585846638
4297.39259283143
4297.38745662974
4297.3855298057
4297.38471184016
4297.3842568209
4297.38397046153
4297.38373563772
4297.3835123775
4297.38331548242
4297.38317912883
4297.3830691442
4297.38297360896
4297.38291811126
4297.38287533732
4297.38283719815
4297.3828283047
4297.38285735388
4297.38298717812
4297.38341249806
4297.38437126244
4297.38656832047
4297.39224551978
4297.40689591041
4297.44342700372
4297.53111883247
4297.73250404862
4298.1750908337
4299.10475249019
4300.97172463225
4304.56581114651
4311.23769459434
4323.27817936309
4344.47322716544
4380.17018178692
4434.10596746964
4490.27155842654
3633.00913128038
3567.70929416676
3514.21368648433
3479.98722617195
3460.11605096211
3449.08455365686
3443.12161907638
3439.98826082847
3438.39953545422
3437.62705281477
3437.26792222031
3437.10854362168
3437.04104360239
3437.01367424087
3437.00301422213
3436.99900380817
3436.99756083265
3436.99701465306
3436.99675928478
3436.99661240561
3436.99648912668
3436.99635830341
3436.99623328498
3436.99614564645
3436.99608192469
3436.99602592754
3436.99598973981
3436.99595565116
3436.99591546556
3436.99589199082
3436.99587948458
3436.99589694527
3436.9961797159
3436.99690130604
3436.99854747916
3437.00294047218
3437.0145243933
3437.04384794905
3437.11506969456
3437.28062316833
3437.64898233489
3438.43321040019
3440.03242350298
3443.16712390445
3449.11350652062
3460.12317962088
3480.06710895967
3514.72215395255
3569.25123422701
3634.90690275043
2971.02796225834
2910.61087003184
2865.84048102789
2838.2968764144
2822.81332125924
2814.46773179089
2810.07130802711
2807.8084248302
2806.67895439879
2806.13608191242
2805.8858249622
2805.77544466063
2805.72891980432
2805.71015165121
2805.7029015858
2805.70022804635
2805.6993041182
2805.69898956856
2805.69886862767
2805.69881130572
2805.69876219112
2805.6986975622
2805.69862637907
2805.69857603749
2805.69854442403
2805.69851649002
2805.69849626697
2805.6984731167
2805.69844087829
2805.69841455881
2805.69838463265
2805.69834920108
2805.69850925638
2805.69896856772
2805.70001575176
2805.7028950301
2805.71061308082
2805.73036341804
2805.77876467155
2805.89230252993
2806.14741637534
2806.69674949722
2807.83248263233
2810.09735875529
2814.48803824936
2822.83625225072
2838.42427659281
2866.4233732321
2912.32206988414
2973.87277395965
2509.33565045705
2461.60421799559
2428.96639303367
2409.62080547622
2399.08335837814
2393.5653118008
2390.73025593105
2389.29941935509
2388.59533172818
2388.26016933823
2388.10662205387
2388.03915210207
2388.01078123508
2387.99936431667
2387.99497774698
2387.99338597119
2387.99285833586
2387.99269783112
2387.99265074927
2387.99264038524
2387.99263266676
2387.99260881804
2387.99257286054
2387.99254724628
2387.99253501745
2387.99252388578
2387.99251413825
2387.99250033542
2387.99247843403
2387.99245600778
2387.99242480172
2387.99237772516
2387.99245484015
2387.99271016442
2387.9933019931
2387.99498594218
2387.9995594675
2388.01135275113
2388.0404422517
2388.1091246022
2388.26458670714
2388.60239765577
2389.30911330458
2390.74075551107
2393.57419227907
2399.10318597802
2409.7403921256
2429.48569973307
2463.16220992591
2512.38856006017
2215.21176725072
2181.92534096899
2160.64833974691
2148.46909548716
2142.03140489881
2138.75185868925
2137.1067385977
2136.29171569417
2135.89579454042
2135.70884112375
2135.62357085121
2135.58617432278
2135.57045838068
2135.5641383837
2135.56171936641
2135.56085321953
2135.5605765109
2135.56050923502
2135.56050339576
2135.56050415876
2135.5605078403
2135.56050584324
2135.56049023024
2135.5604791597
2135.56047711075
2135.56047411144
2135.56047008039
2135.56046285917
2135.56044962652
2135.56043344016
2135.56040873122
2135.56036994777
2135.56039965401
2135.56052457125
2135.56082936973
2135.56173146551
2135.56420670656
2135.57062132551
2135.58651394329
2135.62419851212
2135.70993667579
2135.89755281333
2136.29398711699
2137.10854518984
2138.75243672726
2142.04113604259
2148.55340708194
2161.03339505964
2183.13850671373
2217.87391952426
2042.40180139915
2021.47225489673
2008.84762912511
2001.85263381109
1998.25838343953
1996.47445483716
1995.5997501086
1995.17395912733
1994.96954947096
1994.87368261235
1994.83008945955
1994.81098065746
1994.80294419828
1994.79971095649
1994.79847707079
1994.7980405507
1994.79790989395
1994.79788766355
1994.7978921303
1994.79789801807
1994.79790200993
1994.79790367554
1994.797899525
1994.79789631079
1994.79789834023
1994.79789824547
1994.79789682458
1994.79789342829
1994.7978860663
1994.7978757155
1994.79785930433
1994.79783506133
1994.7978397324
1994.79789201965
1994.79804012584
1994.79848983381
1994.79973314741
1994.80296468127
1994.81099239009
1994.83007243042
1994.87362066841
1994.96940623524
1995.17348701064
1995.59820679255
1996.47121122988
1998.25972498996
2001.90044907548
2009.09452884519
2022.30325698986
2044.3967741285
1947.9994262552
1935.954843363
1929.04780723437
1925.33531106845
1923.47769473226
1922.5780614782
1922.14642458014
1921.93980896941
1921.8417045142
1921.7959622232
1921.77520244227
1921.76609722531
1921.76226133236
1921.76071624294
1921.76012805898
1921.75992237386
1921.75986625282
1921.75986154606
1921.75986652666
1921.75987212579
1921.75987532867
1921.75987719617
1921.75987737038
1921.75987781164
1921.75987967231
1921.75988042149
1921.75988005133
1921.75987831148
1921.75987444865
1921.75986842685
1921.75985877168
1921.75984570094
1921.75984338666
1921.75986231855
1921.75992872369
1921.76013931099
1921.76072532322
1921.76225070675
1921.76604434816
1921.77506673958
1921.79568862173
1921.84120329458
1921.93883466835
1922.14436685286
1922.57417859238
1923.47490150579
1925.35737675293
1929.18802770004
1936.46579472793
1949.32551448694
1899.71829222146
1893.30213342947
1889.78230627035
1887.94332531722
1887.04577848105
1886.62102848471
1886.42141442073
1886.32739279086
1886.28321177313
1886.26271709625
1886.25342618259
1886.24934548892
1886.24762219051
1886.24692692808
1886.24666287846
1886.24657213231
1886.24654957393
1886.24654958225
1886.24655342927
1886.2465573177
1886.24655987418
1886.24656150172
1886.24656224117
1886.24656309747
1886.24656436397
1886.24656507675
1886.24656499675
1886.24656410235
1886.24656218506
1886.24655894652
1886.24655375723
1886.24654702923
1886.24654445305
1886.24655046404
1886.246578009
1886.2466713091
1886.24693259936
1886.24761315716
1886.24930535316
1886.2533263634
1886.26251531016
1886.2828344159
1886.32665373495
1886.41985656296
1886.61794687313
1887.0421224416
1887.95121308247
1889.85396050323
1893.58843084794
1900.51640779966
1876.46143498013
1873.26928197664
1871.58491591823
1870.72789553336
1870.31926297704
1870.13004405247
1870.04286078462
1870.00243155771
1869.98362220553
1869.97493692737
1869.97100160482
1869.96926968692
1869.96853615722
1869.96823967013
1869.96812733037
1869.96808956555
1869.9680810601
1869.96808186272
1869.96808424693
1869.9680865398
1869.96808816216
1869.96808923455
1869.96808986115
1869.96809051842
1869.9680912491
1869.96809170085
1869.96809168335
1869.96809124377
1869.9680903328
1869.96808870522
1869.96808611809
1869.96808284637
1869.96808126049
1869.9680828036
1869.9680935176
1869.96813285216
1869.96824376444
1869.96853273148
1869.96925024057
1869.97095142141
1869.97483277109
1869.9834192273
1870.00201123511
1870.04192068261
1870.12804331492
1870.31628759108
1870.72954579628
1871.6182026963
1873.41719244687
1876.90274813217
1865.85501465151
1864.36095609424
1863.59899285187
1863.22075814254
1863.04432055047
1862.96427630921
1862.92808573664
1862.91155523002
1862.90393848241
1862.90043624913
1862.8988494758
1862.89814943645
1862.89785198292
1862.89773152088
1862.89768597848
1862.89767101724
1862.89766801349
1862.89766867967
1862.89766997007
1862.89767117906
1862.89767206895
1862.89767267542
1862.89767307348
1862.89767346777
1862.89767384336
1862.89767408035
1862.89767407731
1862.8976738715
1862.89767345117
1862.89767268051
1862.89767147125
1862.89766996584
1862.89766916792
1862.89766942522
1862.89767337176
1862.89768921021
1862.89773426751
1862.89785168979
1862.8981425466
1862.89882983436
1862.90039341274
1862.90384938988
1862.91135343175
1862.92759249762
1862.96313848633
1863.04236741609
1863.220345941
1863.6131320199
1864.43207127988
1866.0816758615
1861.254382578
1860.59255390783
1860.2648917387
1860.10593772935
1860.03329736784
1860.00097180893
1859.98661741789
1859.98015650517
1859.97720745174
1859.97585682781
1859.97524473986
1859.9749739626
1859.97485850985
1859.97481166188
1859.97479399248
1859.9747883199
1859.97478732419
1859.97478772172
1859.97478835479
1859.97478893947
1859.97478938101
1859.97478968956
1859.9747899056
1859.97479011053
1859.97479028725
1859.97479039571
1859.97479039551
1859.97479030529
1859.97479011738
1859.97478977185
1859.97478923804
1859.97478857933
1859.97478818759
1859.97478816951
1859.97478959065
1859.97479570276
1859.9748132997
1859.97485917461
1859.97497243563
1859.97523890962
1859.97584272473
1859.97717457153
1859.9800711061
1859.98638356409
1860.00038569796
1860.03217996323
1860.10519069472
1860.27039016043
1860.62461513967
1861.36344873755
1859.34871016329
1859.06982144975
1858.93525291684
1858.87134813422
1858.84270116741
1858.83018202169
1858.82471735548
1858.8222925083
1858.82119587233
1858.82069553137
1858.82046867712
1858.8203680255
1858.82032495685
1858.820307446
1858.82030085719
1858.8202987971
1858.82029848868
1858.82029868196
1858.82029896842
1858.82029923132
1858.82029943367
1858.82029957804
1858.82029968297
1858.820299779
1858.82029985615
1858.82029990241
1858.82029990267
1858.82029986384
1858.82029978297
1858.82029963587
1858.82029941228
1858.82029913785
1858.82029895699
1858.82029891307
1858.82029941182
1858.82030168702
1858.82030832047
1858.82032561833
1858.8203681558
1858.82046772439
1858.82069223419
1858.82118588344
1858.82226001356
1858.82461489421
1858.82990297721
1858.84212338911
1858.87078257481
1858.93720095678
1859.08345929166
1859.39822118886
1858.59220508838
1858.4799208529
1858.42692901362
1858.40225398749
1858.39139008238
1858.38672249003
1858.38471794322
1858.38384062368
1858.38344742838
1858.38326869003
1858.38318760137
1858.38315151332
1858.3831360148
1858.38312970049
1858.38312732997
1858.38312660626
1858.38312651552
1858.38312660183
1858.3831267227
1858.38312683331
1858.38312691971
1858.3831269824
1858.38312702896
1858.3831270703
1858.38312710172
1858.3831271201
1858.38312712026
1858.38312710425
1858.38312707096
1858.38312701145
1858.38312692241
1858.38312681356
1858.38312673601
1858.3831267099
1858.38312688155
1858.38312770159
1858.38313012374
1858.38313643943
1858.38315189987
1858.38318788198
1858.38326855651
1858.38344521934
1858.38382940348
1858.38467581262
1858.38659800045
1858.39111429895
1858.40192107466
1858.42754800983
1858.48542261762
1858.61353094395
1858.30347808241
1858.26012213705
1858.24004522149
1858.23086386605
1858.22688873575
1858.2252078388
1858.22449696265
1858.22418992572
1858.22405352739
1858.22399174407
1858.2239636949
1858.22395117212
1858.22394577351
1858.22394356878
1858.22394274208
1858.22394249396
1858.22394246774
1858.2239425029
1858.22394255034
1858.22394259376
1858.22394262803
1858.22394265321
1858.22394267215
1858.22394268854
1858.22394270045
1858.22394270732
1858.22394270737
1858.22394270101
1858.22394268801
1858.22394266523
1858.22394263163
1858.22394259072
1858.22394255998
1858.22394254834
1858.22394260708
1858.22394289561
1858.22394375553
1858.22394599505
1858.22395144893
1858.22396406336
1858.22399216901
1858.22405341521
1858.22418639995
1858.22448050888
1858.2251552658
1858.22676551503
1858.23069325468
1858.24021449342
1858.26223628472
1858.31223601521
1858.19723362562
1858.18112526762
1858.17378557091
1858.17048387511
1858.16907645502
1858.16849010049
1858.16824567278
1858.16814142474
1858.16809550741
1858.16807477962
1858.16806536133
1858.16806114207
1858.16805931526
1858.1680585665
1858.16805828514
1858.16805820068
1858.16805819194
1858.16805820445
1858.16805822129
1858.16805823676
1858.16805824905
1858.16805825812
1858.16805826498
1858.16805827081
1858.16805827489
1858.16805827718
1858.16805827715
1858.16805827482
1858.16805827011
1858.16805826203
1858.16805825025
1858.16805823599
1858.16805822504
1858.16805822102
1858.16805824194
1858.16805834235
1858.1680586407
1858.16805941457
1858.16806128728
1858.16806558911
1858.16807510859
1858.16809573704
1858.16814041745
1858.16823950671
1858.1684689178
1858.16902440457
1858.17040435423
1858.17382051057
1858.18190194696
1858.2006769472
1858.15944404628
1858.15366862074
1858.15107292051
1858.14992256828
1858.14943919774
1858.14924057793
1858.1491588873
1858.14912445883
1858.14910941728
1858.14910264849
1858.14909956898
1858.14909818355
1858.14909758002
1858.14909733071
1858.14909723604
1858.14909720619
1858.14909720154
1858.14909720473
1858.14909720949
1858.14909721394
1858.14909721744
1858.14909721997
1858.14909722187
1858.14909722349
1858.14909722458
1858.14909722517
1858.14909722509
1858.14909722434
1858.1490972229
1858.14909722045
1858.14909721691
1858.14909721268
1858.14909720964
1858.14909720926
1858.14909721779
1858.14909725321
1858.1490973555
1858.14909761766
1858.149098246
1858.14909967733
1858.14910282038
1858.14910958792
1858.14912419633
1858.14915664846
1858.14923238243
1858.14941825433
1858.14988809315
1858.15107473665
1858.1539422591
1858.1607447537
1858.14642205482
1858.14441870113
1858.14352871277
1858.14313956061
1858.1429781809
1858.14291270856
1858.14288611262
1858.14287502676
1858.14287021927
1858.14286806088
1858.14286707629
1858.14286663022
1858.14286643354
1858.14286635054
1858.1428663176
1858.14286630576
1858.14286630226
1858.14286630159
1858.14286630175
1858.14286630202
1858.14286630217
1858.14286630218
1858.14286630215
1858.14286630217
1858.14286630218
1858.14286630215
1858.14286630204
1858.1428663019
1858.14286630168
1858.14286630132
1858.14286630077
1858.14286630018
1858.1428663002
1858.14286630143
1858.14286630587
1858.14286631933
1858.14286635507
1858.14286644345
1858.14286665111
1858.14286711802
1858.14286813308
1858.14287030165
1858.14287496106
1858.14288531632
1858.14290964626
1858.14297010565
1858.14312546809
1858.14352539978
1858.14451140349
1858.1468955916
1858.14206574968
1858.14139191293
1858.14109550654
1858.14096745442
1858.14091498333
1858.14089394163
1858.14088548945
1858.14088200044
1858.1408804962
1858.14087982072
1858.14087951035
1858.14087936744
1858.14087930248
1858.14087927338
1858.14087926032
1858.14087925418
1858.14087925095
1858.1408792489
1858.14087924738
1858.14087924612
1858.14087924504
1858.14087924411
1858.14087924336
1858.1408792428
1858.1408792424
1858.14087924216
1858.14087924207
1858.14087924215
1858.14087924238
1858.14087924275
1858.14087924328
1858.140879244
1858.14087924514
1858.14087924693
1858.14087925005
1858.14087925633
1858.14087927006
1858.14087930094
1858.14087937001
1858.1408795211
1858.14087984395
1858.14088052564
1858.1408819799
1858.14088520717
1858.14089282928
1858.14091198374
1858.14096197232
1858.14109299239
1858.14142217829
1858.14223235146
1858.14064830524
1858.14042809684
1858.14033206696
1858.14029102558
1858.1402743867
1858.14026778241
1858.14026515446
1858.14026407727
1858.1402636135
1858.14026340355
1858.14026330492
1858.14026325749
1858.14026323412
1858.14026322206
1858.14026321524
1858.14026321087
1858.14026320768
1858.14026320514
1858.14026320302
1858.14026320123
1858.1402631997
1858.14026319844
1858.14026319742
1858.14026319665
1858.14026319612
1858.14026319581
1858.14026319572
1858.14026319588
1858.14026319627
1858.14026319691
1858.1402631978
1858.14026319897
1858.14026320052
1858.14026320252
1858.14026320522
1858.14026320921
1858.14026321585
1858.14026322817
1858.14026325268
1858.1402633028
1858.14026340582
1858.14026361824
1858.1402640651
1858.14026505104
1858.14026738528
1858.14027330684
1858.14028898158
1858.1403307642
1858.14043763595
1858.14070508468
1858.14019896262
1858.14012893011
1858.1400986455
1858.14008582787
1858.14008067786
1858.14007865009
1858.14007784779
1858.1400775189
1858.14007737555
1858.14007730849
1858.14007727489
1858.14007725686
1858.14007724634
1858.14007723953
1858.14007723464
1858.14007723079
1858.14007722761
1858.14007722489
1858.14007722256
1858.14007722058
1858.1400772189
1858.14007721751
1858.1400772164
1858.14007721556
1858.14007721497
1858.14007721464
1858.14007721457
1858.14007721475
1858.1400772152
1858.14007721593
1858.14007721695
1858.14007721828
1858.14007721997
1858.14007722205
1858.14007722463
1858.14007722791
1858.14007723231
1858.14007723878
1858.14007724928
1858.14007726786
1858.14007730262
1858.14007737024
1858.14007750766
1858.14007780544
1858.14007850719
1858.14008029731
1858.14008509238
1858.14009807015
1858.14013183587
1858.14021774605
1858.14005996603
1858.14003827095
1858.14002899022
1858.14002509848
1858.14002354407
1858.14002293373
1858.14002269111
1858.14002258946
1858.14002254276
1858.14002251866
1858.14002250463
1858.14002249547
1858.14002248883
1858.14002248363
1858.14002247931
1858.14002247562
1858.14002247243
1858.14002246965
1858.14002246725
1858.1400224652
1858.14002246346
1858.14002246203
1858.14002246089
1858.14002246002
1858.14002245942
1858.14002245908
1858.14002245901
1858.14002245921
1858.14002245968
1858.14002246045
1858.14002246151
1858.1400224629
1858.14002246464
1858.14002246676
1858.14002246931
1858.14002247236
1858.14002247607
1858.14002248073
1858.14002248693
1858.14002249585
1858.14002250985
1858.14002253374
1858.14002257814
1858.1400226693
1858.14002287866
1858.14002340976
1858.14002484056
1858.14002875882
1858.14003912615
1858.14006600714
1858.14001795172
1858.14001141129
1858.14000867445
1858.14000753896
1858.14000708448
1858.14000690364
1858.14000682904
1858.14000679503
1858.14000677691
1858.1400067655
1858.14000675725
1858.14000675072
1858.14000674524
1858.14000674052
1858.14000673638
1858.14000673274
1858.14000672954
1858.14000672674
1858.14000672432
1858.14000672224
1858.14000672049
1858.14000671905
1858.14000671789
1858.14000671701
1858.14000671641
1858.14000671607
1858.14000671601
1858.14000671621
1858.14000671669
1858.14000671747
1858.14000671855
1858.14000671996
1858.14000672172
1858.14000672385
1858.14000672639
1858.14000672938
1858.14000673288
1858.14000673699
1858.14000674189
1858.14000674791
1858.14000675572
1858.14000676665
1858.14000678365
1858.14000681407
1858.14000687816
1858.14000703424
1858.14000744898
1858.14000858676
1858.14001165336
1858.14001984178
1858.14000552633
1858.14000362148
1858.14000287571
1858.14000257228
1858.14000244705
1858.14000239366
1858.14000236848
1858.14000235421
1858.14000234439
1858.14000233665
1858.14000233009
1858.14000232432
1858.1400023192
1858.14000231462
1858.14000231054
1858.14000230692
1858.14000230373
1858.14000230093
1858.1400022985
1858.14000229643
1858.14000229467
1858.14000229323
1858.14000229207
1858.14000229119
1858.14000229059
1858.14000229026
1858.14000229019
1858.1400022904
1858.14000229089
1858.14000229167
1858.14000229276
1858.14000229417
1858.14000229594
1858.14000229807
1858.14000230061
1858.14000230358
1858.14000230701
1858.14000231095
1858.14000231545
1858.14000232062
1858.14000232661
1858.14000233378
1858.14000234288
1858.14000235581
1858.14000237794
1858.14000242475
1858.14000253944
1858.14000284342
1858.14000368608
1858.14000610032
1858.14000192708
1858.14000140773
1858.14000125427
1858.1400011966
1858.14000116783
1858.14000115146
1858.1400011405
1858.14000113185
1858.14000112437
1858.14000111767
1858.14000111158
1858.14000110604
1858.14000110103
1858.1400010965
1858.14000109245
1858.14000108885
1858.14000108567
1858.14000108288
1858.14000108046
1858.14000107839
1858.14000107665
1858.1400010752
1858.14000107406
1858.14000107318
1858.14000107259
1858.14000107226
1858.14000107219
1858.1400010724
1858.1400010729
1858.14000107368
1858.14000107477
1858.14000107618
1858.14000107794
1858.14000108008
1858.14000108261
1858.14000108556
1858.14000108896
1858.14000109285
1858.14000109723
1858.14000110214
1858.14000110762
1858.14000111373
1858.14000112061
1858.14000112864
1858.14000113896
1858.14000115465
1858.14000118269
1858.14000124215
1858.14000142265
1858.14000209433
1858.14000090529
1858.14000079114
1858.14000081004
1858.14000082331
1858.14000082211
1858.14000081617
1858.14000080914
1858.14000080201
1858.14000079515
1858.14000078871
1858.14000078275
1858.14000077728
1858.1400007723
1858.1400007678
1858.14000076378
1858.1400007602
1858.14000075703
1858.14000075427
1858.14000075187
1858.14000074981
1858.14000074808
1858.14000074665
1858.14000074551
1858.14000074465
1858.14000074405
1858.14000074373
1858.14000074367
1858.14000074388
1858.14000074438
1858.14000074516
1858.14000074624
1858.14000074765
1858.14000074941
1858.14000075153
1858.14000075405
1858.14000075698
1858.14000076037
1858.14000076423
1858.14000076858
1858.14000077342
1858.14000077876
1858.1400007846
1858.14000079091
1858.14000079766
1858.14000080479
1858.14000081191
1858.14000081559
1858.14000080501
1858.14000079267
1858.14000094989
1858.14000062138
1858.14000062336
1858.14000069122
1858.14000072432
1858.14000073064
1858.14000072743
1858.14000072134
1858.14000071452
1858.14000070777
1858.14000070136
1858.14000069542
1858.14000068997
1858.14000068501
1858.14000068054
1858.14000067654
1858.14000067298
1858.14000066985
1858.14000066711
1858.14000066473
1858.1400006627
1858.14000066098
1858.14000065957
1858.14000065845
1858.1400006576
1858.14000065702
1858.1400006567
1858.14000065664
1858.14000065686
1858.14000065735
1858.14000065812
1858.1400006592
1858.1400006606
1858.14000066234
1858.14000066445
1858.14000066695
1858.14000066987
1858.14000067324
1858.14000067708
1858.14000068141
1858.14000068624
1858.14000069157
1858.14000069738
1858.1400007036
1858.14000071011
1858.14000071652
1858.14000072149
1858.14000071866
1858.14000068867
1858.14000062151
1858.14000062991
1858.14000054494
1858.1400005796
1858.14000066083
1858.14000069904
1858.1400007071
1858.14000070438
1858.14000069835
1858.14000069148
1858.14000068466
1858.14000067821
1858.14000067225
1858.1400006668
1858.14000066186
1858.14000065741
1858.14000065344
1858.14000064993
1858.14000064683
1858.14000064412
1858.14000064178
1858.14000063977
1858.14000063808
1858.14000063669
1858.14000063559
1858.14000063475
1858.14000063418
1858.14000063387
1858.14000063382
1858.14000063404
1858.14000063452
1858.14000063529
1858.14000063636
1858.14000063774
1858.14000063947
1858.14000064155
1858.14000064403
1858.14000064693
1858.14000065028
1858.1400006541
1858.14000065843
1858.14000066326
1858.14000066862
1858.14000067447
1858.14000068077
1858.14000068735
1858.14000069377
1858.14000069843
1858.14000069418
1858.14000065924
1858.14000057705
1858.1400005432
1858.14000052605
1858.14000056978
1858.14000065424
1858.14000069332
1858.14000070141
1858.14000069847
1858.14000069222
1858.14000068516
1858.1400006782
1858.14000067168
1858.14000066568
1858.14000066023
1858.1400006553
1858.14000065089
1858.14000064697
1858.14000064349
1858.14000064044
1858.14000063777
1858.14000063547
1858.1400006335
1858.14000063184
1858.14000063048
1858.14000062939
1858.14000062858
1858.14000062802
1858.14000062772
1858.14000062767
1858.14000062789
1858.14000062837
1858.14000062913
1858.14000063018
1858.14000063155
1858.14000063325
1858.14000063531
1858.14000063776
1858.14000064063
1858.14000064395
1858.14000064775
1858.14000065207
1858.14000065692
1858.14000066231
1858.14000066825
1858.14000067469
1858.14000068147
1858.14000068814
1858.14000069306
1858.14000068888
1858.14000065313
1858.14000056723
1858.14000052156
1858.14000052314
1858.14000056937
1858.14000065415
1858.1400006928
1858.14000070033
1858.14000069693
1858.14000069031
1858.14000068299
1858.14000067587
1858.14000066925
1858.14000066321
1858.14000065775
1858.14000065285
1858.14000064848
1858.1400006446
1858.14000064117
1858.14000063817
1858.14000063556
1858.1400006333
1858.14000063137
1858.14000062975
1858.14000062842
1858.14000062736
1858.14000062657
1858.14000062603
1858.14000062574
1858.14000062569
1858.14000062591
1858.14000062638
1858.14000062713
1858.14000062816
1858.14000062951
1858.14000063118
1858.14000063321
1858.14000063562
1858.14000063846
1858.14000064175
1858.14000064553
1858.14000064983
1858.14000065469
1858.14000066014
1858.14000066618
1858.14000067279
1858.14000067984
1858.14000068689
1858.14000069229
1858.14000068868
1858.14000065338
1858.14000056703
1858.14000051805
1858.14000052494
1858.14000057188
1858.14000065603
1858.14000069374
1858.14000070045
1858.14000069642
1858.14000068935
1858.14000068172
1858.1400006744
1858.14000066767
1858.14000066158
1858.14000065613
1858.14000065125
1858.14000064693
1858.14000064311
1858.14000063975
1858.14000063681
1858.14000063425
1858.14000063205
1858.14000063017
1858.14000062859
1858.1400006273
1858.14000062627
1858.1400006255
1858.14000062498
1858.1400006247
1858.14000062466
1858.14000062487
1858.14000062534
1858.14000062607
1858.14000062709
1858.1400006284
1858.14000063004
1858.14000063203
1858.1400006344
1858.1400006372
1858.14000064044
1858.14000064419
1858.14000064848
1858.14000065336
1858.14000065886
1858.14000066502
1858.14000067183
1858.14000067918
1858.14000068669
1858.14000069273
1858.14000068995
1858.14000065558
1858.14000056978
1858.14000051987
1858.14000052851
1858.14000057565
1858.14000065875
1858.14000069519
1858.14000070086
1858.14000069608
1858.14000068848
1858.1400006805
1858.14000067296
1858.14000066612
1858.14000065999
1858.14000065454
1858.14000064971
1858.14000064544
1858.14000064169
1858.1400006384
1858.14000063553
1858.14000063304
1858.1400006309
1858.14000062908
1858.14000062755
1858.1400006263
1858.14000062531
1858.14000062456
1858.14000062406
1858.14000062379
1858.14000062376
1858.14000062397
1858.14000062443
1858.14000062514
1858.14000062613
1858.14000062741
1858.14000062901
1858.14000063096
1858.14000063328
1858.14000063602
1858.14000063922
1858.14000064293
1858.1400006472
1858.14000065208
1858.14000065763
1858.14000066392
1858.14000067095
1858.14000067866
1858.14000068669
1858.14000069349
1858.14000069174
1858.14000065861
1858.14000057383
1858.14000052363
1858.14000053318
1858.14000058034
1858.14000066204
1858.14000069691
1858.14000070134
1858.14000069567
1858.14000068747
1858.1400006791
1858.14000067134
1858.14000066438
1858.14000065822
1858.14000065279
1858.14000064801
1858.14000064381
1858.14000064014
1858.14000063693
1858.14000063414
1858.14000063173
1858.14000062966
1858.1400006279
1858.14000062643
1858.14000062523
1858.14000062427
1858.14000062356
1858.14000062308
1858.14000062282
1858.1400006228
1858.140000623
1858.14000062345
1858.14000062414
1858.1400006251
1858.14000062635
1858.1400006279
1858.14000062979
1858.14000063206
1858.14000063474
1858.14000063788
1858.14000064154
1858.14000064577
1858.14000065065
1858.14000065625
1858.14000066265
1858.14000066992
1858.14000067802
1858.14000068666
1858.14000069433
1858.14000069383
1858.14000066225
1858.14000057881
1858.14000052855
1858.14000053891
1858.14000058597
1858.1400006659
1858.14000069885
1858.1400007018
1858.14000069511
1858.14000068624
1858.14000067746
1858.14000066946
1858.1400006624
1858.14000065621
1858.14000065081
1858.1400006461
1858.140000642
1858.14000063842
1858.14000063531
1858.14000063261
1858.14000063028
1858.14000062829
1858.1400006266
1858.14000062519
1858.14000062404
1858.14000062313
1858.14000062244
1858.14000062198
1858.14000062175
1858.14000062173
1858.14000062193
1858.14000062236
1858.14000062303
1858.14000062396
1858.14000062516
1858.14000062666
1858.1400006285
1858.1400006307
1858.14000063331
1858.14000063638