/*--------------------------------*- C++ -*----------------------------------*\
  =========                 |
  \\      /  F ield         | OpenFOAM: The Open Source CFD Toolbox
   \\    /   O peration     | Website:  https://openfoam.org
    \\  /    A nd           | Version:  10
     \\/     M anipulation  |
\*---------------------------------------------------------------------------*/
FoamFile
{
    format      ascii;
    class       volScalarField;
    location    "6.2";
    object      k;
}
// * * * * * * * * * * * * * * * * * * * * * * * * * * * * * * * * * * * * * //

dimensions      [0 2 -2 0 0 0 0];

internalField   nonuniform List<scalar> 
2500
(
1.02204088362154e-09
2.00288209109098e-08
8.52737571148193e-08
1.46843631528261e-07
1.98437903414179e-07
2.38273952630198e-07
2.66728433931907e-07
2.85581439137569e-07
2.97201739668137e-07
3.03885268285457e-07
3.07483928664507e-07
3.09303736566171e-07
3.10170764521062e-07
3.10561133617004e-07
3.10727683261983e-07
3.10795170178676e-07
3.10821174801576e-07
3.10830692970424e-07
3.10833977854775e-07
3.10835019365809e-07
3.10835295418724e-07
3.10835328494707e-07
3.10835294967763e-07
3.10835251951572e-07
3.10835217100519e-07
3.10835194478086e-07
3.10835183594256e-07
3.10835174942219e-07
3.10835138688874e-07
3.10834994282373e-07
3.10834505589108e-07
3.10833001431393e-07
3.10828666194078e-07
3.1081679608627e-07
3.10785753546394e-07
3.10708125486641e-07
3.10522662786549e-07
3.10100140020514e-07
3.09184468366842e-07
3.07302021374321e-07
3.03642004139936e-07
2.96933369232868e-07
2.85379174012818e-07
2.66743310706963e-07
2.38686034280635e-07
1.99376032303488e-07
1.48261206319174e-07
8.67931164582406e-08
2.06817632853434e-08
1.07657855432433e-09
2.51510785811355e-08
5.74566670777055e-07
2.49726576836564e-06
4.30402424252766e-06
5.82146227405632e-06
6.99731425155679e-06
7.84103876230266e-06
8.40304849222836e-06
8.75152421951832e-06
8.95325562154689e-06
9.06262316160829e-06
9.11832547250703e-06
9.14505937459006e-06
9.15718578168571e-06
9.16239839202362e-06
9.16452658634247e-06
9.16535296185325e-06
9.16565788498072e-06
9.16576411209965e-06
9.16579825988e-06
9.16580759566271e-06
9.16580896358819e-06
9.16580809743328e-06
9.16580685380938e-06
9.16580583190645e-06
9.16580516030189e-06
9.16580481423015e-06
9.16580449325273e-06
9.16580325408648e-06
9.16579846951777e-06
9.1657825248675e-06
9.16573395982327e-06
9.16559509853945e-06
9.16521756605521e-06
9.16423688783521e-06
9.16180080703997e-06
9.15601944583422e-06
9.14293617598945e-06
9.1147717240046e-06
9.05725474589298e-06
8.9461539851824e-06
8.74380015295259e-06
8.3973937877037e-06
7.841822728143e-06
7.00965580853907e-06
5.84891781405336e-06
4.34507447873065e-06
2.54096463316453e-06
5.92867622129454e-07
2.64374902446182e-08
8.87025066299918e-08
2.56580107986636e-06
1.26071789542423e-05
2.16714968325396e-05
2.92308640628163e-05
3.50694396654096e-05
3.92547724663027e-05
4.20453465759177e-05
4.3780053097179e-05
4.47880244628412e-05
4.5337003831161e-05
4.56180587245121e-05
4.5753704284534e-05
4.58155943753435e-05
4.58423600212084e-05
4.5853356295627e-05
4.58576539451139e-05
4.58592508753719e-05
4.58598118683423e-05
4.58599944564141e-05
4.58600457512253e-05
4.58600544232512e-05
4.58600508884244e-05
4.58600450518939e-05
4.58600401419801e-05
4.58600368551185e-05
4.58600350349629e-05
4.5860033136584e-05
4.58600263249641e-05
4.58600008235843e-05
4.58599168874883e-05
4.58596632642776e-05
4.58589422166809e-05
4.58569912519127e-05
4.58519460679796e-05
4.58394682908134e-05
4.58099852203699e-05
4.57435572190678e-05
4.56011813863469e-05
4.53116671689283e-05
4.47547142826221e-05
4.37440503996016e-05
4.20192027395885e-05
3.92586770904567e-05
3.51269436832228e-05
2.93583153262516e-05
2.18618291187625e-05
1.28095212997023e-05
2.63971051812835e-06
9.25163216358702e-08
1.56146639005108e-07
4.54819036634527e-06
2.2395632744085e-05
3.83231632989509e-05
5.15081122738838e-05
6.1637681387013e-05
6.8873475919878e-05
7.36883632616499e-05
7.66791568366946e-05
7.84172739119892e-05
7.9364712599968e-05
7.98504065582176e-05
8.00852129462484e-05
8.01925574083398e-05
8.02390831188017e-05
8.02582440109646e-05
8.02657528031757e-05
8.02685515805461e-05
8.02695386377356e-05
8.02698618678441e-05
8.02699538756539e-05
8.02699703522183e-05
8.02699649814126e-05
8.0269955416757e-05
8.02699471771369e-05
8.02699415840683e-05
8.02699383752079e-05
8.02699349602847e-05
8.02699232068737e-05
8.02698796001843e-05
8.02697360877971e-05
8.02693022611565e-05
8.02680677556891e-05
8.02647238521823e-05
8.02560670822029e-05
8.02346354953765e-05
8.01839510029132e-05
8.00696684111844e-05
7.98245723440381e-05
7.93259169142936e-05
7.83661415895887e-05
7.66234495893392e-05
7.36466497717275e-05
6.88756743022805e-05
6.17187236238943e-05
5.1692208657796e-05
3.8599401224646e-05
2.2687619043847e-05
4.65302290359675e-06
1.61469808197738e-07
2.21631187864042e-07
6.45934999634524e-06
3.17022585190726e-05
5.40262624663446e-05
7.23928323519415e-05
8.64411126313335e-05
9.64471697462251e-05
0.000103094678985975
0.000107221272653464
0.000109619819170045
0.000110928187736149
0.000111599670226802
0.000111924769241441
0.000112073648433792
0.000112138302831983
0.000112164988239484
0.000112175471699132
0.00011217939066497
0.000112180778088858
0.000112181235260097
0.000112181367200495
0.000112181392178985
0.000112181385896773
0.000112181373510364
0.000112181362535869
0.000112181354944455
0.000112181350390159
0.00011218134543355
0.000112181329146964
0.000112181269402204
0.000112181073147509
0.000112180479896546
0.000112178790355865
0.000112174208768333
0.000112162333768077
0.000112132901266617
0.000112063222700499
0.000111905968743563
0.000111568447626776
0.000110881278779441
0.000109557825959111
0.000107153167756336
0.000103042081463955
9.64449378603129e-05
8.65299010705536e-05
7.26006844507752e-05
5.43401451396661e-05
3.20337026741652e-05
6.57909317606836e-06
2.2779440919021e-07
2.83282506640511e-07
8.25813524969188e-06
4.03819330097025e-05
6.85661618459317e-05
9.16323592071753e-05
0.000109210008221652
0.000121700204808241
0.000129987385341946
0.00013512961535159
0.000138119134540058
0.000139751013341206
0.000140589425169779
0.000140995896340578
0.0001411823392605
0.000141263455072382
0.000141297003992532
0.000141310214945139
0.000141315167519701
0.00014131692757404
0.000141317511238379
0.000141317682177367
0.000141317716438818
0.00014131771023221
0.000141317695895224
0.00014131768282032
0.000141317673562616
0.000141317667719753
0.000141317661170446
0.000141317640582617
0.000141317566297827
0.000141317323351363
0.000141316589617852
0.000141314499201314
0.000141308825635528
0.000141294105362329
0.000141257583666052
0.000141171040549632
0.00014097556224904
0.000140555694588811
0.000139700339373012
0.000138052034038269
0.000135055385872309
0.000129928536648555
0.000121692993636785
0.000109296593269054
9.18416492001824e-05
6.88845695603355e-05
4.07193675051201e-05
8.3824751062391e-06
2.89846906997805e-07
3.40035335584283e-07
9.91566165038403e-06
4.83256586550895e-05
8.17901230297483e-05
0.000109054944992545
0.000129767917326725
0.000144457550627792
0.000154194298958532
0.000160234331647742
0.00016374677814771
0.000165665441131942
0.000166652199922126
0.00016713120420625
0.000167351248065585
0.000167447147231297
0.000167486887690165
0.000167502571879349
0.000167508467712591
0.000167510570872581
0.000167511272776479
0.000167511481445864
0.000167511525691659
0.000167511520591369
0.000167511505165787
0.00016751149062138
0.000167511480038478
0.000167511472984997
0.000167511464772866
0.00016751144001044
0.000167511352553162
0.000167511068400724
0.000167510211712756
0.000167507771114578
0.000167501143085401
0.000167483931953866
0.000167441192714453
0.000167339832094178
0.00016711071503049
0.000166618279632968
0.000165614540606442
0.000163679354947094
0.000160159449190154
0.000154133878882468
0.000144446756789649
0.000129847398810955
0.000109252316995326
8.20922733504415e-05
4.86478803367191e-05
1.00379554459862e-05
3.46703371002792e-07
3.9120901673028e-07
1.1412519911691e-05
5.54616272857142e-05
9.36061359783989e-05
0.000124566192439142
0.000148026264988909
0.000164638275459746
0.000175640867055721
0.000182465156939358
0.00018643496240266
0.000188604943417894
0.00018972203481102
0.000190264958238859
0.000190514716020578
0.000190623739849611
0.000190669001615696
0.00019068690271879
0.000190693649497678
0.000190696065002982
0.000190696876199927
0.000190697120935375
0.000190697175699795
0.000190697172668885
0.000190697156968134
0.000190697141542511
0.000190697129962527
0.000190697121785674
0.000190697111844315
0.000190697083003637
0.000190696983593832
0.000190696663246522
0.000190695699816004
0.000190692956275189
0.000190685502675953
0.000190666134600556
0.0001906180029191
0.000190503770784057
0.00019024539076893
0.000189689750531957
0.00018855664490174
0.000186371147744548
0.000182394372653765
0.000175583544791578
0.000164626884940932
0.000148097946369946
0.000124745744728705
9.38813261713996e-05
5.57570163541006e-05
1.1528832567178e-05
3.97786730944918e-07
4.36435161706769e-07
1.27379038125865e-05
6.17547570545977e-05
0.000103980110356121
0.000138143936693254
0.000163977583150435
0.00018224777495649
0.000194341848021431
0.00020184281583667
0.000206207818126247
0.000208595413648488
0.000209825654374735
0.000210424240068936
0.000210699963698715
0.000210820501583822
0.000210870628521044
0.000210890493147889
0.000210897998470497
0.000210900694953929
0.000210901605987254
0.000210901884747855
0.00021090195031087
0.000210901950159443
0.000210901934888876
0.000210901919099079
0.000210901906819828
0.000210901897612785
0.000210901885906231
0.000210901853103217
0.000210901742870164
0.000210901390925431
0.000210900335677612
0.000210897332843793
0.000210889173235207
0.000210867959174367
0.000210815206349854
0.000210689928190782
0.000210406402957887
0.00020979639263091
0.000208551907221642
0.000206150759145053
0.000201780171570422
0.000194292126808799
0.000182239878022489
0.000164043969434984
0.000138305571303432
0.000104225497709905
6.20191065449529e-05
1.28463850572819e-05
4.42810721472864e-07
4.75624136669531e-07
1.38888925988836e-05
6.72040011763099e-05
0.000112930219929428
0.000149830136576595
0.000177685756351133
0.000197367036014918
0.00021039002925539
0.000218467449026019
0.000223169671014456
0.000225743367572981
0.000227070632309264
0.000227717095949087
0.000228015232348472
0.000228145747637086
0.000228200109031111
0.000228221691410076
0.000228229864603903
0.000228232810741131
0.000228233811844967
0.000228234122247371
0.000228234198607442
0.000228234201946922
0.000228234187676958
0.000228234171953511
0.000228234159234593
0.000228234149098207
0.000228234135635952
0.000228234099033011
0.000228233979055389
0.000228233599743283
0.00022823246632607
0.000228229244112393
0.000228220488051799
0.000228197713776423
0.000228141050815593
0.000228006414356732
0.000227701560875362
0.000227045388366375
0.000225706265376283
0.000223121780399767
0.000218416256466929
0.000210352043468212
0.000197367278050549
0.000177751477066083
0.000149977850371844
0.000113148634087106
6.74385347278002e-05
1.39892646150086e-05
4.81750342967022e-07
5.08927434105779e-07
1.48694567843037e-05
7.18377345560574e-05
0.000120518804779218
0.000159720179616089
0.000189273637321042
0.000210139240521585
0.000223942254845815
0.000232504323974438
0.000237490583117432
0.000240221397457318
0.000241630802562456
0.000242317927580713
0.000242635165720446
0.000242774217838673
0.000242832218278501
0.000242855284444426
0.00024286403824593
0.000242867203387544
0.000242868284693201
0.00024286862406715
0.000242868710959048
0.000242868718203465
0.000242868705354159
0.000242868690035618
0.000242868677095776
0.000242868666138847
0.000242868650979615
0.000242868610795618
0.000242868482125824
0.00024286807933763
0.000242866880120935
0.00024286347458234
0.000242854221095569
0.000242830145433967
0.000242770217908413
0.000242627759316757
0.000242305059493537
0.000241610226282482
0.00024019179035042
0.000237453582794827
0.000232467136838957
0.000223919563185078
0.000210152280534123
0.000189344402842276
0.000159860434459162
0.000120716701862659
7.20472872820937e-05
1.49625465801168e-05
5.14805173346967e-07
5.36690840331554e-07
1.56891692309469e-05
7.57078313673263e-05
0.000126842680657827
0.000167950531026348
0.000198908981110887
0.000220754657382333
0.000235203709058222
0.000244167774363138
0.000249390104140671
0.000252251824446283
0.000253729861970715
0.000254451070992457
0.000254784378198475
0.000254930640190737
0.000254991727620387
0.000255016058930363
0.000255025310949291
0.000255028665704338
0.000255029817461642
0.000255030182937588
0.000255030279877869
0.000255030291259734
0.000255030280083008
0.000255030265417528
0.000255030252435585
0.000255030240774032
0.000255030224022355
0.000255030180532396
0.000255030044205315
0.00025502962150617
0.000255028367581195
0.000255024810846286
0.000255015148113077
0.000254990001849364
0.000254927386529396
0.000254778481102999
0.000254441058104304
0.000253714303472415
0.00025223033938656
0.000249365073078256
0.000244146373771368
0.000235199120605382
0.000220784695492916
0.000198990664176145
0.000168090819741405
0.000127028348324883
7.58992448112032e-05
1.57764826614456e-05
5.42353344305368e-07
5.5940189131407e-07
1.63617379733786e-05
7.8883115857895e-05
0.000132022804164885
0.000174685800215677
0.000206789836571735
0.000229435000676024
0.000244411658456622
0.000253704586765959
0.000259120460364083
0.000262089781977499
0.000263624399974036
0.00026437380027584
0.000264720446616429
0.000264872717512209
0.000264936389165696
0.000264961785006545
0.000264971458908533
0.000264974975646906
0.000264976188438137
0.000264976577014566
0.000264976683374088
0.000264976699027521
0.000264976689559614
0.000264976675708837
0.000264976662825253
0.000264976650578511
0.000264976632377002
0.000264976585903356
0.000264976442931608
0.000264976003561595
0.000264974704748032
0.000264971025024838
0.000264961030326363
0.00026493501586634
0.000264870219403675
0.0002647160773726
0.000264366683980327
0.00026361395603122
0.000262076642924741
0.000259107893288621
0.000253699994018545
0.000244427118051999
0.000229485418661277
0.000206887743923591
0.000174833490232788
0.000132204900047434
7.90639083451919e-05
1.6445092184036e-05
5.64900586503567e-07
5.77636761039645e-07
1.69035087516137e-05
8.1442827599856e-05
0.000136194182982909
0.000180106248028471
0.000213130500525758
0.000236418413866812
0.000251819848807219
0.000261378053545358
0.000266950413593129
0.000270006970053826
0.000271587599028009
0.00027236000164909
0.000272717572085675
0.000272874783875888
0.000272940589964239
0.000272966869575957
0.000272976895941805
0.00027298054918925
0.000272981814117333
0.000272982222835291
0.000272982337769582
0.000272982357431911
0.000272982349873169
0.000272982336935657
0.000272982324258348
0.000272982311547464
0.000272982292068052
0.000272982242967677
0.000272982094329651
0.000272981641200883
0.000272980306072161
0.000272976527739173
0.000272966267685861
0.000272939559525189
0.000272873019256076
0.000272714686848876
0.000272355706168747
0.000271582160258267
0.000270002063324086
0.000266950293652856
0.000261390577502675
0.000251856395877496
0.000236491552567625
0.000213248869413696
0.000180267745998367
0.000136380652244868
8.16201829462636e-05
1.69847401337087e-05
5.83029545568056e-07
5.92011300150852e-07
1.73320718731368e-05
8.347063342328e-05
0.000139496764230101
0.000184396584123777
0.000218148960075794
0.00024194605784874
0.000257684569707984
0.000267453727201822
0.000273150838581176
0.000276277136132379
0.000277894665286564
0.000278685579303119
0.000279051974164996
0.000279213193564098
0.000279280738751697
0.000279307742162984
0.000279318059012843
0.000279321825728617
0.000279323134565532
0.000279323560629344
0.000279323683159135
0.000279323706558633
0.000279323700900484
0.000279323688915966
0.000279323676524279
0.00027932366346817
0.000279323642901148
0.000279323591549517
0.00027932343817277
0.00027932297386673
0.000279321609795621
0.000279317753578653
0.000279307284606758
0.000279280030557245
0.000279212117298513
0.000279050482751364
0.000278683940508427
0.000277893963352366
0.000276280079311058
0.000273162723279705
0.000267483046389403
0.000257742372164047
0.000242043134954283
0.000218290684544309
0.000184576826626085
0.000139694141950413
8.36507202607105e-05
1.74128287354128e-05
5.97353783869982e-07
6.03139669915744e-07
1.76650731138268e-05
8.50495636350267e-05
0.000142067813915877
0.000187736648857703
0.000222056472963821
0.000246250992120014
0.000262253103228648
0.000272187609817418
0.000277982762985632
0.000281164032554105
0.000282810742580404
0.000283616347604112
0.000283989772682211
0.000284154198181546
0.000284223141028793
0.000284250729156108
0.000284261282145303
0.000284265141878782
0.000284266487167563
0.000284266927947798
0.000284267057099323
0.000284267083887821
0.000284267080026432
0.000284267068992659
0.000284267056942813
0.000284267043655565
0.000284267022199439
0.000284266968974514
0.000284266811720037
0.000284266338490101
0.000284264951717657
0.000284261034944176
0.000284250404045663
0.000284222727110458
0.00028415374965968
0.000283989553455712
0.000283617140220887
0.00028281439602473
0.000281174244656486
0.000278005879650697
0.000272232883360157
0.000262331557244344
0.000246372146196325
0.000222223038978324
0.00018793889087586
0.000142280881108534
8.52371650290857e-05
1.77466920450865e-05
6.08479495017837e-07
6.11602490083599e-07
1.79192863384851e-05
8.62580839349607e-05
0.000144036065497602
0.000190294298283321
0.000225049634297586
0.000249549719901371
0.000265754943556714
0.000275817175389026
0.000281688274348045
0.000284912258881414
0.000286581720173713
0.000287398821228471
0.000287777769320949
0.000287944724292672
0.000288014774957889
0.000288042828971047
0.00028805357129004
0.000288057506221785
0.00028805888133978
0.000288059334402186
0.00028805946922116
0.000288059499006308
0.000288059496820002
0.000288059486706676
0.000288059475036481
0.000288059461624474
0.000288059439476069
0.000288059384743411
0.000288059224392419
0.000288058744173617
0.000288057339898492
0.000288053376813933
0.000288042622445556
0.000288014623191241
0.000287944834133416
0.000287778682499591
0.000287401783595545
0.000286589277258255
0.000284929028677858
0.000281721619501572
0.000275877172851339
0.000265852822487373
0.000249694153926607
0.000225241224035118
0.000190520146558645
0.000144267799518333
8.6456490639093e-05
1.80027423551513e-05
6.16976472368471e-07
6.1792494963123e-07
1.81099644519082e-05
8.71673554369867e-05
0.00014551769053349
0.00019222054453659
0.00022730498435143
0.00025203645629728
0.000268395851297913
0.000278555292417366
0.000284484364098302
0.000287741060837293
0.000289428006998702
0.00029025397649161
0.000290637202530669
0.000290806125291034
0.000290877041858284
0.000290905461950676
0.000290916353976047
0.000290920348858543
0.00029092174804257
0.00029092221120117
0.000290922350786861
0.000290922383178489
0.000290922382517098
0.000290922373273615
0.000290922362006951
0.000290922348567109
0.000290922325914048
0.000290922270015136
0.000290922107260833
0.000290921621687801
0.000290920204172919
0.000290916206300485
0.000290905359411647
0.000290877118665139
0.000290806721040251
0.000290639101612591
0.000290258832175847
0.000289438984030555
0.000287763610193757
0.000284526800500931
0.000278628530904684
0.000268511483296446
0.000252202647342204
0.00022752069979021
0.000192470169229903
0.000145769434490932
8.7378459790704e-05
1.81958791096386e-05
6.2335851558256e-07
6.22564157449727e-07
1.82504519424842e-05
8.78396065386169e-05
0.00014661396154153
0.000193646785481174
0.000228975969676019
0.000253879919913611
0.000270354536894042
0.000280586838484197
0.00028655949922068
0.00028984087614056
0.000291541062622698
0.000292373774174656
0.000292760266122858
0.000292930697906275
0.000293002281729171
0.000293030985444052
0.000293041994194839
0.00029304603620722
0.000293047454536854
0.000293047925877427
0.000293048069414206
0.000293048104036666
0.000293048104734349
0.000293048096299448
0.000293048085449742
0.000293048072067807
0.000293048049082228
0.000293047992325861
0.000293047827769784
0.000293047338201245
0.000293045910891345
0.000293041887414013
0.000293030972531287
0.000293002554232451
0.00029293170862526
0.000292763007209025
0.000292380249920167
0.000291554976547505
0.000289868415641053
0.000286609844833839
0.000280671715705898
0.000270485990710768
0.000254065860800368
0.000229214123847519
0.000193919240758765
0.000146885733368192
8.8064128923781e-05
1.83391412217132e-05
6.28072428996736e-07
6.25904207787173e-07
1.83520187636754e-05
8.83274471889727e-05
0.000147410343454805
0.000194683796261004
0.0002301918893131
0.000255222254734791
0.000271781565366207
0.000282067590932639
0.000288072501461721
0.000291372205044824
0.000293082261812022
0.000293920020323227
0.000294308967882331
0.000294480539633612
0.000294552630079294
0.000294581550346179
0.000294592648805464
0.000294596727346291
0.000294598160696071
0.000294598638576152
0.000294598785343958
0.00029459882185264
0.000294598823749754
0.00029459881605966
0.000294598805633274
0.000294598792383282
0.000294598769218042
0.000294598711875375
0.000294598546029144
0.000294598053578694
0.00029459661922355
0.00029459257737085
0.000294581613685588
0.000294553067746307
0.000294481899413636
0.000294312416894149
0.000293927860180705
0.000293098656465128
0.000291403980145649
0.000288129606081997
0.000282162505148474
0.000271926826954039
0.000255425697762685
0.000230450319117125
0.000194977387108005
0.000147701212190804
8.8565231617961e-05
1.84435632539535e-05
6.31494087713973e-07
6.28257035662401e-07
1.84238629270223e-05
8.86739055290969e-05
0.00014797667658825
0.000195422065423528
0.00023105835583022
0.000256179578378436
0.000272799958097781
0.000283124857569289
0.00028915319154148
0.000292466259708493
0.000294183545200958
0.000295025016785868
0.000295415779645063
0.000295588198409218
0.000295660667338021
0.000295689750357064
0.000295700916711146
0.000295705023148195
0.000295706468117831
0.000295706951156652
0.000295707100537438
0.000295707138629405
0.000295707141578852
0.000295707134570678
0.000295707124568476
0.000295707111511952
0.000295707088298
0.000295707030600288
0.000295706863890466
0.000295706369460403
0.000295704930238119
0.000295700875661423
0.00029568987807672
0.000295661243131236
0.000295589848866957
0.000295419817533047
0.000295033992519624
0.000294202011139624
0.000292501586695575
0.000289215998683547
0.00028322830839387
0.000272957085475991
0.000256398258417075
0.000231334720341196
0.000195734710662944
0.000148285147234856
8.89242322966409e-05
1.85181857051404e-05
6.33929738934636e-07
6.29867058766575e-07
1.84732257936802e-05
8.89129505452975e-05
0.000148368089819137
0.000195933027638942
0.000231658764922476
0.000256843612730467
0.000273506924259918
0.00028385926618071
0.000289904209436074
0.000293226799387361
0.000294949261024914
0.000295793405498902
0.000296185482428432
0.000296358517946071
0.000296431264196069
0.000296460467286076
0.000296471684131079
0.000296475811528297
0.000296477265359662
0.000296477752422036
0.000296477903900596
0.000296477943317892
0.000296477947188282
0.000296477940801863
0.000296477931220963
0.000296477918407481
0.000296477895253148
0.000296477837392224
0.000296477670168822
0.00029647717448594
0.000296475732122283
0.000296471669249161
0.000296460649359097
0.000296431955330044
0.00029636040987091
0.000296190008659649
0.000295803323707543
0.000294969449485745
0.000293265091538972
0.000289971803056925
0.000283969933668103
0.000273674173698139
0.000257075435555312
0.000231950805258355
0.000196262584703112
0.00014869245539594
8.91748283828186e-05
1.85701672858893e-05
6.35620671990184e-07
6.30917771677199e-07
1.85055679178116e-05
8.90702779876665e-05
0.000148626302428561
0.000196270767927054
0.000232056291475752
0.000257283877360902
0.00027397617869067
0.00028434715554837
0.000290403445388225
0.000293732581804915
0.000295458626082828
0.000296304633629508
0.000296697633246955
0.000296871105153289
0.000296944049214134
0.000296973338704156
0.000296984592252851
0.000296988735088587
0.000296990195572619
0.000296990685742515
0.000296990838899023
0.00029699087943041
0.000296990884110557
0.000296990878286536
0.000296990869120531
0.000296990856587026
0.000296990833577932
0.000296990775707824
0.000296990608253534
0.000296990111904883
0.000296988667785966
0.00029698460014711
0.000296973567134564
0.00029694483757926
0.000296873199457933
0.000296702567880838
0.000296315340138236
0.000295480257938418
0.00029377336690929
0.000290475082570672
0.000284463957815437
0.000274152100172476
0.000257527066906519
0.000232362039647188
0.000196615299722923
0.000148964938466494
8.93426925052276e-05
1.86049509736655e-05
6.36749567366364e-07
6.31538758622609e-07
1.85247611167105e-05
8.91641670224263e-05
0.000148781017938761
0.000196473826685574
0.000232295990167769
0.000257549989690154
0.000274260368480617
0.000284643077052028
0.000290706583155387
0.000294039928111442
0.000295768301220828
0.000296615533838453
0.000297009147400205
0.000297182913221389
0.000297255992196501
0.000297285341411619
0.000297296620725562
0.000297300774613925
0.000297302239995072
0.000297302732544418
0.000297302887042715
0.000297302928530523
0.000297302933938186
0.000297302928608177
0.000297302919847494
0.000297302907619088
0.000297302884818672
0.000297302827058418
0.000297302659599656
0.000297302163067174
0.000297300718344577
0.000297296648874234
0.000297285610328296
0.000297256864567515
0.000297185181413435
0.000297014432154602
0.000296626916067386
0.000295791172086154
0.000294082859039739
0.000290781714988904
0.000284765208803946
0.000274443872148484
0.00025780319402096
0.00023261392342342
0.000196831802954997
0.000149132608376884
8.94462740718604e-05
1.86264427744829e-05
6.37447111618847e-07
6.31811952136507e-07
1.85332624330926e-05
8.92062559395097e-05
0.000148851174635008
0.000196566805251415
0.000232406655578504
0.000257673698430102
0.000274393217424443
0.000284782005882271
0.000290849348911097
0.000294184992147942
0.000295914670787121
0.000296762608643456
0.000297156585132749
0.000297330529361953
0.000297403692471537
0.000297433080026105
0.000297444376451738
0.000297448538015868
0.000297450007016649
0.00029745050147074
0.000297450657125722
0.000297450699483697
0.000297450705564927
0.000297450700743691
0.000297450692379879
0.00029745068045412
0.000297450657870845
0.000297450600255711
0.000297450432901747
0.000297449936504319
0.000297448492080277
0.000297444423257365
0.000297433385762183
0.00029740464063736
0.000297332953788411
0.000297162183904511
0.00029677459678941
0.000295938653714634
0.000294229852806065
0.000290927633169565
0.000284908962622157
0.000274583616898242
0.000257936060923766
0.000232735802131198
0.000196937241315942
0.000149214866892056
8.94975165046075e-05
1.863717101757e-05
6.37797790945265e-07
6.31776148030817e-07
1.8532240235604e-05
8.92021160908766e-05
0.000148845879288876
0.000196561573882545
0.000232402222907783
0.000257670410376188
0.000274391130628977
0.000284780990980526
0.000290849185834221
0.0002941854447096
0.000295915532552786
0.000296763723000562
0.000297157845204308
0.000297331868608722
0.000297405072616879
0.0002974344805286
0.00029744578693589
0.000297449953498529
0.000297451425185797
0.000297451921258884
0.000297452078005094
0.000297452121214886
0.000297452127983518
0.000297452123681264
0.000297452115702787
0.000297452104052831
0.000297452081649779
0.000297452024148989
0.000297451856923082
0.000297451360874956
0.000297449917528392
0.000297445851675552
0.000297434821556116
0.000297406093290355
0.000297334442329947
0.000297163743907484
0.000296776289892278
0.000295940578087062
0.000294232150354258
0.000290930486325087
0.000284912572070644
0.000274588153770072
0.000257941593432821
0.000232742204584124
0.000196944097162167
0.00014922137293169
8.9502384020328e-05
1.86384027912965e-05
6.37844097654933e-07
6.3142976921359e-07
1.85216534486425e-05
8.91515920192509e-05
0.000148764925141458
0.000196457921108347
0.000232282509311495
0.000257539993136145
0.000274254036339401
0.000284640020561578
0.000290706133744057
0.000294041364963592
0.00029577099354658
0.000296619001440635
0.000297013062411164
0.000297187071350549
0.000297260275858735
0.000297289687486261
0.000297300997331484
0.000297305166446783
0.000297306639963112
0.000297307137382493
0.000297307295149449
0.000297307339188791
0.000297307346635875
0.000297307342844767
0.000297307335232849
0.000297307323830592
0.000297307301576215
0.000297307244173156
0.000297307077128454
0.000297306581705555
0.000297305140348323
0.000297301080082951
0.000297290064314817
0.000297261370528143
0.000297189797906683
0.00029701926859319
0.000296632161910138
0.000295797128793124
0.000294089961773541
0.00029079052201434
0.000284776332142537
0.000274457830044102
0.000257820186028324
0.000232633553511901
0.000196852787205319
0.000149152488413262
8.94611197954366e-05
1.86301965311624e-05
6.37588207769037e-07
6.30731446895225e-07
1.85002652687217e-05
8.904883617132e-05
0.000148598823163756
0.000196243573995809
0.000232033224884366
0.000257266780069824
0.000273965387103264
0.000284342021150767
0.00029040282714896
0.00029373523905586
0.000295463467650944
0.000296310825956319
0.000296704605845744
0.000296878501941285
0.000296951664994329
0.000296981063247369
0.000296992369870735
0.000296996539055627
0.00029699801351747
0.000296998511984253
0.000296998670677055
0.000296998715505313
0.00029699872360239
0.000296998720300683
0.000296998713031465
0.000296998701851902
0.000296998679727232
0.000296998622431788
0.000296998455672575
0.000296997961256885
0.000296996523039115
0.000296992471541258
0.00029698147844291
0.000296952839908396
0.000296881395251206
0.000296711148389711
0.000296324636126162
0.000295490794738914
0.000293785900788136
0.000290490579730744
0.000284483470328025
0.00027417650649498
0.000257556681326569
0.000232396138458073
0.00019665163025666
0.000148999246459564
8.93682328614961e-05
1.86114040802697e-05
6.36992495325321e-07
6.29597359385188e-07
1.84655705397857e-05
8.88820220536476e-05
0.000148328357492971