/*--------------------------------*- C++ -*----------------------------------*\
  =========                 |
  \\      /  F ield         | OpenFOAM: The Open Source CFD Toolbox
   \\    /   O peration     | Website:  https://openfoam.org
    \\  /    A nd           | Version:  10
     \\/     M anipulation  |
\*---------------------------------------------------------------------------*/
FoamFile
{
    format      ascii;
    class       volScalarField;
    location    "6.2";
    object      nut;
}
// * * * * * * * * * * * * * * * * * * * * * * * * * * * * * * * * * * * * * //

dimensions      [0 2 -1 0 0 0 0];

internalField   nonuniform List<scalar> 
2500
(
7.98397951438062e-15
1.56447611846042e-13
6.66103225522618e-13
1.14707028174866e-12
1.55011778878784e-12
1.86131335920439e-12
2.08359720378806e-12
2.23087490444701e-12
2.32165123945802e-12
2.37386198249629e-12
2.40197412916174e-12
2.41619014302445e-12
2.42296319979783e-12
2.42601269046706e-12
2.42731374859314e-12
2.42784095110874e-12
2.4280440982332e-12
2.42811845826584e-12
2.42814412615346e-12
2.42815226705841e-12
2.42815442768564e-12
2.42815468963812e-12
2.42815443066482e-12
2.42815409637591e-12
2.42815382599426e-12
2.42815365083496e-12
2.42815356631802e-12
2.42815349888776e-12
2.42815321532146e-12
2.42815208629016e-12
2.4281482671366e-12
2.42813651403816e-12
2.42810264496088e-12
2.42800991453893e-12
2.4277674128996e-12
2.42716099482201e-12
2.42571219465832e-12
2.4224115298781e-12
2.41525847236164e-12
2.40055312943042e-12
2.37196166740845e-12
2.31955477327124e-12
2.22929481759322e-12
2.08371336687331e-12
1.86453237649297e-12
1.55744613515556e-12
1.15814376434597e-12
6.77971459256201e-13
1.61547782533995e-13
8.41001943166037e-15
7.88678177462782e-13
4.05428884508356e-11
1.76235522057679e-10
3.03767123120265e-10
4.10885414282666e-10
4.93893098488914e-10
5.53455059002292e-10
5.93129441088722e-10
6.17729429207325e-10
6.31970126689719e-10
6.39690561532954e-10
6.43622642998363e-10
6.45509800596115e-10
6.46365803731576e-10
6.46733760541066e-10
6.46883989340946e-10
6.46942323125395e-10
6.46963848213809e-10
6.46971347707701e-10
6.46973759000931e-10
6.46974418762452e-10
6.46974516026066e-10
6.46974455483987e-10
6.46974368103297e-10
6.46974296329157e-10
6.46974249228907e-10
6.46974224952851e-10
6.46974202386547e-10
6.4697411495391e-10
6.46973777147975e-10
6.4697265146868e-10
6.46969222994176e-10
6.46959420412412e-10
6.46932770180635e-10
6.4686354450398e-10
6.46691582781714e-10
6.46283478161682e-10
6.45359929351169e-10
6.43371785288295e-10
6.39311598357789e-10
6.31468800567932e-10
6.17184142046534e-10
5.92730203352825e-10
5.53510303708674e-10
4.94764168387092e-10
4.12823301953334e-10
3.0666440363848e-10
1.79319350659251e-10
4.18341800171429e-11
8.29017984756837e-13
2.79051630755326e-12
7.26599641750282e-10
2.47972549323648e-07
4.26309662228902e-07
5.75053436984955e-07
6.89942136016509e-07
7.72299741986902e-07
8.27211386265038e-07
8.61345723848261e-07
8.81179593352828e-07
8.91981719620856e-07
8.97511895114439e-07
9.0018089517696e-07
9.01398650986976e-07
9.01925290922759e-07
9.02141652324796e-07
9.02226212133304e-07
9.02257633360232e-07
9.02268671965506e-07
9.02272265144265e-07
9.02273275041257e-07
9.02273446322096e-07
9.02273377360951e-07
9.02273262935121e-07
9.02273166661686e-07
9.02273102278067e-07
9.02273066632226e-07
9.02273029409593e-07
9.02272895507657e-07
9.02272393807252e-07
9.02270742320567e-07
9.02265752026125e-07
9.02251564514869e-07
9.02213177419089e-07
9.02113909444548e-07
9.01868398617293e-07
9.01288290620109e-07
8.99981245055952e-07
8.97179813885601e-07
8.91483179378142e-07
8.80524141817089e-07
8.60637257360412e-07
8.26696860644122e-07
7.7237641335758e-07
6.91073385340992e-07
5.7756081489257e-07
4.30053796013015e-07
2.51952205341959e-07
7.47527153905732e-10
2.91049099373556e-12
4.92614444411794e-12
1.29166300460869e-09
4.41761747442932e-07
7.56023306124906e-07
1.01619711077065e-06
1.21608640021734e-06
1.35887243525504e-06
1.4538851150084e-06
1.51290196380276e-06
1.54719946270457e-06
1.56589460657686e-06
1.57547835376845e-06
1.5801115236513e-06
1.58222961343176e-06
1.58314763908501e-06
1.58352571174363e-06
1.58367387061718e-06
1.5837290944162e-06
1.5837485707656e-06
1.58375494898662e-06
1.58375676498023e-06
1.58375709075305e-06
1.58375698543859e-06
1.58375679718243e-06
1.58375663494467e-06
1.583756524884e-06
1.5837564617611e-06
1.58375639456154e-06
1.58375616287231e-06
1.5837553026184e-06
1.58375247112967e-06
1.58374391147345e-06
1.58371955273178e-06
1.58365357246907e-06
1.58348276249439e-06
1.5830598861664e-06
1.58205980134194e-06
1.57980480947033e-06
1.57496860113561e-06
1.56512908797706e-06
1.54619049266302e-06
1.51180267560762e-06
1.45306188823577e-06
1.35891560515063e-06
1.21768521421923e-06
1.01982910132338e-06
7.61472611370463e-07
4.47520529044135e-07
1.32142818970762e-09
5.09404892252867e-12
7.00736813043574e-12
1.83840906977145e-09
6.26679308891667e-07
1.06806982361624e-06
1.43124022742029e-06
1.70902849673072e-06
1.90688613216353e-06
2.03833130518001e-06
2.11992796751168e-06
2.16735478012908e-06
2.1932250829564e-06
2.20650215574105e-06
2.21293021854318e-06
2.21587393390841e-06
2.21715230717185e-06
2.21767993966603e-06
2.21788722109057e-06
2.21796470757682e-06
2.21799214003777e-06
2.21800117945968e-06
2.21800378849114e-06
2.21800428282964e-06
2.21800415914252e-06
2.21800391461281e-06
2.21800369786148e-06
2.21800354797202e-06
2.21800345807463e-06
2.21800336024439e-06
2.21800303846919e-06
2.21800185741346e-06
2.21799797736596e-06
2.21798624811218e-06
2.21795284203515e-06
2.21786225340318e-06
2.21762745810634e-06
2.21704550969341e-06
2.21566779722667e-06
2.2125584923098e-06
2.20588481127792e-06
2.19229757197488e-06
2.16612899644007e-06
2.11858130517446e-06
2.03729121374369e-06
1.90684184053225e-06
1.71078381932493e-06
1.43534945195169e-06
1.07427466060437e-06
6.33229961721102e-07
1.87247882898912e-09
7.20216447815977e-12
8.97030695332572e-12
2.35386039216139e-09
7.99411278754982e-07
1.35744061083888e-06
1.81415766012843e-06
2.16220335792979e-06
2.40951417592232e-06
2.57360234380044e-06
2.67541888829329e-06
2.73461114152768e-06
2.76692200394712e-06
2.78352229206845e-06
2.7915702547899e-06
2.79526173397365e-06
2.7968677823256e-06
2.79753203039893e-06
2.79779359825261e-06
2.7978916555064e-06
2.79792650316698e-06
2.79793805920276e-06
2.79794144368626e-06
2.79794212224782e-06
2.79794199969664e-06
2.79794171607666e-06
2.79794145732051e-06
2.79794127413075e-06
2.79794115853841e-06
2.79794102899685e-06
2.7979406215824e-06
2.79793915102947e-06
2.79793434123423e-06
2.79791981451886e-06
2.79787842575558e-06
2.79776609275483e-06
2.79747464134601e-06
2.79675153457893e-06
2.79503802957931e-06
2.79116765590462e-06
2.78285445025424e-06
2.76591869012862e-06
2.73328258335458e-06
2.67394916302829e-06
2.57243712400537e-06
2.40937131979742e-06
2.16391755546904e-06
1.81830111013841e-06
1.36374375670246e-06
8.06089833418493e-07
2.38928931623415e-09
9.17807975629298e-12
1.07779162005447e-11
2.82893443892242e-09
9.57518356188861e-07
1.6206443693476e-06
2.16093396706506e-06
2.5713914177565e-06
2.86248665878277e-06
3.05543264765693e-06
3.17512290791312e-06
3.24472579210312e-06
3.28274600428314e-06
3.30229954718394e-06
3.31179143742685e-06
3.31615179004094e-06
3.31805210836786e-06
3.31883959571212e-06
3.31915038910502e-06
3.31926721884059e-06
3.3193088941113e-06
3.31932280269266e-06
3.31932693754408e-06
3.31932781431924e-06
3.31932771342596e-06
3.3193274078817e-06
3.3193271196991e-06
3.31932691002624e-06
3.31932677030205e-06
3.31932660765374e-06
3.31932611711892e-06
3.31932438428562e-06
3.31931875392943e-06
3.31930177863949e-06
3.31925341659296e-06
3.31912207738024e-06
3.31878102652283e-06
3.31793411639036e-06
3.31592557589087e-06
3.31138543199638e-06
3.30162739538597e-06
3.28173737733156e-06
3.24338975526353e-06
3.17363905629762e-06
3.05423537238947e-06
2.86227275722519e-06
2.57296636301388e-06
2.16484484196691e-06
1.62663092380122e-06
9.63901584421453e-07
2.86381329374192e-09
1.09891723402217e-11
1.24070475647428e-11
3.257720324603e-09
1.09946282968957e-06
1.85567680199593e-06
2.46946791700269e-06
2.93457051455255e-06
3.26390746025231e-06
3.48203565924485e-06
3.61732792883861e-06
3.69602954443151e-06
3.73904945145269e-06
3.76119576878291e-06
3.77195920160815e-06
3.77691063291226e-06
3.77907202083312e-06
3.77996933046148e-06
3.78032421737261e-06
3.78045797099892e-06
3.78050585778262e-06
3.78052193950235e-06
3.7805267912763e-06
3.78052787694725e-06
3.78052781691198e-06
3.78052750568826e-06
3.78052719985317e-06
3.78052697028363e-06
3.78052680819702e-06
3.78052661115429e-06
3.78052603948662e-06
3.78052406883965e-06
3.78051771823323e-06
3.78049861874755e-06
3.78044422861994e-06
3.78029646206465e-06
3.77991249254414e-06
3.77895828733474e-06
3.77669364582162e-06
3.7715712807396e-06
3.76055574021379e-06
3.73809194472901e-06
3.69476443450723e-06
3.61592464908393e-06
3.48089926533733e-06
3.26368166312696e-06
2.93599160521347e-06
2.47302744819173e-06
1.86113196174171e-06
1.10531767223245e-06
3.29091286942908e-09
1.26155738356168e-11
1.38457126691373e-11
3.63708467350787e-09
1.22454098345017e-06
2.06185694991495e-06
2.73931995819572e-06
3.25159697773885e-06
3.61389131104726e-06
3.85371397588822e-06
4.00245619479402e-06
4.08901293275233e-06
4.13635821679512e-06
4.16075349216791e-06
4.17262324502622e-06
4.17809074883464e-06
4.18048097203532e-06
4.1814749707557e-06
4.18186887864454e-06
4.18201770606809e-06
4.18207117611948e-06
4.18208924144527e-06
4.18209476910482e-06
4.18209606916537e-06
4.18209606615997e-06
4.18209576334474e-06
4.18209545021372e-06
4.18209520671079e-06
4.18209502414398e-06
4.18209479203195e-06
4.18209414161556e-06
4.18209195582437e-06
4.18208497704368e-06
4.18206405210905e-06
4.18200450722223e-06
4.18184270538795e-06
4.18142203865326e-06
4.18037596963532e-06
4.17789174884623e-06
4.17226954283756e-06
4.16017324495696e-06
4.13549550473576e-06
4.08788148123868e-06
4.00121399259564e-06
3.8527280384045e-06
3.61373474306954e-06
3.25291342788604e-06
2.74252511098679e-06
2.06672266784155e-06
1.22978222262352e-06
3.66805336894111e-09
1.40479126802443e-11
1.50913826436527e-11
3.96629050712313e-09
1.33276817025214e-06
2.23960952368535e-06
2.9714101368658e-06
3.52384382637721e-06
3.9141633317638e-06
4.17243533389536e-06
4.33262660065309e-06
4.42588094091983e-06
4.47692239873979e-06
4.50324465598544e-06
4.51606529142334e-06
4.52197791654022e-06
4.52456628816215e-06
4.52564437988278e-06
4.52607240005211e-06
4.52623449010877e-06
4.52629291758362e-06
4.52631277132763e-06
4.52631892716196e-06
4.52632044150341e-06
4.52632050772028e-06
4.5263202247065e-06
4.52631991286122e-06
4.52631966060983e-06
4.5263194595869e-06
4.5263191926179e-06
4.52631846674023e-06
4.52631608740313e-06
4.52630856499681e-06
4.52628608726782e-06
4.52622218464974e-06
4.52604853514007e-06
4.52559687731127e-06
4.52447314108263e-06
4.52180303881815e-06
4.51575720134639e-06
4.50274402094148e-06
4.47618659274987e-06
4.42493118149269e-06
4.33161135989022e-06
4.1716820135505e-06
3.91416815201905e-06
3.52514722820694e-06
2.97433961210056e-06
2.24394101081619e-06
1.33741904632146e-06
3.99495023350543e-09
1.52857244819806e-11
1.61493302009401e-11
4.246595206035e-09
1.42474888491125e-06
2.39024131452332e-06
3.16772382943315e-06
3.75385871189766e-06
4.16768683762983e-06
4.4414423066121e-06
4.61125394195947e-06
4.71014646275379e-06
4.76430671665214e-06
4.79225945065675e-06
4.80588720073789e-06
4.81217898392443e-06
4.81493680393975e-06
4.81608712624868e-06
4.81654459724849e-06
4.81671821122701e-06
4.81678098538668e-06
4.81680243086581e-06
4.81680916163713e-06
4.81681088494517e-06
4.81681102861326e-06
4.81681077376241e-06
4.81681046993813e-06
4.81681021329501e-06
4.81680999598648e-06
4.81680969534051e-06
4.81680889838639e-06
4.81680634650647e-06
4.81679835805652e-06
4.81677457406502e-06
4.81670703210304e-06
4.81652350783746e-06
4.81604601549186e-06
4.81485747330007e-06
4.8120320927795e-06
4.80563198824013e-06
4.79185136196192e-06
4.76371952021319e-06
4.70941263764264e-06
4.61051641329086e-06
4.44099226954215e-06
4.16794547290259e-06
3.75526222741266e-06
3.17050552933511e-06
2.39416618089625e-06
1.42890476030574e-06
4.27317879262463e-09
1.63358192166573e-11
1.70309201161557e-11
4.48083073854608e-09
1.50154379488799e-06
2.51572493493878e-06
3.33103639837988e-06
3.94504993822937e-06
4.37832543912084e-06
4.66490017220953e-06
4.84268860396199e-06
4.94626546213883e-06
5.00302326706019e-06
5.03233785810226e-06
5.04664192424336e-06
5.05325255719092e-06
5.05615343748128e-06
5.05736501205342e-06
5.05784758585951e-06
5.05803108527852e-06
5.05809762161419e-06
5.05812046491143e-06
5.05812771354408e-06
5.05812963619355e-06
5.05812986192818e-06
5.05812964024826e-06
5.05812934937467e-06
5.05812909189375e-06
5.05812886060478e-06
5.05812852836452e-06
5.05812766581557e-06
5.05812496199237e-06
5.05811657843128e-06
5.05809170880142e-06
5.05802116650006e-06
5.05782952118503e-06
5.05733078402061e-06
5.05608890610111e-06
5.05313559740674e-06
5.04644333415238e-06
5.03202927955443e-06
5.00259714458012e-06
4.94576901058063e-06
4.84226415788503e-06
4.66480917049308e-06
4.37892120550771e-06
3.94667000954475e-06
3.33381882747784e-06
2.51940736433758e-06
1.50534010388117e-06
4.50576641319079e-09
1.72105965659839e-11
1.77518851673588e-11
4.67297487715302e-09
1.56453776180502e-06
2.61849153967745e-06
3.46465448245242e-06
4.10139467649625e-06
4.5505308713525e-06
4.84757259221787e-06
5.03188522646161e-06
5.13930173216302e-06
5.19819419640771e-06
5.22863126089136e-06
5.24349459818027e-06
5.25036985748403e-06
5.25338994381666e-06
5.25465278452503e-06
5.25515647648949e-06
5.25534834516498e-06
5.25541809487401e-06
5.25544214892727e-06
5.25544985580397e-06
5.25545196529466e-06
5.25545227575512e-06
5.25545208796819e-06
5.25545181325352e-06
5.25545155772302e-06
5.25545131482532e-06
5.25545095382452e-06
5.25545003208607e-06
5.25544719644184e-06
5.25543848214464e-06
5.25541272195627e-06
5.2553397396604e-06
5.25514150841603e-06
5.25462554697414e-06
5.25334039719813e-06
5.25028319944384e-06
5.24335345612441e-06
5.22842411951692e-06
5.19793360126882e-06
5.13905248155571e-06
5.03179413610883e-06
4.84787921361818e-06
4.55153084697356e-06
4.10333654340603e-06
3.46758372526735e-06
2.62210316865764e-06
1.56812350271992e-06
4.69678065842842e-09
1.79263725571009e-11
1.83306603485276e-11
4.82773096827015e-09
1.61531320343876e-06
2.70123613268739e-06
3.5721757015941e-06
4.22716943588574e-06
4.68905533856966e-06
4.99452304326158e-06
5.18409776818371e-06
5.29461837690714e-06
5.35524125014057e-06
5.38659099628832e-06
5.40191061039669e-06
5.40900256078994e-06
5.41212065472672e-06
5.41342583395538e-06
5.4139470562858e-06
5.41414591636317e-06
5.41421837382575e-06
5.41424346204355e-06
5.41425156843499e-06
5.414253848006e-06
5.41425423798083e-06
5.41425408806088e-06
5.41425383146028e-06
5.41425358002106e-06
5.41425332791676e-06
5.41425294156814e-06
5.41425196772657e-06
5.41424901968481e-06
5.4142400324619e-06
5.41421355190436e-06
5.41413861352842e-06
5.41393511855737e-06
5.41340539650531e-06
5.41208565574049e-06
5.4089453358047e-06
5.40182541504659e-06
5.38648312527146e-06
5.35514393147239e-06
5.29461599809702e-06
5.18434616494612e-06
4.99524790795919e-06
4.69050595227346e-06
4.22951713449051e-06
3.57537881289106e-06
2.70493451530479e-06
1.61883080699741e-06
4.85093085850237e-09
1.85017913292901e-11
1.87868671032945e-11
4.95014042711394e-09
1.65553486573124e-06
2.76674282055703e-06
3.65727439248666e-06
4.32671039749596e-06
4.79869594944283e-06
5.11084956492458e-06
5.30460853220351e-06
5.41760357926139e-06
5.47960976344047e-06
5.51169142192342e-06
5.52737820768749e-06
5.53464518939552e-06
5.53784277359591e-06
5.53918244751258e-06
5.53971802623823e-06
5.53992264798675e-06
5.5399973560574e-06
5.54002331519021e-06
5.5400317656285e-06
5.5400341958514e-06
5.54003465994984e-06
5.54003454772652e-06
5.54003431002779e-06
5.54003406425365e-06
5.5400338053019e-06
5.54003339738095e-06
5.5400323788863e-06
5.54002933685221e-06
5.54002012792696e-06
5.5399930732928e-06
5.53991659007714e-06
5.53970895117768e-06
5.53916840135588e-06
5.53782142720866e-06
5.53461560906718e-06
5.52734570424064e-06
5.51167749992738e-06
5.47966813767872e-06
5.41783929731514e-06
5.30519004147145e-06
5.11199600417389e-06
4.80062135247707e-06
4.3295213259557e-06
3.66084927923469e-06
2.77065756237967e-06
1.65910665788497e-06
4.97320496536866e-09
1.89564039640417e-11
1.91400323270211e-11
5.04525108154544e-09
1.68685196528492e-06
2.81773789502489e-06
3.72352232478876e-06
4.40421326409923e-06
4.88408139549002e-06
5.2014633227102e-06
5.39850187689694e-06
5.51344151571382e-06
5.57653803172478e-06
5.60919847221836e-06
5.62517664353975e-06
5.63258306442022e-06
5.63584423920969e-06
5.63721163463142e-06
5.63775881074001e-06
5.63796811612218e-06
5.63804466912216e-06
5.63807135124662e-06
5.63808009357202e-06
5.63808265513068e-06
5.63808318644645e-06
5.63808310986e-06
5.63808289101836e-06
5.63808265202429e-06
5.63808238848806e-06
5.63808196293245e-06
5.63808090728246e-06
5.63807778833624e-06
5.63806840241096e-06
5.63804089750921e-06
5.63796321319113e-06
5.63775236257386e-06
5.63720342507042e-06
5.63583534332958e-06
5.63257871632679e-06
5.62519236409509e-06
5.60927093371993e-06
5.57674057602958e-06
5.51390000592887e-06
5.39939982116499e-06
5.20301936034808e-06
4.88648433579507e-06
4.40751689407224e-06
3.72753354454449e-06
2.821963818637e-06
1.69057280388479e-06
5.06856190342632e-09
1.93094857582143e-11
1.94085978360314e-11
5.11785713196688e-09
1.71082179461142e-06
2.85677621762603e-06
3.7742507499527e-06
4.46357962555504e-06
4.94950835932013e-06
5.27091881986118e-06
5.47049067597058e-06
5.58693662308518e-06
5.65088034723514e-06
5.68399203595844e-06
5.70019821929309e-06
5.70771418347345e-06
5.71102552772258e-06
5.71241489555552e-06
5.71297131201913e-06
5.71318437255688e-06
5.71326241703395e-06
5.71328969078866e-06
5.71329867671746e-06
5.71330135068362e-06
5.71330194143456e-06
5.71330189807147e-06
5.71330169748586e-06
5.71330146602175e-06
5.71330120001103e-06
5.71330076072479e-06
5.71329967517047e-06
5.71329649480793e-06
5.71328697026527e-06
5.71325911821463e-06
5.71318051536091e-06
5.71296721583799e-06
5.71241188544723e-06
5.71102770627085e-06
5.70773229522917e-06
5.70025697415221e-06
5.68414192132347e-06
5.65121295528225e-06
5.58759798272539e-06
5.47168065101329e-06
5.2728601267418e-06
4.95237302869002e-06
4.46737957004659e-06
3.77873017026846e-06
2.86137237446441e-06
1.71475694457972e-06
5.14169266449945e-09
1.95791356048929e-11
1.96092368255293e-11
5.17231631401394e-09
1.72885615470451e-06
2.88616253867456e-06
3.81245561045502e-06
4.50831187444122e-06
4.99882988605303e-06
5.32329815545018e-06
5.52479804445249e-06
5.64239381288659e-06
5.70698634543248e-06
5.74044482608155e-06
5.7568269044932e-06
5.76442771671983e-06
5.76777808974058e-06
5.76918463171897e-06
5.7697483089315e-06
5.76996433871792e-06
5.770043572247e-06
5.77007132332283e-06
5.77008050949763e-06
5.77008327800595e-06
5.77008392045328e-06
5.77008390733507e-06
5.77008372400176e-06
5.77008350054121e-06
5.77008323397841e-06
5.7700827846829e-06
5.77008167599728e-06
5.77007844796783e-06
5.77006881723013e-06
5.77004070258407e-06
5.76996140975277e-06
5.76974627519284e-06
5.76918615508251e-06
5.7677899056804e-06
5.76446538264354e-06
5.75692321094883e-06
5.7406625418589e-06
5.70743358388553e-06
5.64323548618387e-06
5.52625063881956e-06
5.32559157243442e-06
5.00212607892141e-06
4.51259032219901e-06
3.81740660627492e-06
2.89115556752337e-06
1.73304314716579e-06
5.19685405959433e-09
1.97816655789365e-11
1.97564578988028e-11
5.2124404395367e-09
1.74218942369682e-06
2.90790571086457e-06
3.84074332193221e-06
4.54145378360739e-06
5.03539268599394e-06
5.36214623911354e-06
5.56509122440244e-06
5.68355152725048e-06
5.74863356033706e-06
5.78235464620462e-06
5.79887044493629e-06
5.80653603239272e-06
5.80991633500209e-06
5.81133611116365e-06
5.81190541367454e-06
5.81212375856416e-06
5.81220392685587e-06
5.81223205766104e-06
5.81224140611516e-06
5.81224425298842e-06
5.81224493968157e-06
5.81224495351895e-06
5.81224478622289e-06
5.8122445710322e-06
5.8122443056179e-06
5.81224384972731e-06
5.8122427240351e-06
5.81223946026968e-06
5.81222975028603e-06
5.81220144136794e-06
5.81212164069543e-06
5.81190515756166e-06
5.81134151592281e-06
5.80993638135184e-06
5.80659039842456e-06
5.79899888329422e-06
5.78263061160409e-06
5.7491797720955e-06
5.68455006990912e-06
5.56677465859989e-06
5.36475346218998e-06
5.03908059239945e-06
4.54617727565737e-06
3.84614713384812e-06
2.91329596741228e-06
1.74664254617429e-06
5.23777063725035e-09
1.99312574180086e-11
1.98624509280695e-11
5.2414484766848e-09
1.7518651109206e-06
2.92370091082183e-06
3.86131108041276e-06
4.56556996503178e-06
5.06201614719915e-06
5.39044948819198e-06
5.59446001842285e-06
5.71355995387222e-06
5.77900547247545e-06
5.81292232262564e-06
5.82953822125011e-06
5.83725251257105e-06
5.84065542497078e-06
5.84208524934242e-06
5.8426588468839e-06
5.84287897102656e-06
5.84295986381331e-06
5.84298829252399e-06
5.842997770681e-06
5.84300068163767e-06
5.84300140574168e-06
5.84300144336831e-06
5.84300129084456e-06
5.84300108404992e-06
5.84300082125256e-06
5.8430003617986e-06
5.8429992244779e-06
5.84299593512388e-06
5.84298616798125e-06
5.84295771932994e-06
5.84287755420611e-06
5.8426601031382e-06
5.84209392991896e-06
5.84068239451215e-06
5.83732091942745e-06
5.82969371507136e-06
5.81324749018298e-06
5.77963569209291e-06
5.71469255301954e-06
5.59634252389543e-06
5.39333057120055e-06
5.06605118674859e-06
4.57069559894235e-06
3.86713408992293e-06
2.92946993065925e-06
1.75658126948064e-06
5.26759414084598e-09
2.00398402272733e-11
1.99371152330428e-11
5.26196750483599e-09
1.75873664579076e-06
2.93493336422484e-06
3.87595365143037e-06
4.58275515639491e-06
5.08100336630732e-06
5.41064792986876e-06
5.6154294714173e-06
5.73499397925472e-06
5.80070456639943e-06
5.83476478862098e-06
5.85145433109972e-06
5.85920462648031e-06
5.86262433825641e-06
5.86406166934042e-06
5.86463849485671e-06
5.86485996560367e-06
5.86494141167565e-06
5.86497007085115e-06
5.86497965132517e-06
5.864982614107e-06
5.8649833696135e-06
5.86498342811184e-06
5.86498328911315e-06
5.86498309073167e-06
5.86498283177153e-06
5.86498237135144e-06
5.86498122698887e-06
5.86497792050668e-06
5.86496811410107e-06
5.86493956891668e-06
5.86485915142986e-06
5.8646410280132e-06
5.86407308947833e-06
5.86265707302835e-06
5.85928471296186e-06
5.85163235361137e-06
5.83513103754515e-06
5.80140523325111e-06
5.73623968080742e-06
5.61748128987025e-06
5.41376435601404e-06
5.08534061293045e-06
4.58823650279838e-06
3.8821545809743e-06
2.9410514959186e-06
1.76370156593655e-06
5.28890666478162e-09
2.01171328532267e-11
1.99882072972781e-11
5.27606572536324e-09
1.76347776761769e-06
2.94269649388964e-06
3.88608786554351e-06
4.59466342232413e-06
5.09417354904767e-06
5.42466960433857e-06
5.62999542818684e-06
5.74988935784196e-06
5.81578879627532e-06
5.84995168014029e-06
5.86669423567877e-06
5.87447059383792e-06
5.87790253807636e-06
5.87934536944944e-06
5.87992457641115e-06
5.88014704857784e-06
5.8802289103669e-06
5.88025774530316e-06
5.88026740557915e-06
5.88027040996764e-06
5.88027119176038e-06
5.8802712685245e-06
5.88027114185757e-06
5.88027095183208e-06
5.88027069769238e-06
5.88027023845477e-06
5.88026909085511e-06
5.88026577418678e-06
5.88025594293328e-06
5.88022733544428e-06
5.88014675340994e-06
5.87992818759902e-06
5.87935907722767e-06
5.87794006204718e-06
5.87456036599835e-06
5.8668909510035e-06
5.85035209314084e-06
5.81654827346148e-06
5.75122999321966e-06
5.63219038012404e-06
5.42798678888352e-06
5.09877146638875e-06
4.60045567908889e-06
3.8926242199472e-06
2.94912988160291e-06
1.76867178875363e-06
5.30375280552169e-09
2.01707925133366e-11
2.00215501840372e-11
5.28530271406139e-09
1.7665981218901e-06
2.94781775322931e-06
3.89278643607707e-06
4.60254776299918e-06
5.10290553500302e-06
5.43397655943539e-06
5.63967197942584e-06
5.75979095175426e-06
5.82582022969278e-06
5.86005416999883e-06
5.87683367688729e-06
5.88462833523735e-06
5.88806893462494e-06
5.88951568929742e-06
5.89009660988284e-06
5.89031981001657e-06
5.89040197800759e-06
5.89043094489058e-06
5.89044066680018e-06
5.89044370446865e-06
5.89044450835799e-06
5.89044460118262e-06
5.89044448567015e-06
5.89044430387361e-06
5.89044405528691e-06
5.89044359892995e-06
5.89044245114817e-06
5.89043912990052e-06
5.89042928544253e-06
5.8904006431408e-06
5.89031996658587e-06
5.89010114051179e-06
5.88953132553428e-06
5.88811047254657e-06
5.88472620755445e-06
5.87704602715891e-06
5.86048321092927e-06
5.82662915147767e-06
5.76121178611415e-06
5.64198860703413e-06
5.43746574309823e-06
5.10772889700136e-06
4.60861189749162e-06
3.89961979549822e-06
2.95453417763059e-06
1.77200112484334e-06
5.31368711905571e-09
2.0206616439932e-11
2.00412561355561e-11
5.29078428831468e-09
1.76846025389055e-06
2.95088627579342e-06
3.89681376530501e-06
4.60730178355999e-06
5.10818342580254e-06
5.43961298663823e-06
5.64554108589023e-06
5.76580318109177e-06
5.83191592866876e-06
5.86619605766991e-06
5.88299986193418e-06
5.89080669692809e-06
5.89425312567268e-06
5.89570255616885e-06
5.89628466131399e-06
5.89650837246431e-06
5.89659075966856e-06
5.89661982367908e-06
5.89662959278191e-06
5.89663265706301e-06
5.89663347992177e-06
5.89663358717578e-06
5.89663348146144e-06
5.89663330770397e-06
5.89663306516853e-06
5.89663261295045e-06
5.89663146734752e-06
5.89662814601124e-06
5.89661829790743e-06
5.89658964363309e-06
5.89650893075473e-06
5.89628999493766e-06
5.89571985855763e-06
5.8942981124336e-06
5.89091151344761e-06
5.88322561427014e-06
5.8666496728064e-06
5.83276741018156e-06
5.76729332747302e-06
5.64796341714346e-06
5.44325255344345e-06
5.11320541848824e-06
4.61360759389066e-06
3.90391377896602e-06
2.95785963444159e-06
1.7740554960239e-06
5.31982518734473e-09
2.02287518577489e-11
2.00499252048619e-11
5.29321219546781e-09
1.76929499489555e-06
2.952277679324e-06
3.89865779066185e-06
4.60949658928388e-06
5.11063691831505e-06
5.44224775616696e-06
5.64829643770664e-06
5.76863463080883e-06
5.83479296041818e-06
5.86909898219661e-06
5.88591677360996e-06
5.89373080664199e-06
5.89718077380905e-06
5.89863187297473e-06
5.89921473852189e-06
5.89943878905619e-06
5.89952132849786e-06
5.89955046429867e-06
5.89956027117954e-06
5.89956335840199e-06
5.89956419851942e-06
5.89956431913278e-06
5.89956422350934e-06
5.89956405762331e-06
5.89956382109049e-06
5.89956337317915e-06
5.89956223045451e-06
5.89955891119686e-06
5.89954906577189e-06
5.89952041741966e-06
5.89943971738412e-06
5.89922080241245e-06
5.89865067865884e-06
5.89722885928403e-06
5.8938418513026e-06
5.8861545435504e-06
5.86957465369146e-06
5.83568271569964e-06
5.77018730157936e-06
5.65081446653245e-06
5.44602409261251e-06
5.1158405516418e-06
4.61602480125346e-06
3.90600492868023e-06
2.95949106232048e-06
1.77507178548526e-06
5.32288911761844e-09
2.02398798582322e-11
2.00487885406432e-11
5.29292012913219e-09
1.76921284586123e-06
2.95217258549264e-06
3.89855394418495e-06
4.60940856779982e-06
5.11057158746572e-06
5.4422062432299e-06
5.64827617975342e-06
5.76863126500005e-06
5.83480180352605e-06
5.86911594057491e-06
5.88593874144182e-06
5.89375566436056e-06
5.89720720179074e-06
5.89865911209563e-06
5.89924238138832e-06
5.89946662989126e-06
5.89954926847028e-06
5.89957845755357e-06
5.89958829654498e-06
5.89959140541052e-06
5.89959226242267e-06
5.89959239666981e-06
5.89959231133973e-06
5.89959215309635e-06
5.89959192203376e-06
5.89959147769692e-06
5.89959033724019e-06
5.89958702052245e-06
5.89957718202566e-06
5.89954855504452e-06
5.89946791391848e-06
5.89924914524054e-06
5.89867935587836e-06
5.89725824834042e-06
5.89387265778468e-06
5.88618799007815e-06
5.86961268754038e-06
5.83572815179682e-06
5.77024375894735e-06
5.65088592674791e-06
5.4461139517787e-06
5.115950165552e-06
4.61615168080008e-06
3.90614081688929e-06
2.95962003410938e-06
1.77516828617e-06
5.32324079844762e-09
2.0241348894886e-11
2.003779609654e-11
5.28989635812284e-09
1.76821072356651e-06
2.95056689362165e-06
3.8964980317826e-06
4.60703409281486e-06
5.10798480763058e-06
5.4394870248845e-06
5.6454800785187e-06
5.76579387366961e-06
5.83194402841547e-06
5.86624905582911e-06
5.88306823558731e-06
5.89088394384351e-06
5.89433519429927e-06
5.89578711448857e-06
5.89637045746637e-06
5.89659477415133e-06
5.89667746335731e-06
5.89670668871709e-06
5.89671655441035e-06
5.89671968352106e-06
5.89672055698628e-06
5.89672070468969e-06
5.89672062949756e-06
5.89672047852441e-06
5.89672025237464e-06
5.89671981098659e-06
5.89671867246826e-06
5.89671535934458e-06
5.8967055332486e-06
5.89667694572401e-06
5.89659641542028e-06
5.89637793138749e-06
5.89580882588801e-06
5.89438927213782e-06
5.89100703572483e-06
5.88332925709372e-06
5.86676741586816e-06
5.83290788557195e-06
5.76746760983692e-06
5.64818364884436e-06
5.44352901903579e-06
5.1135420844541e-06
4.61399661703989e-06
3.90432970871421e-06
2.95825372811815e-06
1.77434982125963e-06
5.32089691962207e-09
2.02332280226965e-11
2.00156350759599e-11
5.28378764409107e-09
1.76617264914939e-06
2.94727240076046e-06
3.89224663527122e-06
4.60208974203929e-06
5.10256585071715e-06
5.43376190323568e-06
5.63956950311977e-06
5.75977803414623e-06
5.82587226983402e-06
5.86014952945154e-06
5.87695582504507e-06
5.88476595822999e-06
5.88821497049021e-06
5.8896660684354e-06
5.89024914613368e-06
5.89047339891204e-06
5.89055608949645e-06
5.89058533360865e-06
5.89059522007563e-06
5.89059836754928e-06
5.89059925666166e-06
5.89059941725686e-06
5.89059935177139e-06
5.89059920759529e-06
5.89059898586238e-06
5.89059854704692e-06
5.89059741066301e-06
5.89059410320172e-06
5.89058429708271e-06
5.89055577182608e-06
5.8904754154169e-06
5.89025738101601e-06
5.88968937138718e-06
5.88827235568109e-06
5.88489572142835e-06
5.87722973254188e-06
5.86069152816772e-06
5.82687708212869e-06
5.7615184971999e-06
5.64237497120154e-06
5.43794919316408e-06
5.10831568072202e-06
4.60928768032781e-06
3.900339922481e-06
2.95521429762557e-06
1.77250748430821e-06
5.31552956079277e-09
2.02143232199731e-11
1.99796454817907e-11
5.27387849954985e-09
1.76286405893406e-06