/*--------------------------------*- C++ -*----------------------------------*\
  =========                 |
  \\      /  F ield         | OpenFOAM: The Open Source CFD Toolbox
   \\    /   O peration     | Website:  https://openfoam.org
    \\  /    A nd           | Version:  10
     \\/     M anipulation  |
\*---------------------------------------------------------------------------*/
FoamFile
{
    format      ascii;
    class       volScalarField;
    location    "6.2";
    object      omega;
}
// * * * * * * * * * * * * * * * * * * * * * * * * * * * * * * * * * * * * * //

dimensions      [0 0 -1 0 0 0 0];

internalField   nonuniform List<scalar> 
2500
(
128011.4611743
128022.541696705
128018.832288215
128016.24614004
128014.725622466
128013.884095286
128013.434385007
128013.201712159
128013.085952357
128013.0313077
128013.006023431
128012.994945424
128012.99027032
128012.988076008
128012.986966386
128012.986203541
128012.985854643
128012.985491828
128012.985105288
128012.984845621
128012.984625114
128012.984436767
128012.984282329
128012.984190543
128012.984092242
128012.98400997
128012.98398338
128012.983975107
128012.983994391
128012.984045526
128012.984131179
128012.98429241
128012.98447541
128012.984718513
128012.985055767
128012.985603135
128012.986647943
128012.988790604
128012.994014889
128013.005672253
128013.031707923
128013.087966061
128013.20478595
128013.437427443
128013.88556716
128014.720896639
128016.2367432
128018.835119492
128022.576112991
128011.422931015
31890.1667370178
14171.8237829504
14170.0477815609
14168.8284048555
14168.0918127006
14167.6696292484
14167.4353405272
14167.309713718
14167.2450845483
14167.2133593471
14167.1984965522
14167.1918657626
14167.1890436749
14167.1878815676
14167.1874131918
14167.1872195808
14167.1871420859
14167.1871006178
14167.1870703008
14167.1870494933
14167.1870322095
14167.1870167123
14167.1870036608
14167.1869948733
14167.1869870441
14167.1869803568
14167.1869770362
14167.1869750634
14167.1869743033
14167.1869761444
14167.1869808723
14167.1869913753
14167.18701259
14167.1870532948
14167.1871381505
14167.1873439746
14167.1878598506
14167.1891299194
14167.1921778793
14167.1991704178
14167.2145593518
14167.2469483076
14167.3121096296
14167.43767117
14167.6706932724
14168.0902855492
14168.8256842909
14170.0526118509
14171.8475630814
31890.1287194302
31787.1307148055
3531.24462556256
50.8410265113164
50.8351059162797
50.8315613520646
50.8295374854021
50.8284158755662
50.8278141162413
50.8275038524386
50.8273509744204
50.8272791178185
50.8272469399366
50.8272332035437
50.8272275814682
50.827225361767
50.827224502343
50.8272241799359
50.8272240430714
50.8272239669378
50.8272239190257
50.8272238797368
50.8272238423826
50.82722380944
50.8272237866274
50.8272237682268
50.8272237522439
50.8272237429601
50.8272237358051
50.8272237294254
50.8272237279391
50.8272237328015
50.8272237545261
50.8272238256952
50.827223986124
50.8272243537533
50.8272253037057
50.8272277551188
50.8272338677724
50.8272485410171
50.8272822382758
50.8273562951542
50.827511852979
50.8278242484786
50.8284256374379
50.829542025975
50.8315567282943
50.8351032392722
50.8410763157113
3531.25703104724
31787.1870536617
31697.5356237382
3521.18962153225
50.6961792724667
50.6904522499196
50.6871272590235
50.6852813878988
50.6842836258958
50.6837593293773
50.683493492174
50.6833642347008
50.6833041423292
50.6832774739305
50.6832661793319
50.6832615996908
50.6832598159806
50.6832591449316
50.6832589034856
50.6832588120983
50.6832587693717
50.6832587447984
50.6832587241739
50.683258702287
50.6832586813713
50.68325866671
50.6832586560505
50.6832586466833
50.6832586406305
50.6832586349288
50.6832586282067
50.6832586242806
50.6832586221896
50.6832586251127
50.6832586724294
50.6832587931725
50.6832590686237
50.6832598036932
50.6832617420019
50.6832666486373
50.6832785659864
50.6833062676145
50.6833679041821
50.6834991269896
50.6837667190798
50.6842912401803
50.6852862325901
50.6871284519315
50.6904656165855
50.6962643530694
3521.2075388117
31697.7340919578
31628.3066250524
3513.5542478303
50.5876898586943
50.5830810605849
50.5804902384729
50.5790937931643
50.5783581512532
50.5779795090134
50.5777905177211
50.5776996803061
50.5776578054733
50.5776393358301
50.5776315509503
50.5776284105269
50.5776271973953
50.577626750042
50.5776265954469
50.5776265428176
50.5776265225844
50.5776265129964
50.5776265047817
50.5776264939708
50.5776264820631
50.5776264736427
50.5776264683557
50.5776264636842
50.5776264603028
50.5776264564313
50.577626451039
50.5776264466369
50.5776264416311
50.5776264357039
50.5776264624869
50.5776265393436
50.5776267145674
50.5776271963509
50.5776284877936
50.5776317925674
50.5776398914238
50.5776588894162
50.5777015769441
50.5777934954033
50.5779835346204
50.5783625103342
50.5790971910747
50.5804940755422
50.5831023782084
50.5877873925904
3513.57413190094
31628.6041343524
31580.0237510808
3508.33689083362
50.5145900275438
50.5113529818137
50.5095897788113
50.508666458744
50.5081920763784
50.5079526582933
50.5078348451788
50.5077787633449
50.5077530706851
50.5077417811179
50.5077370338975
50.5077351235372
50.5077343895469
50.5077341232024
50.507734034918
50.5077340080646
50.5077340001901
50.5077339984594
50.5077339971713
50.5077339931841
50.5077339871706
50.5077339828877
50.5077339808443
50.5077339789843
50.5077339773557
50.5077339750483
50.5077339713856
50.5077339676349
50.5077339624149
50.5077339545392
50.5077339674439
50.5077340101679
50.5077341091983
50.5077343909703
50.5077351562477
50.5077371295884
50.5077419970596
50.5077534894981
50.5077795025632
50.5078360275767
50.5079542804342
50.5081938333262
50.5086679447746
50.5095930965973
50.5113729920192
50.5146769218464
3508.35499463541
31580.3430231766
31549.2651137053
3505.08711476574
50.4696942285645
50.4676563080113
50.4665791063764
50.4660303486373
50.4657550750718
50.4656186994585
50.4655524510256
50.4655211686084
50.4655069005616
50.4655006431017
50.4654980133971
50.4654969558916
50.4654965511269
50.4654964062002
50.4654963599027
50.4654963486492
50.4654963476756
50.4654963478068
50.4654963484263
50.4654963480954
50.4654963454861
50.4654963436367
50.4654963432966
50.4654963427974
50.4654963421253
50.4654963409192
50.465496338707
50.4654963360003
50.4654963318675
50.4654963253794
50.4654963303513
50.4654963512546
50.4654964022567
50.4654965532031
50.4654969673798
50.4654980407223
50.4655006999934
50.465507005654
50.4655213519952
50.465552745307
50.4656190796069
50.465755377444
50.4660304454415
50.466580734748
50.4676704157344
50.4697586589384
3505.10121170307
31549.5435205631
31531.1934357359
3503.22273692474
50.444294966637
50.4431245126943
50.4425230963656
50.4422245963578
50.4420782343563
50.4420069878928
50.4419727845743
50.4419567434318
50.4419494491087
50.4419462516868
50.4419449069705
50.441944365964
50.4419441595046
50.4419440864664
50.4419440646075
50.4419440608914
50.4419440616424
50.441944062631
50.4419440633024
50.4419440635844
50.441944062893
50.4419440623581
50.4419440627005
50.4419440626873
50.4419440624519
50.4419440618857
50.4419440606559
50.4419440589257
50.4419440561812
50.4419440521261
50.4419440529089
50.441944061659
50.4419440864422
50.4419441616915
50.4419443697326
50.4419449104574
50.4419462537132
50.4419494463262
50.4419567331372
50.4419727606804
50.4420069089711
50.4420779761963
50.4422240536951
50.4425233209275
50.4431325135819
50.4443362798009
3503.2323931378
31531.4020692323
31521.3215914558
3502.22910821077
50.4309434222468
50.4303222201765
50.4300113902153
50.4298608570071
50.429788632375
50.429754059949
50.429737644401
50.4297299904719
50.429726516798
50.4297249932506
50.4297243514047
50.4297240928728
50.4297239944573
50.4297239600442
50.4297239506574
50.4297239498735
50.4297239507105
50.4297239516509
50.4297239521902
50.429723952506
50.4297239525383
50.429723952615
50.4297239529291
50.4297239530571
50.4297239529975
50.4297239527085
50.4297239520641
50.4297239510582
50.4297239494442
50.4297239472584
50.4297239468723
50.4297239500411
50.4297239611533
50.4297239963909
50.4297240944472
50.4297243496857
50.4297249844654
50.4297264941574
50.4297299447604
50.4297375606058
50.4297538969971
50.4297882881388
50.4298602073745
50.4300109229147
50.4303259124535
50.4309668850523
3502.23504544875
31521.4602732826
31516.2730877792
3501.7335653907
50.4243743783257
50.4240666665849
50.4239164825069
50.4238454102572
50.4238120093934
50.4237962770225
50.4237888843428
50.4237854550319
50.4237839004147
50.4237832176084
50.4237829292581
50.423782812926
50.4237827687474
50.423782753567
50.4237827497962
50.4237827498013
50.4237827504486
50.4237827511028
50.423782751534
50.4237827518095
50.4237827519364
50.4237827520826
50.4237827522972
50.4237827524191
50.423782752408
50.4237827522605
50.4237827519416
50.4237827514014
50.4237827505346
50.4237827494101
50.4237827489801
50.4237827499867
50.4237827545963
50.4237827702084
50.4237828139294
50.4237829278049
50.4237832109546
50.4237838837777
50.4237854213363
50.4237888212723
50.4237961534327
50.4238117487981
50.4238448946985
50.4239158708326
50.4240679865067
50.4243863681233
3501.73689215985
31516.3565544391
31513.8416128338
3501.50086430939
50.4213306055911
50.4211872027043
50.4211188273538
50.421087165894
50.4210725777783
50.4210658128838
50.4210626655793
50.4210612123053
50.421060553826
50.4210602640351
50.4210601413009
50.4210600916951
50.421060072902
50.421060066587
50.4210600651678
50.4210600653059
50.4210600657085
50.4210600660957
50.4210600663706
50.4210600665532
50.4210600666612
50.421060066774
50.421060066899
50.4210600669771
50.4210600669765
50.4210600669051
50.4210600667545
50.4210600664839
50.4210600660524
50.4210600655062
50.4210600652418
50.4210600655007
50.4210600672939
50.4210600738758
50.4210600924341
50.4210601407853
50.4210602608425
50.4210605454937
50.421061194945
50.4210626316864
50.4210657426259
50.4210724205494
50.4210868311939
50.4211183295702
50.4211874789198
50.4213361754621
3501.50258302827
31513.8877652386
31512.7331154847
3501.39742971805
50.4199954906901
50.419932201735
50.4199026789483
50.4198892853971
50.4198832297537
50.4198804637695
50.4198791892948
50.4198786032869
50.4198783377851
50.4198782206564
50.4198781708901
50.4198781507386
50.4198781431227
50.4198781406236
50.4198781401251
50.4198781402404
50.41987814046
50.4198781406659
50.4198781408182
50.4198781409228
50.4198781409925
50.4198781410614
50.4198781411269
50.419878141169
50.4198781411708
50.4198781411384
50.41987814107
50.4198781409427
50.4198781407417
50.419878140491
50.4198781403584
50.419878140402
50.4198781410626
50.4198781437127
50.4198781512514
50.419878170898
50.4198782195641
50.4198783345625
50.4198785961863
50.4198791744572
50.4198804300757
50.4198831472962
50.419889095085
50.4199023522139
50.4199321328422
50.4199978566402
3501.398256079
31512.7568196741
31512.2527010634
3501.35372081155
50.4194387528793
50.4194121555754
50.4194000008992
50.419394591986
50.4193921901319
50.4193911090661
50.4193906156247
50.4193903896406
50.4193902872309
50.41939024193
50.4193902226178
50.4193902147843
50.4193902118326
50.4193902108879
50.4193902107254
50.4193902107958
50.4193902109055
50.4193902110069
50.4193902110841
50.4193902111389
50.4193902111781
50.4193902112152
50.4193902112474
50.4193902112681
50.4193902112703
50.4193902112572
50.4193902112276
50.4193902111714
50.4193902110835
50.4193902109743
50.4193902109096
50.4193902109071
50.419390211145
50.4193902121674
50.4193902151109
50.4193902227854
50.4193902417343
50.4193902863185
50.419390387347
50.419390610192
50.419391094848
50.4193921510755
50.4193944939892
50.419399814004
50.4194120306543
50.4194396729944
3501.35409336714
31512.2641072079
31512.0541244464
3501.33610648783
50.4192174164592
50.4192067234834
50.4192019301003
50.4191998353383
50.4191989209767
50.4191985152545
50.4191983317733
50.4191982480651
50.4191982101159
50.4191981932821
50.419198186082
50.4191981831577
50.4191981820602
50.4191981817201
50.4191981816727
50.419198181709
50.4191981817606
50.4191981818082
50.4191981818454
50.4191981818727
50.4191981818932
50.4191981819122
50.4191981819277
50.4191981819378
50.4191981819401
50.4191981819356
50.4191981819239
50.4191981819009
50.4191981818648
50.4191981818199
50.4191981817904
50.4191981817835
50.4191981818669
50.4191981822471
50.4191981833559
50.4191981862483
50.4191981933629
50.4191982100188
50.4191982475787
50.41919833017
50.4191985098878
50.4191989039049
50.4191997887211
50.419201833498
50.4192066289266
50.4192177424965
3501.3362649643
31512.0593023372
31511.9757272906
3501.32933162905
50.4191335084999
50.4191293797289
50.4191275619334
50.4191267809478
50.4191264455569
50.4191262987775
50.4191262330009
50.4191262031056
50.4191261895471
50.4191261835168
50.4191261809302
50.4191261798795
50.419126179488
50.4191261793715
50.4191261793606
50.419126179379
50.419126179403
50.419126179425
50.4191261794428
50.4191261794564
50.4191261794672
50.4191261794768
50.4191261794847
50.4191261794902
50.4191261794924
50.4191261794917
50.4191261794879
50.4191261794795
50.4191261794659
50.4191261794487
50.4191261794364
50.4191261794323
50.4191261794609
50.4191261795975
50.4191261800015
50.4191261810561
50.4191261836397
50.4191261896556
50.4191262031476
50.4191262326984
50.4191262969696
50.4191264385789
50.4191267601906
50.4191275158619
50.4191293240989
50.4191336121504
3501.32939556454
31511.9779575862
31511.9462501772
3501.32685733764
50.4191033862663
50.4191018500044
50.4191011848849
50.4191009036518
50.4191007847254
50.4191007333687
50.4191007105607
50.419100700235
50.4191006955516
50.4191006934644
50.419100692568
50.4191006922049
50.4191006920719
50.419100692035
50.4191006920349
50.4191006920448
50.4191006920564
50.4191006920672
50.4191006920762
50.4191006920836
50.4191006920896
50.4191006920951
50.4191006920996
50.4191006921032
50.4191006921053
50.4191006921063
50.4191006921058
50.4191006921035
50.4191006920991
50.4191006920933
50.4191006920888
50.4191006920871
50.4191006920967
50.4191006921442
50.4191006922867
50.4191006926591
50.4191006935681
50.4191006956738
50.4191007003696
50.4191007106082
50.4191007328473
50.4191007820428
50.4191008949271
50.4191011643401
50.4191018215305
50.4191034146641
3501.32688190901
31511.9471661222
31511.9358570138
3501.32601915725
50.4190934477501
50.4190928953112
50.419092659836
50.4190925617467
50.4190925208679
50.419092503442
50.4190924957733
50.4190924923169
50.4190924907508
50.419092490053
50.4190924897542
50.4190924896349
50.4190924895931
50.4190924895836
50.4190924895865
50.4190924895925
50.419092489599
50.419092489605
50.4190924896103
50.4190924896149
50.4190924896189
50.4190924896226
50.4190924896258
50.4190924896285
50.4190924896307
50.4190924896323
50.4190924896332
50.4190924896333
50.4190924896326
50.4190924896311
50.4190924896299
50.4190924896295
50.4190924896327
50.4190924896487
50.4190924896971
50.4190924898241
50.4190924901339
50.4190924908486
50.4190924924345
50.4190924958769
50.4190925033409
50.4190925199055
50.4190925582733
50.4190926511987
50.419092882078
50.4190934536692
3501.32602818724
31511.9362171579
31511.9326228317
3501.32577987174
50.419090795836
50.4190906033716
50.4190905225117
50.4190904892983
50.4190904756479
50.4190904699034
50.4190904674002
50.4190904662791
50.4190904657734
50.4190904655496
50.4190904654554
50.4190904654196
50.419090465409
50.4190904654087
50.4190904654122
50.4190904654166
50.419090465421
50.4190904654252
50.419090465429
50.4190904654324
50.4190904654356
50.4190904654385
50.4190904654412
50.4190904654436
50.4190904654456
50.4190904654475
50.4190904654489
50.41909046545
50.4190904654506
50.4190904654508
50.4190904654509
50.419090465451
50.4190904654521
50.4190904654572
50.4190904654728
50.4190904655142
50.4190904656158
50.4190904658503
50.4190904663694
50.4190904674929
50.4190904699259
50.4190904753415
50.4190904879968
50.4190905190783
50.4190905976746
50.4190907962114
3501.32578305633
31511.9327589034
31511.9319788317
3501.32575214736
50.4190906820146
50.4190906169164
50.4190905899315
50.4190905789947
50.4190905745612
50.4190905727212
50.4190905719296
50.4190905715793
50.4190905714238
50.419090571357
50.4190905713308
50.4190905713227
50.4190905713223
50.419090571325
50.4190905713286
50.4190905713323
50.4190905713359
50.4190905713393
50.4190905713425
50.4190905713455
50.4190905713482
50.4190905713508
50.4190905713533
50.4190905713555
50.4190905713576
50.4190905713595
50.4190905713611
50.4190905713625
50.4190905713636
50.4190905713644
50.419090571365
50.4190905713654
50.4190905713659
50.4190905713672
50.4190905713717
50.4190905713841
50.4190905714153
50.4190905714886
50.419090571652
50.4190905720065
50.4190905727755
50.4190905744951
50.4190905785509
50.41909058865
50.4190906146288
50.4190906815306
3501.32575322936
31511.9320283953
31511.9322410835
3501.32579673529
50.4190914234012
50.4190914019892
50.4190913932251
50.4190913897204
50.4190913883212
50.419091387751
50.4190913875112
50.4190913874084
50.4190913873652
50.4190913873488
50.4190913873444
50.4190913873453
50.4190913873481
50.4190913873516
50.4190913873552
50.4190913873586
50.4190913873619
50.4190913873649
50.4190913873678
50.4190913873706
50.4190913873732
50.4190913873756
50.419091387378
50.4190913873802
50.4190913873822
50.4190913873841
50.4190913873858
50.4190913873873
50.4190913873886
50.4190913873896
50.4190913873904
50.4190913873909
50.4190913873912
50.4190913873914
50.4190913873922
50.419091387395
50.4190913874032
50.4190913874239
50.4190913874719
50.4190913875781
50.4190913878117
50.4190913883399
50.4190913896018
50.4190913927918
50.4190914011412
50.4190914230497
3501.32579709178
31511.9322585486
31511.9328106785
3501.32586529468
50.4190924441831
50.4190924373281
50.4190924345573
50.4190924334664
50.41909243304
50.4190924328721
50.4190924328054
50.4190924327798
50.4190924327716
50.4190924327708
50.4190924327731
50.4190924327766
50.4190924327803
50.419092432784
50.4190924327875
50.4190924327908
50.4190924327938
50.4190924327967
50.4190924327995
50.4190924328021
50.4190924328046
50.419092432807
50.4190924328093
50.4190924328114
50.4190924328134
50.4190924328153
50.419092432817
50.4190924328185
50.4190924328199
50.419092432821
50.4190924328219
50.4190924328224
50.4190924328227
50.4190924328226
50.4190924328223
50.4190924328221
50.4190924328231
50.4190924328272
50.4190924328388
50.4190924328672
50.4190924329331
50.4190924330875
50.4190924334663
50.4190924344441
50.4190924370541
50.4190924440332
3501.32586541022
31511.9328166567
31511.9334815156
3501.32594157711
50.4190935536497
50.4190935515152
50.4190935506649
50.4190935503378
50.4190935502154
50.4190935501714
50.4190935501574
50.419093550155
50.4190935501571
50.4190935501609
50.419093550165
50.4190935501692
50.419093550173
50.4190935501766
50.41909355018
50.4190935501831
50.419093550186
50.4190935501888
50.4190935501914
50.419093550194
50.4190935501964
50.4190935501987
50.4190935502009
50.419093550203
50.419093550205
50.4190935502069
50.4190935502086
50.4190935502101
50.4190935502115
50.4190935502127
50.4190935502136
50.4190935502142
50.4190935502145
50.4190935502144
50.4190935502139
50.4190935502129
50.4190935502118
50.4190935502109
50.4190935502116
50.4190935502164
50.4190935502315
50.419093550272
50.4190935503791
50.4190935506675
50.419093551459
50.4190935536204
3501.32594161555
31511.9334835219
31511.9341848075
3501.32602028226
50.4190946905171
50.4190946898744
50.4190946896241
50.4190946895325
50.4190946895023
50.4190946894951
50.4190946894963
50.4190946895003
50.4190946895052
50.4190946895099
50.4190946895144
50.4190946895185
50.4190946895223
50.4190946895257
50.419094689529
50.4190946895319
50.4190946895347
50.4190946895374
50.4190946895399
50.4190946895424
50.4190946895447
50.419094689547
50.4190946895491
50.4190946895512
50.4190946895532
50.419094689555
50.4190946895567
50.4190946895583
50.4190946895597
50.4190946895609
50.4190946895619
50.4190946895626
50.4190946895629
50.4190946895629
50.4190946895624
50.4190946895614
50.4190946895598
50.4190946895578
50.4190946895555
50.4190946895537
50.4190946895541
50.4190946895612
50.4190946895873
50.4190946896666
50.4190946898971
50.4190946905444
3501.32602029676
31511.9341854794
31511.9348982406
3501.32609972866
50.4190958356392
50.4190958354561
50.4190958353883
50.4190958353671
50.4190958353636
50.4190958353666
50.4190958353716
50.419095835377
50.4190958353822
50.4190958353869
50.4190958353912
50.4190958353951
50.4190958353987
50.4190958354019
50.419095835405
50.4190958354078
50.4190958354105
50.419095835413
50.4190958354155
50.4190958354178
50.4190958354201
50.4190958354223
50.4190958354244
50.4190958354265
50.4190958354284
50.4190958354302
50.4190958354319
50.4190958354335
50.419095835435
50.4190958354362
50.4190958354373
50.419095835438
50.4190958354385
50.4190958354386
50.4190958354382
50.4190958354374
50.4190958354359
50.4190958354337
50.419095835431
50.4190958354277
50.4190958354245
50.4190958354225
50.4190958354256
50.4190958354437
50.4190958355056
50.4190958356893
3501.32609973596
31511.9348984778
31511.9356147673
3501.32617939656
50.4190969831892
50.419096983144
50.4190969831299
50.4190969831285
50.4190969831321
50.4190969831373
50.4190969831428
50.419096983148
50.4190969831529
50.4190969831573
50.4190969831613
50.4190969831649
50.4190969831682
50.4190969831712
50.4190969831741
50.4190969831767
50.4190969831793
50.4190969831817
50.419096983184
50.4190969831863
50.4190969831885
50.4190969831907
50.4190969831928
50.4190969831947
50.4190969831967
50.4190969831984
50.4190969832002
50.4190969832018
50.4190969832033
50.4190969832046
50.4190969832056
50.4190969832066
50.4190969832071
50.4190969832074
50.4190969832072
50.4190969832066
50.4190969832054
50.4190969832035
50.419096983201
50.4190969831978
50.4190969831941
50.4190969831903
50.4190969831876
50.4190969831888
50.4190969832019
50.4190969832474
3501.32617940173
31511.9356148674
31511.9363322163
3501.32625912918
50.4190981314372
50.4190981314319
50.4190981314327
50.4190981314363
50.419098131441
50.4190981314461
50.4190981314511
50.4190981314558
50.4190981314601
50.419098131464
50.4190981314676
50.4190981314709
50.4190981314739
50.4190981314767
50.4190981314793
50.4190981314818
50.4190981314842
50.4190981314865
50.4190981314888
50.419098131491
50.4190981314931
50.4190981314952
50.4190981314972
50.4190981314992
50.4190981315011
50.4190981315029
50.4190981315046
50.4190981315062
50.4190981315078
50.4190981315091
50.4190981315103
50.4190981315113
50.419098131512
50.4190981315124
50.4190981315125
50.4190981315121
50.4190981315112
50.4190981315098
50.4190981315078
50.4190981315051
50.4190981315019
50.4190981314983
50.4190981314947
50.419098131492
50.4190981314919
50.4190981314977
3501.3262591337
31511.9363322711
31511.9370499344
3501.3263388803
50.4190992798814
50.4190992798869
50.4190992798911
50.4190992798953
50.4190992798995
50.4190992799039
50.4190992799081
50.4190992799121
50.4190992799158
50.4190992799192
50.4190992799224
50.4190992799253
50.4190992799281
50.4190992799306
50.419099279933
50.4190992799354
50.4190992799376
50.4190992799398
50.419099279942
50.4190992799441
50.4190992799461
50.4190992799481
50.4190992799501
50.419099279952
50.4190992799539
50.4190992799557
50.4190992799575
50.4190992799591
50.4190992799606
50.4190992799621
50.4190992799633
50.4190992799644
50.4190992799653
50.4190992799659
50.4190992799662
50.4190992799661
50.4190992799656
50.4190992799647
50.4190992799632
50.4190992799612
50.4190992799587
50.4190992799559
50.4190992799528
50.4190992799499
50.4190992799468
50.419099279942
3501.32633888455
31511.9370499768
31511.9377677291
3501.32641863659
50.4191004283794
50.4191004283872
50.4191004283916
50.4191004283951
50.4191004283985
50.4191004284019
50.4191004284053
50.4191004284086
50.4191004284116
50.4191004284146
50.4191004284173
50.4191004284199
50.4191004284222
50.4191004284246
50.4191004284268
50.4191004284289
50.419100428431
50.4191004284331
50.4191004284351
50.4191004284371
50.4191004284391
50.419100428441
50.419100428443
50.4191004284449
50.4191004284467
50.4191004284485
50.4191004284503
50.419100428452
50.4191004284536
50.4191004284551
50.4191004284564
50.4191004284577
50.4191004284587
50.4191004284595
50.41910042846
50.4191004284603
50.4191004284602
50.4191004284596
50.4191004284588
50.4191004284574
50.4191004284557
50.4191004284538
50.4191004284517
50.4191004284494
50.4191004284463
50.4191004284393
3501.32641864077
31511.9377677671
31511.9384855451
3501.32649839427
50.4191015768916
50.4191015768993
50.4191015769029
50.4191015769055
50.4191015769079
50.4191015769104
50.419101576913
50.4191015769155
50.419101576918
50.4191015769204
50.4191015769226
50.4191015769249
50.4191015769269
50.419101576929
50.419101576931
50.419101576933
50.4191015769349
50.4191015769368
50.4191015769387
50.4191015769406
50.4191015769425
50.4191015769444
50.4191015769463
50.4191015769482
50.41910157695
50.4191015769518
50.4191015769536
50.4191015769553
50.4191015769569
50.4191015769585
50.4191015769599
50.4191015769613
50.4191015769625
50.4191015769635
50.4191015769643
50.4191015769649
50.4191015769652
50.4191015769651
50.4191015769648
50.4191015769642
50.4191015769633
50.4191015769622
50.419101576961
50.4191015769598
50.4191015769574
50.4191015769506
3501.32649839837
31511.9384855825
31511.9392033669
3501.32657815232
50.4191027254073
50.4191027254141
50.4191027254169
50.4191027254183
50.4191027254198
50.4191027254214
50.4191027254231
50.4191027254249
50.4191027254268
50.4191027254287
50.4191027254305
50.4191027254324
50.4191027254341
50.4191027254359
50.4191027254377
50.4191027254394
50.4191027254412
50.419102725443
50.4191027254448
50.4191027254466
50.4191027254484
50.4191027254503
50.4191027254521
50.4191027254539
50.4191027254558
50.4191027254576
50.4191027254594
50.4191027254611
50.4191027254628
50.4191027254645
50.419102725466
50.4191027254675
50.4191027254688
50.4191027254701
50.4191027254712
50.419102725472
50.4191027254727
50.4191027254732
50.4191027254734
50.4191027254735
50.4191027254734
50.4191027254733
50.419102725473
50.4191027254728
50.4191027254713
50.4191027254653
3501.32657815638
31511.9392034033
31511.9399211901
3501.32665791044
50.4191038739235
50.4191038739295
50.4191038739311
50.4191038739316
50.4191038739321
50.4191038739328
50.4191038739337
50.4191038739349
50.4191038739361
50.4191038739375
50.4191038739388
50.4191038739403
50.4191038739418
50.4191038739433
50.4191038739449
50.4191038739464
50.419103873948
50.4191038739497
50.4191038739514
50.4191038739531
50.4191038739548
50.4191038739566
50.4191038739584
50.4191038739602
50.419103873962
50.4191038739638
50.4191038739656
50.4191038739674
50.4191038739691
50.4191038739708
50.4191038739725
50.4191038739742
50.4191038739757
50.4191038739772
50.4191038739785
50.4191038739797
50.4191038739808
50.4191038739817
50.4191038739825
50.4191038739833
50.4191038739839
50.4191038739846
50.4191038739854
50.4191038739862
50.4191038739857
50.4191038739807
3501.3266579144
31511.9399212258
31511.9406390135
3501.32673766857
50.4191050224398
50.4191050224446
50.4191050224453
50.4191050224447
50.4191050224442
50.419105022444
50.4191050224442
50.4191050224447
50.4191050224453
50.4191050224462
50.4191050224471
50.4191050224482
50.4191050224494
50.4191050224506
50.4191050224519
50.4191050224533
50.4191050224548
50.4191050224563
50.4191050224578
50.4191050224595
50.4191050224611
50.4191050224628
50.4191050224646
50.4191050224663
50.4191050224681
50.4191050224699
50.4191050224718
50.4191050224736
50.4191050224754
50.4191050224772
50.419105022479
50.4191050224808
50.4191050224825
50.4191050224842
50.4191050224858
50.4191050224873
50.4191050224888
50.4191050224902
50.4191050224916
50.419105022493
50.4191050224944
50.4191050224959
50.4191050224976
50.4191050224994
50.4191050225
50.419105022496
3501.32673767242
31511.9406390465
31511.9413568369
3501.32681742669
50.4191061709558
50.4191061709595
50.4191061709591
50.4191061709575
50.4191061709561
50.4191061709551
50.4191061709545
50.4191061709543
50.4191061709544
50.4191061709547
50.4191061709552
50.4191061709559
50.4191061709568
50.4191061709578
50.4191061709589
50.41910617096
50.4191061709614
50.4191061709627
50.4191061709641
50.4191061709657
50.4191061709673
50.4191061709689
50.4191061709707
50.4191061709724
50.4191061709741
50.419106170976
50.4191061709778
50.4191061709797
50.4191061709816
50.4191061709834
50.4191061709854
50.4191061709873
50.4191061709892
50.419106170991
50.4191061709929
50.4191061709948
50.4191061709967
50.4191061709985
50.4191061710005
50.4191061710025
50.4191061710047
50.419106171007
50.4191061710096
50.4191061710124
50.419106171014
50.4191061710112
3501.32681743052
31511.9413568705
31511.9420746603
3501.3268971848
50.4191073194716
50.419107319474
50.4191073194726
50.4191073194699
50.4191073194676
50.4191073194658
50.4191073194645
50.4191073194636
50.4191073194631
50.419107319463
50.4191073194631
50.4191073194634
50.419107319464
50.4191073194647
50.4191073194656
50.4191073194666
50.4191073194677
50.4191073194689
50.4191073194703
50.4191073194717
50.4191073194732
50.4191073194748
50.4191073194765
50.4191073194782
50.41910731948
50.4191073194818
50.4191073194836
50.4191073194856
50.4191073194875
50.4191073194895
50.4191073194915
50.4191073194936
50.4191073194956
50.4191073194977
50.4191073194999
50.4191073195021
50.4191073195043
50.4191073195067
50.4191073195091
50.4191073195118
50.4191073195146
50.4191073195178
50.4191073195213
50.4191073195251
50.4191073195278
50.4191073195262
3501.32689718862
31511.9420746945
31511.9427924838
3501.32697694291
50.4191084679872
50.4191084679883
50.4191084679857
50.4191084679821
50.4191084679789
50.4191084679762
50.4191084679742
50.4191084679727
50.4191084679717
50.4191084679711
50.4191084679708
50.4191084679708
50.419108467971
50.4191084679715
50.4191084679722
50.419108467973
50.419108467974
50.419108467975
50.4191084679763
50.4191084679776
50.4191084679791
50.4191084679806
50.4191084679822
50.4191084679839
50.4191084679856
50.4191084679875
50.4191084679894
50.4191084679913
50.4191084679933
50.4191084679954
50.4191084679975
50.4191084679997
50.419108468002
50.4191084680043
50.4191084680067