/*--------------------------------*- C++ -*----------------------------------*\
  =========                 |
  \\      /  F ield         | OpenFOAM: The Open Source CFD Toolbox
   \\    /   O peration     | Website:  https://openfoam.org
    \\  /    A nd           | Version:  10
     \\/     M anipulation  |
\*---------------------------------------------------------------------------*/
FoamFile
{
    format      ascii;
    class       volScalarField;
    location    "6.2";
    object      p;
}
// * * * * * * * * * * * * * * * * * * * * * * * * * * * * * * * * * * * * * //

dimensions      [1 -1 -2 0 0 0 0];

internalField   nonuniform List<scalar> 
2500
(
100093.235225008
100093.235225999
100093.235226965
100093.235227796
100093.235228343
100093.235228707
100093.235228929
100093.235229067
100093.235229148
100093.235229195
100093.235229221
100093.235229233
100093.235229237
100093.235229236
100093.235229232
100093.235229225
100093.235229216
100093.235229207
100093.235229197
100093.235229186
100093.235229175
100093.235229164
100093.235229153
100093.235229142
100093.235229131
100093.23522912
100093.235229109
100093.235229099
100093.235229088
100093.235229078
100093.235229068
100093.235229058
100093.235229049
100093.235229039
100093.235229029
100093.235229017
100093.235229005
100093.23522899
100093.23522897
100093.235228944
100093.235228905
100093.235228845
100093.235228753
100093.235228605
100093.235228373
100093.235228001
100093.235227444
100093.235226599
100093.235225613
100093.23522462
100093.232976528
100093.232977283
100093.232978052
100093.232978762
100093.232979242
100093.232979571
100093.232979775
100093.232979902
100093.232979978
100093.232980023
100093.232980047
100093.232980059
100093.232980063
100093.232980061
100093.232980057
100093.23298005
100093.232980042
100093.232980032
100093.232980022
100093.232980012
100093.232980001
100093.23297999
100093.232979979
100093.232979968
100093.232979957
100093.232979946
100093.232979935
100093.232979924
100093.232979914
100093.232979904
100093.232979894
100093.232979884
100093.232979874
100093.232979864
100093.232979854
100093.232979843
100093.23297983
100093.232979815
100093.232979796
100093.23297977
100093.232979732
100093.232979676
100093.232979589
100093.232979451
100093.232979237
100093.232978899
100093.23297841
100093.232977687
100093.232976901
100093.232976145
100093.230719844
100093.230720367
100093.230720825
100093.230721315
100093.230721655
100093.2307219
100093.230722056
100093.230722157
100093.230722218
100093.230722254
100093.230722274
100093.230722283
100093.230722286
100093.230722285
100093.23072228
100093.230722273
100093.230722265
100093.230722256
100093.230722246
100093.230722235
100093.230722224
100093.230722213
100093.230722202
100093.230722191
100093.23072218
100093.230722169
100093.230722158
100093.230722148
100093.230722137
100093.230722127
100093.230722117
100093.230722107
100093.230722098
100093.230722088
100093.230722077
100093.230722066
100093.230722054
100093.230722039
100093.230722021
100093.230721997
100093.230721964
100093.230721916
100093.230721843
100093.230721733
100093.230721567
100093.230721313
100093.230720963
100093.230720462
100093.23071999
100093.23071946
100093.228456074
100093.228456329
100093.228456488
100093.228456733
100093.228456907
100093.228457048
100093.228457141
100093.228457205
100093.228457246
100093.228457271
100093.228457286
100093.228457292
100093.228457294
100093.228457291
100093.228457286
100093.228457279
100093.228457271
100093.228457261
100093.228457251
100093.228457241
100093.22845723
100093.228457219
100093.228457208
100093.228457197
100093.228457186
100093.228457175
100093.228457164
100093.228457154
100093.228457143
100093.228457133
100093.228457123
100093.228457113
100093.228457103
100093.228457093
100093.228457083
100093.228457072
100093.22845706
100093.228457047
100093.22845703
100093.228457009
100093.228456982
100093.228456945
100093.228456893
100093.228456819
100093.228456716
100093.228456566
100093.228456384
100093.228456129
100093.228455961
100093.228455696
100093.226186562
100093.226186583
100093.22618653
100093.226186576
100093.226186615
100093.226186666
100093.226186705
100093.226186736
100093.226186758
100093.226186772
100093.22618678
100093.226186783
100093.226186783
100093.226186779
100093.226186774
100093.226186766
100093.226186758
100093.226186748
100093.226186738
100093.226186728
100093.226186717
100093.226186706
100093.226186695
100093.226186684
100093.226186673
100093.226186662
100093.226186651
100093.226186641
100093.22618663
100093.22618662
100093.22618661
100093.2261866
100093.226186591
100093.226186581
100093.226186571
100093.22618656
100093.226186549
100093.226186536
100093.226186522
100093.226186504
100093.226186483
100093.226186457
100093.226186424
100093.226186383
100093.226186335
100093.226186276
100093.22618623
100093.226186178
100093.226186227
100093.226186197
100093.223912802
100093.223912664
100093.22391249
100093.223912402
100093.223912347
100093.223912332
100093.22391233
100093.223912335
100093.223912341
100093.223912346
100093.223912348
100093.223912348
100093.223912345
100093.22391234
100093.223912334
100093.223912326
100093.223912317
100093.223912308
100093.223912298
100093.223912287
100093.223912276
100093.223912265
100093.223912254
100093.223912243
100093.223912232
100093.223912221
100093.22391221
100093.2239122
100093.223912189
100093.223912179
100093.223912169
100093.22391216
100093.22391215
100093.22391214
100093.22391213
100093.22391212
100093.22391211
100093.223912098
100093.223912086
100093.223912072
100093.223912057
100093.22391204
100093.223912023
100093.223912008
100093.223912002
100093.22391201
100093.223912059
100093.223912144
100093.223912319
100093.223912452
100093.221636218
100093.221636004
100093.221635782
100093.22163562
100093.221635512
100093.221635455
100093.221635424
100093.22163541
100093.221635404
100093.221635401
100093.221635398
100093.221635395
100093.22163539
100093.221635384
100093.221635377
100093.221635368
100093.221635359
100093.221635349
100093.221635339
100093.221635329
100093.221635318
100093.221635307
100093.221635296
100093.221635285
100093.221635274
100093.221635263
100093.221635252
100093.221635241
100093.221635231
100093.221635221
100093.221635211
100093.221635201
100093.221635192
100093.221635182
100093.221635173
100093.221635163
100093.221635154
100093.221635143
100093.221635133
100093.221635122
100093.221635112
100093.221635103
100093.221635099
100093.221635103
100093.221635126
100093.221635177
100093.221635281
100093.221635442
100093.221635667
100093.221635881
100093.219357925
100093.219357698
100093.219357478
100093.219357289
100093.219357157
100093.219357077
100093.219357029
100093.219357001
100093.219356986
100093.219356976
100093.219356969
100093.219356963
100093.219356956
100093.219356949
100093.21935694
100093.219356932
100093.219356922
100093.219356912
100093.219356902
100093.219356891
100093.21935688
100093.219356869
100093.219356858
100093.219356847
100093.219356836
100093.219356825
100093.219356814
100093.219356804
100093.219356793
100093.219356783
100093.219356773
100093.219356764
100093.219356754
100093.219356745
100093.219356736
100093.219356727
100093.219356718
100093.21935671
100093.219356701
100093.219356693
100093.219356687
100093.219356685
100093.21935669
100093.219356708
100093.219356748
100093.219356823
100093.219356952
100093.219357142
100093.219357367
100093.219357597
100093.217078687
100093.217078485
100093.21707829
100093.217078102
100093.217077967
100093.217077876
100093.217077818
100093.217077783
100093.21707776
100093.217077745
100093.217077734
100093.217077725
100093.217077717
100093.217077708
100093.217077699
100093.21707769
100093.21707768
100093.217077669
100093.217077659
100093.217077648
100093.217077637
100093.217077626
100093.217077615
100093.217077604
100093.217077593
100093.217077582
100093.217077571
100093.21707756
100093.21707755
100093.21707754
100093.21707753
100093.217077521
100093.217077512
100093.217077503
100093.217077494
100093.217077486
100093.217077478
100093.21707747
100093.217077464
100093.217077459
100093.217077457
100093.21707746
100093.217077471
100093.217077498
100093.217077548
100093.217077633
100093.217077766
100093.217077955
100093.217078155
100093.217078362
100093.21479897
100093.214798807
100093.214798644
100093.214798474
100093.214798346
100093.214798253
100093.214798192
100093.21479815
100093.214798123
100093.214798104
100093.21479809
100093.214798079
100093.214798068
100093.214798058
100093.214798048
100093.214798038
100093.214798028
100093.214798017
100093.214798007
100093.214797996
100093.214797985
100093.214797974
100093.214797962
100093.214797951
100093.21479794
100093.214797929
100093.214797919
100093.214797908
100093.214797898
100093.214797888
100093.214797878
100093.214797869
100093.21479786
100093.214797851
100093.214797843
100093.214797835
100093.214797828
100093.214797822
100093.214797817
100093.214797815
100093.214797816
100093.214797823
100093.214797839
100093.214797871
100093.214797926
100093.214798013
100093.214798138
100093.21479831
100093.214798477
100093.214798645
100093.212519033
100093.212518908
100093.212518778
100093.21251863
100093.212518514
100093.212518425
100093.212518362
100093.212518318
100093.212518288
100093.212518266
100093.212518249
100093.212518236
100093.212518224
100093.212518213
100093.212518202
100093.212518191
100093.21251818
100093.21251817
100093.212518159
100093.212518148
100093.212518136
100093.212518125
100093.212518114
100093.212518103
100093.212518092
100093.212518081
100093.21251807
100093.21251806
100093.212518049
100093.212518039
100093.21251803
100093.212518021
100093.212518012
100093.212518003
100093.212517996
100093.212517988
100093.212517982
100093.212517977
100093.212517974
100093.212517974
100093.212517977
100093.212517987
100093.212518007
100093.212518042
100093.212518097
100093.212518181
100093.212518294
100093.212518443
100093.212518576
100093.212518705
100093.210239005
100093.210238913
100093.21023881
100093.210238685
100093.210238582
100093.210238499
100093.210238438
100093.210238393
100093.210238361
100093.210238336
100093.210238318
100093.210238302
100093.210238289
100093.210238277
100093.210238266
100093.210238254
100093.210238243
100093.210238232
100093.210238221
100093.21023821
100093.210238198
100093.210238187
100093.210238176
100093.210238165
100093.210238154
100093.210238143
100093.210238132
100093.210238122
100093.210238111
100093.210238101
100093.210238092
100093.210238083
100093.210238074
100093.210238066
100093.210238059
100093.210238052
100093.210238047
100093.210238043
100093.210238041
100093.210238042
100093.210238048
100093.21023806
100093.210238082
100093.210238118
100093.210238172
100093.210238249
100093.210238349
100093.210238473
100093.210238577
100093.210238672
100093.207958945
100093.207958878
100093.207958797
100093.207958693
100093.207958603
100093.207958527
100093.207958469
100093.207958424
100093.207958391
100093.207958365
100093.207958345
100093.207958328
100093.207958314
100093.207958301
100093.207958289
100093.207958277
100093.207958265
100093.207958254
100093.207958243
100093.207958231
100093.20795822
100093.207958209
100093.207958197
100093.207958186
100093.207958175
100093.207958164
100093.207958153
100093.207958143
100093.207958133
100093.207958123
100093.207958113
100093.207958104
100093.207958096
100093.207958088
100093.207958081
100093.207958075
100093.20795807
100093.207958067
100093.207958066
100093.207958069
100093.207958076
100093.20795809
100093.207958113
100093.207958149
100093.2079582
100093.20795827
100093.207958356
100093.207958458
100093.207958539
100093.207958607
100093.205678876
100093.205678827
100093.205678764
100093.205678678
100093.2056786
100093.205678531
100093.205678477
100093.205678433
100093.2056784
100093.205678373
100093.205678352
100093.205678334
100093.205678319
100093.205678305
100093.205678293
100093.20567828
100093.205678269
100093.205678257
100093.205678245
100093.205678234
100093.205678223
100093.205678211
100093.2056782
100093.205678189
100093.205678177
100093.205678167
100093.205678156
100093.205678145
100093.205678135
100093.205678125
100093.205678116
100093.205678107
100093.205678099
100093.205678091
100093.205678084
100093.205678079
100093.205678074
100093.205678072
100093.205678072
100093.205678076
100093.205678084
100093.205678099
100093.205678122
100093.205678157
100093.205678204
100093.205678266
100093.20567834
100093.205678423
100093.205678486
100093.205678534
100093.203398808
100093.203398772
100093.203398721
100093.20339865
100093.203398584
100093.203398522
100093.203398471
100093.20339843
100093.203398396
100093.20339837
100093.203398348
100093.203398329
100093.203398314
100093.203398299
100093.203398286
100093.203398274
100093.203398261
100093.20339825
100093.203398238
100093.203398226
100093.203398215
100093.203398203
100093.203398192
100093.203398181
100093.20339817
100093.203398159
100093.203398148
100093.203398137
100093.203398127
100093.203398117
100093.203398108
100093.203398099
100093.203398091
100093.203398084
100093.203398077
100093.203398072
100093.203398068
100093.203398066
100093.203398067
100093.203398071
100093.20339808
100093.203398095
100093.203398118
100093.203398151
100093.203398194
100093.203398249
100093.203398311
100093.203398379
100093.203398428
100093.203398462
100093.201118742
100093.201118715
100093.201118674
100093.201118615
100093.201118558
100093.201118503
100093.201118457
100093.201118417
100093.201118385
100093.201118358
100093.201118336
100093.201118317
100093.201118301
100093.201118286
100093.201118273
100093.20111826
100093.201118248
100093.201118236
100093.201118224
100093.201118212
100093.201118201
100093.201118189
100093.201118178
100093.201118166
100093.201118155
100093.201118144
100093.201118133
100093.201118123
100093.201118113
100093.201118103
100093.201118094
100093.201118085
100093.201118077
100093.20111807
100093.201118063
100093.201118058
100093.201118055
100093.201118054
100093.201118055
100093.20111806
100093.201118069
100093.201118084
100093.201118105
100093.201118136
100093.201118175
100093.201118223
100093.201118276
100093.201118331
100093.201118369
100093.201118393
100093.198838677
100093.198838657
100093.198838624
100093.198838575
100093.198838526
100093.198838477
100093.198838435
100093.198838398
100093.198838367
100093.19883834
100093.198838319
100093.1988383
100093.198838283
100093.198838268
100093.198838254
100093.198838241
100093.198838229
100093.198838217
100093.198838205
100093.198838193
100093.198838181
100093.19883817
100093.198838158
100093.198838147
100093.198838136
100093.198838125
100093.198838114
100093.198838104
100093.198838093
100093.198838084
100093.198838074
100093.198838066
100093.198838058
100093.198838051
100093.198838045
100093.19883804
100093.198838037
100093.198838035
100093.198838037
100093.198838042
100093.198838051
100093.198838065
100093.198838086
100093.198838114
100093.198838148
100093.198838191
100093.198838235
100093.19883828
100093.19883831
100093.198838327
100093.196558615
100093.196558599
100093.196558572
100093.196558531
100093.196558489
100093.196558446
100093.196558407
100093.196558372
100093.196558343
100093.196558318
100093.196558296
100093.196558277
100093.196558261
100093.196558246
100093.196558232
100093.196558218
100093.196558206
100093.196558194
100093.196558182
100093.19655817
100093.196558158
100093.196558147
100093.196558135
100093.196558124
100093.196558113
100093.196558102
100093.196558091
100093.19655808
100093.19655807
100093.19655806
100093.196558051
100093.196558042
100093.196558035
100093.196558027
100093.196558021
100093.196558017
100093.196558014
100093.196558013
100093.196558014
100093.196558019
100093.196558028
100093.196558041
100093.19655806
100093.196558085
100093.196558116
100093.196558153
100093.19655819
100093.196558227
100093.19655825
100093.196558263
100093.194278553
100093.194278541
100093.194278519
100093.194278484
100093.194278448
100093.19427841
100093.194278375
100093.194278343
100093.194278315
100093.194278291
100093.19427827
100093.194278251
100093.194278234
100093.194278219
100093.194278205
100093.194278192
100093.19427818
100093.194278167
100093.194278155
100093.194278143
100093.194278132
100093.19427812
100093.194278109
100093.194278097
100093.194278086
100093.194278075
100093.194278064
100093.194278054
100093.194278043
100093.194278034
100093.194278024
100093.194278016
100093.194278008
100093.194278001
100093.194277995
100093.19427799
100093.194277987
100093.194277986
100093.194277988
100093.194277992
100093.194278
100093.194278013
100093.19427803
100093.194278053
100093.19427808
100093.194278111
100093.194278143
100093.194278173
100093.194278191
100093.194278201
100093.191998492
100093.191998482
100093.191998464
100093.191998435
100093.191998404
100093.19199837
100093.191998339
100093.191998309
100093.191998283
100093.19199826
100093.19199824
100093.191998222
100093.191998205
100093.19199819
100093.191998176
100093.191998163
100093.19199815
100093.191998138
100093.191998126
100093.191998114
100093.191998102
100093.191998091
100093.191998079
100093.191998068
100093.191998057
100093.191998046
100093.191998035
100093.191998024
100093.191998014
100093.191998004
100093.191997995
100093.191997986
100093.191997979
100093.191997972
100093.191997966
100093.191997961
100093.191997958
100093.191997957
100093.191997958
100093.191997962
100093.191997969
100093.191997981
100093.191997996
100093.191998016
100093.19199804
100093.191998067
100093.191998093
100093.191998118
100093.191998132
100093.191998139
100093.189718432
100093.189718424
100093.189718409
100093.189718385
100093.189718357
100093.189718328
100093.1897183
100093.189718273
100093.189718249
100093.189718227
100093.189718207
100093.18971819
100093.189718174
100093.189718159
100093.189718145
100093.189718132
100093.189718119
100093.189718107
100093.189718095
100093.189718083
100093.189718071
100093.18971806
100093.189718048
100093.189718037
100093.189718025
100093.189718014
100093.189718004
100093.189717993
100093.189717983
100093.189717973
100093.189717964
100093.189717955
100093.189717947
100093.18971794
100093.189717934
100093.189717929
100093.189717926
100093.189717925
100093.189717925
100093.189717929
100093.189717935
100093.189717945
100093.189717959
100093.189717977
100093.189717997
100093.18971802
100093.189718042
100093.189718062
100093.189718073
100093.189718079
100093.187438372
100093.187438366
100093.187438353
100093.187438333
100093.187438309
100093.187438284
100093.187438258
100093.187438234
100093.187438212
100093.187438191
100093.187438172
100093.187438155
100093.18743814
100093.187438125
100093.187438112
100093.187438099
100093.187438086
100093.187438074
100093.187438062
100093.18743805
100093.187438038
100093.187438027
100093.187438015
100093.187438004
100093.187437993
100093.187437981
100093.187437971
100093.18743796
100093.18743795
100093.18743794
100093.187437931
100093.187437922
100093.187437914
100093.187437907
100093.1874379
100093.187437896
100093.187437892
100093.18743789
100093.187437891
100093.187437894
100093.187437899
100093.187437908
100093.18743792
100093.187437935
100093.187437952
100093.187437971
100093.187437989
100093.187438006
100093.187438015
100093.187438019
100093.185158312
100093.185158308
100093.185158297
100093.18515828
100093.18515826
100093.185158238
100093.185158215
100093.185158193
100093.185158173
100093.185158154
100093.185158136
100093.18515812
100093.185158105
100093.18515809
100093.185158077
100093.185158064
100093.185158052
100093.18515804
100093.185158028
100093.185158016
100093.185158004
100093.185157993
100093.185157981
100093.18515797
100093.185157958
100093.185157947
100093.185157936
100093.185157926
100093.185157916
100093.185157906
100093.185157896
100093.185157887
100093.185157879
100093.185157872
100093.185157866
100093.18515786
100093.185157857
100093.185157855
100093.185157855
100093.185157857
100093.185157861
100093.185157869
100093.185157879
100093.185157891
100093.185157906
100093.185157922
100093.185157936
100093.185157949
100093.185157956
100093.185157959
100093.182878253
100093.18287825
100093.182878242
100093.182878228
100093.18287821
100093.182878191
100093.182878171
100093.182878151
100093.182878132
100093.182878115
100093.182878098
100093.182878083
100093.182878068
100093.182878054
100093.182878041
100093.182878029
100093.182878016
100093.182878004
100093.182877992
100093.182877981
100093.182877969
100093.182877958
100093.182877946
100093.182877935
100093.182877923
100093.182877912
100093.182877901
100093.182877891
100093.18287788
100093.18287787
100093.182877861
100093.182877852
100093.182877844
100093.182877836
100093.18287783
100093.182877824
100093.18287782
100093.182877818
100093.182877817
100093.182877818
100093.182877822
100093.182877828
100093.182877836
100093.182877846
100093.182877858
100093.182877871
100093.182877883
100093.182877893
100093.182877898
100093.1828779
100093.180598195
100093.180598193
100093.180598186
100093.180598175
100093.18059816
100093.180598143
100093.180598126
100093.180598108
100093.180598091
100093.180598075
100093.180598059
100093.180598044
100093.180598031
100093.180598017
100093.180598005
100093.180597992
100093.18059798
100093.180597968
100093.180597957
100093.180597945
100093.180597933
100093.180597922
100093.18059791
100093.180597899
100093.180597888
100093.180597877
100093.180597866
100093.180597855
100093.180597844
100093.180597834
100093.180597825
100093.180597816
100093.180597807
100093.1805978
100093.180597793
100093.180597787
100093.180597783
100093.18059778
100093.180597779
100093.180597779
100093.180597781
100093.180597786
100093.180597792
100093.1805978
100093.18059781
100093.18059782
100093.180597829
100093.180597837
100093.180597841
100093.180597842
100093.178318137
100093.178318136
100093.178318131
100093.178318122
100093.178318109
100093.178318095
100093.17831808
100093.178318064
100093.178318049
100093.178318034
100093.178318019
100093.178318006
100093.178317992
100093.17831798
100093.178317967
100093.178317955
100093.178317943
100093.178317932
100093.17831792
100093.178317909
100093.178317897
100093.178317886
100093.178317874
100093.178317863
100093.178317851
100093.17831784
100093.178317829
100093.178317819
100093.178317808
100093.178317798
100093.178317788
100093.178317779
100093.17831777
100093.178317763
100093.178317756
100093.17831775
100093.178317745
100093.178317741
100093.178317739
100093.178317739
100093.17831774
100093.178317743
100093.178317748
100093.178317754
100093.178317761
100093.178317769
100093.178317775
100093.178317781
100093.178317783
100093.178317783
100093.17603808
100093.176038079
100093.176038076
100093.176038069
100093.176038059
100093.176038047
100093.176038034
100093.17603802
100093.176038006
100093.176037992
100093.176037979
100093.176037966
100093.176037953
100093.176037941
100093.176037929
100093.176037918
100093.176037906
100093.176037895
100093.176037883
100093.176037872
100093.17603786
100093.176037849
100093.176037838
100093.176037826
100093.176037815
100093.176037804
100093.176037793
100093.176037782
100093.176037771
100093.176037761
100093.176037751
100093.176037742
100093.176037733
100093.176037725
100093.176037718
100093.176037711
100093.176037706
100093.176037702
100093.176037699
100093.176037698
100093.176037698
100093.1760377
100093.176037703
100093.176037707
100093.176037712
100093.176037717
100093.176037722
100093.176037725
100093.176037726
100093.176037726
100093.173758023
100093.173758023
100093.173758021
100093.173758016
100093.173758008
100093.173757998
100093.173757987
100093.173757975
100093.173757963
100093.17375795
100093.173757938
100093.173757926
100093.173757914
100093.173757903
100093.173757891
100093.17375788
100093.173757868
100093.173757857
100093.173757846
100093.173757835
100093.173757823
100093.173757812
100093.173757801
100093.173757789
100093.173757778
100093.173757767
100093.173757756
100093.173757745
100093.173757734
100093.173757724
100093.173757714
100093.173757704
100093.173757695
100093.173757687
100093.173757679
100093.173757673
100093.173757667
100093.173757662
100093.173757659
100093.173757656
100093.173757655
100093.173757656
100093.173757657
100093.17375766
100093.173757663
100093.173757666
100093.173757668
100093.17375767
100093.17375767
100093.173757668
100093.171477966
100093.171477967
100093.171477966
100093.171477963
100093.171477957
100093.171477949
100093.17147794
100093.17147793
100093.171477919
100093.171477908
100093.171477897
100093.171477885
100093.171477874
100093.171477863
100093.171477852
100093.171477841
100093.171477831
100093.171477819
100093.171477808
100093.171477797
100093.171477786
100093.171477775
100093.171477763
100093.171477752
100093.171477741
100093.17147773
100093.171477719
100093.171477708
100093.171477697
100093.171477686
100093.171477676
100093.171477667
100093.171477657
100093.171477649
100093.171477641
100093.171477634
100093.171477627
100093.171477622
100093.171477618
100093.171477615
100093.171477613
100093.171477612
100093.171477612
100093.171477612
100093.171477613
100093.171477614
100093.171477615
100093.171477615
100093.171477613
100093.171477611
100093.169197909
100093.169197911
100093.169197912
100093.16919791
100093.169197906
100093.1691979
100093.169197893
100093.169197884
100093.169197875
100093.169197865
100093.169197855
100093.169197845
100093.169197834
100093.169197824
100093.169197814
100093.169197803
100093.169197792
100093.169197782
100093.169197771
100093.16919776
100093.169197749
100093.169197737
100093.169197726
100093.169197715
100093.169197704
100093.169197692
100093.169197681
100093.16919767
100093.169197659
100093.169197649
100093.169197639
100093.169197629
100093.169197619
100093.16919761
100093.169197602
100093.169197594
100093.169197588
100093.169197582
100093.169197577
100093.169197573
100093.169197569
100093.169197567
100093.169197566
100093.169197565
100093.169197564
100093.169197563
100093.169197562
100093.16919756
100093.169197557
100093.169197554
100093.166917853
100093.166917856
100093.166917857
100093.166917858
100093.166917855
100093.166917851
100093.166917845
100093.166917838
100093.16691783
100093.166917822
100093.166917813
100093.166917804
100093.166917794
100093.166917784
100093.166917774
100093.166917764
100093.166917754
100093.166917743
100093.166917733
100093.166917722
100093.166917711
100093.1669177
100093.166917689
100093.166917677
100093.166917666
100093.166917655
100093.166917644
100093.166917633
100093.166917622
100093.166917611
100093.166917601
100093.16691759
100093.166917581
100093.166917572
100093.166917563
100093.166917555
100093.166917548
100093.166917541
100093.166917535
100093.16691753
100093.166917526
100093.166917522
100093.166917519
100093.166917517
100093.166917514
100093.166917512
100093.166917509
100093.166917505
100093.166917501
100093.166917497
100093.164637796
100093.1646378
100093.164637803
100093.164637805
100093.164637805
100093.164637802
100093.164637798
100093.164637793
100093.164637786
100093.164637779
100093.164637771
100093.164637762
100093.164637754
100093.164637744
100093.164637735
100093.164637725
100093.164637715
100093.164637705
100093.164637695
100093.164637684
100093.164637673
100093.164637662
100093.164637651
100093.16463764
100093.164637628
100093.164637617
100093.164637606
100093.164637595
100093.164637584
100093.164637573
100093.164637562
100093.164637552
100093.164637542
100093.164637533
100093.164637524
100093.164637515
100093.164637507
100093.1646375
100093.164637494
100093.164637488
100093.164637482
100093.164637478
100093.164637473
100093.164637469
100093.164637465
100093.164637461
100093.164637456
100093.164637451
100093.164637446
100093.164637441
100093.16235774
100093.162357745
100093.162357749
100093.162357753
100093.162357754
100093.162357753
100093.162357751
100093.162357747
100093.162357742
100093.162357735
100093.162357728
100093.162357721
100093.162357713
100093.162357704
100093.162357695
100093.162357686
100093.162357676
100093.162357667
100093.162357656
100093.162357646
100093.162357635
100093.162357624
100093.162357613
100093.162357602
100093.162357591
100093.162357579
100093.162357568
100093.162357557
100093.162357546
100093.162357535
100093.162357524
100093.162357514
100093.162357504
100093.162357494
100093.162357484
100093.162357475
100093.162357467
100093.162357459
100093.162357452
100093.162357445
100093.162357439
100093.162357433
100093.162357427
100093.162357421
100093.162357416
100093.16235741
100093.162357404
100093.162357396
100093.16235739
100093.162357384
100093.160077683
100093.16007769
100093.160077696
100093.160077701
100093.160077704
100093.160077705
100093.160077704
100093.160077701
100093.160077697
100093.160077692
100093.160077686
100093.160077679
100093.160077672
100093.160077664
100093.160077656
100093.160077647
100093.160077638
100093.160077628
100093.160077618
100093.160077608
100093.160077597
100093.160077586
100093.160077575
100093.160077564
100093.160077553
100093.160077542
100093.16007753
100093.160077519
100093.160077508
100093.160077497
100093.160077486
100093.160077475
100093.160077465
100093.160077455
100093.160077445
100093.160077435
100093.160077426
100093.160077418
100093.16007741
100093.160077402
100093.160077395
100093.160077388
100093.160077381
100093.160077374
100093.160077367
100093.160077359
100093.160077351
100093.160077342
100093.160077335
100093.160077327
100093.157797627
100093.157797635
100093.157797642
100093.157797649
100093.157797654
100093.157797656
100093.157797656
100093.157797655
100093.157797652
100093.157797648
100093.157797643
100093.157797638
100093.157797631
100093.157797624
100093.157797616
100093.157797607
100093.157797598
100093.157797589
100093.157797579
100093.157797569
100093.157797559
100093.157797548
100093.157797537
100093.157797526
100093.157797515
100093.157797504
100093.157797492
100093.157797481
100093.15779747
100093.157797458
100093.157797447
100093.157797436
100093.157797426
100093.157797415
100093.157797405
100093.157797395
100093.157797386