/*--------------------------------*- C++ -*----------------------------------*\
  =========                 |
  \\      /  F ield         | OpenFOAM: The Open Source CFD Toolbox
   \\    /   O peration     | Website:  https://openfoam.org
    \\  /    A nd           | Version:  10
     \\/     M anipulation  |
\*---------------------------------------------------------------------------*/
FoamFile
{
    format      ascii;
    class       volScalarField;
    location    "6.2";
    object      p_rgh;
}
// * * * * * * * * * * * * * * * * * * * * * * * * * * * * * * * * * * * * * //

dimensions      [1 -1 -2 0 0 0 0];

internalField   nonuniform List<scalar> 
2500
(
93.3486353111075
93.3486388947349
93.3486447919568
93.3486490601354
93.3486516275007
93.3486531091912
93.3486539291771
93.3486543751642
93.3486546098138
93.3486547291977
93.3486547879584
93.3486548147339
93.348654824862
93.3486548263172
93.3486548229557
93.3486548168148
93.3486548087531
93.3486547996436
93.3486547898356
93.3486547794309
93.3486547687062
93.3486547578068
93.348654746791
93.3486547357461
93.3486547247594
93.3486547139037
93.3486547031644
93.3486546926142
93.3486546822678
93.348654672096
93.3486546620843
93.3486546521744
93.3486546422646
93.3486546321656
93.3486546215863
93.3486546099593
93.3486545962223
93.3486545784399
93.3486545523629
93.3486545104242
93.3486544370826
93.3486543033359
93.3486540557642
93.3486535992561
93.3486527722853
93.3486512894742
93.3486487178016
93.3486444199225
93.3486384612333
93.3486349671148
93.3490058577299
93.3490195786435
93.3490348917985
93.3490455896099
93.3490521034255
93.3490558910271
93.3490580148791
93.34905917164
93.3490597772616
93.3490600814112
93.3490602274978
93.3490602935926
93.3490603206155
93.3490603289683
93.3490603282698
93.3490603231039
93.3490603154496
93.3490603064565
93.3490602966631
93.349060286273
93.3490602755628
93.3490602646634
93.3490602536476
93.3490602426173
93.3490602316306
93.3490602207603
93.3490602100355
93.3490601994708
93.3490601891244
93.3490601789526
93.3490601689264
93.3490601589874
93.3490601489902
93.3490601387166
93.3490601276717
93.3490601148515
93.3490600980731
93.3490600726218
93.3490600284567
93.3490599450743
93.3490597813798
93.3490594595351
93.3490588382701
93.3490576717886
93.3490555488243
93.3490517734026
93.3490452592523
93.3490344871097
93.3490190015
93.3490056130831
93.34938557446
93.3494082360558
93.3494294615666
93.3494437778572
93.3494523959816
93.3494573689677
93.349460145153
93.3494616511161
93.3494624369632
93.3494628301996
93.3494630181376
93.3494631029753
93.3494631379581
93.3494631494686
93.3494631499634
93.3494631451904
93.349463137667
93.3494631287031
93.3494631188951
93.349463108505
93.3494630977948
93.3494630868954
93.3494630758796
93.3494630648493
93.3494630538626
93.3494630429777
93.3494630322384
93.3494630216737
93.3494630113128
93.3494630011264
93.3494629911147
93.3494629811903
93.349462971164
93.3494629608176
93.3494629496272
93.3494629363267
93.3494629182242
93.3494628893823
93.3494628369808
93.3494627343462
93.3494625280437
93.3494621163845
93.3494613143703
93.3494597990357
93.3494570255134
93.3494520647801
93.3494434323075
93.3494289823866
93.3494074420014
93.3493849810766
93.3497239093267
93.3497502966056
93.349771872221
93.3497858236951
93.3497939566878
93.3497985160793
93.3498009984032
93.3498023176799
93.3498029950133
93.3498033295909
93.3498034876684
93.3498035580997
93.3498035864468
93.3498035949888
93.3498035941593
93.3498035887897
93.3498035810189
93.3498035719385
93.3498035620432
93.3498035516241
93.3498035408993
93.3498035299708
93.349803518955
93.3498035079101
93.3498034969234
93.3498034860386
93.3498034752993
93.34980346472
93.3498034543591
93.3498034441582
93.349803434161
93.3498034242657
93.3498034143122
93.3498034040967
93.3498033931974
93.3498033805809
93.3498033640062
93.3498033385404
93.3498032935022
93.3498032064235
93.349803031495
93.3498026801535
93.3498019875697
93.3498006576265
93.3497981725086
93.3497936129716
93.3497854419838
93.3497713100514
93.3497493114701
93.3497227727348
93.3499914819404
93.3500162407872
93.3500345248322
93.3500458556227
93.3500522388058
93.3500557094376
93.3500575500948
93.3500585086731
93.3500589934119
93.3500592300552
93.3500593406934
93.350059389064
93.3500594075012
93.3500594116631
93.3500594089564
93.3500594027282
93.3500593945791
93.3500593853096
93.3500593753124
93.3500593648496
93.3500593540666
93.3500593431381
93.3500593321078
93.3500593210629
93.3500593100616
93.3500592991768
93.3500592884375
93.3500592778437
93.3500592674682
93.3500592572964
93.3500592473138
93.3500592374621
93.350059227625
93.3500592176133
93.3500592071505
93.3500591954798
93.3500591809861
93.3500591602933
93.3500591259217
93.3500590621261
93.3500589363975
93.3500586851005
93.3500581868429
93.3500572175108
93.3500553701888
93.3500518903311
93.3500454571913
93.3500339338934
93.3500151836779
93.3499899522867
93.3501821313694
93.3502019558364
93.350215434577
93.3502234404732
93.3502277952211
93.3502300892578
93.3502312732453
93.3502318772225
93.3502321779815
93.350232322904
93.3502323895518
93.350232417506
93.3502324267174
93.3502324267756
93.3502324221772
93.3502324150904
93.3502324065194
93.350232397017
93.3502323869179
93.3502323763823
93.3502323655848
93.3502323546272
93.3502323435823
93.3502323325229
93.3502323215216
93.3502323106077
93.3502322998684
93.3502322892891
93.3502322789282
93.3502322687564
93.3502322588029
93.350232249024
93.3502322393033
93.350232229539
93.3502322195418
93.3502322088025
93.3502321963024
93.3502321800042
93.3502321553242
93.3502321127307
93.3502320322004
93.3502318742103
93.3502315614751
93.3502309474716
93.350229755597
93.3502274497878
93.3502230479353
93.3502148718544
93.3502009591175
93.3501805046835
93.3503059932409
93.3503199778352
93.3503288341599
93.3503338689334
93.3503365077195
93.3503378498572
93.3503385212534
93.350338855118
93.3503390178957
93.3503390943952
93.350339128112
93.3503391405684
93.3503391425766
93.3503391392442
93.3503391330305
93.3503391251143
93.3503391161212
93.3503391063859
93.3503390961414
93.3503390855331
93.3503390746773
93.3503390636761
93.3503390526166
93.3503390415572
93.3503390305414
93.350339019642
93.3503390088736
93.3503389983089
93.3503389879479
93.3503389778052
93.3503389678954
93.3503389581892
93.3503389486286
93.3503389391408
93.3503389295947
93.3503389196849
93.3503389089019
93.3503388960962
93.3503388788668
93.3503388521494
93.3503388051613
93.3503387164383
93.3503385426884
93.3503381995106
93.3503375205473
93.350336168136
93.3503334936395
93.3503283299651
93.3503191240015
93.3503045209654
93.3503800920589
93.3503889613348
93.3503942283569
93.3503970795718
93.3503985102871
93.3503992051556
93.3503995373612
93.3503996952786
93.3503997686494
93.3503998005617
93.3503998124215
93.3503998142405
93.3503998110391
93.3503998050874
93.3503997974913
93.3503997888329
93.3503997794032
93.3503997694061
93.3503997590014
93.3503997482912
93.3503997373919
93.350399726347
93.3503997152584
93.3503997041698
93.350399693154
93.3503996822546
93.3503996715008
93.3503996609361
93.3503996505897
93.3503996404761
93.350399630639
93.3503996210202
93.3503996116197
93.3503996024083
93.3503995932988
93.3503995841747
93.3503995747888
93.3503995646606
93.3503995527426
93.3503995367937
93.3503995118954
93.3503994680941
93.3503993841587
93.3503992173937
93.350398878174
93.350398175593
93.3503967217111
93.3503937848145
93.3503882690275
93.3503788970411
93.3504212474654
93.3504263740906
93.3504292349535
93.3504306901013
93.3504313765879
93.3504316840699
93.3504318174964
93.3504318730702
93.3504318941559
93.3504318994383
93.3504318977357
93.3504318925698
93.3504318856722
93.3504318776831
93.3504318689083
93.350431859566
93.3504318496853
93.3504318394407
93.3504318288324
93.3504318180203
93.3504318070336
93.350431795945
93.3504317848128
93.3504317737097
93.3504317626939
93.35043175178
93.3504317410261
93.350431730476
93.3504317201587
93.3504317100887
93.3504317003099
93.350431690822
93.3504316815961
93.3504316726612
93.3504316639883
93.3504316555918
93.3504316473845
93.3504316393082
93.3504316311009
93.3504316221806
93.3504316108883
93.3504315938189
93.3504315622995
93.3504314980091
93.3504313578742
93.3504310445423
93.3504303445079
93.3504288384138
93.3504258186731
93.3504203363118
93.3504426158615
93.3504453403439
93.3504467624589
93.3504474197107
93.3504476953676
93.3504477944225
93.3504478225077
93.3504478236864
93.3504478163959
93.3504478065734
93.3504477966781
93.3504477869283
93.3504477773531
93.3504477677488
93.35044775797
93.3504477479582
93.35044773767
93.3504477271199
93.3504477163224
93.3504477053793
93.3504476943053
93.3504476831586
93.3504476719972
93.3504476608796
93.3504476498347
93.3504476389207
93.3504476281669
93.3504476176313
93.3504476073431
93.3504475973314
93.3504475876107
93.3504475782538
93.3504475692171
93.3504475605732
93.3504475523514
93.3504475445952
93.3504475374211
93.3504475309601
93.3504475254304
93.3504475210939
93.3504475180089
93.3504475160298
93.3504475129012
93.3504475029913
93.3504474681686
93.3504473641515
93.3504470807384
93.3504463958961
93.3504448813474
93.3504419315141
93.3504530454811
93.3504543818854
93.3504550225625
93.3504552669474
93.3504553377134
93.3504553354869
93.3504553129169
93.350455287451
93.3504552656086
93.3504552474624
93.3504552325758
93.3504552197264
93.3504552081577
93.3504551972292
93.3504551865626
93.3504551759397
93.350455165215
93.3504551543738
93.3504551434016
93.3504551323276
93.3504551211518
93.3504551099468
93.3504550987564
93.350455087595
93.350455076521
93.3504550656071
93.3504550548678
93.3504550443322
93.3504550340876
93.3504550241196
93.3504550144862
93.3504550052457
93.3504549964127
93.3504549880454
93.350454980231
93.3504549731006
93.3504549668287
93.3504549616919
93.3504549581703
93.3504549569334
93.3504549588251
93.3504549651843
93.3504549765639
93.3504549932404
93.3504550089128
93.3504550062935
93.3504549305508
93.3504546720651
93.3504539817077
93.3504525150202
93.3504578505381
93.3504584536568
93.3504587052448
93.3504587563657
93.3504587357456
93.3504586900235
93.350458645873
93.3504586085619
93.3504585796472
93.3504585569463
93.3504585389746
93.3504585239862
93.3504585108603
93.3504584988259
93.350458487359
93.3504584761686
93.3504584650655
93.3504584539332
93.3504584427719
93.3504584315524
93.3504584202892
93.350458409026
93.3504583977774
93.3504583866015
93.3504583755275
93.3504583645845
93.3504583538452
93.3504583433387
93.3504583331087
93.3504583231843
93.3504583136382
93.3504583045142
93.3504582958558
93.3504582877795
93.350458280358
93.3504582737805
93.350458268309
93.3504582642781
93.3504582622991
93.3504582632304
93.3504582682363
93.3504582791356
93.3504582975729
93.3504583260219
93.350458363042
93.3504584037291
93.3504584202892
93.3504583618633
93.350458084984
93.3504574120307
93.3504599439038
93.3504601898894
93.3504602638131
93.3504602350149
93.3504601799068
93.3504601192108
93.350460067828
93.3504600261367
93.350459994108
93.3504599689768
93.3504599490407
93.3504599325097
93.3504599182052
93.3504599052394
93.3504598931177
93.3504598814034
93.3504598699219
93.3504598585423
93.3504598471918
93.3504598358413
93.3504598244763
93.3504598131549
93.3504598018626
93.3504597906576
93.3504597795545
93.3504597686115
93.3504597578722
93.3504597473802
93.3504597371648
93.3504597272986
93.3504597178253
93.3504597088177
93.3504597003339
93.350459692505
93.3504596854473
93.3504596793791
93.350459674577
93.3504596714774
93.3504596706916
93.35045967318
93.3504596801358
93.3504596934945
93.3504597150604
93.3504597477877
93.35045979188
93.3504598471773
93.3504598982981
93.350459922658
93.3504598358995
93.3504595545237
93.3504608038056
93.3504608891089
93.3504608898802
93.3504608345247
93.3504607709183
93.3504607082577
93.3504606562637
93.3504606138595
93.350460580783
93.3504605544731
93.3504605333437
93.3504605157359
93.3504605005146
93.3504604868358
93.3504604741174
93.3504604619811
93.3504604501795
93.3504604385525
93.3504604270274
93.350460415546
93.3504604041082
93.350460392714
93.3504603813781
93.350460370144
93.3504603590263
93.3504603480687
93.3504603373294
93.3504603268375
93.3504603166512
93.3504603068286
93.3504602974281
93.3504602885223
93.3504602801986
93.350460272588
93.3504602658504
93.3504602602043
93.3504602559697
93.3504602535977
93.3504602537287
93.3504602572939
93.3504602654866
93.3504602800385
93.3504603026522
93.3504603360343
93.3504603805923
93.3504604375194
93.3504604968475
93.3504605486232
93.3504605407652
93.3504604379123
93.3504611316894
93.3504611507815
93.3504611258977
93.3504610667733
93.3504610054079
93.3504609461233
93.3504608963995
93.3504608550866
93.3504608221265
93.3504607954092
93.3504607736249
93.3504607552895
93.3504607393988
93.3504607251525
93.3504607119685
93.3504606994684
93.3504606873903
93.3504606755596
93.3504606638744
93.3504606522911
93.350460640766
93.3504606293136
93.350460617934
93.3504606066563
93.3504605955241
93.3504605845519
93.3504605738126
93.3504605633207
93.3504605531634
93.35046054337
93.3504605340277
93.3504605252092
93.350460517031
93.3504605096241
93.3504605031485
93.3504604978516
93.3504604940827
93.3504604922782
93.3504604930786
93.3504604973714
93.350460506219
93.3504605211929
93.3504605436756
93.3504605759663
93.3504606180795
93.3504606713686
93.3504607281211
93.3504607836949
93.3504608038056
93.3504607756186
93.3504612411634
93.3504612361285
93.3504612053948
93.3504611509852
93.3504610955424
93.3504610415403
93.3504609952361
93.3504609558586
93.3504609236843
93.3504608971125
93.3504608750663
93.350460856338
93.3504608399962
93.3504608253279
93.3504608117946
93.3504607990035
93.350460786678
93.3504607746727
93.3504607628711
93.3504607511859
93.350460739588
93.3504607280775
93.3504607166687
93.3504607053619
93.3504606942151
93.3504606832284
93.3504606724746
93.3504606619972
93.35046065184
93.3504606420756
93.350460632777
93.3504606240313
93.3504606159695
93.3504606087081
93.3504606024508
93.3504605974304
93.3504605940107
93.3504605926137
93.3504605938651
93.3504605985654
93.3504606076749
93.3504606225033
93.3504606442002
93.3504606744973
93.3504607131035
93.3504607609211
93.3504608114308
93.3504608620715
93.3504608888034
93.3504608884978
93.3504612651159
93.3504612531542
93.3504612239049
93.3504611765529
93.3504611278331
93.3504610794625
93.3504610369564
93.3504609999218
93.3504609689844
93.3504609429219
93.3504609209485
93.3504609020601
93.3504608854855
93.3504608705407
93.35046085676
93.3504608437506
93.3504608312651
93.3504608191142
93.3504608072108
93.3504607954383
93.3504607837967
93.3504607722425
93.3504607607902
93.3504607494688
93.3504607382929
93.3504607272916
93.3504607165378
93.3504607060459
93.3504606958886
93.3504606861388
93.3504606768838
93.3504606681963
93.3504606602073
93.3504606530623
93.3504606469651
93.3504606421484
93.350460638947
93.3504606378119
93.3504606393108
93.350460644142
93.3504606531787
93.3504606674978
93.3504606879578
93.3504607158538
93.3504607506038
93.3504607926589
93.3504608362418
93.3504608795629
93.3504609049996
93.3504609131342
93.3504612571123
93.3504612445977
93.3504612190445
93.3504611787212
93.3504611363896
93.3504610934324
93.3504610547097
93.3504610202363
93.3504609907832
93.3504609655065
93.3504609438678
93.3504609250522
93.3504609084048
93.350460893329
93.3504608793883
93.3504608662479
93.3504608536459
93.3504608414078
93.3504608294024
93.3504608175863
93.3504608058865
93.3504607943032
93.3504607828363
93.3504607714858
93.3504607602808
93.3504607492796
93.3504607384966
93.3504607280047
93.3504607178475
93.3504607081122
93.3504606988572
93.3504606902134
93.350460682268
93.3504606751958
93.3504606692004
93.3504606645001
93.3504606614442
93.3504606604256
93.3504606619681
93.3504606667266
93.3504606754141
93.3504606889328
93.3504607078794
93.3504607331997
93.350460764108
93.3504608006333
93.350460837697
93.3504608738294
93.3504608956282
93.3504609049269
93.3504612377292
93.3504612266988
93.3504612050165
93.3504611709795
93.3504611343524
93.3504610963864
93.3504610613309
93.3504610294622
93.3504610016535
93.3504609773809
93.3504609562806
93.3504609377269
93.3504609211523
93.3504609060765
93.3504608920921
93.3504608788789
93.3504608662042
93.3504608539079
93.3504608418734
93.3504608300136
93.3504608182848
93.3504608066723
93.3504607951763
93.3504607838113
93.3504607725918
93.350460761576
93.3504607507784
93.350460740272
93.3504607301147
93.3504607203504
93.3504607111099
93.3504607024661
93.3504606945498
93.3504606875213
93.350460681555
93.3504606768984
93.3504606738716
93.3504606728529
93.3504606743081
93.3504606787756
93.3504606869101
93.3504606993956
93.3504607166833
93.3504607393552
93.3504607665382
93.350460798014
93.3504608293151
93.3504608591029
93.3504608770454
93.3504608851799
93.3504612146207
93.3504612054385
93.3504611873068
93.3504611586395
93.3504611270182
93.3504610935634
93.3504610619711
93.3504610326781
93.3504610066157
93.3504609834927
93.3504609631054
93.3504609449592
93.3504609286028
93.3504609136289
93.3504608996736
93.350460886475
93.3504608737858
93.3504608614603
93.3504608494113
93.3504608375224
93.3504608257936
93.3504608141666
93.350460802656
93.3504607912764
93.3504607800423
93.3504607689974
93.3504607581854
93.3504607476643
93.350460737478
93.3504607277137
93.3504607184441
93.3504607097857
93.3504607018695
93.3504606948118
93.3504606888455
93.3504606841743
93.3504606810893
93.3504606799397
93.3504606811475
93.3504606852075
93.3504606926144
93.3504607039213
93.3504607194336
93.3504607394862
93.3504607631621
93.3504607900686
93.3504608163348
93.3504608407384
93.3504608552903
93.350460861795
93.3504611904937
93.3504611830431
93.3504611679382
93.3504611438402
93.3504611165554
93.3504610871751
93.3504610588279
93.3504610320524
93.3504610077798
93.3504609859228
93.3504609663651
93.3504609487572
93.3504609327356
93.3504609179508
93.350460904112
93.3504608909716
93.350460878326
93.3504608660296
93.3504608539806
93.3504608421063
93.3504608303774
93.3504608187504
93.3504608072253
93.3504607958457
93.3504607845971
93.3504607735376
93.3504607626965
93.3504607521463
93.3504607419309
93.3504607321374
93.3504607228388
93.3504607141513
93.3504607061768
93.35046069909
93.350460693051
93.3504606882925
93.350460685062
93.3504606836941
93.3504606845527
93.3504606880451
93.350460694608
93.3504607046198
93.3504607182986
93.35046073579
93.3504607561918
93.3504607789946
93.3504608009243
93.3504608208314
93.3504608324874
93.3504608374642
93.3504611662793
93.3504611603421
93.350461147842
93.3504611276003
93.3504611041571
93.3504610784294
93.3504610530799
93.3504610287346
93.350461006281
93.3504609857482
93.3504609671072
93.3504609501251
93.35046093454
93.3504609200463
93.3504609063966
93.3504608933872
93.3504608808144
93.3504608685762
93.3504608565709
93.3504608447256
93.3504608329968
93.3504608213843
93.3504608098738
93.3504607984651
93.3504607872164
93.3504607761424
93.3504607652867
93.3504607546929
93.3504607444484
93.3504607346113
93.3504607252544
93.3504607165087
93.3504607084615
93.3504607012874
93.3504606951465
93.3504606902279
93.3504606867937
93.3504606851202
93.3504606855277
93.3504606883653
93.3504606939532
93.3504607026262
93.3504607144569
93.3504607294744
93.3504607468349
93.3504607659561
93.3504607840587
93.3504608001822
93.3504608094518
93.3504608131334
93.3504611423268
93.3504611376848
93.3504611274111
93.3504611105018
93.350461090391
93.3504610679665
93.3504610454111
93.350461023394
93.3504610027449
93.3504609835654
93.3504609659285
93.350460949674
93.3504609345837
93.3504609204538
93.3504609070515
93.3504608942167
93.3504608817748
93.3504608696385
93.3504608576914
93.3504608458898
93.3504608342046
93.3504608225921
93.3504608110961
93.350460799702
93.3504607884388
93.3504607773357
93.3504607664509
93.350460755828
93.3504607455397
93.3504607356444
93.3504607262148
93.3504607173963
93.3504607092473
93.3504607019568
93.3504606956558
93.3504606905335
93.3504606868228
93.350460684771
93.35046068464
93.3504606867355
93.3504606913048
93.3504606985807
93.3504607085779
93.3504607212235
93.3504607357609
93.3504607515497
93.3504607663344
93.3504607792129
93.3504607864452
93.3504607890354
93.3504611187236
93.3504611152457
93.3504611069075
93.3504610928794
93.3504610757518
93.3504610563105
93.3504610363598
93.3504610165546
93.3504609976662
93.3504609798692
93.3504609632801
93.3504609477968
93.3504609332886
93.3504609195807
93.3504609064839
93.350460893882
93.3504608816147
93.3504608695803
93.350460857735
93.3504608460062
93.3504608343501
93.3504608227813
93.3504608112999
93.3504607999057
93.3504607886425
93.3504607775249
93.3504607666109
93.3504607559444
93.350460745598
93.3504607356299
93.3504607261275
93.3504607171926
93.3504607089417
93.3504607014765
93.3504606949864
93.3504606896167
93.3504606855713
93.3504606830684
93.3504606823408
93.3504606836213
93.3504606871284
93.3504606929928
93.3504607011855
93.3504607115756
93.350460723479
93.3504607362702
93.3504607481009
93.3504607581708
93.3504607636423
93.3504607653012
93.3504610955133
93.3504610930395
93.3504610864329
93.350461074966
93.3504610604869
93.3504610437667
93.3504610262316
93.3504610085511
93.3504609913798
93.3504609749652
93.3504609594529
93.3504609447991
93.3504609309166
93.3504609176744
93.3504609049414
93.3504608926014
93.3504608805233
93.3504608686635
93.3504608569201
93.350460845264
93.3504608336953
93.3504608221701
93.3504608107032
93.3504607993236
93.3504607880459
93.3504607768991
93.3504607659561
93.3504607552459
93.3504607448267
93.3504607347859
93.3504607251962
93.3504607161449
93.3504607077339
93.3504607000941
93.3504606933711
93.3504606876959
93.3504606832721
93.3504606802744
93.3504606789065
93.3504606793431
93.3504606817442
93.3504606861825
93.350460692629
93.3504607008654
93.3504607103241
93.3504607203649
93.3504607295617
93.3504607371578
93.3504607410723
93.3504607418872
93.3504610726523
93.3504610711243
93.3504610660893
93.3504610569216
93.3504610448435
93.3504610305972
93.3504610153177
93.3504609996453
93.3504609841475
93.3504609691154
93.3504609546944
93.3504609408992
93.3504609276861
93.3504609149677
93.3504609026277
93.3504608905787
93.350460878748
93.3504608670628
93.3504608554504
93.3504608439107
93.3504608324001
93.3504608209332
93.3504608094954
93.3504607981304
93.3504607868526
93.3504607756913
93.3504607647046
93.3504607539508
93.3504607434734
93.3504607333307
93.3504607236246
93.3504607144423
93.3504607058712
93.3504606980132
93.3504606910137
93.3504606850183
93.3504606801725
93.3504606766364
93.3504606745701
93.3504606741189
93.3504606753995
93.3504606784409
93.3504606831702
93.3504606893839
93.350460696558
93.3504607040959
93.3504607108916
93.3504607162613
93.3504607187497
93.3504607187788
93.3504610500822
93.3504610494711
93.3504610458622
93.3504610387899
93.3504610289092
93.3504610169621
93.3504610037926
93.3504609900265
93.3504609761585
93.3504609624797
93.3504609491647
93.3504609362572
93.3504609237425
93.3504609115625
93.3504608996591
93.3504608879448
93.350460876376
93.3504608648946
93.3504608534422
93.3504608420189
93.3504608305957
93.350460819187
93.3504608077928
93.3504607964423
93.3504607851501
93.3504607739887
93.3504607629584
93.3504607521463
93.3504607415816
93.3504607313516
93.3504607215291
93.3504607121868
93.3504607034265
93.3504606953356
93.3504606880451
93.3504606816859
93.350460676389
93.3504606722709
93.3504606694769
93.3504606681381
93.3504606682836
93.3504606699425
93.3504606730276
93.3504606773058
93.3504606823408
93.3504606875795
93.3504606921779
93.3504606955103
93.3504606966744
93.3504606959323
93.3504610277887
93.3504610280506
93.3504610258096
93.3504610206874
93.3504610128439
93.3504610030213
93.3504609918455
93.3504609798983
93.350460967602
93.3504609552474
93.3504609430383
93.3504609310185
93.3504609192314
93.350460907619
93.3504608961812
93.3504608848307
93.3504608735529
93.3504608622752
93.350460851012
93.3504608397052
93.3504608283838
93.3504608170479
93.3504608056974
93.350460794376
93.3504607830837
93.3504607718933
93.3504607608338
93.3504607499635
93.3504607393261
93.3504607289942
93.3504607190262
93.3504607095092
93.3504607005452
93.350460692207
93.3504606845963
93.3504606778442
93.3504606720671
93.3504606673523
93.3504606638162
93.3504606615461
93.3504606605711
93.3504606608913
93.3504606623901
93.3504606648203
93.3504606678471
93.3504606709321
93.3504606735078
93.3504606749339
93.3504606748465
93.3504606733331
93.3504610056407
93.3504610068194
93.3504610058735
93.3504610025848
93.3504609966476
93.3504609888332
93.3504609795345
93.3504609693191
93.3504609585361
93.3504609474912
93.3504609363736
93.3504609252559
93.3504609141964
93.3504609031952
93.3504608922231
93.3504608812655
93.3504608702933
93.350460859263
93.3504608481744
93.3504608370276
93.3504608258081
93.3504608145449
93.3504608032526
93.3504607919458
93.3504607806681
93.3504607694631
93.35046075836
93.3504607474169
93.3504607366922
93.3504607262439
93.3504607161449
93.3504607064533
93.3504606972565
93.3504606886418
93.350460680711
93.3504606735514
93.3504606672504
93.3504606619244
93.3504606576316
93.3504606544302
93.3504606523493
93.3504606513452
93.3504606513015
93.350460652
93.3504606531351
93.3504606542119
93.3504606548813
93.350460654503
93.3504606531933
93.3504606508795
93.3504609836382
93.3504609857191
93.3504609860684
93.350460984555
93.3504609804368
93.3504609744996
93.3504609669762
93.3504609584052
93.3504609490919
93.3504609393276
93.3504609292868
93.3504609190713
93.3504609087686
93.3504608983785
93.3504608879011
93.3504608773364
93.3504608666844
93.3504608559015
93.3504608450312
93.3504608340299
93.3504608229414
93.350460811751
93.3504608005169
93.3504607892392
93.350460777976
93.3504607667419
93.3504607555951
93.3504607445939
93.3504607337818
93.3504607232026
93.3504607129435
93.3504607030773
93.3504606936476
93.3504606847418
93.3504606764618
93.3504606688657
93.3504606620554
93.3504606560891
93.3504606510251
93.3504606469069
93.3504606437346
93.3504606414353
93.3504606399219
93.350460638947
93.3504606383067
93.3504606374627
93.3504606363567
93.3504606342321
93.3504606317001
93.3504606285424
93.3504609616357
93.3504609646916
93.3504609663214
93.3504609665542
93.3504609641677
93.3504609600495
93.3504609542142
93.3504609472293
93.3504609393276
93.3504609308002
93.3504609218217
93.3504609125084
93.3504609029478
93.3504608931689
93.3504608832009
93.3504608730582
93.3504608627263
93.3504608522344
93.3504608415533
93.3504608307267
93.3504608197545
93.3504608086805
93.3504607974901
93.350460786256
93.3504607749928
93.3504607637442
93.3504607525538
93.3504607414798
93.3504607305658
93.3504607198702
93.3504607094656
93.3504606993811
93.3504606897186
93.3504606805218
93.350460671878
93.3504606638453
93.3504606564966
93.35046064989
93.3504606440547
93.3504606390197
93.3504606347706
93.3504606312199
93.350460628295
93.3504606257193
93.3504606233764
93.350460620728
93.3504606178903
93.3504606140486
93.3504606102942
93.3504606062343
93.3504609396041
93.3504609436932
93.3504609466327
93.3504609486263
93.3504609478987
93.3504609455267
93.3504609413067
93.3504609358497
93.3504609293013
93.3504609219817
93.3504609140364
93.3504609056254
93.3504608968069
93.3504608876538
93.3504608782096
93.3504608684889
93.3504608584917
93.3504608482763
93.350460837828
93.350460827176
93.3504608163348
93.3504608053481
93.3504607942305
93.3504607830255
93.3504607717623
93.3504607604991
93.3504607492796
93.3504607381328
93.350460727117
93.350460716305
93.3504607057112
93.3504606954375
93.3504606855131
93.3504606760107
93.3504606670031
93.3504606585193
93.3504606506322
93.3504606433853
93.3504606367787
93.3504606308561
93.3504606255447
93.3504606207862
93.3504606164788
93.3504606123752
93.3504606084171
93.3504606040369
93.3504605995404
93.350460593967
93.3504605889611
93.3504605839116
93.350460917427
93.3504609226802
93.3504609269876
93.350460930742
93.3504609316733
93.3504609309748
93.3504609282973
93.35046092431
93.3504609190713
93.3504609129159
93.3504609060037
93.3504608984513
93.350460890375
93.3504608818475
93.3504608729272
93.3504608636285
93.3504608539952
93.3504608440562
93.3504608338262
93.3504608233634
93.3504608126532
93.3504608017683
93.3504607907089
93.3504607795476
93.3504607683135
93.3504607570212
93.350460745758
93.3504607345385
93.3504607234354
93.3504607124778
93.3504607017239
93.350460691232
93.3504606810602
93.3504606712522
93.3504606618517
93.3504606529168
93.3504606444912
93.3504606366041
93.3504606292408
93.350460622416
93.3504606160859
93.3504606101487
93.3504606045317
93.3504605989729
93.3504605934577
93.3504605874041
93.3504605812777
93.3504605739581
93.350460567628
93.3504605614871
93.3504608950752
93.3504609016236
93.3504609073716
93.3504609129304
93.3504609154916
93.3504609164229
93.3504609152442
93.3504609126539
93.3504609086813
93.3504609036609
93.3504608977237
93.3504608910443
93.3504608836956
93.3504608757939
93.3504608673829
93.3504608585208
93.3504608492367
93.3504608395888
93.3504608295916
93.3504608193034
93.3504608087387
93.3504607979557
93.3504607869836
93.3504607758514
93.3504607646173
93.350460753325
93.3504607420036
93.3504607307259
93.3504607195064
93.3504607084324
93.3504606975039
93.3504606868082
93.3504606763745
93.3504606662464
93.3504606564675
93.3504606470815
93.3504606381175
93.3504606295901
93.3504606214847
93.3504606137867
93.3504606064525
93.3504605993803
93.3504605924973
93.3504605855269
93.350460578542
93.3504605708586
93.3504605631169
93.350460554022
93.3504605462949
93.3504605389026
93.3504608724907
93.3504608805233
93.3504608877993
93.3504608952499
93.3504608994263
93.3504609019292
93.3504609022057
93.3504609009397
93.3504608981893
93.3504608942603
93.3504608892836
93.3504608834337
93.3504608768271
93.3504608695221
93.3504608616349
93.3504608531948
93.3504608442745
93.3504608349031
93.3504608251533
93.3504608150397
93.3504608046351
93.350460793954
93.35046078304
93.3504607719515
93.3504607607465
93.3504607494251
93.3504607380746
93.3504607267241
93.3504607154173
93.3504607041832
93.3504606930946
93.3504606821807
93.3504606714851
93.3504606610513
93.3504606508941