/*--------------------------------*- C++ -*----------------------------------*\
  =========                 |
  \\      /  F ield         | OpenFOAM: The Open Source CFD Toolbox
   \\    /   O peration     | Website:  https://openfoam.org
    \\  /    A nd           | Version:  10
     \\/     M anipulation  |
\*---------------------------------------------------------------------------*/
FoamFile
{
    format      ascii;
    class       surfaceScalarField;
    location    "6.2";
    object      phi;
}
// * * * * * * * * * * * * * * * * * * * * * * * * * * * * * * * * * * * * * //

dimensions      [1 0 -1 0 0 0 0];

internalField   nonuniform List<scalar> 
4900
(
-5.91496486835503e-12
5.95638033747382e-12
-8.01136204067126e-12
2.15953478991269e-12
-7.10400953093429e-12
-8.40053539771971e-13
-5.20756164023895e-12
-1.83019494104759e-12
-3.51268266084842e-12
-1.62971053865492e-12
-2.29673419276459e-12
-1.15129620348433e-12
-1.49558722947724e-12
-7.36765930208959e-13
-9.8258000857262e-13
-4.48883520782099e-13
-6.54534519535351e-13
-2.64245556170545e-13
-4.4194384956456e-13
-1.49188926916949e-13
-3.00601735279481e-13
-7.83938197686196e-14
-2.03606475473955e-13
-3.45327600450356e-14
-1.34665137058165e-13
-6.97492969063059e-15
-8.39665335786669e-14
1.0776493140541e-14
-4.5563730730278e-14
2.25969277789999e-14
-1.57598181682775e-14
3.07416095375868e-14
7.7851776171081e-15
3.65713760697026e-14
2.66577064762785e-14
4.08405694306693e-14
4.19534180708476e-14
4.40409263291044e-14
5.44710964225462e-14
4.64684353192221e-14
6.48199181253286e-14
4.83132385989725e-14
7.3491297896968e-14
4.9691627347863e-14
8.08830489704624e-14
5.06979810316546e-14
8.73406542267256e-14
5.13833150890115e-14
9.31841142942131e-14
5.17732108136725e-14
9.87104974064064e-14
5.18898678754308e-14
1.04211861279373e-13
5.17377536075276e-14
1.10004814722206e-13
5.12917456835907e-14
1.16420962915558e-13
5.05364810034211e-14
1.23854099558586e-13
4.9409575936215e-14
1.32768872741975e-13
4.7840618798626e-14
1.43758544318981e-13
4.57018626226481e-14
1.57594552976878e-13
4.28156026620392e-14
1.75344865031185e-13
3.88878163744457e-14
1.98584574661933e-13
3.34117023572843e-14
2.29672320790218e-13
2.56051567422619e-14
2.72304652147252e-13
1.4127912031397e-14
3.32449124650768e-13
-3.29426895296977e-15
4.19916433071432e-13
-3.05134499532477e-14
5.51047085752413e-13
-7.40717220462254e-14
7.52752307279092e-13
-1.44558938244208e-13
1.06926247819952e-12
-2.59313756697191e-13
1.57036217877614e-12
-4.4390240876282e-13
2.36067125837914e-12
-7.33133316918509e-13
3.57126430537491e-12
-1.15334281276412e-12
5.27636801785372e-12
-1.64742239237091e-12
7.20694722391992e-12
-1.87179605245369e-12
8.14104912318746e-12
-8.73396365746065e-13
5.98971379710921e-12
2.21199567576275e-12
6.03158035495833e-12
-8.57643125727806e-12
1.45900198544333e-11
-1.34576076840126e-11
7.12163555452515e-12
-1.25866123922087e-11
-1.62645167871118e-12
-9.6507027411438e-12
-4.6830374286453e-12
-6.77243769204392e-12
-4.42642881996252e-12
-4.61648001348521e-12
-3.22656941405464e-12
-3.14151450618368e-12
-2.13158159673267e-12
-2.16492470234512e-12
-1.34578550279878e-12
-1.51728194187137e-12
-8.32694239481043e-13
-1.08005747292102e-12
-5.07765784426854e-13
-7.76241991827707e-13
-3.04151904187729e-13
-5.57949538149564e-13
-1.75381310632514e-13
-3.95713523970963e-13
-9.23854028579708e-14
-2.71381321595452e-13
-3.73386041075615e-14
-1.7361812866884e-13
4.63290495920203e-16
-9.51557969108889e-14
2.73484454307042e-14
-3.11746849471142e-14
4.71301376313251e-14
2.16669384807148e-14
6.20411451220463e-14
6.5787336528015e-14
7.34983201825602e-14
1.03002892136866e-13
8.23981720799493e-14
1.34750943010758e-13
8.93104219421152e-14
1.62200944669282e-13
9.46187035962747e-14
1.86352423651646e-13
9.85869447171643e-14
2.08073165619375e-13
1.0139772599536e-13
2.28173986125613e-13
1.03131960634892e-13
2.47423705668324e-13
1.03854071312682e-13
2.66592201223063e-13
1.03566843214923e-13
2.86475634492544e-13
1.02217344918972e-13
3.0793537702464e-13
9.97254795372236e-14
3.31938295149673e-13
9.5922581995532e-14
3.59632606654036e-13
9.05579590490493e-14
3.92415966387196e-13
8.3254958266657e-14
4.32062859515395e-13
7.34610455820273e-14
4.80953587964181e-13
6.02776408582532e-14
5.42427165932154e-13
4.22413519915379e-14
6.21316105145972e-13
1.7076228695389e-14
7.24906637810519e-13
-1.90131586608243e-14
8.64566977725504e-13
-7.23891971423e-14
1.0584904130181e-12
-1.53738838614801e-13
1.33622406007493e-12
-2.80974916980249e-13
1.74573850445365e-12
-4.83129620845292e-13
2.36422437029031e-12
-8.0678356947361e-13
3.31098458869705e-12
-1.31961782338559e-12
4.75837905246834e-12
-2.10944099409624e-12
6.89772860680226e-12
-3.2213566711028e-12
9.78890886347424e-12
-4.46642854443024e-12
1.27833049553865e-11
-4.79221221256593e-12
1.37040816468022e-11
-1.7179280190277e-12
8.73555602993084e-12
7.25402765883434e-12
1.48145376827394e-11
-6.38710523533262e-12
2.10371581149198e-11
-1.19477703424972e-11
1.27637260881865e-11
-1.19416261836041e-11
-1.54921178473591e-12
-9.69368749099316e-12
-6.84971064258904e-12
-7.18376630237803e-12
-6.85706526476166e-12
-5.17604029999848e-12
-5.15628682740566e-12
-3.72359567182351e-12
-3.50686265192553e-12
-2.71012185873967e-12
-2.28275809851361e-12
-2.00166409846112e-12
-1.46525685188043e-12
-1.49748744045429e-12
-9.36645905351294e-13
-1.12909451570463e-12
-5.97852755367484e-13
-8.52045557810796e-13
-3.78346012740305e-13
-6.37872636620313e-13
-2.33076912006744e-13
-4.68243561861768e-13
-1.34076103790776e-13
-3.31151476624902e-13
-6.43051597411339e-14
-2.18525580161399e-13
-1.34963580198834e-14
-1.24751889993425e-13
2.46245020653869e-14
-4.57903444843254e-14
5.38649432806042e-14
2.13929568019927e-14
7.66492443577211e-14
7.91471194135502e-14
9.4558528734989e-14
1.29375911369303e-13
1.08607881988453e-13
1.73657395320812e-13
1.1950593321603e-13
2.13364997891278e-13
1.27721252960517e-13
2.49716005656886e-13
1.33592095745777e-13
2.83848881362442e-13
1.37277956140769e-13
3.16848825662542e-13
1.38895293846504e-13
3.49812513275689e-13
1.38434584403904e-13
3.83857386144074e-13
1.35822140848015e-13
4.20195021659353e-13
1.30882733025289e-13
4.60165153791676e-13
1.23320435854389e-13
5.0533406409318e-13
1.12657026382243e-13
5.57568748485788e-13
9.82168606113069e-14
6.19179710863225e-13
7.90053734578573e-14
6.93174270992814e-13
5.34298092120245e-14
7.83591205119284e-13
1.89953084803998e-14
8.96047111115354e-13
-2.81505574282038e-14
1.03863336736449e-12
-9.42811873972823e-14
1.22337602479328e-12
-1.89696737486427e-13
1.4686541633516e-12
-3.3144817967593e-13
1.80301723244929e-12
-5.476283742356e-13
2.27105877454121e-12
-8.83330714072605e-13
2.94161091756868e-12
-1.40938494861962e-12
3.91644438398831e-12
-2.22640065895936e-12
5.3326733714912e-12
-3.45745162338736e-12
7.31563183316101e-12
-5.13563191845313e-12
9.83147390404897e-12
-6.91238433022907e-12
1.21356350737501e-11
-7.02414043296833e-12
1.22055519604648e-11
-1.7131951148729e-12
6.57777319854893e-12
1.29529757839048e-11
2.14371491325359e-11
-3.25964332048824e-12
2.43567282018467e-11
-7.64610244481409e-12
1.72294574253402e-11
-8.51381145669175e-12
-6.01530489601556e-13
-7.5698634052432e-12
-7.71633709876955e-12
-6.09940600289029e-12
-8.25259018310946e-12
-4.74648836360985e-12
-6.43589313044551e-12
-3.66038111700735e-12
-4.52075263833158e-12
-2.83224108960382e-12
-3.03949428644314e-12
-2.20632098110677e-12
-2.02045361761206e-12
-1.72947731869092e-12
-1.3433881450019e-12
-1.36060529600635e-12
-8.97220219558436e-13
-1.07015029799709e-12
-5.99880941294997e-13
-8.37412255332696e-13
-3.97467618963728e-13
-6.47908008414472e-13
-2.55791070649252e-13
-4.91398560916823e-13
-1.53562826520595e-13
-3.60535257146153e-13
-7.76225042465082e-14
-2.49899591992229e-13
-1.97612870063156e-14
-1.55417388494857e-13
2.51729665534407e-14
-7.39237514330986e-14
6.05159376584587e-14
-2.8851231995048e-15
8.84798597366359e-14
5.97799962073934e-14
1.10532129690427e-13
1.15839175790701e-13
1.27694857982651e-13
1.66836915823382e-13
1.40660510126632e-13
2.14174555190935e-13
1.49908489826547e-13
2.59151710045302e-13
1.55700714524612e-13
3.03028866069335e-13
1.58191573914529e-13
3.47063362491052e-13
1.57373915336383e-13
3.92547330078687e-13
1.53139035434379e-13
4.40863523419789e-13
1.45220744720891e-13
4.93543333684461e-13
1.33173191001555e-13
5.52331662634685e-13
1.16307158044917e-13
6.1928803460738e-13
9.36315961417574e-14
6.96910715249874e-13
6.37155855853539e-14
7.88349209740564e-13
2.4316064953531e-14
8.97664942462934e-13
-2.79724323184939e-14
1.03025848473409e-12
-9.83404706193202e-14
1.19348151391505e-12
-1.95014696507725e-13
1.39755193161791e-12
-3.31165787120935e-13
1.65696883591736e-12
-5.2813235695783e-13
1.99246887261397e-12
-8.20254597679411e-13
2.43373796298218e-12
-1.26158536877799e-12
3.02219154422338e-12
-1.93468780236952e-12
3.81184745195136e-12
-2.95275721890708e-12
4.86088614793503e-12
-4.44294112801431e-12
6.18526072919805e-12
-6.39586090441246e-12
7.65185939714953e-12
-8.31340992045318e-12
8.63632736415972e-12
-7.94032766434108e-12
7.834330280156e-12
-8.40245269620477e-13
3.41970287695548e-12
1.74350123157887e-11
2.48988987521381e-11
-7.6654996096673e-13
2.5180576047786e-11
-3.38282789740958e-12
1.99200460152056e-11
-4.79797893703561e-12
8.87294583488743e-13
-5.0272508210337e-12
-7.41635869304665e-12
-4.6021266241151e-12
-8.60961023594723e-12
-3.95784916121383e-12
-7.01388671825038e-12
-3.30293472222114e-12
-5.11061951905089e-12
-2.71971172559337e-12
-3.55856076386845e-12
-2.22671039301416e-12
-2.45000382348556e-12
-1.81853543757408e-12
-1.68872532274388e-12
-1.48276286256562e-12
-1.17072424865327e-12
-1.20618390419814e-12
-8.14739408724207e-13
-9.77165632708931e-13
-5.65298880916428e-13
-7.86142554446409e-13
-3.86146911623523e-13
-6.25481638987889e-13
-2.54059732290611e-13
-4.8919778314155e-13
-1.54224138955075e-13
-3.72567849827335e-13
-7.71678348051895e-14
-2.71855619603931e-13
-1.67491330818004e-14
-1.84049345434706e-13
3.10939121012261e-14
-1.06671800207091e-13
6.91077465576069e-14
-3.76498753435478e-14
9.91652018346877e-14
2.48121447616448e-14
1.2256547952399e-13
8.22933672211621e-14
1.40217028447647e-13
1.36247810866199e-13
1.52724321989297e-13
1.88017951809784e-13
1.60460536579148e-13
2.38920587090288e-13
1.63605141026084e-13
2.90255431641643e-13
1.62166924041083e-13
3.43371801812006e-13
1.5598709142974e-13
3.99696281566112e-13
1.44721865206458e-13
4.60797237994034e-13
1.27783733091451e-13
5.28445541911559e-13
1.04281140560437e-13
6.04694818699318e-13
7.29414990413635e-14
6.9199620195752e-13
3.19371107907867e-14
7.93336064232121e-13
-2.15090078912277e-14
9.12422834403608e-13
-9.1522376882082e-14
1.05394050257499e-12
-1.84270224957651e-13
1.22384674467974e-12
-3.09253744048107e-13
1.4297136122334e-12
-4.8126155675837e-13
1.68106621430893e-12
-7.23591323634502e-13
1.98948675240205e-12
-1.0726472299115e-12
2.36818844919974e-12
-1.58412086121802e-12
2.82967409771652e-12
-2.33986780745093e-12
3.37969541997576e-12
-3.44631159424693e-12
4.00094989569092e-12
-5.00745894602448e-12
4.61569005024693e-12
-6.9532387950696e-12
5.02755928502651e-12
-8.66642908589754e-12
4.81911225852457e-12
-7.67018666375813e-12
3.45974514502238e-12
5.83565532413427e-13
8.53633055309709e-13
2.01023453268395e-11
2.57900019690621e-11
7.12377150368516e-13
2.45216487321495e-11
-3.99260893184904e-13
2.1099762183448e-11
-1.99606881740368e-12
2.55073861195293e-12
-2.95837130202884e-12
-6.39057175728511e-12
-3.27077355090165e-12
-8.23643119369409e-12
-3.16637886955919e-12
-7.05942581852272e-12
-2.86568109496097e-12
-5.35376930522394e-12
-2.50080858778365e-12
-3.86680747516029e-12
-2.13880459476594e-12
-2.75608631282955e-12
-1.80809327006371e-12
-1.96410497734471e-12
-1.51789915098704e-12
-1.40612144445792e-12
-1.26810561105013e-12
-1.0102443999566e-12
-1.05480053452155e-12
-7.24809612436204e-13
-8.7290249870297e-13
-5.14733488755839e-13
-7.17381235658153e-13
-3.56737271788294e-13
-5.83748601346182e-13
-2.35464487921799e-13
-4.6816011530329e-13
-1.40794614708976e-13
-3.67393364663528e-13
-6.59619029665069e-14
-2.78747162595025e-13
-6.38151196124196e-15
-1.99931314340917e-13
4.11054068453644e-14
-1.28984025748103e-13
7.86999434816056e-14
-6.41887396145661e-14
1.07947454388351e-13
-4.0085163524688e-15
1.29935584089703e-13
5.29704462098039e-14
1.45391674507502e-13
1.08072856880625e-13
1.54777467059473e-13
1.62593098143415e-13
1.58301781885802e-13
2.1780990411462e-13
1.55989295032067e-13
2.75041931903204e-13
1.47640300048163e-13
3.35688266127738e-13
1.32829803863453e-13
4.01267446380041e-13
1.10851313000717e-13
4.73473437404845e-13
8.0637808316643e-14
5.54238491883159e-13
4.06792537182319e-14
6.4582824911245e-13
-1.11847423715876e-14
7.50911786685869e-13
-7.81330960725202e-14
8.72669250439803e-13
-1.64801572100085e-13
1.01488778485356e-12
-2.77963720369641e-13
1.18199226322155e-12
-4.27761768347972e-13
1.37892851777448e-12
-6.29506515621731e-13
1.61066807031771e-12
-9.06527672888027e-13
1.88098815551811e-12
-1.29404128370687e-12
2.18984913491622e-12
-1.8439284504531e-12
2.52780050379908e-12
-2.6286352032653e-12
2.86617518823963e-12
-3.73535059037958e-12
3.13797738072105e-12
-5.22967146883751e-12
3.21349429672604e-12
-6.97857069897687e-12
2.88085378569809e-12
-8.28215566698042e-12
1.92224572034516e-12
-6.657131312887e-12
3.65443138219206e-13
2.19761937913312e-12
-7.06065901542017e-13
2.12282017523809e-11
2.51169219213252e-11
1.36019762000989e-12
2.32092828032171e-11
1.16902989050184e-12
2.13505360997229e-11
-3.45291620926096e-13
4.12234608693981e-12
-1.60136703526943e-12
-5.08029929881718e-12
-2.29759593453021e-12
-7.48861417772806e-12
-2.51659976015267e-12
-6.7907172234188e-12
-2.45397897556747e-12
-5.36797191919531e-12
-2.25178670860701e-12
-4.02147610301718e-12
-1.99759118107452e-12
-2.96342577036785e-12
-1.73741781675209e-12
-2.17796995421466e-12
-1.49339109110933e-12
-1.60432919404803e-12
-1.2740576977651e-12
-1.1842229485321e-12
-1.08111102982841e-12
-8.72854308762869e-13
-9.13021571156161e-13
-6.38364684933383e-13
-7.67006099841576e-13
-4.58728078479801e-13
-6.3997499748978e-13
-3.18890583916434e-13
-5.28985559568403e-13
-2.08581203535874e-13
-4.31380054816606e-13
-1.20746699576215e-13
-3.44828653147797e-13
-5.04717365863278e-14
-2.67290198630849e-13
5.69184458755168e-15
-1.96973670548116e-13
5.01969119373114e-14
-1.32286019548038e-13
8.47865283272089e-14
-7.17754319729928e-14
1.10689271697182e-13
-1.41069617207364e-14
1.28749988912981e-13
4.19906188028922e-14
1.39493418409871e-13
9.77479559498047e-14
1.43168196079111e-13
1.54390733632262e-13
1.39803137416034e-13
2.13174319922243e-13
1.29168769029675e-13
2.75425322640578e-13
1.10768423822522e-13
3.42569213484678e-13
8.37959864183747e-14
4.16173926893893e-13
4.70426417744898e-14
4.98003340605063e-13
-1.19690693094904e-15
5.90066912897138e-13
-6.33284716865154e-14
6.94656328588355e-13
-1.42811091944601e-13
8.14368243379513e-13
-2.44586363960079e-13
9.52085283027742e-13
-3.75712898777601e-13
1.11080478176097e-12
-5.46449590884036e-13
1.29320956212573e-12
-7.71796038826892e-13
1.50067257854225e-12
-1.07377735112378e-12
1.73129695721233e-12
-1.48434525651543e-12
1.97624211033655e-12
-2.04844467859211e-12
2.21291463274049e-12
-2.824772181308e-12
2.39459358951991e-12
-3.87637491578161e-12
2.43295867167585e-12
-5.22717974186515e-12
2.1869680195034e-12
-6.69121398249541e-12
1.46715677881318e-12
-7.51966452862849e-12
2.04069148100714e-13
-5.34872230540409e-12
-1.28418007852639e-12
3.73380070654823e-12
-1.41561630543645e-12
2.14051411357292e-11
2.37282161804014e-11
1.49408173334655e-12
2.17567637983505e-11
1.70107514283198e-12
2.1194109879946e-11
4.06237164498461e-13
5.46511285116978e-12
-8.43914492363524e-13
-3.78513835439211e-12
-1.65857804658549e-12
-6.63137452057695e-12
-2.0273528742632e-12
-6.3811409336426e-12
-2.10210160631866e-12
-5.25363877688147e-12
-2.00917416955963e-12
-4.07565932829509e-12
-1.83638388871196e-12
-3.09808943659926e-12
-1.634858861118e-12
-2.34186798410529e-12
-1.43247075759038e-12
-1.76953503797695e-12
-1.24261302126488e-12
-1.33732095472204e-12
-1.07063158909266e-12
-1.0084897951297e-12
-9.17599082001876e-13
-7.55460092469095e-13
-7.82530443906521e-13
-5.58260966744877e-13
-6.6356271712038e-13
-4.02714095967423e-13
-5.58576713171339e-13
-2.78798900190251e-13
-4.6547985171677e-13
-1.79434141641435e-13
-3.82325493061756e-13
-9.95547796096036e-14
-3.07336704603638e-13
-3.55422091999796e-14
-2.38915269625542e-13
1.52366911101578e-14
-1.75603980851561e-13
5.46661175384694e-14
-1.16065488410925e-13
8.40949804736326e-14
-5.90465788907304e-14
1.04451327867947e-13
-3.35534448336676e-15
1.16322000628481e-13
5.21653390975884e-14
1.19988572256151e-13
1.0867366400059e-13
1.15478797571304e-13
1.67348368024799e-13
1.02542527600829e-13
2.29425813218447e-13
8.06238751824389e-14
2.96225450804307e-13
4.88348804289442e-14
3.69170369056394e-13
5.86176289034236e-15
4.49831215179365e-13
-5.01468115432892e-14
5.3994508972016e-13
-1.21763029965482e-13
6.4141821409582e-13
-2.12614456000465e-13
7.56279640850192e-13
-3.27764688946831e-13
8.86576164938558e-13
-4.74291157477302e-13
1.0340715286573e-12
-6.62171048833713e-13
1.19963041768588e-12
-9.05508641275717e-13
1.38200635763989e-12
-1.22422244798705e-12
1.57560755529398e-12
-1.64592627210202e-12
1.76667584166954e-12
-2.20740622122834e-12
1.9267367663249e-12
-2.95264822233561e-12
2.00375876509069e-12
-3.92113382344698e-12
1.90883888452273e-12
-5.09985728211745e-12
1.51599956059581e-12
-6.26556678810673e-12
6.78055680422231e-13
-6.64777386241277e-12
-5.82919753203985e-13
-4.05142488477735e-12
-1.85967964805266e-12
5.04932586744054e-12
-1.58311960321061e-12
2.11652521848847e-11
2.21664845827123e-11
1.36746535879026e-12
2.04232649684948e-11
1.6557240435752e-12
2.09458009584022e-11
6.20160858344791e-13
6.53766831840744e-12
-4.74757554415107e-13
-2.65574964435135e-12
-1.25637023138385e-12
-5.81737752753966e-12
-1.66619329197093e-12
-5.94049091484715e-12
-1.80924001800823e-12
-5.08084433293639e-12
-1.78542626706379e-12
-4.07047012904424e-12
-1.67192003881176e-12
-3.18313724831824e-12
-1.51745917392311e-12
-2.46831194216373e-12
-1.35095492694788e-12
-1.90841739319138e-12
-1.18793262527625e-12
-1.47310051806186e-12
-1.03588012446726e-12
-1.13367449985242e-12
-8.97676803413351e-13
-8.67169643507503e-13
-7.7372146427026e-13
-6.56092692342347e-13
-6.63178503375156e-13
-4.8749603682111e-13
-5.64651569292251e-13
-3.51915017980481e-13
-4.76573306717727e-13
-2.42436359280278e-13
-3.97360837386368e-13
-1.54007393404024e-13
-3.25506574941302e-13
-8.29329331620177e-14
-2.59603683348329e-13
-2.64779908133787e-14
-1.98338560042182e-13
1.73361846095913e-14
-1.40492000412287e-13
4.99524581537835e-14
-8.49011355413084e-14
7.23552753359868e-14
-3.04557997710434e-14
8.51834302600647e-14
2.39256490691864e-14
8.87470736313048e-14
7.93249763468567e-14
8.30730087062162e-14
1.36840992336715e-13
6.7893365610546e-14
1.97614221488795e-13
4.2610439540786e-14
2.62850517050101e-13
6.26986534811538e-15
3.33827878040113e-13
-4.25132628363203e-14
4.11920481169368e-13
-1.05686823131917e-13
4.98599500359283e-13
-1.85919172090769e-13
5.95397991929328e-13
-2.86899894104687e-13
7.03823681345732e-13
-4.13666905953563e-13
8.25189228711558e-13
-5.7310301385603e-13
9.60234765681126e-13
-7.7461565723568e-13
1.10843284727522e-12
-1.03104446826602e-12
1.26673068434762e-12
-1.35978885591771e-12
1.42737614479519e-12
-1.78377025020904e-12
1.57446890623967e-12
-2.33163632518982e-12
1.67847234543355e-12
-3.03374584311555e-12
1.68975610450746e-12
-3.90948425857353e-12
1.53009035226238e-12
-4.91719636843116e-12
1.09983892819559e-12
-5.81204379949899e-12
2.97933531297128e-13
-5.82167765584048e-12
-8.06509761433221e-13
-2.92075831829724e-12
-1.8260928554281e-12
6.097178625372e-12
-1.46619348086352e-12
2.08319974223361e-11
2.07150719203723e-11
1.13797304644286e-12
1.93116491128729e-11
1.37335984101685e-12
2.07401134121588e-11
5.80329468837791e-13
7.35762833119815e-12
-3.15175381135711e-13
-1.735404998681e-12
-9.98946267536127e-13
-5.11049165459132e-12
-1.393678542844e-12
-5.52395841807536e-12
-1.56384614777894e-12
-4.8898015890772e-12
-1.5822301100267e-12
-4.03185281054945e-12
-1.51150820113797e-12
-3.23409765463282e-12
-1.39449354688394e-12
-2.56595080372749e-12
-1.25848638521515e-12
-2.02539839886669e-12
-1.11941035200217e-12
-1.59349061763376e-12
-9.85830910354932e-13
-1.24890858927931e-12
-8.61800543352651e-13
-9.73198001221056e-13
-7.48745012773266e-13
-7.51487896450051e-13
-6.46651710948802e-13
-5.72265775262725e-13
-5.54753288795247e-13
-4.26816136068984e-13
-4.71945046193852e-13
-3.08560590751506e-13
-3.96983029514006e-13
-2.12581419191943e-13
-3.28616685809059e-13
-1.3518932447993e-13
-2.65621398147787e-13
-7.36209018023158e-14
-2.06835853287034e-13
-2.58345388532952e-14
-1.51149057018358e-13
9.66362058874016e-15
-9.74976980288003e-14
3.39058562737609e-14
-4.48536526282128e-14
4.75654252283876e-14
7.78494033901374e-15
5.09787519114273e-14
6.14221284973385e-14
4.41689785681995e-14
1.17076924553963e-13
2.68539328802438e-14
1.75792705947767e-13
-1.59011838764043e-15
2.38658186706877e-13
-4.21626201249119e-14
3.06809402494135e-13
-9.62955523543569e-14
3.81429487528141e-13
-1.65984627563461e-13
4.63737484354748e-13
-2.53933129158212e-13
5.54920794856203e-13
-3.63798497401152e-13
6.56024833748707e-13
-5.00478305354876e-13
7.67735743706316e-13
-6.70495727031999e-13
8.89975174982398e-13
-8.82496933786584e-13
1.02118955677112e-12
-1.14784985463848e-12
1.15715718159684e-12
-1.48129197113064e-12
1.28906330834047e-12
-1.9011600625061e-12
1.40063426132317e-12
-2.42865421417358e-12
1.4640055762779e-12
-3.08255334372415e-12
1.43561612452414e-12
-3.86654970326386e-12
1.25197244211777e-12
-4.71901626434501e-12
8.40745745072319e-13
-5.38612364715258e-12
1.41061861150125e-13
-5.10660196346358e-12
-7.6007400470108e-13
-2.00257997749977e-12
-1.53560996757838e-12
6.89150278627343e-12
-1.2316802450634e-12
2.05455288075454e-11
1.94926190686267e-11
8.91470755276865e-13
1.84383594567903e-11
1.04591658614555e-12
2.0604588668653e-11
4.54083444568353e-13
7.96579424693795e-12
-2.52764594871605e-13
-1.01372908862641e-12
-8.23850096694449e-13
-4.52583873137253e-12
-1.17991146373039e-12
-5.1553424015724e-12
-1.35472022444134e-12
-4.70317253150363e-12
-1.39803310557057e-12
-3.97723837722177e-12
-1.35818194811338e-12
-3.26303600327011e-12
-1.27096878672055e-12
-2.64257680005577e-12
-1.16081635279361e-12
-2.12526716115146e-12
-1.04300694122095e-12
-1.70131857145773e-12
-9.26444605449139e-13
-1.35579702206247e-12
-8.15872026605296e-13
-1.07440926299104e-12
-7.13442556890976e-13
-8.44870370488875e-13
-6.19775729973817e-13
-6.57195949700098e-13
-5.34628354361781e-13
-5.03529582550964e-13
-4.5729613472394e-13
-3.77749181915459e-13
-3.868452312936e-13
-2.75164099106485e-13
-3.22260960749236e-13
-1.92163842606089e-13
-2.62497508910898e-13
-1.26014485661681e-13
-2.06537391386998e-13
-7.46456211376144e-14
-1.53381168487187e-13
-3.65450285050702e-14
-1.02064582703253e-13
-1.06451971717687e-14
-5.16444712151117e-14
3.74782059853098e-15
-1.19505890788955e-15
6.98749492514145e-15
5.02043138989812e-14
-8.98529306028511e-16
1.0348911904977e-13
-2.02085886064154e-14
1.59608473719554e-13
-5.1579120109064e-14
2.1953416701208e-13
-9.60333488747769e-14
2.84261784293181e-13
-1.5502747816927e-13
3.54793257876543e-13
-2.30562561583002e-13
4.32113427834414e-13
-3.25325940340775e-13
5.17101075410527e-13
-4.42868224192295e-13
6.10402893626024e-13
-5.87855658702466e-13
7.12183014009256e-13
-7.66329861505404e-13
8.21732365608703e-13
-9.8606675172307e-13
9.36780570971058e-13
-1.2568773232929e-12
1.05243287331498e-12
-1.59088114355477e-12
1.15956153305622e-12
-2.0021911197069e-12
1.24257831158101e-12
-2.50555987325889e-12
1.27661207492641e-12
-3.11049831193337e-12
1.22530305146006e-12
-3.80921704744172e-12
1.0398295610784e-12
-4.52759899906247e-12
6.71107237509577e-13
-5.01142466672008e-12
8.87784253414706e-14
-4.51783431168324e-12
-6.19175810623012e-13
-1.28694747194609e-12
-1.19078749655584e-12
7.47204111776302e-12
-9.73528820637128e-13
2.03362889975498e-11
1.85222859461115e-11
6.69192894158939e-13
1.77799357311765e-11
7.56836546545446e-13
2.05264410921821e-11
3.20291113817594e-13
8.40978427436488e-12
-2.28890724281014e-13
-4.58077969345877e-13
-6.95153977075127e-13
-4.05395460213199e-12
-1.00586190723651e-12
-4.83974670661487e-12
-1.17372291930519e-12
-4.53098094927159e-12
-1.23088717787844e-12
-3.91615070694931e-12
-1.21323037727888e-12
-3.27708433609872e-12
-1.14972578885741e-12
-2.70274723492673e-12
-1.06146172325788e-12
-2.21046144406371e-12
-9.62499128687105e-13
-1.79748082831519e-12
-8.61581816104565e-13
-1.45419233769676e-12
-7.63765491375109e-13
-1.16999001028841e-12
-6.716755288257e-13
-9.35013891811785e-13
-5.86402624975559e-13
-7.40809574057987e-13
-5.08121234304049e-13
-5.80432205594097e-13
-4.36464209374988e-13
-4.48297483775178e-13
-3.70772962509437e-13
-3.40002835462048e-13
-3.10245335493789e-13
-2.52079539085485e-13
-2.5400919531588e-13
-1.81861867060624e-13
-2.01179940820393e-13
-1.27291628834568e-13
-1.50873002080088e-13
-8.68560124606205e-14
-1.02219956326694e-13
-5.94711790657771e-14
-5.4364096691785e-14
-4.44322127188924e-14
-6.46156900458451e-15
-4.13728581136699e-14
4.23283766293038e-14
-5.02633211599555e-14
9.28535753912306e-14
-7.14090123687116e-14
1.45966950162383e-13
-1.05452609553941e-13
2.02529778706267e-13
-1.53425360926606e-13
2.63401254751231e-13
-2.16782283461519e-13
3.29414024417634e-13
-2.97497623012e-13
4.01336470572491e-13
-3.98194252103719e-13
4.79778786377338e-13
-5.22265075816623e-13
5.65046684568414e-13
-6.74072688115046e-13
6.56894879748856e-13
-8.5910912507799e-13
7.54149511071431e-13
-1.08422439013124e-12
8.54083142845195e-13
-1.3576804244388e-12
9.51500817963436e-13
-1.68913668255825e-12
1.03747425149574e-12
-2.0889821696863e-12
1.09769171822243e-12
-2.56660069538143e-12
1.11074702700503e-12
-3.12442459858483e-12
1.04729132008637e-12
-3.74673307465545e-12
8.7127079888074e-13
-4.35268525880063e-12
5.51385371443619e-13
-4.69271500137146e-12
7.81545838003674e-14
-4.04553369441069e-12
-4.68148944805878e-13
-7.40747196197706e-13
-8.82112934277846e-13
7.88679703613319e-12
-7.38210473468694e-13
2.01925018859362e-11
1.77826488273495e-11
4.86781179378558e-13
1.72967543043849e-11
5.29752879524308e-13
2.04839980439627e-11
2.07845144028559e-13
8.73062558398039e-12
-2.16956777091542e-13
-3.47273078512218e-14
-5.93704633347946e-13
-3.67906076756972e-12
-8.59967681946496e-13
-4.5757775605065e-12
-1.01523341411268e-12
-4.37838238384428e-12
-1.07901833636474e-12
-3.85532495514343e-12
-1.07710627852339e-12
-3.28219683164315e-12
-1.03239027967547e-12
-2.75088773531689e-12
-9.62608305615905e-13
-2.28389439794653e-12
-8.80299232425084e-13
-1.88367893952476e-12
-7.93719929468764e-13
-1.54491120441439e-12
-7.07958225204117e-13
-1.26015154583764e-12
-6.25897283711154e-13
-1.02173890606716e-12
-5.48955184312241e-13
-8.22679546966585e-13
-4.7762293915364e-13
-6.56950083527392e-13
-4.11812908325796e-13
-5.19541918823978e-13
-3.51102921297787e-13
-4.06383091136364e-13
-2.9487893036939e-13
-3.14195452375717e-13
-2.42433144036794e-13
-2.4040535063868e-13
-1.93005786638589e-13
-1.83005254084016e-13
-1.4582355733134e-13
-1.4049650478692e-13
-1.00115119184258e-13
-1.11793108036663e-13
-5.51112104512783e-14
-9.61877535110195e-14
-1.00496133448204e-14
-9.33083872916212e-14
3.58299636710344e-14
-1.03123281615446e-13
8.32860209876487e-14
-1.25936437724725e-13
1.33078792940952e-13
-1.62393715045233e-13
1.85958593873604e-13
-2.13515739908238e-13
2.42653431184186e-13
-2.80736172114912e-13
3.03841879644941e-13
-3.65979349165484e-13
3.70099212141795e-13
-4.7176590996467e-13
4.41805872975517e-13
-6.01293325601511e-13
5.18986334772186e-13
-7.58570050077938e-13
6.01089133254274e-13
-9.48512412881766e-13
6.86614005023308e-13
-1.1770258665064e-12
7.72596009829261e-13
-1.45091188950572e-12
8.5382841352913e-13
-1.77759581505166e-12
9.21905852723889e-13
-2.16427801310571e-12
9.64096227218603e-13
-2.6160308681624e-12
9.62456474811027e-13
-3.13009356577894e-12
8.93894710476427e-13
-3.68561103802074e-12
7.32683732820366e-13
-4.19909800380639e-12
4.60251705744118e-13
-4.42807313683419e-12
8.01120970946854e-14
-3.67315278570785e-12
-3.38768026160586e-13
-3.29208203593332e-13
-6.3676105699865e-13
8.17782962361176e-12
-5.43840016887317e-13
2.00922667113506e-11
1.72327515433184e-11
3.4595875549345e-13
1.69485573790183e-11
3.62031560412215e-13
2.04614395062667e-11
1.22853045490461e-13
8.96236100062991e-12
-2.06151561589102e-13
2.86917135656326e-13
-5.09231081815424e-13
-3.3833958091794e-12
-7.34893854465938e-13
-4.35773086532636e-12
-8.75116159529633e-13
-4.24599875762176e-12
-9.40747015450152e-13
-3.79773171280075e-12
-9.49738529499421e-13
-3.28142541440618e-12
-9.19809932244091e-13
-2.78921989050055e-12
-8.65565251507382e-13
-2.34673879016268e-12
-7.97920108649391e-13
-1.96013625035966e-12
-7.24431983656953e-13
-1.62743815303411e-12
-6.50012469731534e-13
-1.34384730327955e-12
-5.77631063902559e-13
-1.10363874647901e-12
-5.08909210796631e-13
-9.01162111167006e-13
-4.44562833168189e-13
-7.31294573448068e-13
-3.84727560045978e-13
-5.89603665007704e-13
-3.29180326391139e-13
-4.72374249284783e-13
-2.77471684329628e-13
-3.7655207279112e-13
-2.29039925307367e-13
-2.99674235491695e-13
-1.83246580161036e-13
-2.39809390669223e-13
-1.39427238312136e-13
-1.954841501037e-13
-9.69017392509803e-14
-1.65628996483919e-13
-5.49909549270999e-14
-1.49535339368473e-13
-1.30127818567335e-14
-1.46834599416919e-13
2.97086786138508e-14
-1.57489570195718e-13
7.38473096264553e-14
-1.81802384181224e-13
1.20068802067496e-13
-2.20411730661043e-13
1.69017379105043e-13
-2.7431690376102e-13
2.21300400666053e-13
-3.44914642687987e-13
2.7745228766432e-13
-4.3405706448096e-13
3.37882432392252e-13
-5.44139830119757e-13
4.02775563166178e-13
-6.78136118315644e-13
4.71939884780819e-13
-8.39679039724186e-13
5.44598822026622e-13
-1.03310104909011e-12
6.19062814551929e-13
-1.26339855912902e-12
6.92289350654772e-13
-1.53602421464111e-12
7.59275580919144e-13
-1.85645096456627e-12
8.12343466118278e-13