/*--------------------------------*- C++ -*----------------------------------*\
  =========                 |
  \\      /  F ield         | OpenFOAM: The Open Source CFD Toolbox
   \\    /   O peration     | Website:  https://openfoam.org
    \\  /    A nd           | Version:  10
     \\/     M anipulation  |
\*---------------------------------------------------------------------------*/
FoamFile
{
    format      ascii;
    class       volScalarField;
    location    "6.2";
    object      rho;
}
// * * * * * * * * * * * * * * * * * * * * * * * * * * * * * * * * * * * * * //

dimensions      [1 -3 0 0 0 0 0];

internalField   nonuniform List<scalar> 
2500
(
1.14462210588989
1.1446482772255
1.14469804046384
1.14473273202144
1.14475312528779
1.14476440860708
1.14477043800737
1.14477355325219
1.14477509932025
1.14477582954211
1.14477616348011
1.14477630872228
1.14477636941803
1.14477639611057
1.14477640857007
1.14477641599486
1.14477641943312
1.14477642262135
1.14477642588415
1.144776428144
1.14477643005366
1.14477643169854
1.14477643304887
1.14477643388598
1.14477643474055
1.14477643545993
1.14477643572441
1.14477643582192
1.14477643570122
1.14477643530752
1.14477643460938
1.14477643330489
1.14477643169799
1.14477642947203
1.14477642618497
1.14477642030018
1.14477640798829
1.14477638052861
1.14477631343332
1.14477615969325
1.14477581344812
1.14477506224892
1.14477349920831
1.14477038081735
1.14476437528254
1.14475317000866
1.14473283599098
1.14469798166393
1.14464779222787
1.14462254792181
1.14831635412843
1.14844467478744
1.14858861497519
1.14868746310586
1.14874718280454
1.14878141440815
1.14880041195586
1.14881059879677
1.14881583952455
1.14881841211331
1.14881961733763
1.14882015502933
1.14882038387298
1.14882047810848
1.14882051608922
1.14882053178917
1.14882053807325
1.14882054143592
1.14882054389432
1.14882054558162
1.14882054698316
1.14882054823984
1.14882054929816
1.14882055001077
1.14882055064564
1.14882055118789
1.14882055145718
1.14882055161717
1.14882055167876
1.14882055152951
1.14882055114612
1.14882055029442
1.14882054857412
1.14882054527337
1.1488205383924
1.14882052170205
1.14882047986956
1.14882037687941
1.14882012971975
1.14881956269384
1.14881831480504
1.14881568839314
1.14881040451515
1.14880022297016
1.14878132813209
1.1487473066258
1.14868768366604
1.14858822344412
1.14844274771589
1.14831772308553
1.15203855071271
1.15225347443628
1.15245509425264
1.15258931684917
1.15266968870356
1.15271558425703
1.15274102075972
1.15275466826101
1.15276170496397
1.15276517222956
1.1527668019408
1.15276753173823
1.15276784328121
1.15276797079058
1.15276802113368
1.15276804062553
1.15276804793777
1.15276805104187
1.15276805276859
1.15276805385524
1.15276805474632
1.15276805559352
1.15276805634066
1.15276805685806
1.15276805727538
1.15276805763788
1.15276805784844
1.15276805801071
1.1527680581554
1.15276805818911
1.15276805807883
1.15276805758612
1.15276805597199
1.15276805233345
1.15276804399557
1.15276802245052
1.15276796685216
1.15276782821642
1.15276749542555
1.15276673116858
1.15276505155524
1.1527615235127
1.15275443846593
1.15274079936963
1.15271548128563
1.15266979355338
1.15258937754523
1.15245396529683
1.1522494265115
1.15203650886693
1.15529486060662
1.15554381508097
1.15574784610685
1.15587842284624
1.15595424654036
1.15599634441388
1.15601910115711
1.15603105955953
1.15603712299443
1.15604007122882
1.15604144188117
1.15604205016413
1.15604230778428
1.15604241224202
1.15604245292695
1.15604246823301
1.15604247374019
1.15604247582466
1.15604247679921
1.15604247735971
1.15604247783014
1.15604247832936
1.15604247880643
1.15604247914084
1.15604247938398
1.15604247959763
1.15604247973569
1.15604247986574
1.15604248001907
1.15604248010862
1.15604248015631
1.15604248008964
1.15604247901039
1.15604247625634
1.15604246997353
1.15604245320721
1.15604240899603
1.15604229707983
1.15604202525527
1.15604139340529
1.1560399875314
1.15603699447024
1.15603089100998
1.15601892748874
1.15599623391938
1.15595421933529
1.15587811805045
1.15574590648221
1.15553793522265
1.15528762698814
1.15782360510549
1.15805495002718
1.15822644132721
1.15833197131315
1.15839130312409
1.15842328531237
1.15844013411393
1.15844880655145
1.1584531352644
1.15845521584317
1.15845617496466
1.15845659800283
1.1584567763118
1.15845684824172
1.15845687602793
1.15845688627435
1.15845688981528
1.15845689102073
1.15845689148416
1.15845689170377
1.15845689189192
1.15845689213954
1.15845689241228
1.15845689260515
1.15845689272624
1.15845689283324
1.15845689291069
1.15845689299937
1.15845689312288
1.1584568932237
1.15845689333836
1.15845689347412
1.15845689286067
1.1584568911003
1.15845688708688
1.15845687605186
1.15845684647197
1.15845677077768
1.15845658527723
1.15845615013748
1.15845517240169
1.15845306706243
1.15844871434809
1.15844003427411
1.15842320748934
1.15839121524777
1.15833148314845
1.15822420825193
1.15804839634549
1.15781271422683
1.15959380805554
1.1597771295909
1.15990251466065
1.15997684760287
1.16001734040175
1.16003854601583
1.16004944131434
1.16005494018731
1.16005764609791
1.1600589341799
1.16005952428731
1.16005978358558
1.16005989261956
1.16005993649665
1.16005995335491
1.1600599594723
1.16005996150002
1.16005996211678
1.16005996229765
1.1600599623374
1.16005996236698
1.16005996245856
1.16005996259668
1.16005996269505
1.16005996274198
1.1600599627847
1.16005996282211
1.1600599628751
1.16005996295923
1.16005996304537
1.16005996316526
1.16005996334615
1.16005996304976
1.16005996206847
1.16005995979395
1.16005995332222
1.16005993574535
1.16005989042173
1.16005977862584
1.16005951466804
1.16005891720159
1.16005761894074
1.16005490293036
1.16004940096155
1.16003851188599
1.16001726420455
1.15997638807517
1.15990051942033
1.15977114491281
1.15958208475203
1.16072434232682
1.16085242838845
1.16093431703096
1.16098119640042
1.16100597737161
1.16101860192342
1.16102493488584
1.16102807237809
1.1610295965126
1.16103031620818
1.16103064446476
1.16103078842653
1.16103084892664
1.16103087325606
1.16103088256825
1.1610308859025
1.16103088696764
1.16103088722654
1.16103088724894
1.16103088724592
1.16103088723167
1.16103088723928
1.16103088729931
1.16103088734186
1.16103088734969
1.16103088736117
1.16103088737663
1.16103088740438
1.16103088745528
1.16103088751755
1.16103088761263
1.1610308877619
1.16103088764751
1.1610308871666
1.16103088599322
1.16103088252049
1.16103087299176
1.16103084829798
1.16103078711766
1.16103064204696
1.16103031198911
1.16102958974226
1.16102806363228
1.16102492792941
1.16101859969635
1.1610059399102
1.16098087185995
1.16093283496657
1.16084775963199
1.16071409959169
1.16138959581836
1.16147022169099
1.16151886033399
1.16154581156556
1.1615596604489
1.16156653416572
1.1615699045503
1.16157154520167
1.16157233283148
1.1615727022253
1.16157287019832
1.16157294382829
1.1615729747943
1.16157298725255
1.16157299200689
1.1615729936888
1.16157299419217
1.16157299427774
1.16157299426045
1.16157299423768
1.16157299422222
1.16157299421573
1.16157299423165
1.16157299424397
1.16157299423608
1.16157299423639
1.16157299424181
1.16157299425484
1.16157299428317
1.16157299432301
1.16157299438621
1.16157299447959
1.16157299446156
1.16157299426006
1.16157299368936
1.16157299195653
1.16157298716577
1.16157297471401
1.16157294378162
1.1615728702624
1.16157270246237
1.16157233338171
1.16157154701907
1.16156991049516
1.16156654666197
1.16155965527782
1.16154562733042
1.16151790906726
1.16146702024653
1.16138191126406
1.1617533196935
1.16179974615299
1.16182637134948
1.16184068275808
1.16184784386879
1.16185131198629
1.16185297596875
1.16185377248416
1.16185415068296
1.16185432702238
1.16185440705262
1.16185444215375
1.16185445694128
1.16185446289762
1.16185446516503
1.16185446595787
1.16185446617413
1.1618544661922
1.16185446617291
1.16185446615124
1.16185446613882
1.16185446613154
1.1618544661308
1.16185446612903
1.1618544661218
1.16185446611885
1.16185446612022
1.16185446612688
1.16185446614173
1.1618544661649
1.16185446620209
1.16185446625244
1.16185446626134
1.16185446618833
1.16185446593232
1.16185446512048
1.16185446286135
1.16185445698089
1.16185444235615
1.16185440757424
1.16185432807553
1.16185415261352
1.16185377623841
1.16185298389962
1.16185132695315
1.16184785463484
1.16184059769344
1.16182583081441
1.16179777658741
1.16174820844319
1.16193941770989
1.16196415658337
1.16197772847699
1.16198481942012
1.16198828030994
1.16198991812872
1.16199068783386
1.16199105037832
1.16199122073894
1.16199129976571
1.1619913355911
1.16199135132604
1.16199135797093
1.16199136065175
1.16199136166982
1.16199136201965
1.16199136210654
1.16199136210642
1.16199136209151
1.16199136207643
1.16199136206649
1.16199136206014
1.16199136205722
1.16199136205385
1.16199136204891
1.1619913620461
1.16199136204635
1.16199136204975
1.1619913620571
1.16199136206955
1.16199136208953
1.16199136211544
1.16199136212535
1.16199136210215
1.16199136199592
1.16199136163615
1.16199136062862
1.16199135800442
1.16199135147937
1.16199133597449
1.16199130054221
1.16199122219237
1.16199105322639
1.16199069383914
1.16198993000949
1.16198829440559
1.16198478900352
1.16197745218453
1.1619630526779
1.16193634047592
1.16202906804884
1.16204137784538
1.1620478733162
1.16205117829628
1.16205275413709
1.16205348383747
1.16205382004949
1.16205397595995
1.16205404849586
1.16205408198946
1.16205409716543
1.16205410384425
1.1620541066729
1.16205410781616
1.16205410824929
1.16205410839483
1.16205410842754
1.16205410842436
1.16205410841508
1.16205410840615
1.16205410839982
1.16205410839561
1.16205410839312
1.16205410839052
1.16205410838764
1.16205410838584
1.16205410838585
1.1620541083875
1.16205410839097
1.16205410839721
1.16205410840715
1.16205410841974
1.16205410842583
1.16205410841987
1.16205410837854
1.16205410822685
1.16205410779913
1.16205410668478
1.16205410391783
1.16205409735747
1.16205408238957
1.16205404927699
1.16205397757919
1.16205382367315
1.1620534915513
1.16205276560948
1.16205117193038
1.16204774494878
1.16204080745527
1.16202736624558
1.16206994378427
1.16207570564663
1.16207864419224
1.16208010287614
1.1620807833186
1.16208109201402
1.16208123158492
1.16208129533553
1.16208132470973
1.16208133821608
1.16208134433539
1.16208134703498
1.162081348182
1.16208134864645
1.16208134882198
1.16208134887958
1.16208134889107
1.16208134888841
1.16208134888335
1.16208134887861
1.1620813488751
1.16208134887268
1.16208134887108
1.16208134886949
1.16208134886798
1.16208134886701
1.16208134886697
1.16208134886772
1.16208134886929
1.16208134887223
1.16208134887686
1.16208134888264
1.16208134888569
1.16208134888469
1.16208134886946
1.16208134880838
1.16208134863463
1.16208134818181
1.16208134706015
1.16208134440966
1.16208133837974
1.16208132505171
1.16208129611211
1.16208123348541
1.16208109640034
1.1620807908492
1.16208010446398
1.16207858966189
1.16207543138648
1.1620690696644
1.16208765991408
1.16209021233816
1.1620914760114
1.16209208903918
1.16209236918637
1.16209249385381
1.16209254921299
1.16209257412996
1.16209258550306
1.16209259071166
1.16209259307205
1.16209259411617
1.16209259456129
1.16209259474184
1.16209259480987
1.16209259483165
1.16209259483539
1.16209259483377
1.16209259483124
1.1620925948289
1.16209259482712
1.16209259482586
1.16209259482496
1.1620925948241
1.16209259482336
1.16209259482288
1.16209259482283
1.16209259482313
1.16209259482382
1.16209259482511
1.16209259482714
1.16209259482965
1.16209259483115
1.1620925948312
1.16209259482572
1.16209259480216
1.16209259473431
1.16209259455743
1.16209259412068
1.16209259309308
1.16209259076452
1.16209258562828
1.16209257445767
1.16209255011318
1.16209249611249
1.16209237349402
1.16209209191842
1.16209145480415
1.16209008868794
1.16208723928608
1.16209498293515
1.16209605851589
1.16209657750207
1.16209682396113
1.16209693444236
1.1620969827239
1.16209700379875
1.16209701315012
1.16209701737912
1.16209701930848
1.16209702018316
1.16209702057116
1.16209702073711
1.16209702080452
1.16209702082981
1.16209702083765
1.16209702083874
1.16209702083791
1.16209702083672
1.16209702083562
1.16209702083476
1.16209702083413
1.16209702083366
1.16209702083322
1.16209702083287
1.16209702083263
1.16209702083258
1.16209702083268
1.16209702083295
1.16209702083348
1.16209702083432
1.16209702083535
1.16209702083603
1.16209702083619
1.16209702083427
1.1620970208255
1.16209702079995
1.16209702073328
1.1620970205693
1.1620970201854
1.16209701931969
1.16209701741607
1.16209701327381
1.16209700419223
1.16209698379837
1.16209693666892
1.16209682614055
1.16209656998734
1.16209600591744
1.16209479198597
1.16209787405636
1.16209830710091
1.16209851147327
1.16209860663633
1.16209864853427
1.16209866653503
1.16209867426538
1.16209867764846
1.16209867916453
1.16209867985358
1.16209868016609
1.16209868030508
1.16209868036469
1.16209868038891
1.16209868039794
1.16209868040062
1.16209868040087
1.16209868040045
1.16209868039989
1.16209868039939
1.16209868039898
1.16209868039866
1.16209868039842
1.16209868039819
1.16209868039801
1.16209868039789
1.16209868039783
1.16209868039785
1.16209868039794
1.16209868039813
1.16209868039845
1.16209868039884
1.16209868039913
1.16209868039922
1.16209868039856
1.16209868039541
1.1620986803861
1.16209868036179
1.16209868030224
1.16209868016359
1.16209867985261
1.1620986791715
1.16209867769013
1.16209867442621
1.16209866701346
1.16209864959617
1.16209860791854
1.16209850908426
1.1620982858806
1.16209779180755
1.16209896111365
1.16209912832383
1.16209920575382
1.1620992411628
1.162099256493
1.16209926297508
1.16209926571619
1.1620992668999
1.1620992674256
1.16209926766359
1.16209926777154
1.16209926781965
1.16209926784031
1.16209926784867
1.16209926785174
1.16209926785259
1.16209926785259
1.16209926785237
1.1620992678521
1.16209926785185
1.16209926785164
1.16209926785147
1.16209926785133
1.16209926785121
1.1620992678511
1.16209926785102
1.16209926785097
1.16209926785095
1.16209926785096
1.16209926785101
1.16209926785111
1.16209926785125
1.16209926785135
1.16209926785139
1.16209926785117
1.16209926785007
1.16209926784679
1.16209926783821
1.16209926781726
1.16209926776872
1.16209926766049
1.1620992674245
1.16209926691192
1.16209926577802
1.16209926317617
1.16209925696653
1.16209924181909
1.16209920509929
1.16209912016852
1.16209892733532
1.16209934439332
1.16209940651806
1.16209943482462
1.16209944755767
1.16209945298509
1.16209945524593
1.16209945618814
1.16209945658978
1.16209945676654
1.1620994568462
1.1620994568823
1.16209945689838
1.16209945690527
1.16209945690802
1.16209945690899
1.1620994569092
1.16209945690914
1.162099456909
1.16209945690885
1.16209945690871
1.16209945690859
1.16209945690848
1.16209945690839
1.1620994569083
1.16209945690823
1.16209945690817
1.16209945690812
1.16209945690808
1.16209945690806
1.16209945690806
1.16209945690807
1.16209945690811
1.16209945690814
1.16209945690815
1.16209945690807
1.1620994569077
1.16209945690659
1.16209945690366
1.16209945689652
1.16209945688005
1.16209945684349
1.16209945676415
1.16209945659211
1.16209945621032
1.16209945532599
1.16209945318417
1.16209944786268
1.16209943468819
1.16209940352098
1.16209933111183
1.16209946366372
1.16209948593756
1.16209949594805
1.16209950038412
1.16209950224785
1.16209950301338
1.162099503328
1.16209950346041
1.1620995035181
1.16209950354394
1.1620995035556
1.16209950356076
1.16209950356293
1.16209950356375
1.162099503564
1.162099503564
1.16209950356392
1.16209950356382
1.16209950356372
1.16209950356362
1.16209950356354
1.16209950356346
1.16209950356338
1.16209950356332
1.16209950356325
1.1620995035632
1.16209950356315
1.16209950356311
1.16209950356308
1.16209950356305
1.16209950356304
1.16209950356303
1.16209950356303
1.16209950356303
1.162099503563
1.16209950356288
1.16209950356253
1.16209950356157
1.16209950355923
1.16209950355383
1.16209950354186
1.16209950351597
1.16209950345989
1.16209950333506
1.16209950304337
1.16209950232698
1.16209950051543
1.1620994959394
1.16209948488059
1.16209945864567
1.1620994874132
1.16209949513936
1.1620994985715
1.16209950007193
1.1620995006939
1.16209950094598
1.16209950104817
1.16209950109058
1.16209950110882
1.1620995011169
1.16209950112048
1.16209950112202
1.16209950112263
1.16209950112281
1.16209950112282
1.16209950112276
1.16209950112268
1.16209950112259
1.16209950112251
1.16209950112243
1.16209950112236
1.16209950112229
1.16209950112222
1.16209950112216
1.16209950112211
1.16209950112206
1.16209950112201
1.16209950112196
1.16209950112193
1.16209950112189
1.16209950112187
1.16209950112185
1.16209950112184
1.16209950112183
1.16209950112182
1.16209950112179
1.16209950112168
1.1620995011214
1.16209950112068
1.16209950111899
1.16209950111522
1.16209950110705
1.16209950108933
1.16209950104969
1.16209950095621
1.16209950072344
1.16209950012466
1.16209949858265
1.16209949478023
1.16209948558532
1.16209947774186
1.16209948034051
1.16209948148343
1.16209948197695
1.16209948217895
1.16209948225973
1.16209948229198
1.16209948230512
1.16209948231065
1.16209948231302
1.16209948231401
1.16209948231439
1.16209948231449
1.16209948231447
1.16209948231441
1.16209948231433
1.16209948231424
1.16209948231416
1.16209948231409
1.16209948231402
1.16209948231395
1.16209948231389
1.16209948231383
1.16209948231377
1.16209948231372
1.16209948231367
1.16209948231362
1.16209948231358
1.16209948231354
1.1620994823135
1.16209948231347
1.16209948231345
1.16209948231343
1.16209948231342
1.16209948231341
1.16209948231341
1.16209948231339
1.16209948231333
1.16209948231314
1.16209948231266
1.16209948231155
1.16209948230911
1.16209948230372
1.16209948229155
1.16209948226246
1.16209948218894
1.16209948199649
1.16209948149153
1.1620994802222
1.16209947709776
1.16209945673629
1.16209945758546
1.16209945795563
1.16209945811363
1.16209945817749
1.16209945820264
1.16209945821247
1.16209945821634
1.16209945821787
1.16209945821846
1.16209945821865
1.16209945821867
1.16209945821862
1.16209945821854
1.16209945821845
1.16209945821837
1.16209945821829
1.16209945821821
1.16209945821814
1.16209945821807
1.16209945821801
1.16209945821795
1.16209945821789
1.16209945821784
1.16209945821778
1.16209945821773
1.16209945821769
1.16209945821765
1.16209945821761
1.16209945821757
1.16209945821754
1.16209945821751
1.16209945821749
1.16209945821748
1.16209945821747
1.16209945821748
1.16209945821748
1.16209945821749
1.16209945821746
1.16209945821737
1.1620994582171
1.16209945821645
1.16209945821493
1.16209945821137
1.16209945820264
1.1620994581801
1.16209945811994
1.16209945795908
1.16209945754711
1.16209945651576
1.16209943199711
1.16209943226712
1.16209943238376
1.16209943243296
1.16209943245256
1.16209943246009
1.16209943246292
1.16209943246393
1.16209943246425
1.16209943246431
1.16209943246426
1.16209943246417
1.16209943246408
1.16209943246398
1.16209943246389
1.16209943246381
1.16209943246373
1.16209943246366
1.16209943246359
1.16209943246353
1.16209943246347
1.16209943246341
1.16209943246336
1.1620994324633
1.16209943246325
1.1620994324632
1.16209943246316
1.16209943246311
1.16209943246307
1.16209943246304
1.16209943246301
1.16209943246298
1.16209943246296
1.16209943246294
1.16209943246294
1.16209943246294
1.16209943246295
1.16209943246297
1.162099432463
1.16209943246302
1.162099432463
1.16209943246289
1.16209943246255
1.16209943246161
1.16209943245914
1.1620994324525
1.16209943243425
1.16209943238444
1.16209943225437
1.16209943192314
1.16209940606106
1.16209940614467
1.16209940618033
1.16209940619515
1.16209940620092
1.16209940620303
1.16209940620373
1.16209940620389
1.16209940620386
1.16209940620377
1.16209940620366
1.16209940620355
1.16209940620345
1.16209940620335
1.16209940620326
1.16209940620318
1.16209940620311
1.16209940620304
1.16209940620298
1.16209940620292
1.16209940620286
1.1620994062028
1.16209940620275
1.1620994062027
1.16209940620265
1.1620994062026
1.16209940620255
1.16209940620251
1.16209940620247
1.16209940620243
1.1620994062024
1.16209940620237
1.16209940620235
1.16209940620233
1.16209940620233
1.16209940620233
1.16209940620234
1.16209940620236
1.1620994062024
1.16209940620245
1.1620994062025
1.16209940620254
1.16209940620253
1.16209940620237
1.16209940620177
1.16209940619994
1.16209940619463
1.16209940617971
1.16209940613986
1.16209940603626
1.16209937975102
1.1620993797762
1.16209937978665
1.16209937979087
1.16209937979243
1.16209937979292
1.162099379793
1.16209937979293
1.16209937979282
1.16209937979269
1.16209937979257
1.16209937979246
1.16209937979237
1.16209937979228
1.16209937979219
1.16209937979212
1.16209937979205
1.16209937979198
1.16209937979192
1.16209937979186
1.16209937979181
1.16209937979175
1.1620993797917
1.16209937979165
1.1620993797916
1.16209937979155
1.16209937979151
1.16209937979147
1.16209937979143
1.16209937979139
1.16209937979136
1.16209937979133
1.1620993797913
1.16209937979129
1.16209937979128
1.16209937979127
1.16209937979128
1.1620993797913
1.16209937979134
1.16209937979139
1.16209937979145
1.16209937979153
1.1620993797916
1.16209937979165
1.16209937979157
1.16209937979116
1.16209937978973
1.1620993797855
1.16209937977377
1.16209937974225
1.1620993533269
1.16209935333421
1.16209935333701
1.16209935333805
1.16209935333837
1.16209935333841
1.16209935333832
1.1620993533382
1.16209935333808
1.16209935333796
1.16209935333784
1.16209935333774
1.16209935333765
1.16209935333757
1.16209935333749
1.16209935333742
1.16209935333736
1.16209935333729
1.16209935333724
1.16209935333718
1.16209935333713
1.16209935333707
1.16209935333702
1.16209935333697
1.16209935333693
1.16209935333688
1.16209935333684
1.16209935333679
1.16209935333675
1.16209935333672
1.16209935333668
1.16209935333665
1.16209935333663
1.16209935333661
1.16209935333659
1.16209935333659
1.16209935333659
1.16209935333661
1.16209935333663
1.16209935333668
1.16209935333673
1.16209935333681
1.16209935333689
1.16209935333698
1.16209935333704
1.16209935333702
1.16209935333671
1.16209935333566
1.1620993533325
1.16209935332322
1.16209932686877
1.16209932687075
1.16209932687128
1.1620993268714
1.16209932687138
1.1620993268713
1.16209932687119
1.16209932687107
1.16209932687096
1.16209932687085
1.16209932687075
1.16209932687066
1.16209932687058
1.1620993268705
1.16209932687043
1.16209932687037
1.16209932687031
1.16209932687025
1.16209932687019
1.16209932687014
1.16209932687009
1.16209932687004
1.16209932686999
1.16209932686994
1.16209932686989
1.16209932686985
1.1620993268698
1.16209932686976
1.16209932686972
1.16209932686969
1.16209932686965
1.16209932686962
1.16209932686959
1.16209932686957
1.16209932686955
1.16209932686954
1.16209932686954
1.16209932686955
1.16209932686957
1.1620993268696
1.16209932686965
1.16209932686971
1.16209932686979
1.16209932686987
1.16209932686995
1.16209932687001
1.16209932687002
1.16209932686988
1.16209932686925
1.16209932686668
1.16209930040071
1.16209930040114
1.16209930040102
1.1620993004009
1.1620993004008
1.16209930040071
1.16209930040061
1.16209930040051
1.16209930040041
1.16209930040032
1.16209930040023
1.16209930040015
1.16209930040008
1.16209930040001
1.16209930039995
1.16209930039989
1.16209930039983
1.16209930039978
1.16209930039973
1.16209930039968
1.16209930039963
1.16209930039958
1.16209930039953
1.16209930039949
1.16209930039944
1.1620993003994
1.16209930039935
1.16209930039931
1.16209930039927
1.16209930039923
1.1620993003992
1.16209930039917
1.16209930039914
1.16209930039911
1.16209930039909
1.16209930039908
1.16209930039907
1.16209930039907
1.16209930039908
1.16209930039911
1.16209930039914
1.16209930039919
1.16209930039924
1.16209930039931
1.16209930039938
1.16209930039945
1.16209930039952
1.16209930039963
1.16209930039972
1.16209930039912
1.16209927392983
1.16209927392982
1.16209927392954
1.16209927392936
1.16209927392925
1.16209927392917
1.1620992739291
1.16209927392902
1.16209927392894
1.16209927392886
1.16209927392879
1.16209927392872
1.16209927392866
1.1620992739286
1.16209927392855
1.16209927392849
1.16209927392844
1.16209927392839
1.16209927392834
1.1620992739283
1.16209927392825
1.1620992739282
1.16209927392816
1.16209927392811
1.16209927392807
1.16209927392803
1.16209927392798
1.16209927392794
1.1620992739279
1.16209927392786
1.16209927392783
1.16209927392779
1.16209927392776
1.16209927392773
1.16209927392771
1.16209927392769
1.16209927392768
1.16209927392767
1.16209927392767
1.16209927392769
1.16209927392771
1.16209927392774
1.16209927392778
1.16209927392782
1.16209927392787
1.16209927392792
1.16209927392799
1.16209927392815
1.16209927392844
1.1620992739284
1.16209924745816
1.16209924745804
1.16209924745772
1.16209924745754
1.16209924745746
1.1620992474574
1.16209924745734
1.16209924745729
1.16209924745723
1.16209924745717
1.16209924745711
1.16209924745706
1.162099247457
1.16209924745695
1.1620992474569
1.16209924745686
1.16209924745681
1.16209924745677
1.16209924745672
1.16209924745668
1.16209924745663
1.16209924745659
1.16209924745654
1.1620992474565
1.16209924745646
1.16209924745641
1.16209924745637
1.16209924745633
1.16209924745629
1.16209924745625
1.16209924745621
1.16209924745618
1.16209924745614
1.16209924745611
1.16209924745608
1.16209924745606
1.16209924745604
1.16209924745603
1.16209924745602
1.16209924745602
1.16209924745603
1.16209924745605
1.16209924745607
1.16209924745609
1.16209924745612
1.16209924745615
1.1620992474562
1.16209924745636
1.16209924745668
1.1620992474568
1.16209922098629
1.16209922098614
1.16209922098582
1.16209922098567
1.1620992209856
1.16209922098557
1.16209922098553
1.1620992209855
1.16209922098546
1.16209922098542
1.16209922098537
1.16209922098533
1.16209922098529
1.16209922098525
1.1620992209852
1.16209922098516
1.16209922098512
1.16209922098508
1.16209922098504
1.162099220985
1.16209922098496
1.16209922098492
1.16209922098487
1.16209922098483
1.16209922098479
1.16209922098475
1.16209922098471
1.16209922098466
1.16209922098462
1.16209922098458
1.16209922098454
1.16209922098451
1.16209922098447
1.16209922098444
1.1620992209844
1.16209922098438
1.16209922098435
1.16209922098433
1.16209922098432
1.1620992209843
1.1620992209843
1.1620992209843
1.1620992209843
1.1620992209843
1.16209922098431
1.16209922098431
1.16209922098435
1.16209922098449
1.16209922098481
1.16209922098496
1.16209919451436
1.16209919451422
1.16209919451392
1.16209919451378
1.16209919451374
1.16209919451373
1.16209919451372
1.1620991945137
1.16209919451368
1.16209919451366
1.16209919451363
1.1620991945136
1.16209919451356
1.16209919451353
1.1620991945135
1.16209919451346
1.16209919451342
1.16209919451339
1.16209919451335
1.16209919451331
1.16209919451327
1.16209919451324
1.16209919451319
1.16209919451315
1.16209919451311
1.16209919451307
1.16209919451303
1.16209919451299
1.16209919451295
1.16209919451291
1.16209919451287
1.16209919451283
1.16209919451279
1.16209919451275
1.16209919451271
1.16209919451268
1.16209919451265
1.16209919451262
1.1620991945126
1.16209919451257
1.16209919451256
1.16209919451254
1.16209919451252
1.16209919451251
1.16209919451249
1.16209919451247
1.16209919451248
1.1620991945126
1.16209919451291
1.16209919451306
1.16209916804243
1.1620991680423
1.16209916804201
1.1620991680419
1.16209916804188
1.1620991680419
1.16209916804191
1.16209916804191
1.16209916804191
1.1620991680419
1.16209916804188
1.16209916804186
1.16209916804184
1.16209916804182
1.16209916804179
1.16209916804176
1.16209916804173
1.1620991680417
1.16209916804166
1.16209916804163
1.16209916804159
1.16209916804156
1.16209916804152
1.16209916804148
1.16209916804144
1.1620991680414
1.16209916804136
1.16209916804131
1.16209916804127
1.16209916804123
1.16209916804119
1.16209916804115
1.16209916804111
1.16209916804107
1.16209916804103
1.16209916804099
1.16209916804095
1.16209916804091
1.16209916804088
1.16209916804085
1.16209916804082
1.16209916804078
1.16209916804075
1.16209916804072
1.16209916804068
1.16209916804064
1.16209916804062
1.16209916804071
1.162099168041
1.16209916804115
1.1620991415705
1.16209914157038
1.16209914157011
1.16209914157003
1.16209914157004
1.16209914157007
1.1620991415701
1.16209914157013
1.16209914157014
1.16209914157015
1.16209914157014
1.16209914157014
1.16209914157012
1.16209914157011
1.16209914157009
1.16209914157007
1.16209914157004
1.16209914157001
1.16209914156998
1.16209914156995
1.16209914156992
1.16209914156988
1.16209914156985
1.16209914156981
1.16209914156977
1.16209914156973
1.16209914156969
1.16209914156965
1.1620991415696
1.16209914156956
1.16209914156952
1.16209914156947
1.16209914156943
1.16209914156939
1.16209914156934
1.1620991415693
1.16209914156926
1.16209914156921
1.16209914156917
1.16209914156913
1.16209914156908
1.16209914156903
1.16209914156899
1.16209914156893
1.16209914156887
1.16209914156881
1.16209914156877
1.16209914156883
1.1620991415691
1.16209914156923
1.16209911509856
1.16209911509846
1.16209911509822
1.16209911509816
1.1620991150982
1.16209911509826
1.16209911509831
1.16209911509835
1.16209911509838
1.1620991150984
1.16209911509841
1.16209911509842
1.16209911509841
1.1620991150984
1.16209911509839
1.16209911509838
1.16209911509836
1.16209911509833
1.16209911509831
1.16209911509828
1.16209911509825
1.16209911509821
1.16209911509818
1.16209911509814
1.1620991150981
1.16209911509807
1.16209911509802
1.16209911509798
1.16209911509794
1.1620991150979
1.16209911509785
1.16209911509781
1.16209911509776
1.16209911509771
1.16209911509766
1.16209911509762
1.16209911509757
1.16209911509752
1.16209911509746
1.16209911509741
1.16209911509735
1.16209911509729
1.16209911509723
1.16209911509715
1.16209911509707
1.16209911509698
1.16209911509692
1.16209911509696
1.16209911509721
1.16209911509732
1.16209908862663
1.16209908862655
1.16209908862633
1.16209908862631
1.16209908862636
1.16209908862645
1.16209908862652
1.16209908862658
1.16209908862663
1.16209908862666
1.16209908862669
1.1620990886267
1.16209908862671
1.16209908862671
1.1620990886267
1.16209908862669
1.16209908862668
1.16209908862666
1.16209908862664
1.16209908862661
1.16209908862658
1.16209908862655
1.16209908862652
1.16209908862648
1.16209908862645
1.16209908862641
1.16209908862637
1.16209908862632
1.16209908862628
1.16209908862624
1.16209908862619
1.16209908862614
1.16209908862609
1.16209908862604
1.16209908862599
1.16209908862594