/*--------------------------------*- C++ -*----------------------------------*\
  =========                 |
  \\      /  F ield         | OpenFOAM: The Open Source CFD Toolbox
   \\    /   O peration     | Website:  https://openfoam.org
    \\  /    A nd           | Version:  10
     \\/     M anipulation  |
\*---------------------------------------------------------------------------*/
FoamFile
{
    format      ascii;
    class       volScalarField;
    location    "6.2";
    object      T;
}
// * * * * * * * * * * * * * * * * * * * * * * * * * * * * * * * * * * * * * //

dimensions      [0 0 0 1 0 0 0];

internalField   nonuniform List<scalar> 
2500
(
304.580869517457
304.573905557695
304.560664877721
304.551435054348
304.546009608023
304.543007864966
304.541403865696
304.540575124876
304.540163829946
304.539969572058
304.539880736009
304.539842097895
304.539825951276
304.539818850372
304.539815535814
304.539813560612
304.539812645928
304.539811797756
304.539810929746
304.539810328544
304.539809820504
304.539809382904
304.539809023663
304.539808800951
304.539808573595
304.539808382206
304.539808311834
304.539808285878
304.539808317976
304.539808422699
304.539808608414
304.539808955432
304.539809382902
304.539809975056
304.539810849489
304.539812414982
304.539815690246
304.539822995204
304.539840844236
304.539881742986
304.539973853028
304.540173691424
304.540589501514
304.541419079356
304.543016729809
304.545997710112
304.551407393133
304.560680521569
304.574034607791
304.580751893364
303.600995663313
303.567073021734
303.529030246291
303.502910630898
303.487132484948
303.478089119553
303.473070546502
303.470379562045
303.468995175317
303.468315606832
303.467997238902
303.467855204322
303.467794753892
303.467769861018
303.467759828167
303.467755680914
303.467754020917
303.467753132627
303.467752483206
303.467752037474
303.467751667226
303.467751335247
303.467751055666
303.467750867407
303.467750699685
303.467750556431
303.467750485281
303.467750443005
303.467750426723
303.467750466139
303.467750567405
303.467750792375
303.467751246795
303.467752118699
303.46775393634
303.467758345184
303.467769395473
303.467796600914
303.467861889604
303.468011672987
303.46834131104
303.46903509744
303.470430883097
303.473120469448
303.478111910918
303.487099772123
303.502852354583
303.529133712776
303.567582402596
303.600633727372
302.620064557475
302.563618445021
302.510685519577
302.475457214599
302.45436659994
302.442324332179
302.435650608997
302.432070063445
302.430223953847
302.429314309956
302.42888675393
302.428695291392
302.428613558082
302.428580106
302.428566898478
302.428561784777
302.428559866394
302.428559052011
302.428558598985
302.42855831388
302.428558080085
302.428557857803
302.428557661771
302.428557526014
302.428557416512
302.428557321395
302.42855726614
302.428557223554
302.428557185582
302.428557176727
302.428557205649
302.428557334904
302.428557758361
302.428558712926
302.428560900359
302.428566552688
302.428581138899
302.42861750996
302.428704817635
302.428905320638
302.429345968572
302.430271557637
302.432130351087
302.435708692898
302.44235134866
302.454339087379
302.475441285509
302.510981861596
302.564681369444
302.620600914403
301.767093918041
301.702080141544
301.648818883397
301.614742359789
301.594958234729
301.583975063378
301.578038250773
301.574918618905
301.5733368533
301.572567754694
301.572210197352
301.572051516947
301.571984312627
301.571957063163
301.571946449843
301.571942456997
301.571941020343
301.571940476556
301.571940222307
301.571940076071
301.571939953332
301.571939823082
301.571939698611
301.571939611356
301.571939547914
301.571939492162
301.571939456133
301.571939422194
301.571939382184
301.571939358812
301.571939346361
301.571939363745
301.571939645277
301.571940363706
301.571942002667
301.571946376416
301.571957909591
301.571987104688
301.572058014431
301.572222842661
301.572589588147
301.573370380725
301.574962588115
301.578083556257
301.584003889407
301.594965332159
301.614821892632
301.64932512341
301.703615326789
301.768983375896
301.10801270635
301.047860284779
301.003286022529
300.975863078867
300.960447352906
300.952138323169
300.947761158928
300.945508188799
300.944383666267
300.943843171956
300.943594011312
300.943484114557
300.943437793513
300.943419107578
300.943411889273
300.943409227446
300.943408307565
300.943407994393
300.943407873982
300.943407816911
300.943407768012
300.943407703666
300.943407632795
300.943407582674
300.943407551199
300.943407523387
300.943407503253
300.943407480204
300.943407448107
300.943407421902
300.943407392107
300.943407356831
300.943407516185
300.943407973484
300.943409016081
300.943411882746
300.943419566986
300.943439230802
300.943487420023
300.943600460504
300.943854456766
300.94440138341
300.945532141211
300.947787095535
300.95215854067
300.960470183444
300.975989920941
301.003866361243
301.049563988335
301.110845055714
300.648342941514
300.600820607323
300.568325759691
300.549064919829
300.538573634387
300.533079760853
300.530257124583
300.528832556108
300.528131552895
300.52779785876
300.527644984124
300.527577809739
300.527549563157
300.527538196253
300.5275338289
300.527532244097
300.527531718773
300.527531558972
300.527531512096
300.527531501777
300.527531494093
300.527531470348
300.527531434549
300.527531409046
300.527531396871
300.527531385788
300.527531376083
300.527531362341
300.527531340536
300.527531318208
300.527531287138
300.527531240268
300.527531317045
300.527531571251
300.527532160487
300.527533837059
300.527538390549
300.52755013217
300.527579094237
300.527647475709
300.527802256777
300.528138587869
300.528842207591
300.530267578167
300.533088602428
300.538593375127
300.549183982602
300.568842791451
300.60237177412
300.651382477161
300.355507534101
300.322366926492
300.301183133957
300.289057243615
300.282647754778
300.279382575358
300.277744662085
300.276933209572
300.27653902284
300.276352888415
300.276267991688
300.276230758983
300.276215111888
300.276208819578
300.276206411157
300.276205548805
300.276205273308
300.276205206327
300.276205200513
300.276205201273
300.276205204939
300.27620520295
300.276205187406
300.276205176384
300.276205174344
300.276205171357
300.276205167344
300.276205160154
300.27620514698
300.276205130864
300.276205106264
300.27620506765
300.276205097226
300.276205221596
300.276205525059
300.276206423203
300.276208887601
300.276215274119
300.276231097116
300.276268616599
300.276353979167
300.27654077341
300.276935471044
300.277746460762
300.279383150863
300.282657443292
300.289141185864
300.301566502449
300.323574777692
300.358158024218
300.183454601154
300.162616741235
300.150047420475
300.14308306831
300.139504563361
300.137728449659
300.136857576771
300.136433651063
300.136230136869
300.136134689976
300.136091287793
300.136072262702
300.136064261448
300.13606104237
300.13605981389
300.136059379282
300.136059249197
300.136059227064
300.136059231512
300.136059237374
300.136059241348
300.136059243006
300.136059238874
300.136059235674
300.136059237694
300.1360592376
300.136059236185
300.136059232804
300.136059225474
300.136059215169
300.136059198829
300.136059174693
300.136059179343
300.136059231401
300.136059378859
300.136059826597
300.136061064464
300.136064281841
300.136072274383
300.136091270839
300.136134628304
300.13622999426
300.136433181014
300.136856040216
300.137725220261
300.139505899034
300.143130674109
300.150293238595
300.163444102937
300.185440834457
300.089465776837
300.077473957948
300.070597179644
300.066900946902
300.065051468272
300.064155776064
300.063726030048
300.063520319563
300.063422644877
300.06337710297
300.063356434132
300.063347368803
300.063343549714
300.063342011393
300.063341425785
300.063341221001
300.063341165126
300.06334116044
300.063341165399
300.063341170974
300.063341174162
300.063341176022
300.063341176195
300.063341176634
300.063341178487
300.063341179233
300.063341178864
300.063341177132
300.063341173286
300.063341167291
300.063341157678
300.063341144664
300.06334114236
300.063341161209
300.063341227323
300.063341436988
300.063342020433
300.063343539135
300.063347316157
300.063356299024
300.063376830567
300.063422145853
300.06351934953
300.063723981335
300.064151910188
300.065048687282
300.066922915923
300.070736785842
300.077982670976
300.090786055841
300.041396149165
300.035008097799
300.031503690034
300.029672765151
300.02877915022
300.028356260937
300.028157521327
300.02806391158
300.028019924107
300.027999519212
300.027990268999
300.027986206182
300.027984490433
300.027983798216
300.027983535323
300.027983444974
300.027983422515
300.027983422523
300.027983426353
300.027983430225
300.02798343277
300.02798343439
300.027983435127
300.027983435979
300.02798343724
300.02798343795
300.02798343787
300.02798343698
300.027983435071
300.027983431846
300.02798342668
300.027983419981
300.027983417416
300.027983423401
300.027983450825
300.027983543717
300.027983803862
300.027984481439
300.027986166222
300.027990169617
300.02799931831
300.028019548403
300.028063175762
300.028155970294
300.028353192825
300.028775510197
300.029680618362
300.03157503037
300.035293141027
300.042190768419
300.018241173815
300.015063004756
300.013386017441
300.012532751427
300.012125908978
300.011937518969
300.011850717627
300.011810465509
300.011791738556
300.011783091326
300.011779173243
300.011777448912
300.011776718595
300.011776423407
300.01177631156
300.01177627396
300.011776265492
300.011776266291
300.011776268665
300.011776270948
300.011776272563
300.011776273631
300.011776274254
300.011776274909
300.011776275636
300.011776276086
300.011776276069
300.011776275631
300.011776274724
300.011776273104
300.011776270528
300.01177626727
300.011776265691
300.011776267228
300.011776277895
300.011776317057
300.011776427483
300.011776715185
300.011777429551
300.011779123279
300.011782987626
300.011791536467
300.011810047028
300.011849781643
300.011935526996
300.012122946626
300.012534394461
300.013419158399
300.015210267271
300.018680553696
300.007681217295
300.006193703798
300.005435078506
300.005058500739
300.004882836072
300.004803142482
300.004767110451
300.00475065236
300.004743068979
300.004739582088
300.004738002266
300.004737305293
300.004737009143
300.004736889208
300.004736843865
300.00473682897
300.004736825979
300.004736826642
300.004736827927
300.004736829131
300.004736830017
300.004736830621
300.004736831017
300.00473683141
300.004736831783
300.004736832019
300.004736832016
300.004736831811
300.004736831393
300.004736830626
300.004736829422
300.004736827923
300.004736827129
300.004736827385
300.004736831314
300.004736847083
300.004736891943
300.004737008851
300.004737298433
300.00473798271
300.004739539439
300.004742980277
300.004750451445
300.004766619372
300.004802009644
300.004880891493
300.005058090343
300.005449155735
300.006264507447
300.007906885565
300.003100739325
300.002441809944
300.002115583173
300.001957325497
300.001885003353
300.001852819404
300.001838527895
300.001832095286
300.001829159151
300.001827814444
300.001827205038
300.001826935447
300.0018268205
300.001826773857
300.001826756265
300.001826750617
300.001826749626
300.001826750022
300.001826750652
300.001826751234
300.001826751674
300.001826751981
300.001826752196
300.0018267524
300.001826752576
300.001826752684
300.001826752684
300.001826752594
300.001826752407
300.001826752063
300.001826751531
300.001826750875
300.001826750485
300.001826750467
300.001826751882
300.001826757968
300.001826775488
300.001826821161
300.001826933926
300.001827199233
300.001827800403
300.001829126415
300.001832010261
300.001838295066
300.00185223586
300.001883890843
300.001956581735
300.002121057507
300.002473730724
300.003209327696
300.001203415137
300.000925748158
300.000791769133
300.000728144299
300.000699622827
300.000687158524
300.000681717797
300.000679303573
300.000678211741
300.000677713592
300.000677487731
300.00067738752
300.00067734464
300.000677327206
300.000677320646
300.000677318595
300.000677318288
300.000677318481
300.000677318766
300.000677319028
300.000677319229
300.000677319373
300.000677319477
300.000677319573
300.00067731965
300.000677319696
300.000677319696
300.000677319657
300.000677319577
300.00067731943
300.000677319208
300.000677318934
300.000677318754
300.000677318711
300.000677319207
300.000677321472
300.000677328077
300.000677345299
300.00067738765
300.000677486783
300.000677710309
300.000678201795
300.00067927122
300.000681615785
300.000686880702
300.00069904758
300.000727581217
300.000793708639
300.000939326256
300.001252709268
300.000450224102
300.000338431753
300.000285672057
300.000261105125
300.000250288812
300.000245641667
300.000243645901
300.000242772425
300.000242380952
300.000242202997
300.000242122263
300.000242086333
300.000242070903
300.000242064616
300.000242062256
300.000242061535
300.000242061445
300.000242061531
300.000242061651
300.000242061762
300.000242061848
300.00024206191
300.000242061956
300.000242061997
300.000242062029
300.000242062047
300.000242062047
300.000242062031
300.000242061998
300.000242061939
300.00024206185
300.000242061742
300.000242061665
300.000242061639
300.00024206181
300.000242062626
300.000242065038
300.000242071326
300.000242086718
300.000242122543
300.000242202864
300.000242378753
300.000242761254
300.000243603955
300.000245517722
300.000250014236
300.000260773671
300.000286288341
300.000343909416
300.000471456535
300.00016276193
300.000119595915
300.000099606951
300.000090465816
300.0000865081
300.000084834567
300.000084126805
300.000083821113
300.000083685312
300.000083623799
300.000083595873
300.000083583405
300.00008357803
300.000083575835
300.000083575012
300.000083574765
300.000083574739
300.000083574774
300.000083574821
300.000083574864
300.000083574898
300.000083574924
300.000083574942
300.000083574959
300.000083574971
300.000083574977
300.000083574977
300.000083574971
300.000083574958
300.000083574936
300.000083574902
300.000083574861
300.000083574831
300.000083574819
300.000083574878
300.000083575165
300.000083576021
300.000083578251
300.000083583681
300.00008359624
300.000083624222
300.0000836852
300.000083817603
300.000084110423
300.000084782224
300.000086385419
300.000090295952
300.000099775481
300.000121700801
300.000171481497
300.000056982901
300.000040945109
300.000033637566
300.000030350334
300.000028949079
300.000028365293
300.000028121936
300.000028018145
300.000027972429
300.000027951792
300.000027942415
300.000027938214
300.000027936395
300.00002793565
300.000027935369
300.000027935285
300.000027935277
300.000027935289
300.000027935306
300.000027935321
300.000027935334
300.000027935343
300.000027935349
300.000027935355
300.000027935359
300.000027935362
300.000027935362
300.000027935359
300.000027935355
300.000027935347
300.000027935335
300.000027935321
300.00002793531
300.000027935306
300.000027935327
300.000027935426
300.000027935723
300.000027936494
300.000027938358
300.000027942641
300.000027952119
300.000027972657
300.000028017142
300.000028115797
300.000028344203
300.000028897257
300.000030271161
300.000033672352
300.000041718386
300.000060411138
300.000019358867
300.000013608742
300.000011024413
300.0000098791
300.000009397847
300.000009200097
300.000009118765
300.000009084487
300.000009069511
300.000009062772
300.000009059706
300.000009058327
300.000009057726
300.000009057478
300.000009057384
300.000009057354
300.000009057349
300.000009057352
300.000009057357
300.000009057362
300.000009057365
300.000009057368
300.000009057369
300.000009057371
300.000009057372
300.000009057373
300.000009057373
300.000009057372
300.00000905737
300.000009057368
300.000009057364
300.00000905736
300.000009057357
300.000009057357
300.000009057365
300.000009057401
300.000009057502
300.000009057763
300.000009058389
300.000009059814
300.000009062943
300.000009069681
300.000009084226
300.000009116536
300.000009191938
300.000009376996
300.000009844776
300.000011026221
300.000013881182
300.000020653877
300.000006393922
300.000004399344
300.000003513254
300.000003125807
300.000002965134
300.000002899949
300.000002873469
300.000002862432
300.000002857646
300.000002855497
300.000002854516
300.000002854072
300.000002853876
300.000002853794
300.000002853761
300.000002853749
300.000002853746
300.000002853745
300.000002853745
300.000002853746
300.000002853746
300.000002853746
300.000002853746
300.000002853746
300.000002853746
300.000002853746
300.000002853746
300.000002853745
300.000002853745
300.000002853745
300.000002853744
300.000002853744
300.000002853744
300.000002853745
300.000002853749
300.000002853763
300.000002853798
300.000002853886
300.000002854093
300.000002854558
300.000002855569
300.000002857728
300.000002862367
300.000002872677
300.0000028969
300.000002957094
300.000003111776
300.000003509956
300.00000449164
300.000006865384
300.0000020567
300.000001385815
300.000001090707
300.000000963216
300.000000910975
300.000000890025
300.00000088161
300.000000878137
300.000000876639
300.000000875966
300.000000875657
300.000000875515
300.00000087545
300.000000875422
300.000000875408
300.000000875402
300.000000875399
300.000000875397
300.000000875396
300.000000875394
300.000000875393
300.000000875392
300.000000875392
300.000000875391
300.000000875391
300.00000087539
300.00000087539
300.00000087539
300.000000875391
300.000000875391
300.000000875392
300.000000875392
300.000000875393
300.000000875395
300.000000875398
300.000000875405
300.000000875418
300.000000875449
300.000000875518
300.000000875668
300.00000087599
300.000000876668
300.000000878116
300.000000881329
300.000000888918
300.000000907989
300.000000957758
300.000001088204
300.000001415948
300.000002222572
300.000000645465
300.000000426221
300.000000330612
300.000000289751
300.000000273185
300.000000266609
300.000000263993
300.00000026292
300.000000262459
300.00000026225
300.000000262151
300.000000262104
300.000000262081
300.000000262069
300.000000262062
300.000000262058
300.000000262055
300.000000262052
300.00000026205
300.000000262048
300.000000262047
300.000000262045
300.000000262044
300.000000262044
300.000000262043
300.000000262043
300.000000262043
300.000000262043
300.000000262043
300.000000262044
300.000000262045
300.000000262046
300.000000262047
300.000000262049
300.000000262052
300.000000262056
300.000000262063
300.000000262075
300.000000262099
300.000000262149
300.000000262252
300.000000262463
300.000000262908
300.00000026389
300.000000266214
300.00000027211
300.000000287716
300.000000329315
300.000000435719
300.000000701996
300.000000198091
300.000000128365
300.000000098213
300.000000085452
300.000000080324
300.000000078306
300.000000077507
300.000000077179
300.000000077037
300.00000007697
300.000000076936
300.000000076918
300.000000076908
300.000000076901
300.000000076896
300.000000076892
300.000000076889
300.000000076887
300.000000076884
300.000000076882
300.000000076881
300.000000076879
300.000000076878
300.000000076877
300.000000076877
300.000000076876
300.000000076876
300.000000076876
300.000000076877
300.000000076878
300.000000076879
300.00000007688
300.000000076882
300.000000076884
300.000000076886
300.00000007689
300.000000076894
300.0000000769
300.000000076911
300.000000076929
300.000000076964
300.000000077031
300.000000077168
300.000000077465
300.000000078163
300.000000079946
300.00000008472
300.000000097641
300.000000131258
300.000000216792
300.000000059703
300.000000038103
300.000000028863
300.000000024988
300.000000023441
300.000000022833
300.000000022592
300.00000002249
300.000000022444
300.00000002242
300.000000022406
300.000000022397
300.00000002239
300.000000022385
300.000000022381
300.000000022377
300.000000022374
300.000000022371
300.000000022369
300.000000022367
300.000000022365
300.000000022364
300.000000022362
300.000000022362
300.000000022361
300.000000022361
300.000000022361
300.000000022361
300.000000022361
300.000000022362
300.000000022363
300.000000022364
300.000000022366
300.000000022368
300.000000022371
300.000000022374
300.000000022378
300.000000022382
300.000000022388
300.000000022397
300.000000022411
300.000000022435
300.000000022479
300.00000002257
300.000000022778
300.000000023307
300.000000024732
300.000000028633
300.000000038955
300.000000065718
300.000000017873
300.000000011361
300.000000008636
300.000000007506
300.000000007053
300.000000006873
300.000000006799
300.000000006765
300.000000006747
300.000000006736
300.000000006728
300.000000006721
300.000000006716
300.000000006711
300.000000006707
300.000000006703
300.0000000067
300.000000006697
300.000000006695
300.000000006693
300.000000006691
300.00000000669
300.000000006688
300.000000006688
300.000000006687
300.000000006687
300.000000006687
300.000000006687
300.000000006687
300.000000006688
300.000000006689
300.000000006691
300.000000006692
300.000000006694
300.000000006697
300.0000000067
300.000000006703
300.000000006707
300.000000006712
300.000000006718
300.000000006726
300.000000006737
300.000000006754
300.000000006784
300.000000006848
300.000000007003
300.000000007416
300.000000008549
300.000000011602
300.000000019755
300.000000005502
300.000000003606
300.000000002863
300.000000002561
300.000000002436
300.000000002383
300.000000002358
300.000000002344
300.000000002334
300.000000002326
300.00000000232
300.000000002314
300.000000002309
300.000000002304
300.0000000023
300.000000002297
300.000000002294
300.000000002291
300.000000002288
300.000000002286
300.000000002285
300.000000002283
300.000000002282
300.000000002281
300.000000002281
300.00000000228
300.00000000228
300.00000000228
300.000000002281
300.000000002282
300.000000002283
300.000000002284
300.000000002286
300.000000002288
300.000000002291
300.000000002293
300.000000002297
300.000000002301
300.000000002305
300.00000000231
300.000000002316
300.000000002324
300.000000002333
300.000000002345
300.000000002368
300.000000002414
300.000000002528
300.000000002831
300.00000000367
300.000000006074
300.000000001919
300.000000001402
300.000000001249
300.000000001191
300.000000001163
300.000000001146
300.000000001136
300.000000001127
300.000000001119
300.000000001113
300.000000001107
300.000000001101
300.000000001096
300.000000001092
300.000000001088
300.000000001084
300.000000001081
300.000000001078
300.000000001076
300.000000001074
300.000000001072
300.00000000107
300.000000001069
300.000000001068
300.000000001068
300.000000001068
300.000000001067
300.000000001068
300.000000001068
300.000000001069
300.00000000107
300.000000001071
300.000000001073
300.000000001075
300.000000001078
300.000000001081
300.000000001084
300.000000001088
300.000000001092
300.000000001097
300.000000001103
300.000000001109
300.000000001116
300.000000001124
300.000000001134
300.00000000115
300.000000001178
300.000000001237
300.000000001416
300.000000002085
300.000000000901
300.000000000788
300.000000000806
300.00000000082
300.000000000818
300.000000000813
300.000000000806
300.000000000798
300.000000000792
300.000000000785
300.000000000779
300.000000000774
300.000000000769
300.000000000764
300.00000000076
300.000000000757
300.000000000754
300.000000000751
300.000000000749
300.000000000747
300.000000000745
300.000000000743
300.000000000742
300.000000000741
300.000000000741
300.00000000074
300.00000000074
300.000000000741
300.000000000741
300.000000000742
300.000000000743
300.000000000744
300.000000000746
300.000000000748
300.000000000751
300.000000000754
300.000000000757
300.000000000761
300.000000000765
300.00000000077
300.000000000775
300.000000000781
300.000000000787
300.000000000794
300.000000000801
300.000000000808
300.000000000812
300.000000000801
300.000000000789
300.000000000946
300.000000000619
300.000000000621
300.000000000688
300.000000000721
300.000000000727
300.000000000724
300.000000000718
300.000000000711
300.000000000705
300.000000000698
300.000000000692
300.000000000687
300.000000000682
300.000000000678
300.000000000674
300.00000000067
300.000000000667
300.000000000664
300.000000000662
300.00000000066
300.000000000658
300.000000000657
300.000000000656
300.000000000655
300.000000000654
300.000000000654
300.000000000654
300.000000000654
300.000000000654
300.000000000655
300.000000000656
300.000000000658
300.000000000659
300.000000000662
300.000000000664
300.000000000667
300.00000000067
300.000000000674
300.000000000678
300.000000000683
300.000000000689
300.000000000694
300.0000000007
300.000000000707
300.000000000713
300.000000000718
300.000000000715
300.000000000686
300.000000000619
300.000000000627
300.000000000543
300.000000000577
300.000000000658
300.000000000696
300.000000000704
300.000000000701
300.000000000695
300.000000000688
300.000000000682
300.000000000675
300.000000000669
300.000000000664
300.000000000659
300.000000000654
300.000000000651
300.000000000647
300.000000000644
300.000000000641
300.000000000639
300.000000000637
300.000000000635
300.000000000634
300.000000000633
300.000000000632
300.000000000631
300.000000000631
300.000000000631
300.000000000631
300.000000000632
300.000000000632
300.000000000634
300.000000000635
300.000000000637
300.000000000639
300.000000000641
300.000000000644
300.000000000647
300.000000000651
300.000000000656
300.00000000066
300.000000000666
300.000000000671
300.000000000678
300.000000000684
300.000000000691
300.000000000695
300.000000000691
300.000000000656
300.000000000575
300.000000000541
300.000000000524
300.000000000567
300.000000000651
300.00000000069
300.000000000698
300.000000000695
300.000000000689
300.000000000682
300.000000000675
300.000000000669
300.000000000663
300.000000000657
300.000000000652
300.000000000648
300.000000000644
300.000000000641
300.000000000638
300.000000000635
300.000000000633
300.000000000631
300.000000000629
300.000000000628
300.000000000627
300.000000000626
300.000000000625
300.000000000625
300.000000000625
300.000000000625
300.000000000626
300.000000000626
300.000000000627
300.000000000629
300.00000000063
300.000000000632
300.000000000635
300.000000000638
300.000000000641
300.000000000645
300.000000000649
300.000000000654
300.000000000659
300.000000000665
300.000000000672
300.000000000678
300.000000000685
300.00000000069
300.000000000686
300.00000000065
300.000000000565
300.000000000519
300.000000000521
300.000000000567
300.000000000651
300.00000000069
300.000000000697
300.000000000694
300.000000000687
300.00000000068
300.000000000673
300.000000000666
300.00000000066
300.000000000655
300.00000000065
300.000000000646
300.000000000642
300.000000000638
300.000000000635
300.000000000633
300.000000000631
300.000000000629
300.000000000627
300.000000000626
300.000000000625
300.000000000624
300.000000000623
300.000000000623
300.000000000623
300.000000000623
300.000000000624
300.000000000624
300.000000000625
300.000000000627
300.000000000628
300.00000000063
300.000000000633
300.000000000636
300.000000000639
300.000000000643
300.000000000647
300.000000000652
300.000000000657
300.000000000663
300.00000000067
300.000000000677
300.000000000684
300.000000000689
300.000000000686
300.000000000651
300.000000000565
300.000000000516
300.000000000523
300.000000000569
300.000000000653
300.000000000691
300.000000000697
300.000000000693
300.000000000686
300.000000000679
300.000000000671
300.000000000665
300.000000000659
300.000000000653
300.000000000648
300.000000000644
300.00000000064
300.000000000637
300.000000000634
300.000000000631
300.000000000629
300.000000000627
300.000000000626
300.000000000625
300.000000000624
300.000000000623
300.000000000622
300.000000000622
300.000000000622
300.000000000622
300.000000000623
300.000000000623
300.000000000624
300.000000000626
300.000000000627
300.000000000629
300.000000000632
300.000000000634
300.000000000638
300.000000000641
300.000000000646
300.00000000065
300.000000000656
300.000000000662
300.000000000669
300.000000000676
300.000000000684
300.00000000069
300.000000000687
300.000000000653
300.000000000567
300.000000000518
300.000000000526
300.000000000573
300.000000000656
300.000000000692
300.000000000698
300.000000000693
300.000000000685
300.000000000678
300.00000000067
300.000000000663
300.000000000657
300.000000000652
300.000000000647
300.000000000643
300.000000000639
300.000000000636
300.000000000633
300.00000000063
300.000000000628
300.000000000626
300.000000000625
300.000000000624
300.000000000623
300.000000000622
300.000000000621
300.000000000621
300.000000000621
300.000000000621
300.000000000622
300.000000000622
300.000000000623
300.000000000625
300.000000000626
300.000000000628
300.000000000631
300.000000000633
300.000000000636
300.00000000064
300.000000000644
300.000000000649
300.000000000655
300.000000000661
300.000000000668
300.000000000676
300.000000000684
300.00000000069
300.000000000689
300.000000000656
300.000000000571
300.000000000521
300.000000000531
300.000000000578
300.000000000659
300.000000000694
300.000000000698
300.000000000693
300.000000000684
300.000000000676
300.000000000668
300.000000000661
300.000000000655
300.00000000065
300.000000000645
300.000000000641
300.000000000637
300.000000000634
300.000000000631
300.000000000629
300.000000000627
300.000000000625
300.000000000624
300.000000000622
300.000000000622
300.000000000621
300.00000000062
300.00000000062
300.00000000062
300.00000000062
300.000000000621
300.000000000621
300.000000000622
300.000000000624
300.000000000625
300.000000000627
300.000000000629
300.000000000632
300.000000000635
300.000000000639
300.000000000643
300.000000000648
300.000000000653
300.00000000066
300.000000000667
300.000000000675
300.000000000684
300.000000000691
300.000000000691
300.000000000659
300.000000000576
300.000000000526
300.000000000537
300.000000000583
300.000000000663
300.000000000696
300.000000000699
300.000000000692
300.000000000683
300.000000000674
300.000000000666
300.000000000659
300.000000000653
300.000000000648
300.000000000643
300.000000000639
300.000000000636
300.000000000632
300.00000000063
300.000000000627
300.000000000626
300.000000000624
300.000000000622
300.000000000621
300.00000000062
300.00000000062
300.000000000619
300.000000000619
300.000000000619
300.000000000619
300.00000000062
300.00000000062
300.000000000621
300.000000000622
300.000000000624
300.000000000626
300.000000000628