/*--------------------------------*- C++ -*----------------------------------*\
  =========                 |
  \\      /  F ield         | OpenFOAM: The Open Source CFD Toolbox
   \\    /   O peration     | Website:  https://openfoam.org
    \\  /    A nd           | Version:  10
     \\/     M anipulation  |
\*---------------------------------------------------------------------------*/
FoamFile
{
    format      ascii;
    class       volVectorField;
    location    "6.2";
    object      U;
}
// * * * * * * * * * * * * * * * * * * * * * * * * * * * * * * * * * * * * * //

dimensions      [0 1 -1 0 0 0 0];

internalField   nonuniform List<vector> 
2500
(
(-1.48061575311609e-06 -2.80190018117105e-06 5.16758576764022e-25)
(-3.57977214930137e-06 -3.75552163956151e-06 4.3096201388939e-24)
(-3.47723692740546e-06 -4.02906402672037e-06 7.18859127244015e-25)
(-2.72418301325046e-06 -4.12744135258463e-06 3.39101176215858e-25)
(-1.84969140603869e-06 -4.12035985335466e-06 9.72305356086408e-26)
(-1.22074306697494e-06 -4.09124964537987e-06 -6.42715192949846e-25)
(-7.89279677495882e-07 -4.06139157320702e-06 -8.45886781948302e-26)
(-5.15997986643392e-07 -4.03916415181606e-06 -8.07514667517419e-26)
(-3.41322805407226e-07 -4.02389958607552e-06 -2.91025553800546e-25)
(-2.29307161966565e-07 -4.01419096412194e-06 4.81394734804851e-24)
(-1.55896488943291e-07 -4.0083570768924e-06 2.58849036940666e-24)
(-1.06204355211594e-07 -4.00498531609804e-06 5.55010226979111e-24)
(-7.14532953098625e-08 -4.00308710227362e-06 6.28123271561982e-24)
(-4.62668716006641e-08 -4.00204071743724e-06 1.99505744846376e-24)
(-2.74272867711029e-08 -4.00145116254945e-06 4.88714199747503e-24)
(-1.29607841333149e-08 -4.00111570137428e-06 1.52373066801621e-24)
(-1.62336735498454e-09 -4.00091573902299e-06 6.2326086319438e-24)
(7.39927201645326e-09 -4.0007963610165e-06 5.72343847902316e-24)
(1.46672693947994e-08 -4.00072100825836e-06 1.38523721619297e-24)
(2.05782276348208e-08 -4.00067964539454e-06 5.46757714005408e-24)
(2.543031748733e-08 -4.00065035269209e-06 5.01595766047521e-25)
(2.94596127342273e-08 -4.00063967140865e-06 -1.60624771829334e-25)
(3.28567653244816e-08 -4.00063709228046e-06 5.99799936920665e-24)
(3.57808692599411e-08 -4.00064224365648e-06 6.79647765793674e-25)
(3.83713079346494e-08 -4.00065218856782e-06 1.63593687571854e-26)
(4.07654783621858e-08 -4.00066533772862e-06 5.00841891982923e-24)
(4.30940360561141e-08 -4.00068715819472e-06 1.78596840871811e-25)
(4.54786605371891e-08 -4.00071516842448e-06 1.35911798841947e-24)
(4.80642905940649e-08 -4.0007469551795e-06 4.8764303127388e-24)
(5.10079920282738e-08 -4.00079197449786e-06 -1.958672479721e-25)
(5.44866681054088e-08 -4.00084675770623e-06 4.61457050851916e-25)
(5.87324217553512e-08 -4.00092097344851e-06 -7.62228543930308e-25)
(6.40292119798304e-08 -4.00102446603921e-06 9.59501193499968e-25)
(7.07638308719198e-08 -4.00116925234383e-06 1.01653330658176e-24)
(7.94868887267023e-08 -4.00139958340502e-06 -1.63913798550366e-25)
(9.10172571280378e-08 -4.0017664291303e-06 5.23163661492502e-24)
(1.06603892445701e-07 -4.00239327089489e-06 -4.15732156154005e-24)
(1.2822832419568e-07 -4.00348084584784e-06 -5.55444846348964e-25)
(1.59107915661424e-07 -4.00541918067408e-06 -3.09357977878081e-26)
(2.04639866383569e-07 -4.00883173539584e-06 -3.06229204643351e-24)
(2.7358615382277e-07 -4.01466615935684e-06 -7.09610545967062e-24)
(3.80860628508979e-07 -4.02431417256752e-06 -7.78440065934866e-24)
(5.50424110883061e-07 -4.03942640392854e-06 -3.82143963756931e-24)
(8.18593117477082e-07 -4.06150597384517e-06 -5.33539734404334e-24)
(1.24566580668192e-06 -4.09147256514432e-06 -6.85965794260291e-24)
(1.87436735038916e-06 -4.12151485488019e-06 -4.14937359563112e-24)
(2.75771250150746e-06 -4.13028191813484e-06 -6.76524255132988e-24)
(3.53207287145892e-06 -4.03123905092828e-06 -7.07504117719723e-24)
(3.63311895195063e-06 -3.74876552614626e-06 -3.56021746504204e-24)
(1.49429504881843e-06 -2.79543658771779e-06 -4.17980165952329e-24)
(-1.76119833503612e-06 -3.61844732570878e-06 3.01672019554015e-25)
(-5.93293409611091e-06 -5.79261443337772e-06 3.65566791551626e-26)
(-6.06571876844144e-06 -7.15490778218599e-06 6.76051848800736e-25)
(-4.95199640889165e-06 -7.59467046625197e-06 4.05519984682073e-25)
(-3.4933137926901e-06 -7.51584642940153e-06 -1.13726849557829e-24)
(-2.39370959200661e-06 -7.3026844572696e-06 -2.77077421085106e-24)
(-1.61464732335219e-06 -7.11332084578631e-06 -4.78355540482184e-25)
(-1.10450732907712e-06 -6.97802567509263e-06 -5.07222667805693e-25)
(-7.68136568474034e-07 -6.88982092160907e-06 -2.69976464904813e-24)
(-5.44040071400045e-07 -6.83454570311814e-06 6.78390478277214e-25)
(-3.90709180694747e-07 -6.80073109987339e-06 5.28513822657472e-24)
(-2.81973294425046e-07 -6.78013584901314e-06 5.05413120126217e-24)
(-2.02227326112743e-07 -6.76748353599785e-06 2.08811139983013e-24)
(-1.41781379022795e-07 -6.75953065792068e-06 3.54039336157596e-24)
(-9.46783705452402e-08 -6.7543334005439e-06 1.03967759113701e-24)
(-5.7162616097712e-08 -6.75080427438709e-06 1.68306057238832e-24)
(-2.67602329672691e-08 -6.74829100912485e-06 4.17347212619658e-24)
(-1.78517807139151e-09 -6.7464553590502e-06 2.24398360518307e-24)
(1.89575860637768e-08 -6.74506955368773e-06 1.14900937578411e-24)
(3.63627478288563e-08 -6.74401491262183e-06 5.52834116059723e-25)
(5.11178528075876e-08 -6.74320643708437e-06 -1.63651923588021e-25)
(6.37756502202979e-08 -6.74259802640394e-06 -2.36597458276467e-24)
(7.48072935955872e-08 -6.74214809924911e-06 2.71414958121597e-24)
(8.46100710367859e-08 -6.74183830960071e-06 5.32667542520737e-25)
(9.35413061712387e-08 -6.74165248355013e-06 -1.80735818209293e-24)
(1.01943121949205e-07 -6.74158663239242e-06 2.3070242107012e-24)
(1.10153022199826e-07 -6.74163705231065e-06 -1.18619160480053e-24)
(1.18499339244771e-07 -6.74181953715031e-06 3.32593507571235e-24)
(1.27339625290885e-07 -6.74212789840657e-06 2.72485999559461e-24)
(1.37070425259093e-07 -6.74259686752772e-06 -1.86520587258875e-24)
(1.48137859478427e-07 -6.74325739814678e-06 1.78887938382176e-24)
(1.61088173368844e-07 -6.74415828028348e-06 -2.35107048100568e-24)
(1.76591632535672e-07 -6.74537928068483e-06 3.25730170448296e-24)
(1.95514450461472e-07 -6.74704217123228e-06 3.24396049860053e-24)
(2.19049700901579e-07 -6.74938561709842e-06 -1.87674989210135e-24)
(2.48888141202778e-07 -6.75275783908444e-06 1.64021492522235e-24)
(2.87511560046285e-07 -6.75780319070404e-06 -2.42924638993868e-24)
(3.38695352014391e-07 -6.7656363401715e-06 -4.77391958763226e-25)
(4.08398509015322e-07 -6.77817159682451e-06 7.64310577166269e-25)
(5.06375611139154e-07 -6.79866487047374e-06 -6.94606388587086e-24)
(6.48217442864703e-07 -6.83234657184257e-06 -6.61764394442624e-24)
(8.60204553552867e-07 -6.88741113642672e-06 -6.54489024072405e-24)
(1.18374471925623e-06 -6.97538551319537e-06 -8.43962396419008e-24)
(1.68108329908756e-06 -7.11088615548381e-06 -6.31459984247227e-24)
(2.44878114793897e-06 -7.3022438450663e-06 -6.77602233400216e-24)
(3.54478252261935e-06 -7.52168024329832e-06 -9.00948731649603e-24)
(5.01721498448332e-06 -7.61035384726439e-06 -6.71334897783636e-24)
(6.17013877519187e-06 -7.16616765597023e-06 -6.6811481227864e-24)
(6.04215531359418e-06 -5.76479387432174e-06 -7.71516234805904e-24)
(1.79327009362743e-06 -3.5754805121679e-06 -3.63597943569487e-24)
(-7.64621956074015e-07 2.59437933344872e-07 -2.41075483795507e-25)
(-5.15665561102129e-06 -1.93704035398512e-06 -4.40488435741031e-24)
(-5.57401015745441e-06 -4.36266802208328e-06 1.20138776053604e-25)
(-4.82991566515676e-06 -5.16063886192872e-06 -4.32395982056419e-26)
(-3.5941829280335e-06 -5.03053399539387e-06 -5.09889808167667e-24)
(-2.60262039682545e-06 -4.63935420342777e-06 -6.16688017542334e-24)
(-1.85777059357288e-06 -4.29220348231041e-06 -8.02636052226003e-25)
(-1.34394199146282e-06 -4.04485501086538e-06 -8.46474496364498e-25)
(-9.87014247865607e-07 -3.88429719394386e-06 -6.34200204513612e-24)
(-7.36002148324511e-07 -3.78327104912905e-06 -4.84864608962745e-24)
(-5.54948350609829e-07 -3.7203603683254e-06 7.57325689277419e-24)
(-4.20109708234608e-07 -3.6807949521144e-06 2.93122781171809e-24)
(-3.16864005603355e-07 -3.65538048466147e-06 -3.02407845121771e-24)
(-2.3571369600502e-07 -3.63853027297209e-06 5.13793121441983e-24)
(-1.70559110790579e-07 -3.62693112605987e-06 -4.50845931661901e-24)
(-1.17341819618268e-07 -3.61864763870582e-06 7.22180105162173e-25)
(-7.32597435984093e-08 -3.61252132580362e-06 1.41264103140888e-24)
(-3.63156009890518e-08 -3.60787338388794e-06 -2.93275380584601e-24)
(-5.03174404904211e-09 -3.60428906107234e-06 2.56401970548059e-26)
(2.17185886423159e-08 -3.60148184371767e-06 -4.71876183640238e-24)
(4.48407295597377e-08 -3.59930383639238e-06 -1.10872901300785e-24)
(6.50779212737243e-08 -3.59761405931673e-06 -5.82285209474697e-24)
(8.30614133475308e-08 -3.5963508846581e-06 1.83026719092035e-25)
(9.9344516356543e-08 -3.59544565271936e-06 -3.7043741944059e-26)
(1.14428627989932e-07 -3.59488550634708e-06 -4.1726007487777e-24)
(1.28796735145584e-07 -3.59464557889623e-06 -2.98384099241043e-25)
(1.42918943060471e-07 -3.59472670399965e-06 -4.10971796578934e-24)
(1.57264914414173e-07 -3.59514315778805e-06 5.80545999733416e-24)
(1.72340144097056e-07 -3.59592059665559e-06 7.47584300292566e-25)
(1.88686450623869e-07 -3.59710406369416e-06 -4.79582050879088e-24)
(2.06922197649511e-07 -3.59878196616612e-06 3.27382793964794e-24)
(2.27783144315281e-07 -3.60105641119209e-06 -4.86879920060292e-24)
(2.52153815497863e-07 -3.60410017288809e-06 6.2809191507762e-24)
(2.81144738502628e-07 -3.60818650521826e-06 6.18677586354669e-24)
(3.16227724396947e-07 -3.61375023372918e-06 -4.39159521692895e-24)
(3.59407903042624e-07 -3.62148052049483e-06 -4.31664211460069e-25)
(4.13484068995984e-07 -3.63253947376601e-06 -7.07847843490326e-25)
(4.82535739333616e-07 -3.64888200109502e-06 1.32231755878798e-25)
(5.72675519400153e-07 -3.67381809765659e-06 3.46042202370102e-24)
(6.93450695372933e-07 -3.71297161855051e-06 -9.10203227081285e-24)
(8.59480293281218e-07 -3.77554160156439e-06 -4.33923236926953e-24)
(1.09469262750646e-06 -3.87630589100524e-06 -4.25908836600274e-24)
(1.43500499742032e-06 -4.03689692607471e-06 -1.05356005074029e-23)
(1.93232758596343e-06 -4.28538667484559e-06 -4.3842146090708e-24)
(2.66215494074758e-06 -4.63717675118221e-06 -4.71227268314229e-24)
(3.64663671020776e-06 -5.0408759306627e-06 -1.10857665380543e-23)
(4.89347080983036e-06 -5.19034426709656e-06 -4.5304721332007e-24)
(5.67826599087981e-06 -4.38685756318173e-06 -4.46047809212878e-24)
(5.28364800913788e-06 -1.89422854934866e-06 -9.29205728240818e-24)
(8.14491698252536e-07 3.48600140128703e-07 -2.26581511071155e-24)
(-2.45096812625375e-08 3.84134365569842e-06 -9.75607858627158e-26)
(-3.12098155926328e-06 2.23439183641421e-06 -4.95812854468527e-24)
(-3.73255433624781e-06 -1.1284661991619e-06 2.99653359828314e-25)
(-3.58583359680773e-06 -2.36537703137663e-06 1.55825714700346e-25)
(-2.91402548025709e-06 -2.34075392847213e-06 -2.15959329273319e-24)
(-2.29301342588964e-06 -1.90430883808284e-06 -2.79866044793514e-24)
(-1.7653836251742e-06 -1.48720161480326e-06 -2.9135246444226e-25)
(-1.36503513714573e-06 -1.1786726530298e-06 -3.06731140148596e-25)
(-1.06216170830907e-06 -9.72834630067901e-07 -3.07461453233423e-24)
(-8.32348452683096e-07 -8.3947628910732e-07 -4.51891482518946e-24)
(-6.55668288900609e-07 -7.53509767068539e-07 3.91596622750779e-24)
(-5.17092643088396e-07 -6.97294292713877e-07 1.96443594314027e-25)
(-4.06627924710421e-07 -6.59651533127233e-07 -3.30169659795523e-24)
(-3.17096426885539e-07 -6.33671002462822e-07 2.09616711977871e-24)
(-2.43490422643622e-07 -6.15144077847053e-07 -3.72357940528683e-24)
(-1.82227091506511e-07 -6.01511379562402e-07 4.49535636235949e-25)
(-1.30662722703795e-07 -5.91200561927241e-07 -1.41802504102999e-24)
(-8.68251220599664e-08 -5.8323471937927e-07 -2.30068807348924e-24)
(-4.91914584593876e-08 -5.77008297186933e-07 1.59949592491628e-25)
(-1.65634866256951e-08 -5.72090250002042e-07 -3.6680985079244e-24)
(1.20415313495349e-08 -5.68221889640353e-07 -5.20035292118265e-25)
(3.74429187616234e-08 -5.65217624821142e-07 -2.64160717262115e-24)
(6.03494303985713e-08 -5.62949711735643e-07 -1.73387157720279e-24)
(8.13898860419226e-08 -5.61332785185845e-07 1.36188656759068e-25)
(1.01136946681401e-07 -5.60313585000454e-07 -2.07416119893381e-24)
(1.20147230852048e-07 -5.59869080456918e-07 -1.59734583264806e-24)
(1.3896041682438e-07 -5.60003977378772e-07 -1.6454265279158e-24)
(1.58118764753292e-07 -5.60728170177633e-07 2.56598963971027e-24)
(1.78198219571726e-07 -5.62097691234942e-07 -1.59652517193885e-24)
(1.99819152615833e-07 -5.64190155697208e-07 -2.35859461654383e-24)
(2.23679885947931e-07 -5.67129773194521e-07 1.528233930096e-24)
(2.50594442500813e-07 -5.71099104032405e-07 -2.49679159838235e-24)
(2.81523621125452e-07 -5.76356381313648e-07 2.95106858130487e-24)
(3.17660324706104e-07 -5.83323814473734e-07 2.95351863090149e-24)
(3.6051884995106e-07 -5.92633955882421e-07 -2.33402004663136e-24)
(4.12067326755841e-07 -6.05266015812356e-07 -1.73558772039606e-24)
(4.74942598880826e-07 -6.22806954363373e-07 1.48888148491299e-24)
(5.52736881737079e-07 -6.47811872572031e-07 2.53381951493497e-25)
(6.50440425629465e-07 -6.84513823937649e-07 1.33379518716973e-24)
(7.75270450409377e-07 -7.39867199276341e-07 -4.5566120667309e-24)
(9.37198541944461e-07 -8.25091246264349e-07 -6.48631506014412e-25)
(1.15144307027929e-06 -9.5792734988098e-07 -5.118581564422e-25)
(1.43789478646873e-06 -1.16384097241912e-06 -5.19826535951447e-24)
(1.82181828190473e-06 -1.47430088164481e-06 -2.15517743706296e-25)
(2.33390798319479e-06 -1.89866702931976e-06 -6.32101556731156e-25)
(2.9454462624865e-06 -2.35399360814791e-06 -5.90293462841902e-24)
(3.62268045548287e-06 -2.40856075741502e-06 -6.65141920180513e-25)
(3.80168896643809e-06 -1.17089520948955e-06 -5.383213089923e-25)
(3.2268193497955e-06 2.27931136613214e-06 -5.545621621722e-24)
(7.79814350107151e-08 3.95550922044472e-06 9.80404254965817e-25)
(3.15447371819807e-07 6.15099739975632e-06 5.03474766968253e-25)
(-1.13577242377976e-06 5.15626996807341e-06 -4.69270452561028e-25)
(-1.83347505355803e-06 1.20573123985525e-06 9.70326851061625e-25)
(-2.18341439436316e-06 -4.46854948615695e-07 5.1927548980714e-25)
(-2.06332309308086e-06 -6.31517234036733e-07 4.74512395866684e-25)
(-1.82528102772062e-06 -2.64867318929976e-07 -5.20703681253546e-25)
(-1.53934329710773e-06 1.42256493872598e-07 2.85400423700429e-25)
(-1.27699526195862e-06 4.64177703665502e-07 3.13773315556825e-25)
(-1.0501106049111e-06 6.89300266719515e-07 -5.33101488860485e-25)
(-8.60047993178081e-07 8.41469224080003e-07 -8.83093397172943e-25)
(-7.03127438647998e-07 9.43710090486911e-07 2.23922376180564e-24)
(-5.73477826538216e-07 1.01326199339871e-06 1.14130098115581e-24)
(-4.6620619296922e-07 1.06157071314066e-06 -1.34615986930084e-25)
(-3.76883818147748e-07 1.09599983640622e-06 1.25001575777755e-24)
(-3.01971704278339e-07 1.1212063902771e-06 -5.95087058584129e-25)
(-2.38646300392446e-07 1.14014557193095e-06 1.0020530960918e-24)
(-1.84661766078285e-07 1.1546917655014e-06 7.89891563842669e-25)
(-1.38247454256443e-07 1.16604897442814e-06 4.29275601008813e-25)
(-9.79696351982562e-08 1.17502043391543e-06 1.07118370322418e-24)
(-6.26687930417752e-08 1.1821299073213e-06 -3.82286409472236e-25)
(-3.13825954498011e-08 1.18774798765695e-06 5.72080925885989e-25)
(-3.28048924406581e-09 1.19211590132425e-06 -2.52950739217501e-25)
(2.23566728791096e-08 1.19541885956969e-06 2.8079791912692e-25)
(4.61780058595251e-08 1.19775990967666e-06 7.14815532711847e-25)
(6.87794506156444e-08 1.1992206351818e-06 2.38720825131264e-26)
(9.07282495730493e-08 1.19983194706754e-06 2.27482328686586e-25)
(1.12591373924026e-07 1.19959356457907e-06 -9.78163887227613e-26)
(1.34931874581013e-07 1.19847605942311e-06 1.02326537935395e-24)
(1.58341809059524e-07 1.19641951403583e-06 -1.74276319437815e-25)
(1.83462258377589e-07 1.19330005895687e-06 -7.52236209984282e-25)
(2.11003610615356e-07 1.18896065727513e-06 2.46656149517526e-25)
(2.41783725623078e-07 1.18314680591246e-06 -1.27494560748488e-24)
(2.76756116141945e-07 1.17551061787312e-06 8.10562797781393e-25)
(3.17071806580636e-07 1.16551021431917e-06 9.56079510952045e-25)
(3.64149020628485e-07 1.15233461113933e-06 -7.70264770682286e-25)
(4.19747610451421e-07 1.13476944353305e-06 -3.33645506684019e-25)
(4.86094744321445e-07 1.11093951841156e-06 3.6645767380317e-25)
(5.6600592229875e-07 1.07789151547975e-06 -7.75742388543883e-26)
(6.62986704942495e-07 1.03094400232569e-06 3.29406588183272e-25)
(7.81465772726566e-07 9.62697422319301e-07 -2.42322729068421e-24)
(9.26264947320935e-07 8.61651204396309e-07 -6.69456679282127e-25)
(1.1033911756731e-06 7.10405584351726e-07 -5.18206034878477e-25)
(1.31636782528566e-06 4.85440547223495e-07 -2.55467097608839e-24)
(1.56439443049872e-06 1.61298907537601e-07 -5.33469577097997e-25)
(1.83582621914916e-06 -2.54818413015373e-07 -7.41312305429217e-25)
(2.06280907034567e-06 -6.45312124017082e-07 -3.30198319508678e-24)
(2.18214004047865e-06 -4.99727063311403e-07 -5.58444449883402e-25)
(1.85258013363633e-06 1.14562478540985e-06 -5.93674704314025e-25)
(1.1947638347094e-06 5.19550800289083e-06 -3.05094515692072e-24)
(-2.75822457370047e-07 6.2739562872349e-06 5.72679056625379e-26)
(3.94945495037638e-07 7.09851047860037e-06 8.67355512565869e-25)
(2.23004361386189e-07 6.53650784774369e-06 1.49529214415779e-24)
(-4.71991289053305e-07 2.4119469486804e-06 1.33823326524149e-24)
(-1.09530002751172e-06 4.7890590883786e-07 6.3033403628083e-25)
(-1.35101637548453e-06 8.87441955650195e-08 4.62329063197561e-25)
(-1.39033753868302e-06 3.43142770484404e-07 4.99713022673181e-25)
(-1.29393967672077e-06 7.01736069496173e-07 5.62003479205016e-25)
(-1.14812640033239e-06 1.00978921769231e-06 6.17969169932168e-25)
(-9.91656693983439e-07 1.23715619088228e-06 7.12652597050804e-25)
(-8.43122245819499e-07 1.39786655336564e-06 8.93286628266874e-25)
(-7.10669444006035e-07 1.51031100557804e-06 1.44026808888658e-24)
(-5.95440107148792e-07 1.58963338445574e-06 1.57850364457536e-24)
(-4.96692119514631e-07 1.64652151277434e-06 1.23154223355432e-24)
(-4.12405308951379e-07 1.68817175722134e-06 1.07944298505346e-24)
(-3.40420797254445e-07 1.71933473323854e-06 9.94728962467748e-25)
(-2.78719836972679e-07 1.74314325889595e-06 1.34155238065483e-24)
(-2.25526383281896e-07 1.76165242586352e-06 1.6628118160032e-24)
(-1.79336634286168e-07 1.77623500426534e-06 1.71852104510956e-24)
(-1.38891302188565e-07 1.78782125823525e-06 1.60839728018377e-24)
(-1.03131799632112e-07 1.7970332614102e-06 1.32365856952198e-24)
(-7.11481595692434e-08 1.80432685413765e-06 1.17841529991894e-24)
(-4.21554470243334e-08 1.81000035337419e-06 8.61245110996117e-25)
(-1.54610942375781e-08 1.81427341431556e-06 1.24160151331417e-24)
(9.5651935620628e-09 1.81728638838741e-06 1.0166888636232e-24)
(3.35110971090972e-08 1.81912923102951e-06 9.87174932092858e-25)
(5.69342814614328e-08 1.81984525695658e-06 1.22873953041897e-24)
(8.03862507896805e-08 1.81944436869942e-06 6.00169543535955e-25)
(1.0442595112492e-07 1.8178756593298e-06 4.37611287843812e-25)
(1.29628560812649e-07 1.81506756743478e-06 5.48568367346704e-25)
(1.56618435656598e-07 1.8108703546237e-06 7.35564752412562e-26)
(1.86084206380551e-07 1.80507985160967e-06 -1.22214042037333e-25)
(2.18795802422707e-07 1.79739552006996e-06 -6.37815632445674e-25)
(2.55644941059339e-07 1.78737946951431e-06 -1.92108611679803e-25)
(2.97684592682131e-07 1.7744012258796e-06 -1.51417815338591e-26)
(3.46159230596627e-07 1.75751653920442e-06 2.73570041697185e-26)
(4.02547385438626e-07 1.73534908258695e-06 3.57239522773381e-25)
(4.68602307805897e-07 1.70583949110685e-06 -2.3746045488847e-25)
(5.46315310532568e-07 1.665873296342e-06 -3.30473582633103e-25)
(6.37788496574005e-07 1.61066827660022e-06 -8.13006763351402e-26)
(7.45022687658915e-07 1.53300346175541e-06 -5.09584226570981e-25)
(8.68631852443614e-07 1.42212868483096e-06 -6.93205517309007e-25)
(1.00751874886217e-06 1.2627560396652e-06 -5.96947438868827e-25)
(1.15322400688448e-06 1.03593488356436e-06 -4.81704372770147e-25)
(1.28737527541626e-06 7.2588883490059e-07 -5.78007434512666e-25)
(1.37083532019319e-06 3.57749190947569e-07 -6.37050879011093e-25)
(1.31966858445888e-06 7.67251684744318e-08 -8.2682434853483e-25)
(1.05815291354324e-06 4.21562055300294e-07 -6.11635689202333e-25)
(4.44419004270483e-07 2.33928727874082e-06 -5.46653441259525e-25)
(-2.16378361370341e-07 6.56649672212916e-06 -6.92368993358548e-25)
(-3.77231699961883e-07 7.21946438527568e-06 -6.24076890288482e-26)
(3.70689940353975e-07 7.00840387926125e-06 8.88787509854315e-25)
(8.98397168867613e-07 6.71188337129367e-06 2.50532716189351e-24)
(2.65659669123115e-07 2.72635434229795e-06 1.27933988325466e-24)
(-4.26406913642369e-07 6.58768515994714e-07 5.27779978771559e-25)
(-8.63351401482526e-07 1.13054673540969e-07 4.46035127085831e-25)
(-1.05516361150053e-06 2.55567337466617e-07 7.98876786900651e-25)
(-1.07869201753713e-06 5.54454892941824e-07 5.35933383308101e-25)
(-1.01487421743103e-06 8.36555331070182e-07 5.97958414471382e-25)
(-9.13497017322468e-07 1.05681158594673e-06 1.0962902923843e-24)
(-8.01010514501267e-07 1.21943850686782e-06 1.59838967172264e-24)
(-6.92192838923393e-07 1.3375970443114e-06 8.66829976575109e-25)
(-5.92555412148868e-07 1.42371492077738e-06 1.67928129494165e-24)
(-5.04220394206528e-07 1.48721902690988e-06 1.88308347285264e-24)
(-4.2699233712854e-07 1.5348006858458e-06 8.48999661656636e-25)
(-3.59867524729693e-07 1.57106277813853e-06 1.69141383413676e-24)
(-3.01550305370621e-07 1.59916162446362e-06 1.263317836139e-24)
(-2.50726655875624e-07 1.6212433835914e-06 1.85651282640469e-24)
(-2.06191993243683e-07 1.63876820263119e-06 2.10097352897497e-24)
(-1.66877521125225e-07 1.65275637943697e-06 1.55143878413882e-24)
(-1.31845250942309e-07 1.66392047414249e-06 2.02920934753198e-24)
(-1.00279563474373e-07 1.67275855289055e-06 1.19188094181297e-24)
(-7.14564401401373e-08 1.6796316583684e-06 1.17466647181404e-24)
(-4.47254078277157e-08 1.68478254025358e-06 1.60782528788295e-24)
(-1.94904569392166e-08 1.6883843834916e-06 9.61411925694976e-25)
(4.80743754825891e-09 1.69054540724713e-06 1.22931891803834e-24)
(2.870159703718e-08 1.69131329608272e-06 1.52769201011296e-24)
(5.27173935567936e-08 1.69069666145617e-06 8.17288718219155e-25)
(7.73861748868033e-08 1.68864253384927e-06 1.4103919918065e-25)
(1.03259100262693e-07 1.68505741397783e-06 9.12194551733204e-25)
(1.30921975513281e-07 1.67977819236405e-06 4.6425950944086e-25)
(1.61019968964127e-07 1.67255586134795e-06 -2.4988621168728e-25)
(1.94258526517423e-07 1.66304367029606e-06 -2.04781739723381e-25)
(2.3144412914619e-07 1.65075073283206e-06 -5.55551602660713e-25)
(2.73499625231221e-07 1.63496144437758e-06 -4.12709051629254e-25)
(3.21470492079603e-07 1.61465387060979e-06 3.95377296300617e-25)
(3.76535570217105e-07 1.58835890305078e-06 6.72594154368468e-25)
(4.39981122254764e-07 1.55393007457942e-06 -6.28974745730092e-25)
(5.1306123699817e-07 1.50822846364352e-06 -3.88278870053296e-25)
(5.96713913274574e-07 1.44664189024894e-06 -2.02613151058224e-25)
(6.91088436435347e-07 1.36245680026645e-06 3.78307928948514e-25)
(7.93900784147255e-07 1.24618277831254e-06 -7.66758153958971e-25)
(8.99604206427675e-07 1.0852946678198e-06 -7.84599757914899e-25)
(9.92975356715008e-07 8.66085069471585e-07 2.81681654702875e-25)
(1.04754488649197e-06 5.82594613308323e-07 -7.07027542196484e-25)
(1.01275166142282e-06 2.74422451724323e-07 -7.25176650038127e-25)
(8.09239747980545e-07 1.04055821066589e-07 2.53711944016413e-25)
(3.63639759379321e-07 6.00380668299828e-07 -8.78560679729045e-25)
(-3.25802218237624e-07 2.64551748708956e-06 -7.50169176033358e-25)
(-9.33099505134135e-07 6.72966507401823e-06 7.40947716309272e-25)
(-3.72270874161923e-07 7.11925728680189e-06 -1.99729340498589e-25)
(3.28415814680282e-07 6.38334329191183e-06 6.6083206880603e-25)
(1.07826904863011e-06 6.2741823260202e-06 2.06016670344329e-24)
(5.4032356474409e-07 2.58861630993765e-06 9.33107262106177e-25)
(-9.25219453432056e-08 4.92199230323471e-07 3.4531114518758e-25)
(-5.6904222058506e-07 -1.54667043225155e-07 9.65004483285859e-26)
(-8.18316656428519e-07 -1.06630538428199e-07 7.31864976047678e-25)
(-9.04642630981827e-07 1.34277658261667e-07 3.97349004815898e-25)
(-8.92162123890309e-07 3.86158714394733e-07 4.45990944764513e-25)
(-8.3038600326905e-07 5.9408397302144e-07 9.68523061988811e-25)
(-7.46768960004796e-07 7.54042923651114e-07 1.15790132333207e-24)
(-6.5863088037551e-07 8.74394652874349e-07 3.71328672395182e-25)
(-5.73694747432581e-07 9.64736402523626e-07 1.03766643991166e-24)
(-4.95823708252441e-07 1.03305025815195e-06 1.35786624906296e-24)
(-4.26104527653437e-07 1.08530004941802e-06 4.61553284938024e-25)
(-3.6442491882618e-07 1.12579408100767e-06 1.22630980969909e-24)
(-3.10102412675772e-07 1.1575774691521e-06 8.84068579794622e-25)
(-2.6225071518686e-07 1.18279563268933e-06 1.25563491306402e-24)
(-2.1994566196729e-07 1.20294625492596e-06 1.6216733293159e-24)
(-1.8230942720011e-07 1.21910901225613e-06 1.11899616135851e-24)
(-1.48548616791276e-07 1.23204082612179e-06 1.50244631433824e-24)
(-1.17933166529677e-07 1.24228623798216e-06 8.77567577935768e-25)
(-8.98099106383419e-08 1.25024705695944e-06 9.91902762893696e-25)
(-6.35845583868852e-08 1.2561864798996e-06 1.0169881708456e-24)
(-3.86977268012585e-08 1.26031393212175e-06 6.77792124789675e-25)
(-1.46277779659527e-08 1.26273197543815e-06 1.01428964757113e-24)
(9.12672759514407e-09 1.2635099257482e-06 1.07650343705677e-24)
(3.30603616825043e-08 1.26264708223885e-06 6.72042254841956e-25)
(5.76764665072383e-08 1.2600975752493e-06 -5.62975645477399e-26)
(8.34907652747948e-08 1.2557404260748e-06 5.65321527823442e-25)
(1.11045924189222e-07 1.2494028291334e-06 4.77659359978895e-25)
(1.40932455487692e-07 1.24080561466246e-06 -2.73210593308387e-25)
(1.73789552247248e-07 1.22956152210801e-06 6.84395014031175e-27)
(2.10323139549402e-07 1.21514442099935e-06 -5.67068734649444e-25)
(2.51321529685348e-07 1.19677894697404e-06 -4.83105976599003e-25)
(2.97636925745281e-07 1.173406418251e-06 4.47487746789812e-25)
(3.50155890058048e-07 1.14351029552323e-06 4.80941389769197e-25)
(4.09738494512263e-07 1.10496132232321e-06 -3.29938824268482e-25)
(4.77022570625623e-07 1.0547209521055e-06 -2.91599757493955e-25)
(5.52044098338427e-07 9.8849551626954e-07 -2.24397229670101e-25)
(6.33653962152107e-07 9.00293355033565e-07 8.89710268635773e-25)
(7.17813737932039e-07 7.82119613273093e-07 -3.60980044227227e-25)
(7.96717757761619e-07 6.24281696093192e-07 -3.61062853726281e-25)
(8.52549773342768e-07 4.1797259804522e-07 8.19841014277598e-25)
(8.57712944134309e-07 1.65476715224067e-07 -3.07061436326817e-25)
(7.61771225753453e-07 -8.4080629140981e-08 -2.98896592862122e-25)
(5.01830730491092e-07 -1.60430575468088e-07 9.61583525536936e-25)
(1.60723633640255e-08 4.34089719062087e-07 -3.6978703610093e-25)
(-6.16858211129147e-07 2.50169321153467e-06 -2.34880057454784e-25)
(-1.13658147251817e-06 6.27649444177848e-06 1.62628799842279e-24)
(-3.41667366006693e-07 6.4773100756942e-06 2.21021544461275e-26)
(2.89085794936665e-07 5.62816162785557e-06 4.44721442982235e-25)
(9.88720850615313e-07 5.69021012188069e-06 1.80945422359626e-24)
(5.56241430586342e-07 2.33604413978002e-06 6.18028436120124e-25)
(3.59483115595036e-08 2.66253883216594e-07 2.55626424267657e-25)
(-4.03092010978133e-07 -4.41410250034482e-07 5.81911524549453e-25)
(-6.54220832295814e-07 -4.68098719409092e-07 9.06372138630049e-25)
(-7.66200895056772e-07 -2.79009881494297e-07 2.91324061507553e-25)
(-7.83336428488209e-07 -5.79563039697626e-08 3.14328543396187e-25)
(-7.48971727336853e-07 1.34713745112346e-07 9.81765982244954e-25)
(-6.87778450436945e-07 2.88790396525415e-07 9.91842231854253e-25)
(-6.17045268574703e-07 4.08543152619368e-07 -1.84717855476274e-25)
(-5.45255036517291e-07 5.00944092292186e-07 5.29961298613425e-25)
(-4.77181448926116e-07 5.72457409184436e-07 1.10746555168883e-24)
(-4.14751053147746e-07 6.28217455002594e-07 2.4988051868097e-26)
(-3.58521269379897e-07 6.72116942972389e-07 1.005054268586e-24)
(-3.0831404394968e-07 7.06992862711887e-07 5.36275536462816e-25)
(-2.63603958826904e-07 7.34921517689776e-07 7.33793791642974e-25)
(-2.23727446636758e-07 7.57395470688093e-07 1.32855680859545e-24)
(-1.87992151974066e-07 7.75498932214806e-07 7.28697274249918e-25)
(-1.55733325496252e-07 7.90021236564192e-07 1.26522637858289e-24)
(-1.26318769690788e-07 8.01549620665413e-07 5.93576645393979e-25)
(-9.91706091338306e-08 8.10488177255844e-07 9.70987228028527e-25)
(-7.37404733849697e-08 8.17147907466198e-07 5.81668015119792e-25)
(-4.95184028193058e-08 8.21731562345992e-07 4.26856014935499e-25)
(-2.60210829492572e-08 8.24375363774598e-07 8.54206401455164e-25)
(-2.77429364901642e-09 8.25134352173118e-07 6.61298308681134e-25)
(2.06827343515022e-08 8.24017864985251e-07 6.4545364147672e-25)
(4.48155957437685e-08 8.20977323991258e-07 -3.6129990921363e-25)
(7.01062888488262e-08 8.15875851996189e-07 2.76032652131047e-25)
(9.70558451624921e-08 8.08524798502585e-07 5.96986649258342e-25)
(1.26194051572563e-07 7.98630203000553e-07 -4.93271909209465e-25)
(1.58093682490472e-07 7.85781318171849e-07 2.59023139231808e-25)
(1.93364059032046e-07 7.69413454415712e-07 -7.25555253643604e-25)
(2.32659192372405e-07 7.48739319776369e-07 -6.98194207586181e-25)
(2.76643310682798e-07 7.22675680917271e-07 6.26733861913546e-25)
(3.25943659085708e-07 6.89724760680554e-07 3.00026674557639e-25)
(3.81057199382077e-07 6.47833312131868e-07 -1.55472263587345e-25)
(4.42113079268795e-07 5.94170015866508e-07 -2.01625063436836e-25)
(5.08479268947132e-07 5.24864548887749e-07 -4.81889800961459e-25)
(5.78165368385544e-07 4.34790991401562e-07 7.68634714987177e-25)
(6.46212930348815e-07 3.17469179092857e-07 -8.94534976306526e-26)
(7.04044805933479e-07 1.65907675764769e-07 -8.1484585907928e-26)
(7.33895071828995e-07 -2.45802758676068e-08 8.56168138528211e-25)
(7.1093029038081e-07 -2.45483336697664e-07 -6.19872712663136e-26)