/*--------------------------------*- C++ -*----------------------------------*\
  =========                 |
  \\      /  F ield         | OpenFOAM: The Open Source CFD Toolbox
   \\    /   O peration     | Website:  https://openfoam.org
    \\  /    A nd           | Version:  10
     \\/     M anipulation  |
\*---------------------------------------------------------------------------*/
FoamFile
{
    format      ascii;
    class       volScalarField;
    location    "6.2";
    object      wallHeatFlux;
}
// * * * * * * * * * * * * * * * * * * * * * * * * * * * * * * * * * * * * * //

dimensions      [1 0 -3 0 0 0 0];

internalField   uniform 0;

boundaryField
{
    back
    {
        type            calculated;
        value           uniform 0;
    }
    bottom
    {
        type            calculated;
        value           nonuniform List<scalar> 
50
(
97.0890885817603
98.9051739790871
102.357981541114
104.764139687657
106.177894584758
106.95958421251
107.377219173443
107.592402688708
107.698661671436
107.748903824988
107.771331130992
107.780934841997
107.784863078468
107.786333028916
107.786860146613
107.786985041385
107.787050980098
107.787038952256
107.786998268733
107.786985082691
107.786971925624
107.786963563871
107.786957037772
107.78696033882
107.786955171262
107.786951698025
107.786957223398
107.786962115889
107.786972905169
107.786986186309
107.787000378462
107.787029114354
107.787035423028
107.787024808815
107.786968650754
107.786763045555
107.786145913597
107.784420067171
107.78018241656
107.769888650143
107.746298738466
107.694694617474
107.586876631506
107.370979668167
106.955387863129
106.178402989306
104.768283965408
102.351012050448
98.8682847104499
97.1168465408019
)
;
    }
    left
    {
        type            calculated;
        value           uniform 0;
    }
    front
    {
        type            calculated;
        value           uniform 0;
    }
    right
    {
        type            calculated;
        value           uniform 0;
    }
    top
    {
        type            calculated;
        value           uniform 0;
    }
}


// ************************************************************************* //
