/*--------------------------------*- C++ -*----------------------------------*\
  =========                 |
  \\      /  F ield         | OpenFOAM: The Open Source CFD Toolbox
   \\    /   O peration     | Website:  https://openfoam.org
    \\  /    A nd           | Version:  10
     \\/     M anipulation  |
\*---------------------------------------------------------------------------*/
FoamFile
{
    format      ascii;
    class       volScalarField;
    location    "3.2";
    object      alphat;
}
// * * * * * * * * * * * * * * * * * * * * * * * * * * * * * * * * * * * * * //

dimensions      [1 -1 -1 0 0 0 0];

internalField   nonuniform List<scalar> 
2500
(
2.42248957525579e-14
4.62847436146392e-13
1.90455111404227e-12
3.09455735502382e-12
3.88703565647793e-12
4.33649141314677e-12
4.55801107113266e-12
4.65447379300817e-12
4.69212800892311e-12
4.70546982235645e-12
4.7098066347356e-12
4.71111077901203e-12
4.71147525704563e-12
4.71156932955408e-12
4.71159067574432e-12
4.71159383496945e-12
4.71159292574938e-12
4.71159138763218e-12
4.71158991058382e-12
4.71158859690969e-12
4.71158745934938e-12
4.71158648549726e-12
4.71158566125628e-12
4.71158497336647e-12
4.71158442536326e-12
4.71158401955802e-12
4.71158376978667e-12
4.71158378567165e-12
4.71158398059543e-12
4.71158406188403e-12
4.71158428435209e-12
4.71158468975623e-12
4.71158523417663e-12
4.71158568736798e-12
4.71158464633054e-12
4.71157592159492e-12
4.7115377272721e-12
4.7113939552989e-12
4.7108883850959e-12
4.70921651633817e-12
4.70402723362665e-12
4.68899495455695e-12
4.64867384878711e-12
4.54949781606537e-12
4.32839529123047e-12
3.88769103799133e-12
3.11470379846816e-12
1.94409072728811e-12
4.85573304196277e-13
2.6481837655104e-14
2.3620049849814e-12
1.18678834758805e-10
4.9977909400323e-10
8.15216655389768e-10
1.0280106498813e-09
1.15063369130467e-09
1.21211550092641e-09
1.23935854178344e-09
1.25017626455624e-09
1.25407281671529e-09
1.25535936859066e-09
1.25575204716081e-09
1.25586339776015e-09
1.25589260739666e-09
1.25589942001484e-09
1.25590053838826e-09
1.25590035386163e-09
1.2558999502251e-09
1.25589955223383e-09
1.25589919817073e-09
1.25589889228921e-09
1.25589863164053e-09
1.25589841197226e-09
1.25589822922839e-09
1.25589808372403e-09
1.25589797737193e-09
1.25589791470068e-09
1.2558979272519e-09
1.25589798139926e-09
1.25589799628025e-09
1.25589806454951e-09
1.25589818028886e-09
1.25589832599463e-09
1.25589843285352e-09
1.25589805008887e-09
1.25589526506062e-09
1.25588348122091e-09
1.25583971702611e-09
1.25568761522753e-09
1.25519056195322e-09
1.25366695229412e-09
1.24931177366715e-09
1.23779405837491e-09
1.20988362746115e-09
1.14861353465311e-09
1.0283748045057e-09
8.20599657106736e-10
5.09936546610142e-10
1.24289690029718e-10
2.56784509619988e-12
8.26835031952954e-12
2.10543801187983e-09
6.91371845266176e-07
1.12156443364691e-06
1.40999244114365e-06
1.57676339281156e-06
1.66112414350753e-06
1.69895440116281e-06
1.71417918656796e-06
1.71974020052468e-06
1.72160217942069e-06
1.72217843545643e-06
1.72234416831994e-06
1.72238835742743e-06
1.72239895020592e-06
1.72240086201786e-06
1.72240073090317e-06
1.72240023897063e-06
1.722399731771e-06
1.72239927684571e-06
1.72239888270494e-06
1.72239854634778e-06
1.72239826278268e-06
1.72239802727869e-06
1.72239783902482e-06
1.72239770099658e-06
1.72239762018019e-06
1.72239763809458e-06
1.72239769759159e-06
1.72239771122894e-06
1.72239779977026e-06
1.7223979449849e-06
1.72239812221587e-06
1.72239822762481e-06
1.72239756714827e-06
1.72239334489825e-06
1.7223759861562e-06
1.72231213418227e-06
1.72209203410447e-06
1.72137855172966e-06
1.71920996608836e-06
1.71306671860296e-06
1.69697322643478e-06
1.65834560746844e-06
1.57429924403494e-06
1.41048579116111e-06
1.12816034023227e-06
7.0378677091967e-07
2.19227995356706e-09
8.84422297197676e-12
1.44273901410189e-11
3.70063173619271e-09
1.20929888793713e-06
1.94435777163308e-06
2.43185023020156e-06
2.71246397944697e-06
2.85440473622225e-06
2.91823282127382e-06
2.94403640269561e-06
2.95351408987073e-06
2.95670748105157e-06
2.95770259352601e-06
2.95799096968016e-06
2.95806857761893e-06
2.958087479906e-06
2.95809106339037e-06
2.95809098101496e-06
2.95809023200489e-06
2.95808943313413e-06
2.95808871035409e-06
2.95808808113257e-06
2.95808754196647e-06
2.9580870859733e-06
2.95808670669112e-06
2.95808640140124e-06
2.95808617352557e-06
2.95808603573874e-06
2.95808605015647e-06
2.95808611402587e-06
2.95808614513863e-06
2.95808627712101e-06
2.95808649413613e-06
2.95808676249071e-06
2.95808691158305e-06
2.95808576248622e-06
2.95807875549782e-06
2.95805007046687e-06
2.95794424939983e-06
2.95757830894026e-06
2.9563883672745e-06
2.95276156691247e-06
2.94246360810651e-06
2.91543591368707e-06
2.85046289966717e-06
2.70885172288166e-06
2.43208001714722e-06
1.95261441807291e-06
1.22528765993338e-06
3.81341189465006e-09
1.51689919863402e-11
2.00946893079027e-11
5.16082135316402e-09
1.67287450781074e-06
2.67040635017628e-06
3.3267183308753e-06
3.70335347043516e-06
3.89392043404714e-06
3.97982881885956e-06
4.01469510925334e-06
4.02756418666299e-06
4.03192457402873e-06
4.03329181748561e-06
4.03369082822152e-06
4.03379916290566e-06
4.03382595852559e-06
4.03383127945565e-06
4.03383138696924e-06
4.03383050741439e-06
4.03382952591995e-06
4.03382862808119e-06
4.03382784172714e-06
4.03382716409826e-06
4.03382658807769e-06
4.03382610681397e-06
4.03382571620739e-06
4.03382541897539e-06
4.03382523015146e-06
4.03382521561834e-06
4.03382526444057e-06
4.03382531308305e-06
4.03382546080184e-06
4.0338257080112e-06
4.03382601375741e-06
4.0338261484041e-06
4.03382453342904e-06
4.03381524002836e-06
4.03377742021953e-06
4.03363757593457e-06
4.03315250491753e-06
4.0315702447458e-06
4.02673385206012e-06
4.01296745397144e-06
3.9767633741175e-06
3.88958537259534e-06
3.69927094402621e-06
3.32650488679215e-06
2.678350089893e-06
1.6887848868869e-06
5.27681681332366e-09
2.08787316521112e-11
2.49985468129537e-11
6.42904542361755e-09
2.07005137850854e-06
3.28582324335803e-06
4.08111014196152e-06
4.53661621642966e-06
4.76724353103075e-06
4.87146093012592e-06
4.91390911918616e-06
4.92964572188663e-06
4.93500470682719e-06
4.93669461157205e-06
4.93719098948652e-06
4.93732687866136e-06
4.93736097913011e-06
4.93736804990426e-06
4.93736847263005e-06
4.93736757784831e-06
4.93736651550007e-06
4.93736552919705e-06
4.93736465929956e-06
4.937363905146e-06
4.93736325973386e-06
4.9373627166753e-06
4.93736227196409e-06
4.93736192698574e-06
4.93736169423189e-06
4.93736163021866e-06
4.93736165529212e-06
4.93736171644447e-06
4.93736185143951e-06
4.9373620904875e-06
4.93736238327881e-06
4.93736244536276e-06
4.9373603769476e-06
4.93734920780413e-06
4.93730410778421e-06
4.93713713179111e-06
4.93655654378644e-06
4.9346577237673e-06
4.92883945077918e-06
4.91224317368169e-06
4.86852202879484e-06
4.76310022475868e-06
4.53268028446568e-06
4.08068035070215e-06
3.29275154034737e-06
2.08424494626504e-06
6.53718435859979e-09
2.57612662168139e-11
2.9042733506362e-11
7.48195775452071e-09
2.39731140632018e-06
3.78903655868975e-06
4.69570826679938e-06
5.21444150666828e-06
5.47732138634184e-06
5.59638399702214e-06
5.64503558505878e-06
5.66314316724777e-06
5.66933754980756e-06
5.67130087144582e-06
5.67188095788334e-06
5.67204097123526e-06
5.6720816588514e-06
5.67209043230858e-06
5.67209126184502e-06
5.67209043959525e-06
5.67208937915994e-06
5.67208837570782e-06
5.67208748299461e-06
5.67208670362735e-06
5.67208603157657e-06
5.6720854611171e-06
5.67208498866115e-06
5.67208461445521e-06
5.67208434650343e-06
5.67208422113998e-06
5.67208421900308e-06
5.67208428696228e-06
5.67208438454263e-06
5.67208458433881e-06
5.67208482342484e-06
5.67208475955264e-06
5.67208224965808e-06
5.67206956626443e-06
5.67201876467384e-06
5.67183057693984e-06
5.67117500676708e-06
5.66902632217091e-06
5.66242896255455e-06
5.64357736545065e-06
5.59384541399254e-06
5.47380292563104e-06
5.21119847399656e-06
4.69554478880637e-06
3.79510625943124e-06
2.40949720118321e-06
7.57888664474662e-09
2.97595480739475e-11
3.22382221946362e-11
8.32087863365599e-09
2.65731861916095e-06
4.18682472016531e-06
5.18048725652122e-06
5.74870768261729e-06
6.03696694862408e-06
6.1678003290475e-06
6.2214162862609e-06
6.24144132630376e-06
6.2483191603905e-06
6.25050900043437e-06
6.25115942009844e-06
6.25134006151643e-06
6.25138653426454e-06
6.25139691417413e-06
6.25139820867853e-06
6.25139750646096e-06
6.25139650703754e-06
6.25139553856333e-06
6.25139466783866e-06
6.25139390141057e-06
6.25139323478831e-06
6.25139266316327e-06
6.25139218335622e-06
6.25139179496336e-06
6.25139150236927e-06
6.25139132564227e-06
6.2513912863941e-06
6.25139132245329e-06
6.25139139580942e-06
6.2513915310607e-06
6.25139169033236e-06
6.25139146065681e-06
6.25138853853477e-06
6.25137466038377e-06
6.25131947754937e-06
6.25111506048768e-06
6.25040195339587e-06
6.24806062082947e-06
6.24085975241336e-06
6.22025427479575e-06
6.16583463360669e-06
6.03436997842482e-06
5.74660190211653e-06
5.18116442321589e-06
4.19266174491811e-06
2.66799806730687e-06
8.4079509179617e-09
3.29091198713552e-11
3.46645362381574e-11
8.96391063619051e-09
2.85680498141235e-06
4.49114664930818e-06
5.55100262855083e-06
6.15702083531617e-06
6.46478664204013e-06
6.60474061986761e-06
6.66223989603636e-06
6.6837807948342e-06
6.69120518396871e-06
6.69357843454848e-06
6.6942865923802e-06
6.6944844555409e-06
6.69453587274228e-06
6.69454769896556e-06
6.69454946161337e-06
6.69454893699419e-06
6.69454803566203e-06
6.69454713510509e-06
6.6945463150249e-06
6.6945455861867e-06
6.69454494588733e-06
6.69454439046398e-06
6.69454391719394e-06
6.6945435254331e-06
6.69454321737743e-06
6.69454300387133e-06
6.69454290388104e-06
6.69454289351951e-06
6.69454293415852e-06
6.69454300888976e-06
6.69454308482183e-06
6.69454266744663e-06
6.69453936563089e-06
6.69452457873843e-06
6.69446609818245e-06
6.69424955117029e-06
6.6934933624827e-06
6.69100717903517e-06
6.68335061118803e-06
6.66141616682183e-06
6.60343569698132e-06
6.46328237646031e-06
6.15636381893048e-06
5.55304269964341e-06
4.49751698553801e-06
2.86681592015467e-06
9.0447257567754e-09
3.53021739747502e-11
3.64387721888163e-11
9.43894952864074e-09
3.00477117177173e-06
4.71663149065068e-06
5.8255434054685e-06
6.45971630783875e-06
6.78211531306983e-06
6.92897027395684e-06
6.98943664300711e-06
7.01214822403286e-06
7.01999960418894e-06
7.02251792249382e-06
7.02327237102596e-06
7.0234842676844e-06
7.02353980614398e-06
7.02355288984962e-06
7.02355509915352e-06
7.02355476915613e-06
7.02355398322402e-06
7.02355316712898e-06
7.02355241263827e-06
7.02355173467047e-06
7.02355113241764e-06
7.0235506033689e-06
7.02355014534387e-06
7.0235497577193e-06
7.02354944144558e-06
7.02354920208573e-06
7.02354904924513e-06
7.02354898257813e-06
7.02354896582811e-06
7.02354898771556e-06
7.02354896885201e-06
7.02354834996041e-06
7.02354476963983e-06
7.02352929664828e-06
7.02346838866989e-06
7.02324299988761e-06
7.02245538285356e-06
7.01986314299449e-06
7.01187163552831e-06
6.98895728582621e-06
6.92834540960615e-06
6.78176347329659e-06
6.46067128790407e-06
5.8293189626841e-06
4.72420824618859e-06
3.01495796969184e-06
9.51754071902731e-09
3.70595503895142e-11
3.76907082086316e-11
9.77776163057418e-09
3.11099257631702e-06
4.87856658084281e-06
6.02287954894102e-06
6.67749669498627e-06
7.01060459058408e-06
7.16255574594927e-06
7.22523539177659e-06
7.24882979549841e-06
7.25700693274568e-06
7.25963729847626e-06
7.26042798281535e-06
7.26065103878343e-06
7.26070993048718e-06
7.26072407427602e-06
7.26072667870802e-06
7.26072653716049e-06
7.26072586883687e-06
7.26072514109354e-06
7.26072445653635e-06
7.26072383393076e-06
7.26072327428845e-06
7.26072277617165e-06
7.26072233796619e-06
7.2607219591996e-06
7.26072164018601e-06
7.26072138382675e-06
7.26072119481206e-06
7.26072107425091e-06
7.26072100698305e-06
7.26072096636521e-06
7.26072084477257e-06
7.26072006877372e-06
7.26071628062088e-06
7.26070028405982e-06
7.26063763049134e-06
7.26040596378485e-06
7.2595960335652e-06
7.25692825473761e-06
7.24869733947608e-06
7.22508050885738e-06
7.16257832313031e-06
7.01137308213164e-06
6.68008445323894e-06
6.02857113983252e-06
4.88780334977445e-06
3.12201229029016e-06
9.85749180978045e-09
3.83091929518504e-11
3.85447781747915e-11
1.00114719146912e-08
3.18488246664394e-06
4.99139193728686e-06
6.16058340855541e-06
6.82967133926329e-06
7.17042337655674e-06
7.32604694304834e-06
7.39033813582816e-06
7.41458251856537e-06
7.42300232369611e-06
7.42571719569144e-06
7.42653557407929e-06
7.42676728938732e-06
7.42682883843321e-06
7.42684384432462e-06
7.42684678560248e-06
7.42684681581051e-06
7.42684625730833e-06
7.42684561325363e-06
7.42684499576704e-06
7.42684442700635e-06
7.42684390960578e-06
7.42684344306975e-06
7.42684302631463e-06
7.42684265906277e-06
7.42684234132618e-06
7.42684207466229e-06
7.42684186129913e-06
7.4268417020724e-06
7.42684158842939e-06
7.42684149078172e-06
7.42684128410597e-06
7.42684039430586e-06
7.42683643534936e-06
7.42682005111082e-06
7.4267561735275e-06
7.42652016812301e-06
7.42569482947122e-06
7.42297473820893e-06
7.41457747988323e-06
7.39047120105208e-06
7.32664935892042e-06
7.17221286320291e-06
6.83379501924659e-06
6.16818622847245e-06
5.00248918431375e-06
3.19713070039154e-06
1.00945631709338e-08
3.91711571294857e-11
3.91091637877738e-11
1.01676622618908e-08
3.23475391610045e-06
5.06773759510025e-06
6.25396136092455e-06
6.93303579796174e-06
7.2791109131489e-06
7.43731724819576e-06
7.50275397825738e-06
7.52746564061833e-06
7.53606198541668e-06
7.53883910341644e-06
7.53967815154498e-06
7.5399164258974e-06
7.53998002597322e-06
7.53999571322854e-06
7.53999893162452e-06
7.53999910984321e-06
7.53999864748923e-06
7.53999807754683e-06
7.53999752007729e-06
7.53999700009384e-06
7.53999652159477e-06
7.53999608487164e-06
7.53999568929469e-06
7.53999533477848e-06
7.53999502120199e-06
7.53999474942586e-06
7.53999452037841e-06
7.53999433425064e-06
7.53999418428559e-06
7.53999404040244e-06
7.53999377021141e-06
7.53999279328219e-06
7.53998870360922e-06
7.53997204141064e-06
7.53990732810884e-06
7.53966840513006e-06
7.53883271848691e-06
7.53607740475403e-06
7.52756779574927e-06
7.5031300514821e-06
7.43841276688595e-06
7.28178109278737e-06
6.93851717096301e-06
6.26332503002097e-06
5.08067412116171e-06
3.2483764859812e-06
1.02551836852499e-08
3.97489013328827e-11
3.94711125393165e-11
1.0268972854844e-08
3.2674591254761e-06
5.11797130341982e-06
6.3155614987962e-06
7.00135870437999e-06
7.35105152166259e-06
7.51103131341255e-06
7.57726328678782e-06
7.60230309729218e-06
7.61102491503083e-06
7.61384682934907e-06
7.6147009495227e-06
7.61494407625775e-06
7.61500922091659e-06
7.61502543245979e-06
7.61502887119683e-06
7.61502917124446e-06
7.61502878894777e-06
7.61502828158298e-06
7.6150277753377e-06
7.61502729752879e-06
7.6150268532463e-06
7.61502644340456e-06
7.61502606773835e-06
7.61502572632537e-06
7.61502541899707e-06
7.61502514623704e-06
7.61502490825543e-06
7.61502470465173e-06
7.61502452891805e-06
7.61502435070906e-06
7.61502403428575e-06
7.61502299386718e-06
7.61501880925171e-06
7.61500195443581e-06
7.61493668608887e-06
7.6146958541681e-06
7.61385340738234e-06
7.61107502823281e-06
7.60249162447537e-06
7.57783559303695e-06
7.51252744577613e-06
7.35444534653371e-06
7.00797688201521e-06
6.32644424479345e-06
5.13256904021345e-06
3.28241085972419e-06
1.03610831697433e-08
4.01258340337446e-11
3.9696794626026e-11
1.03328623519615e-08
3.28832804123773e-06
5.15015184535742e-06
6.35514182348042e-06
7.04535673485068e-06
7.39745067965399e-06
7.55862011825318e-06
7.62539156176586e-06
7.65065660176889e-06
7.65946559219477e-06
7.66231902240206e-06
7.66318388645286e-06
7.66343052185132e-06
7.66349680271234e-06
7.66351340769399e-06
7.66351701734257e-06
7.66351741478751e-06
7.66351709622571e-06
7.6635166399665e-06
7.66351617608771e-06
7.66351573368094e-06
7.66351531867799e-06
7.66351493246008e-06
7.6635145750363e-06
7.6635142466173e-06
7.66351394701989e-06
7.66351367651714e-06
7.66351343490829e-06
7.66351322134397e-06
7.66351302913141e-06
7.66351282761884e-06
7.66351247938258e-06
7.66351139506116e-06
7.6635071448534e-06
7.66349016129566e-06
7.66342453470111e-06
7.66318248734055e-06
7.66233574248344e-06
7.65954266388118e-06
7.65091209114006e-06
7.62611616468032e-06
7.56042856867823e-06
7.40141362058453e-06
7.05288192146785e-06
6.36726332887676e-06
5.1661471427914e-06
3.30444581690236e-06
1.04291358230711e-08
4.03655958038934e-11
3.98338434835761e-11
1.03720994136154e-08
3.3013034149284e-06
5.17024954599202e-06
6.37994342086971e-06
7.07299445670229e-06
7.4266459949572e-06
7.58859563517068e-06
7.65572495206137e-06
7.68114119251483e-06
7.69000942629676e-06
7.6928845476327e-06
7.69375690421777e-06
7.69400602152259e-06
7.69407311976598e-06
7.69409001320753e-06
7.69409375459551e-06
7.69409422984954e-06
7.69409395857797e-06
7.69409354319383e-06
7.69409311379128e-06
7.69409270071504e-06
7.69409231051642e-06
7.69409194491419e-06
7.69409160411059e-06
7.69409128841071e-06
7.69409099763383e-06
7.69409073193399e-06
7.69409049086033e-06
7.69409027325275e-06
7.69409007216236e-06
7.69408985663326e-06
7.69408948831643e-06
7.69408837563272e-06
7.69408408261915e-06
7.6940670164458e-06
7.6940011655153e-06
7.69375836502089e-06
7.69290895889505e-06
7.69010675593639e-06
7.68144681563846e-06
7.65656355558036e-06
7.59063856295202e-06
7.43103900355852e-06
7.08121252265282e-06
6.39302652844651e-06
5.18735357155057e-06
3.31837169241021e-06
1.04718239665513e-08
4.05145140450803e-11
3.99150289215287e-11
1.03956028037283e-08
3.30917529951408e-06
5.18250185669352e-06
6.39511838425129e-06
7.08994992695375e-06
7.44458988465335e-06
7.60704021023671e-06
7.67440188246632e-06
7.69991748283231e-06
7.70882513334144e-06
7.71171487161793e-06
7.71259234453063e-06
7.71284318117938e-06
7.71291085555896e-06
7.71292795620147e-06
7.71293179561934e-06
7.71293232970352e-06
7.71293209893119e-06
7.71293171622466e-06
7.71293131482313e-06
7.71293092606581e-06
7.71293055695861e-06
7.71293020944554e-06
7.71292988385704e-06
7.71292958056476e-06
7.71292929939422e-06
7.71292904042856e-06
7.71292880306193e-06
7.71292858592052e-06
7.71292838183946e-06
7.71292815961076e-06
7.71292778033827e-06
7.71292665112405e-06
7.71292233221429e-06
7.71290521563746e-06
7.71283922888716e-06
7.71259597440905e-06
7.71174496253415e-06
7.70893723778188e-06
7.70025946854429e-06
7.67532303989421e-06
7.60925318560741e-06
7.44929621132408e-06
7.09867682466136e-06
6.40891600075079e-06
5.20044248220644e-06
3.32697392084406e-06
1.04979991744677e-08
4.06049585719522e-11
3.99620109164739e-11
1.04093542034454e-08
3.31384128164954e-06
5.18980230252448e-06
6.40419560251765e-06
7.10012132580811e-06
7.45537547113124e-06
7.61814050300445e-06
7.68564996352668e-06
7.7112295364331e-06
7.72016288454812e-06
7.72306227554483e-06
7.72394317290401e-06
7.72419517765059e-06
7.72426325102159e-06
7.72428049892878e-06
7.72428441018421e-06
7.72428499088546e-06
7.72428479313059e-06
7.72428443680996e-06
7.72428405845299e-06
7.7242836901867e-06
7.72428333933637e-06
7.72428300799154e-06
7.72428269655731e-06
7.72428240544604e-06
7.72428213449525e-06
7.72428188374363e-06
7.724281652484e-06
7.72428143919471e-06
7.72428123654964e-06
7.72428101315026e-06
7.72428062977028e-06
7.72427949274063e-06
7.72427516006189e-06
7.72425801494668e-06
7.72419194935285e-06
7.72394842911867e-06
7.72309647277942e-06
7.72028548704814e-06
7.71159715131895e-06
7.6866291175514e-06
7.62047293841156e-06
7.46030252416485e-06
7.10920871332318e-06
6.41850372904353e-06
5.2083472242649e-06
3.33217398376928e-06
1.05137083095902e-08
4.06587409799057e-11
3.99886034373409e-11
1.04172223484699e-08
3.31654658052191e-06
5.19405859651591e-06
6.40950986807052e-06
7.10609447745907e-06
7.46172271503159e-06
7.62468168708419e-06
7.69228332471935e-06
7.71790329228896e-06
7.72685307264197e-06
7.72975871674617e-06
7.73064186328974e-06
7.73089464763489e-06
7.7309629934441e-06
7.73098034586611e-06
7.73098431066414e-06
7.73098492811586e-06
7.73098475720124e-06
7.73098442261358e-06
7.73098406370054e-06
7.73098371315579e-06
7.73098337852086e-06
7.73098306196407e-06
7.73098276392966e-06
7.73098248485363e-06
7.73098222458652e-06
7.73098198313987e-06
7.7309817597398e-06
7.7309815527565e-06
7.73098135474908e-06
7.73098113418516e-06
7.73098075163928e-06
7.73097961299804e-06
7.73097527497728e-06
7.73095811579754e-06
7.73089200717904e-06
7.73064833662539e-06
7.72979583912796e-06
7.72698297284771e-06
7.71828851713833e-06
7.69330211705558e-06
7.62709563662899e-06
7.46680055958541e-06
7.11542904414523e-06
6.42417012001033e-06
5.21302353217283e-06
3.33525360398273e-06
1.05229464991745e-08
4.06900887652441e-11
4.00033368092556e-11
1.04216286055236e-08
3.31808213342765e-06
5.19648881058964e-06
6.41255769854752e-06
7.10953148325019e-06
7.4653832971233e-06
7.62845957212949e-06
7.69611764592628e-06
7.72176265462304e-06
7.73072275181267e-06
7.73363237397749e-06
7.73451697209356e-06
7.734770268672e-06
7.73483879874146e-06
7.7348562258146e-06
7.73486023151629e-06
7.73486087837842e-06
7.73486072965636e-06
7.7348604135488e-06
7.73486007164857e-06
7.73485973698866e-06
7.73485941723764e-06
7.73485911460522e-06
7.73485882952937e-06
7.73485856246889e-06
7.7348583132935e-06
7.73485808199718e-06
7.73485786775634e-06
7.73485766885894e-06
7.73485747778348e-06
7.73485726290696e-06
7.73485688468814e-06
7.73485574876398e-06
7.73485141115531e-06
7.73483424736712e-06
7.73476811788597e-06
7.73452436634143e-06
7.73367156790064e-06
7.73085764326507e-06
7.72215972184977e-06
7.69716287830888e-06
7.63092770612345e-06
7.47056133411905e-06
7.11903060784555e-06
6.42745328813176e-06
5.2157359192363e-06
3.33704202998694e-06
1.05282747880527e-08
4.07080138399348e-11
4.0011325308235e-11
1.0424043536419e-08
3.31893546166676e-06
5.19784796346548e-06
6.41427055349648e-06
7.11146999372955e-06
7.46745304260467e-06
7.63059902366982e-06
7.69829105236632e-06
7.72395131743353e-06
7.73291778153613e-06
7.73582989194493e-06
7.73671541195783e-06
7.73696904072875e-06
7.73703769497924e-06
7.73705517632895e-06
7.73705921429309e-06
7.73705988525421e-06
7.73705975547015e-06
7.73705945567346e-06
7.73705912925437e-06
7.73705880935354e-06
7.73705850369725e-06
7.73705821451312e-06
7.73705794218389e-06
7.73705768719942e-06
7.73705744945697e-06
7.73705722894436e-06
7.73705702479684e-06
7.73705683523975e-06
7.73705665269028e-06
7.73705644547163e-06
7.73705607397996e-06
7.73705494372374e-06
7.73705061040288e-06
7.73703344817586e-06
7.73696731151379e-06
7.73672352014604e-06
7.73587056139684e-06
7.73305605838282e-06
7.72435622186123e-06
7.69935357136549e-06
7.63310237817074e-06
7.47269606530793e-06
7.12107588868873e-06
6.42931916855022e-06
5.2172791569695e-06
3.33806090712007e-06
1.05312901900932e-08
4.07180733287735e-11
4.00155508915759e-11
1.0425335213289e-08
3.31939861819502e-06
5.19859105323919e-06
6.41521224121535e-06
7.11254011899712e-06
7.46859885120276e-06
7.63178555377249e-06
7.69949767392961e-06
7.7251670828105e-06
7.73413741366954e-06
7.73705105614159e-06
7.73793715319857e-06
7.73819099518676e-06
7.738259733387e-06
7.73827725530505e-06
7.73828131962066e-06
7.73828201106504e-06
7.7382818980625e-06
7.73828161313134e-06
7.73828130132614e-06
7.73828099559235e-06
7.73828070366457e-06
7.73828042780495e-06
7.73828016822647e-06
7.73827992548145e-06
7.73827969952489e-06
7.73827949033878e-06
7.7382792970294e-06
7.73827911777009e-06
7.73827894492917e-06
7.73827874680051e-06
7.73827838375447e-06
7.7382772612583e-06
7.73827293494622e-06
7.73825577852236e-06
7.73818964345576e-06
7.73794583707848e-06
7.73709280033422e-06
7.73427799680111e-06
7.72557713936431e-06
7.7005713529517e-06
7.63431143992893e-06
7.47388326923221e-06
7.1222139344597e-06
6.43035825973082e-06
5.21813962503299e-06
3.3386298356749e-06
1.05329632404369e-08
4.07236095395195e-11
4.00177028521693e-11
1.04260011784936e-08
3.31964144750325e-06
5.19898439407378e-06
6.41571434936668e-06
7.11311373652522e-06
7.46921525449165e-06
7.63242531381024e-06
7.7001491194044e-06
7.72582391954471e-06
7.73479656376417e-06
7.7377111353946e-06
7.73859758856632e-06
7.73885156607692e-06
7.73892036131881e-06
7.7389379143144e-06
7.73894200080067e-06
7.73894271040744e-06
7.73894261253162e-06
7.73894234105156e-06
7.73894204325197e-06
7.73894175130698e-06
7.73894147291653e-06
7.73894121046037e-06
7.73894096373804e-06
7.73894073343375e-06
7.7389405196087e-06
7.73894032225669e-06
7.73894014045642e-06
7.73893997233891e-06
7.7389398102365e-06
7.73893962242202e-06
7.73893926927184e-06
7.73893815627331e-06
7.73893383921182e-06
7.73891669198331e-06
7.73885056488135e-06
7.73860675968557e-06
7.73775369533403e-06
7.73493875601547e-06
7.72623739892433e-06
7.70123001901553e-06
7.63496557934523e-06
7.47452590383036e-06
7.12283044975426e-06
6.43092182739693e-06
5.21860706660647e-06
3.33893951281151e-06
1.05338689039378e-08
4.07265841725733e-11
4.00187026878852e-11
1.04263157625645e-08
3.31975893943161e-06
5.19917807082544e-06
6.41596481281994e-06
7.11340247913821e-06
7.46952740701623e-06
7.63275049968767e-06
7.70048094330198e-06
7.72615885766196e-06
7.73513286657306e-06
7.73804799208812e-06
7.73893466088735e-06
7.7391887228922e-06
7.73925755639003e-06
7.73927513295834e-06
7.73927923803972e-06
7.73927996363528e-06
7.73927987858647e-06
7.73927961909064e-06
7.7392793344493e-06
7.73927905572097e-06
7.73927879054879e-06
7.73927854162124e-06
7.73927830785445e-06
7.73927809021089e-06
7.73927788893809e-06
7.73927770405201e-06
7.73927753461536e-06
7.73927737872025e-06
7.73927722867132e-06
7.73927705272537e-06
7.73927671128341e-06
7.73927560991241e-06
7.73927130472985e-06
7.73925417031185e-06
7.7391880570662e-06
7.73894426593259e-06
7.73809120968629e-06
7.7352762430243e-06
7.72657471370595e-06
7.70156667943189e-06
7.63530021208399e-06
7.47485510981691e-06
7.12314692580732e-06
6.43121192111727e-06
5.21884851772998e-06
3.33910016411587e-06
1.05343378307966e-08
4.07281172252256e-11
4.00190178929246e-11
1.04264188103038e-08
3.31980014494508e-06
5.19925026580671e-06
6.41606232820483e-06
7.11351827764972e-06
7.46965500438504e-06
7.63288495276818e-06
7.70061901230244e-06
7.72629867664811e-06
7.73527350067931e-06
7.73818895934051e-06
7.73907576247906e-06
7.73932988160886e-06
7.73939874511132e-06
7.73941634336767e-06
7.73942046727614e-06
7.73942120958532e-06
7.73942113809401e-06
7.73942089112321e-06
7.73942062030792e-06
7.73942035539156e-06
7.73942010391756e-06
7.73941986904819e-06
7.73941964845292e-06
7.73941944361492e-06
7.73941925496207e-06
7.73941908252465e-06
7.73941892534452e-06
7.73941878146886e-06
7.73941864315236e-06
7.73941847861306e-06
7.7394181482574e-06
7.73941705775456e-06
7.73941276363729e-06
7.73939564142711e-06
7.73932954292671e-06
7.73908577256795e-06
7.73823274998321e-06
7.7354178380426e-06
7.7267163781578e-06
7.70170835243872e-06
7.63544154704571e-06
7.47499498689532e-06
7.12328258541297e-06
6.43133774425961e-06
5.21895475444344e-06
3.3391720323361e-06
1.05345508736817e-08
4.0728821901367e-11
4.00188005967771e-11
1.04263587047281e-08
3.31978403357125e-06
5.1992327256278e-06
6.4160480814224e-06
7.11350864772023e-06
7.4696494057481e-06
7.63288215524492e-06
7.70061787949766e-06
7.72629842182948e-06
7.73527367218522e-06
7.73818932251223e-06
7.73907621476539e-06
7.73933037918987e-06
7.73939927179782e-06
7.73941689398177e-06
7.73942103966459e-06
7.7394218020491e-06
7.7394217471369e-06
7.73942151458743e-06
7.73942125938349e-06
7.7394210097475e-06
7.73942077292774e-06
7.73942055204303e-06
7.73942034474593e-06
7.73942015273369e-06
7.73941997636843e-06
7.73941981565454e-06
7.73941966959776e-06
7.73941953617051e-06
7.73941940753062e-06
7.73941925180092e-06
7.7394189293485e-06
7.73941784593456e-06
7.7394135585088e-06
7.73939644371396e-06
7.73933035654967e-06
7.73908661027138e-06
7.73823364600868e-06
7.73541887365294e-06
7.72671772573136e-06
7.70171033572962e-06
7.63544469082341e-06
7.47499999349233e-06
7.12329014502125e-06
6.43134809614956e-06
5.21896696653402e-06
3.33918311403485e-06
1.05345944769264e-08
4.07289983612674e-11
4.00179802215249e-11
1.04261193948388e-08
3.3197068784918e-06
5.19912179743532e-06
6.41591938988612e-06
7.11337203533681e-06
7.46951000967109e-06
7.63274216819686e-06
7.70047799976161e-06
7.72615875219809e-06
7.7351341248066e-06
7.73804986804844e-06
7.73893681346769e-06
7.73919101049644e-06
7.73925992722869e-06
7.73927757072756e-06
7.73928173632092e-06
7.73928251833833e-06
7.73928247993148e-06
7.739282260638e-06
7.73928202042359e-06
7.73928178562606e-06
7.7392815629315e-06
7.739281354943e-06
7.73928116072158e-06
7.73928098147283e-06
7.73928081739785e-06
7.73928066845908e-06
7.73928053361224e-06
7.73928041073379e-06
7.73928029185602e-06
7.73928014497682e-06
7.73927983042405e-06
7.73927875410676e-06
7.73927447351629e-06
7.73925736699626e-06
7.73919129562421e-06
7.73894758943841e-06
7.73809473240247e-06
7.7352802358738e-06
7.72657975302997e-06
7.70157385207076e-06
7.63531128786779e-06
7.47487246344402e-06
7.12317288099931e-06
6.43124724522819e-06
5.21889002434691e-06
3.33913760776529e-06
1.05344817392064e-08
4.07286763510587e-11
4.00163062056883e-11
1.04256231917776e-08
3.31954146012039e-06
5.19887702198678e-06
6.41562842234838e-06
7.11305694788141e-06
7.46918376468089e-06
7.63241139878101e-06
7.70014564712577e-06
7.72582593977545e-06
7.73480120933921e-06
7.73771695462911e-06
7.73860392001439e-06
7.73885813646546e-06
7.7389270707138e-06
7.7389447309965e-06
7.73894891261487e-06
7.7389497120682e-06
7.73894968854507e-06
7.73894948050764e-06
7.73894925374026e-06
7.73894903255021e-06
7.73894882303448e-06
7.73894862752113e-06
7.7389484460485e-06
7.7389482794875e-06
7.73894812793389e-06
7.73894799131e-06
7.73894786851819e-06
7.73894775732322e-06
7.73894764961089e-06
7.73894751324857e-06
7.73894720857003e-06
7.73894614177586e-06
7.73894187131592e-06
7.73892477862707e-06
7.73885873535036e-06
7.73861510095048e-06
7.73776243651132e-06
7.73494844191817e-06
7.72624919560821e-06
7.70124614103115e-06
7.63498966084873e-06
7.47456285195041e-06
7.12288507700999e-06
6.43099568574984e-06
5.21869347099433e-06
3.33901706213368e-06
1.05341657549331e-08
4.07277469661232e-11
4.0013149049071e-11
1.0424688265745e-08
3.31922820965214e-06