/*--------------------------------*- C++ -*----------------------------------*\
  =========                 |
  \\      /  F ield         | OpenFOAM: The Open Source CFD Toolbox
   \\    /   O peration     | Website:  https://openfoam.org
    \\  /    A nd           | Version:  10
     \\/     M anipulation  |
\*---------------------------------------------------------------------------*/
FoamFile
{
    format      ascii;
    class       volScalarField;
    location    "3.2";
    object      h;
}
// * * * * * * * * * * * * * * * * * * * * * * * * * * * * * * * * * * * * * //

dimensions      [0 2 -2 0 0 0 0];

internalField   nonuniform List<scalar> 
2500
(
6996.78731633409
6966.45664726523
6942.41031325853
6931.94516313215
6927.95674859577
6926.49632471067
6925.98265027668
6925.81028447952
6925.75468780848
6925.73786662521
6925.73148826175
6925.72890468378
6925.72770951288
6925.72647327257
6925.72535520557
6925.7241411548
6925.72350024477
6925.72271854281
6925.72183217118
6925.72119961489
6925.72061356342
6925.72004305288
6925.71954811129
6925.7193065559
6925.71905093938
6925.71874744843
6925.71864506776
6925.71855419546
6925.71848775472
6925.71857119982
6925.71868340563
6925.7188547605
6925.71921348665
6925.71969250061
6925.72014729179
6925.72063450441
6925.7212111758
6925.72178203803
6925.72313990719
6925.72555194517
6925.73203492672
6925.75188468569
6925.81354200934
6925.99883541719
6926.53336667558
6928.00470030652
6931.96858332969
6942.41654303699
6966.79848245585
6996.65666343383
5259.01459782537
5169.2177449385
5102.462631133
5070.94716160919
5057.52266102209
5052.07572138456
5049.98455441943
5049.23476480001
5048.98469305052
5048.90712914847
5048.88392262258
5048.87721362303
5048.87534722686
5048.87450000073
5048.8739288918
5048.87339633382
5048.87309351971
5048.872738949
5048.87232408661
5048.8719910446
5048.87162207212
5048.87118670535
5048.87078172228
5048.87061821164
5048.87050020985
5048.87029677283
5048.87024755939
5048.87019987099
5048.87006033891
5048.87015622542
5048.87020354362
5048.87012362337
5048.87052147371
5048.87107063738
5048.87132174585
5048.87151793286
5048.87187844596
5048.87262015758
5048.87516044609
5048.88342530277
5048.91124947348
5049.00137736862
5049.27718584767
5050.07017573433
5052.2089659329
5057.65150577276
5070.95155194362
5102.43711430905
5170.40906905838
5259.75333440598
3819.31482257642
3712.7702263961
3637.57945674867
3602.02710767629
3586.87646765581
3580.72051749175
3578.34618505158
3577.48862372981
3577.20038847765
3577.11027077601
3577.08357742633
3577.07614717122
3577.07437951489
3577.0738674006
3577.0736619562
3577.07353123344
3577.07346834582
3577.07338153947
3577.07324576742
3577.07312441692
3577.07294722329
3577.07268659072
3577.07241171421
3577.07228435351
3577.0722332774
3577.07210073677
3577.07209644651
3577.07209440287
3577.0719812913
3577.07206814726
3577.07206750883
3577.07192991667
3577.07225032678
3577.07270400822
3577.07270872353
3577.07264598484
3577.07290030127
3577.07358485983
3577.07613311528
3577.08519669027
3577.11640511838
3577.2182044135
3577.52984948359
3578.42481198355
3580.83583809901
3586.97678356517
3602.02111520818
3637.69231038262
3714.62760184023
3823.06025973615
2859.18009479009
2773.16099617786
2719.3033458548
2694.58622542719
2684.50810889388
2680.57366705323
2679.09739946212
2678.57239804068
2678.39719907152
2678.34253459001
2678.3263325672
2678.32189829909
2678.32096336653
2678.32076481201
2678.32075480259
2678.32076231703
2678.32078019027
2678.32077904556
2678.32075387569
2678.32073543787
2678.32068111163
2678.32055917768
2678.32040047283
2678.3203085675
2678.32029097082
2678.32024955874
2678.32025499674
2678.3202977475
2678.32028059518
2678.32028391155
2678.32028138097
2678.32017733134
2678.32032950552
2678.32055669376
2678.32055095729
2678.3205435247
2678.3205541935
2678.32078885874
2678.32218240901
2678.32728374595
2678.34518044597
2678.40458878185
2678.58925553029
2679.12929279439
2680.61979637382
2684.54703028107
2694.60182764245
2719.55950094406
2774.99619594684
2864.40369245657
2317.60274556674
2263.0031600114
2232.54632221289
2218.9443390218
2213.6001987469
2211.58467380072
2210.84571065267
2210.58572359134
2210.49912261575
2210.47201361657
2210.46391611668
2210.46171539386
2210.46132293359
2210.46128021835
2210.46130236464
2210.46133335165
2210.46136516888
2210.46138746879
2210.46139415898
2210.46139441174
2210.4613836874
2210.4613419543
2210.46126650753
2210.46121516694
2210.46122210928
2210.4612319201
2210.46123733947
2210.46125968717
2210.46125216278
2210.46124747294
2210.46124564296
2210.46117705823
2210.46124659683
2210.46134286794
2210.46133827845
2210.46134237035
2210.46133486291
2210.46137705666
2210.4619547134
2210.46432105063
2210.47276330295
2210.5010903559
2210.58994324875
2210.85297328012
2211.59285619985
2213.60015760962
2218.94313810289
2232.74361603728
2264.32318948708
2322.20269178205
2050.46650990295
2021.31468000164
2006.71048825678
2000.33791872108
1997.90549839931
1997.01372189513
1996.6929898564
1996.58100282657
1996.54365656046
1996.53189550178
1996.52834659162
1996.5273887045
1996.52724475439
1996.52724560654
1996.52726747376
1996.52729078371
1996.52731397757
1996.52733229796
1996.52734203959
1996.5273466347
1996.52734717123
1996.52733332815
1996.52730404773
1996.5272850923
1996.5272924603
1996.52730205006
1996.52730619928
1996.52731754978
1996.52731484334
1996.52731215109
1996.52731096385
1996.52727637496
1996.5273027827
1996.52733733396
1996.52732778996
1996.52732510303
1996.5273208822
1996.52732447991
1996.52753486774
1996.52849821494
1996.53201781938
1996.54388763021
1996.58126234238
1996.69267643191
1997.01051613154
1997.89392032268
2000.32305336619
2006.80700781566
2022.07173838344
2053.55881916323
1932.45191022207
1918.82947955791
1912.63994885549
1909.99378191723
1909.00565377849
1908.65150111788
1908.5261579669
1908.48264209917
1908.46809148799
1908.46347547057
1908.46206948162
1908.46169361649
1908.46164528396
1908.46165266908
1908.46166621915
1908.46167919042
1908.46169177701
1908.46170189852
1908.46170815195
1908.46171127644
1908.46171360945
1908.46170971459
1908.46169940435
1908.46169508667
1908.46169945592
1908.46170363176
1908.46170593274
1908.46171084532
1908.46171013161
1908.46170902298
1908.46170836796
1908.46169336312
1908.46170205139
1908.46171256119
1908.46170926672
1908.46170819364
1908.46170175896
1908.46169672672
1908.46176494607
1908.46212439712
1908.46346734453
1908.46799744241
1908.4822567447
1908.52487717181
1908.64765769839
1908.99562647955
1909.97823804334
1912.67316637792
1919.19531436466
1934.17545481937
1884.91417778925
1879.19490054478
1876.81183789602
1875.81243435809
1875.44537479011
1875.31613818276
1875.27101062435
1875.25541605291
1875.25018526283
1875.24851313854
1875.24800037555
1875.24786497885
1875.24784968439
1875.24785474833
1875.24786154817
1875.24786768539
1875.24787339723
1875.24787798207
1875.24788107327
1875.24788262507
1875.247884207
1875.24788334208
1875.24788015438
1875.24788016042
1875.24788229117
1875.2478835893
1875.24788455048
1875.24788635818
1875.24788647325
1875.24788578048
1875.24788511063
1875.24787956684
1875.247882114
1875.24788467356
1875.2478832237
1875.24788294994
1875.24787920925
1875.24787554798
1875.24789577006
1875.24802071529
1875.24849891764
1875.25010692946
1875.2551509414
1875.2702158115
1875.31387940552
1875.43952317979
1875.80200426821
1876.81900656562
1879.34922083087
1885.74812635497
1867.21202522611
1865.01414593986
1864.16441071734
1863.8148374972
1863.68806917521
1863.64404343428
1863.62884285457
1863.62361151076
1863.62185162427
1863.62128502801
1863.62111056522
1863.62106513684
1863.62106056092
1863.62106302836
1863.62106600011
1863.62106858017
1863.62107087263
1863.62107270839
1863.62107403571
1863.62107472291
1863.62107543512
1863.62107535705
1863.62107462125
1863.62107506253
1863.621075884
1863.62107631706
1863.62107666293
1863.62107724237
1863.62107735428
1863.62107704108
1863.62107671832
1863.62107478059
1863.62107541722
1863.62107582093
1863.62107512699
1863.62107491554
1863.62107318601
1863.62107145038
1863.6210769974
1863.62111829714
1863.62127920633
1863.62181727344
1863.62349565662
1863.62849168566
1863.64301513036
1863.68528629619
1863.80932883628
1864.16421270835
1865.07233100755
1867.57271407125
1861.05152316182
1860.26763869921
1859.98308312532
1859.86832360798
1859.82712585359
1859.81296518896
1859.80812154202
1859.80646095098
1859.8059009949
1859.80571962148
1859.80566367348
1859.80564940664
1859.80564810732
1859.80564902565
1859.80565019024
1859.80565117615
1859.80565201822
1859.8056527
1859.80565322119
1859.80565350236
1859.80565377287
1859.80565381832
1859.80565372374
1859.80565397552
1859.80565424536
1859.80565438862
1859.80565450528
1859.80565467286
1859.80565471041
1859.80565459605
1859.80565446884
1859.80565382385
1859.80565394195
1859.80565391814
1859.80565361495
1859.80565347297
1859.80565278414
1859.80565208004
1859.80565353785
1859.80566662024
1859.80571818701
1859.80588947625
1859.80642013517
1859.80799159274
1859.81256166317
1859.82597011782
1859.86584164738
1859.98189643379
1860.287565317
1861.19381229201
1859.03037923917
1858.76813259897
1858.67771887879
1858.64200155099
1858.62928728528
1858.62495010315
1858.62347781271
1858.62297490094
1858.62280505263
1858.62274977471
1858.6227327201
1858.62272844398
1858.62272808752
1858.62272842167
1858.62272883976
1858.62272918731
1858.62272947567
1858.6227297127
1858.62272990245
1858.62273001207
1858.62273010574
1858.62273014658
1858.62273016526
1858.62273025922
1858.62273033604
1858.62273038159
1858.62273042012
1858.62273046545
1858.62273047239
1858.62273043357
1858.62273038892
1858.62273020516
1858.62273019443
1858.62273015463
1858.62273005332
1858.62272994642
1858.6227296985
1858.62272948346
1858.62272986382
1858.62273381393
1858.62274963879
1858.62280185203
1858.62296242778
1858.62343495336
1858.62480688749
1858.62885251977
1858.64100516726
1858.67693492365
1858.7743982116
1859.08233767869
1858.40078505627
1858.3177945966
1858.29033041928
1858.27970865403
1858.27595592914
1858.27468267059
1858.27425303499
1858.27410678892
1858.27405736027
1858.27404121713
1858.27403624003
1858.27403500804
1858.27403491423
1858.27403502729
1858.27403516601
1858.27403527984
1858.27403537248
1858.27403544952
1858.27403551381
1858.27403555426
1858.27403558533
1858.27403560402
1858.27403561944
1858.27403564961
1858.27403567111
1858.274035685
1858.27403569769
1858.27403570951
1858.2740357092
1858.27403569629
1858.27403568185
1858.27403563242
1858.27403561768
1858.2740356
1858.27403556139
1858.27403551197
1858.27403542962
1858.27403536378
1858.27403546409
1858.27403662465
1858.27404129487
1858.27405660687
1858.27410335388
1858.27423997162
1858.27463536633
1858.27580431096
1858.27934238799
1858.2899555313
1858.3196153678
1858.41854520288
1858.21347407159
1858.18846207941
1858.18044156568
1858.1774049779
1858.1763396631
1858.17597955691
1858.1758585936
1858.17581755052
1858.17580367777
1858.17579913578
1858.17579773607
1858.17579739184
1858.17579736677
1858.17579740155
1858.17579744384
1858.17579747819
1858.17579750573
1858.17579752883
1858.17579754887
1858.1757975625
1858.17579757217
1858.17579757868
1858.17579758457
1858.17579759315
1858.17579759885
1858.17579760285
1858.17579760691
1858.17579760992
1858.17579760902
1858.17579760485
1858.17579760055
1858.17579758773
1858.17579758136
1858.17579757455
1858.17579756089
1858.17579754319
1858.17579751826
1858.17579749921
1858.17579752764
1858.17579785986
1858.17579919085
1858.17580352666
1858.17581667034
1858.17585481206
1858.17596472825
1858.17628985344
1858.17727939117
1858.18028868785
1858.18895238194
1858.21920661927
1858.15998749318
1858.15276844505
1858.15050701533
1858.14966846229
1858.14937628716
1858.14927776909
1858.1492447807
1858.14923361869
1858.14922984673
1858.14922860898
1858.1492282266
1858.14922813153
1858.14922812349
1858.14922813247
1858.14922814368
1858.14922815264
1858.1492281597
1858.1492281656
1858.14922817093
1858.14922817474
1858.14922817726
1858.14922817894
1858.14922818046
1858.14922818245
1858.14922818363
1858.14922818458
1858.14922818577
1858.1492281865
1858.14922818607
1858.14922818487
1858.14922818374
1858.14922818055
1858.14922817859
1858.14922817663
1858.1492281727
1858.14922816776
1858.14922816139
1858.14922815629
1858.14922816596
1858.14922826045
1858.1492286285
1858.14922981825
1858.14923339878
1858.149243715
1858.14927329387
1858.14936069293
1858.14962776725
1858.15045075536
1858.15289055302
1858.16174707027
1858.14526723589
1858.14326265991
1858.1426450031
1858.14242045368
1858.14234274708
1858.14231658787
1858.1423078452
1858.14230489257
1858.1423038941
1858.14230356477
1858.14230346183
1858.14230343452
1858.14230343033
1858.14230343138
1858.14230343312
1858.14230343434
1858.14230343518
1858.14230343589
1858.14230343659
1858.14230343704
1858.14230343719
1858.14230343719
1858.14230343719
1858.14230343733
1858.14230343731
1858.14230343725
1858.14230343743
1858.1423034376
1858.14230343759
1858.14230343739
1858.14230343717
1858.14230343653
1858.14230343639
1858.14230343633
1858.14230343581
1858.14230343534
1858.14230343447
1858.14230343445
1858.14230343924
1858.14230346632
1858.14230356623
1858.14230388456
1858.1423048331
1858.14230754424
1858.14231527214
1858.14233805341
1858.14240787265
1858.14262580201
1858.14329053107
1858.14578379114
1858.14134873246
1858.14081115193
1858.1406472832
1858.14058877709
1858.14056866919
1858.14056190718
1858.14055964807
1858.14055888467
1858.14055862499
1858.14055853766
1858.14055850884
1858.14055849961
1858.14055849654
1858.14055849511
1858.14055849407
1858.14055849307
1858.14055849212
1858.14055849127
1858.14055849055
1858.1405584899
1858.14055848927
1858.1405584887
1858.14055848822
1858.14055848785
1858.14055848753
1858.14055848729
1858.1405584872
1858.14055848717
1858.14055848721
1858.14055848735
1858.14055848755
1858.14055848774
1858.14055848819
1858.14055848876
1858.14055848937
1858.14055849015
1858.14055849106
1858.14055849243
1858.14055849533
1858.14055850422
1858.14055853215
1858.14055861669
1858.140558863
1858.14055955827
1858.14056152452
1858.14056729977
1858.14058503853
1858.1406411089
1858.14081684539
1858.14149445558
1858.14033671115
1858.14019704232
1858.14015469505
1858.14013980491
1858.14013472269
1858.14013301471
1858.14013244248
1858.14013224737
1858.14013217919
1858.14013215455
1858.14013214485
1858.1401321403
1858.14013213752
1858.14013213538
1858.14013213355
1858.1401321319
1858.14013213042
1858.14013212911
1858.14013212797
1858.14013212697
1858.14013212609
1858.14013212533
1858.14013212469
1858.14013212418
1858.14013212377
1858.14013212348
1858.14013212332
1858.14013212326
1858.14013212333
1858.14013212354
1858.14013212386
1858.14013212431
1858.14013212494
1858.14013212573
1858.1401321267
1858.14013212787
1858.14013212928
1858.14013213102
1858.14013213338
1858.14013213749
1858.14013214665
1858.1401321703
1858.14013223459
1858.14013241052
1858.14013290045
1858.14013433014
1858.14013872885
1858.14015280388
1858.1401980162
1858.14037636927
1858.14008245111
1858.14004722217
1858.14003651808
1858.14003278681
1858.14003152243
1858.14003109758
1858.14003095339
1858.14003090225
1858.14003088253
1858.14003087374
1858.14003086886
1858.14003086549
1858.14003086277
1858.14003086043
1858.14003085835
1858.1400308565
1858.14003085486
1858.1400308534
1858.14003085212
1858.14003085101
1858.14003085004
1858.14003084921
1858.14003084852
1858.14003084796
1858.14003084752
1858.14003084721
1858.14003084703
1858.14003084697
1858.14003084705
1858.14003084728
1858.14003084765
1858.14003084817
1858.14003084886
1858.14003084975
1858.14003085082
1858.14003085213
1858.14003085368
1858.14003085552
1858.14003085774
1858.14003086064
1858.14003086502
1858.14003087321
1858.14003089156
1858.14003093717
1858.14003105871
1858.14003140769
1858.14003248256
1858.14003596032
1858.14004732594
1858.14009289358
1858.1400201643
1858.14001154345
1858.14000886769
1858.14000792339
1858.14000760612
1858.14000749946
1858.14000746147
1858.14000744605
1858.14000743836
1858.14000743352
1858.14000742984
1858.14000742675
1858.14000742404
1858.14000742162
1858.14000741947
1858.14000741754
1858.14000741583
1858.14000741432
1858.14000741298
1858.14000741182
1858.14000741081
1858.14000740995
1858.14000740923
1858.14000740865
1858.1400074082
1858.14000740788
1858.14000740769
1858.14000740764
1858.14000740773
1858.14000740796
1858.14000740835
1858.1400074089
1858.14000740962
1858.14000741054
1858.14000741167
1858.14000741302
1858.14000741463
1858.1400074165
1858.14000741869
1858.14000742128
1858.14000742446
1858.1400074288
1858.14000743579
1858.14000744944
1858.14000748123
1858.14000756803
1858.14000783539
1858.14000870614
1858.1400115259
1858.14002282735
1858.14000525561
1858.14000323234
1858.14000254498
1858.14000228156
1858.14000219425
1858.14000216487
1858.14000215276
1858.14000214608
1858.14000214136
1858.1400021375
1858.14000213413
1858.14000213111
1858.1400021284
1858.14000212595
1858.14000212376
1858.1400021218
1858.14000212005
1858.1400021185
1858.14000211714
1858.14000211595
1858.14000211492
1858.14000211404
1858.1400021133
1858.14000211271
1858.14000211225
1858.14000211192
1858.14000211173
1858.14000211168
1858.14000211178
1858.14000211202
1858.14000211242
1858.14000211298
1858.14000211373
1858.14000211467
1858.14000211582
1858.1400021172
1858.14000211882
1858.14000212072
1858.1400021229
1858.1400021254
1858.14000212827
1858.14000213165
1858.14000213585
1858.14000214177
1858.14000215212
1858.14000217667
1858.14000225225
1858.1400024964
1858.14000321097
1858.14000590971
1858.14000176235
1858.14000133492
1858.14000112921
1858.14000102889
1858.1400009964
1858.14000098553
1858.14000097968
1858.14000097515
1858.14000097119
1858.1400009676
1858.14000096431
1858.14000096131
1858.14000095859
1858.14000095613
1858.14000095391
1858.14000095193
1858.14000095016
1858.14000094859
1858.1400009472
1858.14000094599
1858.14000094494
1858.14000094405
1858.14000094331
1858.1400009427
1858.14000094224
1858.14000094191
1858.14000094172
1858.14000094167
1858.14000094177
1858.14000094201
1858.14000094242
1858.140000943
1858.14000094376
1858.14000094471
1858.14000094588
1858.14000094727
1858.14000094891
1858.14000095081
1858.140000953
1858.14000095547
1858.14000095825
1858.14000096136
1858.14000096485
1858.14000096889
1858.14000097414
1858.14000098413
1858.14000101503
1858.14000111167
1858.14000131925
1858.14000191193
1858.14000095958
1858.14000090946
1858.14000081814
1858.14000075627
1858.14000073671
1858.14000073025
1858.14000072595
1858.14000072199
1858.14000071825
1858.14000071475
1858.1400007115
1858.14000070851
1858.14000070578
1858.14000070331
1858.14000070108
1858.14000069908
1858.14000069729
1858.1400006957
1858.1400006943
1858.14000069308
1858.14000069202
1858.14000069112
1858.14000069037
1858.14000068976
1858.14000068929
1858.14000068896
1858.14000068877
1858.14000068872
1858.14000068882
1858.14000068907
1858.14000068949
1858.14000069007
1858.14000069084
1858.1400006918
1858.14000069298
1858.14000069439
1858.14000069604
1858.14000069795
1858.14000070013
1858.14000070259
1858.14000070533
1858.14000070835
1858.14000071163
1858.14000071517
1858.14000071917
1858.14000072574
1858.14000074635
1858.14000080883
1858.14000089675
1858.14000098564
1858.14000077823
1858.14000081547
1858.14000075089
1858.14000069801
1858.1400006815
1858.14000067614
1858.14000067226
1858.14000066849
1858.14000066483
1858.14000066137
1858.14000065814
1858.14000065515
1858.14000065242
1858.14000064994
1858.1400006477
1858.14000064569
1858.1400006439
1858.1400006423
1858.14000064089
1858.14000063966
1858.14000063859
1858.14000063769
1858.14000063693
1858.14000063631
1858.14000063584
1858.14000063551
1858.14000063532
1858.14000063528
1858.14000063538
1858.14000063563
1858.14000063605
1858.14000063665
1858.14000063742
1858.14000063839
1858.14000063958
1858.14000064099
1858.14000064265
1858.14000064456
1858.14000064674
1858.14000064919
1858.14000065191
1858.14000065489
1858.14000065809
1858.14000066146
1858.14000066512
1858.14000067085
1858.14000068906
1858.1400007437
1858.14000080385
1858.14000077476
1858.14000073781
1858.1400007949
1858.14000073652
1858.14000068575
1858.14000067
1858.14000066493
1858.14000066119
1858.14000065748
1858.14000065387
1858.14000065043
1858.14000064721
1858.14000064423
1858.1400006415
1858.14000063902
1858.14000063678
1858.14000063476
1858.14000063296
1858.14000063136
1858.14000062994
1858.14000062871
1858.14000062764
1858.14000062673
1858.14000062596
1858.14000062535
1858.14000062488
1858.14000062455
1858.14000062436
1858.14000062431
1858.14000062442
1858.14000062468
1858.1400006251
1858.1400006257
1858.14000062648
1858.14000062746
1858.14000062865
1858.14000063007
1858.14000063173
1858.14000063365
1858.14000063582
1858.14000063827
1858.14000064097
1858.14000064392
1858.14000064708
1858.14000065039
1858.14000065393
1858.14000065942
1858.14000067705
1858.14000072988
1858.14000078365
1858.14000072747
1858.14000072892
1858.14000079043
1858.14000073346
1858.14000068319
1858.14000066763
1858.14000066265
1858.14000065896
1858.14000065528
1858.14000065168
1858.14000064826
1858.14000064505
1858.14000064207
1858.14000063935
1858.14000063686
1858.14000063462
1858.1400006326
1858.1400006308
1858.14000062919
1858.14000062778
1858.14000062654
1858.14000062547
1858.14000062456
1858.1400006238
1858.14000062319
1858.14000062272
1858.14000062239
1858.1400006222
1858.14000062216
1858.14000062227
1858.14000062253
1858.14000062296
1858.14000062356
1858.14000062434
1858.14000062532
1858.14000062652
1858.14000062794
1858.1400006296
1858.14000063152
1858.14000063369
1858.14000063614
1858.14000063883
1858.14000064177
1858.14000064491
1858.14000064819
1858.14000065169
1858.14000065711
1858.14000067459
1858.14000072701
1858.14000077934
1858.14000071707
1858.14000072707
1858.14000078953
1858.14000073285
1858.14000068266
1858.14000066713
1858.14000066216
1858.14000065846
1858.14000065478
1858.14000065119
1858.14000064777
1858.14000064456
1858.14000064159
1858.14000063886
1858.14000063638
1858.14000063414
1858.14000063213
1858.14000063033
1858.14000062873
1858.14000062732
1858.14000062609
1858.14000062502
1858.14000062411
1858.14000062336
1858.14000062275
1858.14000062228
1858.14000062195
1858.14000062177
1858.14000062173
1858.14000062184
1858.1400006221
1858.14000062253
1858.14000062313
1858.14000062392
1858.1400006249
1858.1400006261
1858.14000062752
1858.14000062918
1858.1400006311
1858.14000063327
1858.14000063571
1858.14000063841
1858.14000064134
1858.14000064448
1858.14000064776
1858.14000065126
1858.14000065669
1858.14000067416
1858.14000072651
1858.14000077859
1858.14000071497
1858.14000072688
1858.14000078953
1858.1400007328
1858.14000068256
1858.14000066697
1858.14000066196
1858.14000065823
1858.14000065453
1858.14000065092
1858.14000064749
1858.14000064428
1858.14000064131
1858.14000063859
1858.14000063612
1858.14000063389
1858.14000063188
1858.14000063009
1858.1400006285
1858.1400006271
1858.14000062587
1858.14000062481
1858.14000062391
1858.14000062316
1858.14000062255
1858.14000062209
1858.14000062177
1858.14000062159
1858.14000062155
1858.14000062166
1858.14000062193
1858.14000062236
1858.14000062296
1858.14000062374
1858.14000062472
1858.14000062592
1858.14000062734
1858.140000629
1858.14000063091
1858.14000063309
1858.14000063553
1858.14000063823
1858.14000064118
1858.14000064433
1858.14000064764
1858.14000065117
1858.14000065664
1858.14000067417
1858.1400007266
1858.14000077875
1858.14000071485
1858.1400007272
1858.14000078985
1858.14000073294
1858.14000068256
1858.14000066686
1858.14000066176
1858.14000065796
1858.14000065422
1858.14000065058
1858.14000064713
1858.14000064392
1858.14000064095
1858.14000063824
1858.14000063577
1858.14000063355
1858.14000063156
1858.14000062978
1858.1400006282
1858.14000062681
1858.1400006256
1858.14000062455
1858.14000062366
1858.14000062292
1858.14000062232
1858.14000062186
1858.14000062154
1858.14000062137
1858.14000062133
1858.14000062145
1858.14000062171
1858.14000062214
1858.14000062274
1858.14000062352
1858.1400006245
1858.14000062569
1858.1400006271
1858.14000062876
1858.14000063067
1858.14000063285
1858.14000063529
1858.140000638
1858.14000064097
1858.14000064416
1858.14000064752
1858.14000065112
1858.14000065668
1858.14000067432
1858.14000072691
1858.14000077927
1858.14000071533
1858.1400007278
1858.1400007904
1858.1400007332
1858.1400006826
1858.14000066673
1858.1400006615
1858.1400006576
1858.14000065379
1858.1400006501
1858.14000064663
1858.1400006434
1858.14000064044
1858.14000063773
1858.14000063528
1858.14000063308
1858.1400006311
1858.14000062934
1858.14000062778
1858.14000062641
1858.14000062521
1858.14000062418
1858.1400006233
1858.14000062257
1858.14000062198
1858.14000062153
1858.14000062122
1858.14000062105
1858.14000062102
1858.14000062113
1858.1400006214
1858.14000062182
1858.14000062242
1858.14000062319
1858.14000062417
1858.14000062535
1858.14000062676
1858.14000062841
1858.14000063031
1858.14000063249
1858.14000063494
1858.14000063767
1858.14000064067
1858.1400006439
1858.14000064733
1858.14000065104
1858.14000065673
1858.14000067455
1858.14000072738
1858.14000078006
1858.14000071614
1858.14000072865
1858.14000079117
1858.14000073357
1858.14000068266
1858.14000066657
1858.14000066116
1858.14000065713
1858.14000065322
1858.14000064948
1858.14000064597
1858.14000064273
1858.14000063977
1858.14000063707
1858.14000063464
1858.14000063246
1858.1400006305
1858.14000062877
1858.14000062723
1858.14000062588
1858.1400006247
1858.14000062368
1858.14000062282
1858.1400006221
1858.14000062153
1858.14000062109
1858.14000062078
1858.14000062062
1858.14000062059
1858.14000062071
1858.14000062097
1858.14000062139
1858.14000062198
1858.14000062275
1858.14000062372
1858.14000062489
1858.14000062629
1858.14000062793
1858.14000062982
1858.140000632
1858.14000063446
1858.14000063721
1858.14000064024
1858.14000064355
1858.14000064708
1858.14000065091
1858.14000065679
1858.14000067484
1858.14000072799
1858.14000078111
1858.14000071724
1858.14000072977
1858.14000079219
1858.14000073405
1858.14000068276
1858.14000066637
1858.14000066073
1858.14000065654
1858.14000065252
1858.1400006487
1858.14000064515
1858.1400006419
1858.14000063894
1858.14000063626
1858.14000063385
1858.14000063169
1858.14000062976
1858.14000062806
1858.14000062655
1858.14000062522
1858.14000062406
1858.14000062307
1858.14000062223
1858.14000062153
1858.14000062096
1858.14000062054
1858.14000062024
1858.14000062008
1858.14000062006
1858.14000062017
1858.14000062043
1858.14000062085
1858.14000062144
1858.1400006222
1858.14000062315
1858.14000062431
1858.14000062569
1858.14000062732
1858.14000062921
1858.14000063138
1858.14000063384
1858.14000063662
1858.1400006397
1858.14000064308
1858.14000064673
1858.14000065074
1858.14000065684
1858.14000067519
1858.14000072876
1858.14000078245
1858.14000071865
1858.1400007312
1858.1400007935
1858.14000073468
1858.14000068288
1858.14000066612
1858.14000066021
1858.14000065582
1858.14000065166
1858.14000064776
1858.14000064417
1858.1400006409
1858.14000063794
1858.14000063528
1858.1400006329
1858.14000063078
1858.14000062888
1858.14000062721
1858.14000062573
1858.14000062444
1858.14000062331
1858.14000062234
1858.14000062152
1858.14000062084
1858.14000062029
1858.14000061987
1858.14000061959
1858.14000061944
1858.14000061941
1858.14000061953
1858.14000061979
1858.1400006202
1858.14000062078
1858.14000062152
1858.14000062246
1858.1400006236
1858.14000062497
1858.14000062658
1858.14000062846
1858.14000063062
1858.14000063309
1858.14000063589
1858.14000063903
1858.1400006425
1858.14000064629
1858.1400006505
1858.14000065688
1858.14000067561
1858.14000072971
1858.1400007841
1858.14000072041
1858.140000733
1858.14000079513
1858.14000073546
1858.14000068303
1858.14000066582
1858.14000065959
1858.14000065496
1858.14000065065
1858.14000064665
1858.14000064301
1858.14000063973
1858.14000063679
1858.14000063415
1858.14000063181
1858.14000062972
1858.14000062787
1858.14000062623
1858.14000062479
1858.14000062353
1858.14000062243
1858.14000062149
1858.1400006207
1858.14000062004
1858.14000061951
1858.14000061911
1858.14000061884
1858.14000061869
1858.14000061867
1858.14000061879
1858.14000061904
1858.14000061945
1858.14000062001
1858.14000062074
1858.14000062166
1858.14000062278
1858.14000062413
1858.14000062572
1858.14000062758
1858.14000062973
1858.1400006322
1858.14000063503
1858.14000063822
1858.14000064179
1858.14000064574
1858.14000065019
1858.1400006569
1858.14000067608
1858.14000073084
1858.14000078613
1858.14000072256
1858.14000073525
1858.14000079715
1858.14000073641
1858.1400006832
1858.14000066546
1858.14000065883
1858.14000065395
1858.14000064946
1858.14000064537
1858.14000064169
1858.1400006384
1858.14000063547
1858.14000063287
1858.14000063056
1858.14000062852
1858.14000062671
1858.14000062512
1858.14000062373
1858.1400006225
1858.14000062145
1858.14000062054
1858.14000061977
1858.14000061913
1858.14000061863
1858.14000061824
1858.14000061798
1858.14000061784
1858.14000061783
1858.14000061794
1858.14000061819
1858.14000061859
1858.14000061913
1858.14000061985
1858.14000062075
1858.14000062185
1858.14000062316
1858.14000062473
1858.14000062656
1858.1400006287
1858.14000063117
1858.14000063402
1858.14000063726
1858.14000064094
1858.14000064507
1858.14000064978
1858.14000065689
1858.14000067662
1858.14000073218
1858.14000078857
1858.14000072519
1858.14000073802
1858.14000079963
1858.14000073755
1858.1400006834
1858.140000665
1858.14000065794
1858.14000065276
1858.14000064809
1858.1400006439
1858.14000064018
1858.14000063689
1858.14000063399
1858.14000063143
1858.14000062917
1858.14000062718
1858.14000062543
1858.14000062389
1858.14000062254
1858.14000062137
1858.14000062035
1858.14000061947
1858.14000061874
1858.14000061813
1858.14000061764
1858.14000061727
1858.14000061703
1858.1400006169
1858.14000061688
1858.140000617
1858.14000061724
1858.14000061763
1858.14000061816
1858.14000061885
1858.14000061973
1858.1400006208
1858.14000062208
1858.14000062362
1858.14000062542