/*--------------------------------*- C++ -*----------------------------------*\
  =========                 |
  \\      /  F ield         | OpenFOAM: The Open Source CFD Toolbox
   \\    /   O peration     | Website:  https://openfoam.org
    \\  /    A nd           | Version:  10
     \\/     M anipulation  |
\*---------------------------------------------------------------------------*/
FoamFile
{
    format      ascii;
    class       volScalarField;
    location    "3.2";
    object      k;
}
// * * * * * * * * * * * * * * * * * * * * * * * * * * * * * * * * * * * * * //

dimensions      [0 2 -2 0 0 0 0];

internalField   nonuniform List<scalar> 
2500
(
2.72060701400809e-09
5.19824734056215e-08
2.13872488798125e-07
3.47485037623545e-07
4.36462237458191e-07
4.86926251651787e-07
5.11798324385628e-07
5.2262919247518e-07
5.2685704744985e-07
5.28355087776874e-07
5.28842027972941e-07
5.28988455644661e-07
5.29029377053062e-07
5.29039935535637e-07
5.29042328360984e-07
5.2904267864176e-07
5.29042574276106e-07
5.29042398733591e-07
5.29042229652575e-07
5.29042079885623e-07
5.29041950083223e-07
5.29041838760612e-07
5.29041744505528e-07
5.29041666410588e-07
5.29041603943102e-07
5.29041557312578e-07
5.29041528907724e-07
5.29041530372562e-07
5.2904155205847e-07
5.29041561464034e-07
5.29041586853807e-07
5.29041633063081e-07
5.29041695434074e-07
5.29041747963923e-07
5.29041632704469e-07
5.29040654837133e-07
5.29036368297443e-07
5.29020226813705e-07
5.28963463444786e-07
5.28775744849338e-07
5.28193084211703e-07
5.26505238168736e-07
5.21977946645058e-07
5.10842447253139e-07
4.86017263790431e-07
4.36535934488961e-07
3.49747301015615e-07
2.18312611793139e-07
5.45349195824352e-08
2.97407341429093e-09
6.55276932195476e-08
1.46244259199625e-06
6.15592443679587e-06
1.0039182633702e-05
1.26585696243656e-05
1.41680007283077e-05
1.49248345195835e-05
1.52602041986112e-05
1.53933773832809e-05
1.54413476297707e-05
1.54571865347586e-05
1.54620208879646e-05
1.54633917535285e-05
1.54637513244537e-05
1.54638351499019e-05
1.54638488662737e-05
1.54638465634267e-05
1.54638415574317e-05
1.54638366148221e-05
1.54638322214083e-05
1.54638284176026e-05
1.54638251640037e-05
1.54638224180806e-05
1.54638201513323e-05
1.54638183477347e-05
1.546381701754e-05
1.54638162408504e-05
1.54638163905271e-05
1.54638170430467e-05
1.5463817235993e-05
1.54638180813734e-05
1.54638194983283e-05
1.54638213327832e-05
1.54638227042864e-05
1.54638180168039e-05
1.54637837447752e-05
1.54636386874621e-05
1.54630998961398e-05
1.54612273312362e-05
1.54551079746761e-05
1.54363506546971e-05
1.53827346216103e-05
1.52409449821756e-05
1.48973617346304e-05
1.41431384802244e-05
1.26630644142018e-05
1.01054732008568e-05
6.28103568153379e-06
1.53159540604269e-06
7.12385378575582e-08
2.27221516226848e-07
6.42429300313751e-06
3.03627858156663e-05
4.92438803019355e-05
6.19015322788672e-05
6.92203035331923e-05
7.2922618678289e-05
7.45829282163082e-05
7.52511426607881e-05
7.54952219778958e-05
7.55769480505336e-05
7.56022415185643e-05
7.56095161751781e-05
7.56114557856152e-05
7.5611920697401e-05
7.56120045590568e-05
7.56119987717318e-05
7.56119771328543e-05
7.56119547993268e-05
7.56119347677955e-05
7.56119173767884e-05
7.56119024807971e-05
7.56118898952279e-05
7.56118794931182e-05
7.56118712033203e-05
7.56118650777367e-05
7.56118615277088e-05
7.56118623130057e-05
7.56118648683224e-05
7.56118655102275e-05
7.56118693966958e-05
7.56118757027343e-05
7.56118836428181e-05
7.56118884964782e-05
7.56118595043396e-05
7.56116741195639e-05
7.56109122116319e-05
7.56081095031188e-05
7.55984485590404e-05
7.55671317795432e-05
7.54719481615852e-05
7.52023150150517e-05
7.44959762754727e-05
7.28006799433774e-05
6.91121793881247e-05
6.19232323394074e-05
4.95334809924066e-05
3.09080316810021e-05
6.68935454479386e-06
2.43053004772276e-07
3.9397096747153e-07
1.12218026956822e-05
5.27871373312206e-05
8.48593278953357e-05
0.000106128312969014
0.000118371487496169
0.000124564541814034
0.000127349519291899
0.000128475419481386
0.000128888971613228
0.00012902831478936
0.000129071736901426
0.00012908432060337
0.000129087707180892
0.000129088532052603
0.000129088688439183
0.000129088684859465
0.000129088652172095
0.000129088617288311
0.000129088585730815
0.000129088558225469
0.0001290885345923
0.000129088514557311
0.000129088497927011
0.000129088484589174
0.000129088474609283
0.000129088468600834
0.000129088469266355
0.000129088472038723
0.000129088473399112
0.000129088479156375
0.000129088488537651
0.000129088500378282
0.000129088507078505
0.000129088456927773
0.000129088151141964
0.000129086899359472
0.000129082281614486
0.000129066313460793
0.000129014389730045
0.000128856134369673
0.000128406790244978
0.000127227478506791
0.000124392548642962
0.000118213885296645
0.000106138368434244
8.521968882316e-05
5.34851543094103e-05
1.15639378948393e-05
4.14236317642513e-07
5.46764582146898e-07
1.55968979637156e-05
7.278762996362e-05
0.00011618027656451
0.000144729045643031
0.000161112423192501
0.000169402107676323
0.000173139189530026
0.000174655918628343
0.000175215745476998
0.00017540543099447
0.000175464909191749
0.000175482267355604
0.000175486980313413
0.000175488146059457
0.000175488377577766
0.000175488382291806
0.000175488344053196
0.000175488301361625
0.00017548826230193
0.000175488228079511
0.000175488198551012
0.000175488173403676
0.000175488152406705
0.000175488135421509
0.000175488122501837
0.000175488114293261
0.000175488113686759
0.000175488115801727
0.000175488117912178
0.000175488124336189
0.000175488135010789
0.000175488148392683
0.000175488154362141
0.000175488084098454
0.000175487679801528
0.000175486034474128
0.000175479950717023
0.000175458848789241
0.000175390016665582
0.000175179623341173
0.000174580760714516
0.00017300583470157
0.000169213522196349
0.000160934823774201
0.000144719759700547
0.000116525880664472
7.34799948385229e-05
1.59475959171387e-05
5.68115228322249e-07
6.78991978200826e-07
1.93985773480082e-05
8.99342105999026e-05
0.000142747870715693
0.000177295106463505
0.000197082428172137
0.000207101038912521
0.000211628347390926
0.000213472349132302
0.00021415596931166
0.000214388771787694
0.000214462184053193
0.000214483747728422
0.000214489651090123
0.000214491132529381
0.000214491439734105
0.000214491458131039
0.000214491419285252
0.00021449137314775
0.000214491330306512
0.000214491292516442
0.000214491259734113
0.000214491231653816
0.000214491208034709
0.000214491188725519
0.000214491173752138
0.000214491163646332
0.000214491160881288
0.000214491161966393
0.000214491164618879
0.000214491170481419
0.000214491180816747
0.000214491193573619
0.000214491196319583
0.000214491106448661
0.00021449062122942
0.000214488661967068
0.000214481408123107
0.000214456186247925
0.000214373698194954
0.000214120943070555
0.000213399976662277
0.000211500674580718
0.000206921042835617
0.000196911436834944
0.000177276421474514
0.000143048846510581
9.05509138090308e-05
1.97249676951279e-05
6.99722749116244e-07
7.88219817161981e-07
2.2560220632653e-05
0.000104087168889214
0.000164510610284413
0.000203874719886905
0.000226396156357235
0.000237809452061424
0.000242978736073038
0.000245091023029602
0.000245877194038967
0.00024614613380442
0.000246231374900602
0.000246256560485861
0.000246263507811578
0.000246265274371248
0.000246265655310068
0.000246265691346329
0.000246265655662799
0.000246265609631619
0.000246265566069366
0.000246265527313781
0.000246265493469172
0.000246265464273452
0.000246265439498333
0.000246265418992445
0.000246265402751978
0.000246265391121702
0.000246265385686473
0.000246265385592194
0.000246265388540644
0.000246265392775906
0.000246265401425632
0.000246265411819934
0.000246265409063647
0.000246265300085627
0.000246264749407516
0.000246262543739484
0.000246254373167312
0.000246225910329863
0.000246132621286152
0.000245846185326111
0.000245027711212456
0.000242868517539836
0.000237656688642543
0.000226255347359352
0.000203867608545949
0.000164774124695623
0.000104616278356268
2.28525441538272e-05
8.07683402727653e-07
8.74669441701875e-07
2.50832070214262e-05
0.000115348812707131
0.000181740365490565
0.000224872407291447
0.000249537266005194
0.000262049813504219
0.000267728939453431
0.000270056266015536
0.000270925500380364
0.000271224049190136
0.00027131910447518
0.000271347337552969
0.000271355178758015
0.00027135719603672
0.000271357646613539
0.000271357702814652
0.000271357672340971
0.000271357628963623
0.000271357586926929
0.000271357549133355
0.000271357515862634
0.00027135748692006
0.000271357462106839
0.000271357441283045
0.000271357424425824
0.000271357411726393
0.000271357404057999
0.00027135740235418
0.000271357403917819
0.000271357407100474
0.000271357412961069
0.000271357419878905
0.000271357409913529
0.000271357283068499
0.000271356680651519
0.000271354285294348
0.000271345412049363
0.000271314457873897
0.000271212826654423
0.000270900255662139
0.000270005825824733
0.000267643612998612
0.000261937084052598
0.000249445855499299
0.000224901792711901
0.000181993724610102
0.000115812391399373
2.53457115266869e-05
8.92876804650703e-07
9.40388389166632e-07
2.70190787649844e-05
0.000123997707596831
0.000194934761211588
0.00024093679095992
0.000267240444243641
0.000280598738588883
0.000286673315750333
0.000289169021000814
0.000290103984833522
0.000290426233975126
0.000290529242868345
0.000290559979864942
0.000290568567956401
0.000290570799682905
0.000290571312994926
0.000290571389505193
0.000290571366737632
0.000290571327618169
0.000290571288531117
0.000290571252937141
0.000290571221301929
0.00029057119350841
0.000290571169401143
0.000290571148860417
0.000290571131856791
0.00029057111848616
0.000290571109219837
0.000290571104879681
0.000290571104428976
0.000290571106191896
0.000290571109431452
0.000290571112728096
0.000290571094612697
0.00029057095129842
0.0002905703094848
0.00029056777118087
0.000290558372132952
0.000290525550397896
0.000290417639738194
0.000290085313044586
0.000289133267636125
0.00028661667641611
0.000280533446513603
0.000267211925149118
0.000241025334136023
0.000195211253601851
0.000124432225520744
2.7262682763532e-05
9.57688681117773e-07
9.88479940978192e-07
2.84500491218378e-05
0.000130416467463776
0.000204716403889179
0.000252846543751751
0.000280371576496558
0.000294364676490273
0.000300738630423011
0.000303363055768088
0.000304348807898263
0.000304689581840813
0.000304798884574436
0.000304831629959053
0.000304840826927483
0.000304843237469468
0.000304843805344119
0.000304843901235968
0.000304843886913991
0.000304843852802713
0.000304843817381785
0.000304843784634654
0.000304843755208403
0.000304843729068139
0.000304843706105869
0.000304843686226293
0.000304843669402069
0.000304843655674649
0.000304843645285642
0.000304843638651584
0.000304843635757427
0.000304843635029802
0.00030484363597812
0.000304843635159267
0.000304843608297065
0.000304843452899166
0.000304842781323077
0.00030484013772765
0.000304830355159218
0.000304796170159162
0.000304683658999557
0.000304336803091098
0.00030334225015559
0.000300711509292807
0.000294349405294017
0.000280413024807404
0.000253010412621709
0.000205045255140331
0.000130858605319472
2.86869355486086e-05
1.00532083207829e-06
1.02242772424146e-06
2.94709746953885e-05
0.000135025644917322
0.000211743174091831
0.000261409474301816
0.000289821643659945
0.000304279435610132
0.000310874530786726
0.000313594998681868
0.000314619060289256
0.000314973970398777
0.000315088135464147
0.000315122453328262
0.000315132134568324
0.000315134690629978
0.000315135304509433
0.000315135417549065
0.000315135411405548
0.000315135382398402
0.000315135350812109
0.000315135321100183
0.000315135294077022
0.000315135269786601
0.000315135248166724
0.00031513522914714
0.000315135212707311
0.000315135198860925
0.000315135187733933
0.000315135179529811
0.000315135174296675
0.00031513517137661
0.000315135169612944
0.000315135164335116
0.000315135130654208
0.000315134966237439
0.000315134271942311
0.000315131552605011
0.000315121497634822
0.000315086344446118
0.000314970555548523
0.000314613311322715
0.00031358827631963
0.000310875510659185
0.000304312790147492
0.000289933959166075
0.000261656504173292
0.000212144073791589
0.000135503930138329
2.97112892223653e-05
1.03920558500969e-06
1.04559157447333e-06
3.01753078182497e-05
0.000138232320499962
0.000216639593014751
0.000267385584199737
0.000296425764315446
0.000311215301325249
0.00031796977458057
0.00032076018193987
0.000321812452109249
0.000322177893865153
0.000322295726472737
0.000322331246254343
0.000322341303310186
0.00032234397470112
0.000322344625996222
0.000322344753655188
0.000322344754965996
0.000322344730725196
0.000322344702771138
0.000322344675970191
0.000322344651284057
0.000322344628827091
0.000322344608577823
0.000322344590489171
0.000322344574549088
0.000322344560758109
0.000322344549183832
0.000322344539922932
0.00032234453301168
0.000322344528078888
0.000322344523840268
0.000322344514869621
0.000322344476249569
0.000322344304419984
0.000322343593300334
0.000322340820844083
0.000322330577586084
0.000322294755709943
0.000322176696571551
0.000321812233405192
0.000320765957307507
0.000317995920999088
0.000311292969728758
0.00029660474280561
0.000267715566374316
0.000217121242307055
0.000138763925879444
3.04257513016992e-05
1.06258327645189e-06
1.06090020750628e-06
3.06460520246138e-05
0.000140396777268348
0.00021995305686577
0.000271438266744683
0.000300911871240471
0.000315932435359566
0.000322799003636553
0.000325639128689285
0.000326711679401729
0.000327084783226483
0.000327205317403735
0.000327241734284699
0.00032725207601394
0.000327254836423106
0.000327255517290617
0.000327255656977019
0.000327255664711763
0.000327255644643969
0.000327255619906543
0.000327255595710468
0.000327255573141389
0.000327255552372848
0.000327255533417512
0.000327255516248033
0.000327255500860708
0.000327255487250288
0.000327255475454124
0.0003272554655125
0.000327255457433707
0.00032725545092448
0.000327255444679213
0.000327255432951874
0.000327255390550252
0.000327255213047403
0.000327254489864075
0.000327251681137278
0.000327241311255259
0.000327205040270843
0.000327085452455045
0.0003267161131896
0.0003256554512372
0.000322846551995693
0.000316048328112486
0.000301149777110202
0.000271844674351938
0.000220514535714462
0.000140988032268032
3.0909847873908e-05
1.0782541785754e-06
1.07071832964572e-06
3.09514033826039e-05
0.000141816247145885
0.000222133300323075
0.000274111837138368
0.000303877223907134
0.000319054803936201
0.000325998344021963
0.000328872984358066
0.000329959777422382
0.000330338327053302
0.00033046080549235
0.000330497876534641
0.000330508428868532
0.000330511256316201
0.000330511959939031
0.000330512109188751
0.000330512122211155
0.000330512105618033
0.000330512083596628
0.000330512061623815
0.000330512040885223
0.000330512021601775
0.000330512003813159
0.000330511987507862
0.000330511972689259
0.000330511959350035
0.000330511947511178
0.000330511937181804
0.000330511928344533
0.000330511920716903
0.000330511912981843
0.000330511899247931
0.000330511854090739
0.0003305116724672
0.00033051094092392
0.000330508108107144
0.000330497655373473
0.000330461090985966
0.000330340502086093
0.000329967959982217
0.000328897823929398
0.000326063280054674
0.000319202104769968
0.000304164470051839
0.000274584176651726
0.000222766880095468
0.000142465191344878
3.12290303466613e-05
1.08847873110455e-06
1.07684026831367e-06
3.11439702550891e-05
0.000142722011566504
0.000223530019186023
0.00027582972612383
0.00030578685295463
0.000321068648220248
0.000328063822095514
0.000330961876846996
0.000332058445460351
0.000332440778613643
0.000332564624924546
0.000332602162279112
0.000332612866898122
0.000332615743659909
0.000332616464358981
0.000332616621026699
0.000332616638276396
0.000332616624449533
0.000332616604646246
0.000332616584512255
0.000332616565310215
0.000332616547297585
0.000332616530534314
0.000332616515020798
0.00033261650076618
0.00033261648776251
0.000332616476021639
0.000332616465534851
0.000332616456265282
0.000332616447922446
0.000332616439175975
0.00033261642406132
0.000332616376998655
0.000332616192528269
0.000332615455397289
0.000332612607031669
0.000332602101544781
0.0003325653506098
0.000332444123715279
0.000332069534354115
0.000330993326491173
0.000328142313547215
0.000321240650176941
0.000306113465660769
0.000276355831044834
0.000224224256774515
0.000143421565034342
3.14341452389938e-05
1.09498259425573e-06
1.0805579631081e-06
3.12622344201374e-05
0.000143285181245624
0.000224402319291744
0.000276906189472626
0.000306986412555449
0.000322335811972408
0.000329364848875432
0.000332278436365213
0.000333381567510355
0.000333766471993004
0.000333891259759723
0.0003339291223111
0.000333939934651681
0.000333942846890091
0.000333943580109101
0.000333943742494661
0.000333943763121482
0.000333943751347145
0.000333943733317951
0.000333943714680329
0.000333943696751322
0.000333943679815278
0.000333943663946794
0.000333943649154652
0.000333943635452092
0.000333943622831273
0.000333943611298877
0.000333943600835337
0.000333943591390299
0.000333943582662163
0.000333943573307359
0.000333943557321178
0.000333943509027538
0.000333943322699287
0.000333942581982576
0.000333939723880122
0.000333929185704933
0.000333892319262721
0.0003337706963432
0.0003333948323406
0.000332314833934606
0.000329453517259385
0.000322526479994834
0.000307343098045806
0.000277474030461351
0.000225144678610163
0.000144025989007372
3.15628112104139e-05
1.09902226310222e-06
1.08276029255063e-06
3.133307658433e-05
0.000143626847646701
0.000224934111117182
0.000277564834317446
0.000307722337340701
0.00032311463740115
0.000330165405657864
0.000333089078100849
0.000334196521772852
0.000334583137060847
0.000334708559246285
0.000334746643861257
0.000334757530826314
0.000334760468070666
0.000334761210282775
0.000334761376923104
0.000334761400103317
0.000334761390086762
0.000334761373475873
0.000334761356053581
0.000334761339180093
0.000334761323159485
0.000334761308076134
0.000334761293944384
0.000334761280780363
0.000334761268576502
0.000334761257336406
0.00033476124703378
0.000334761237608997
0.000334761228751079
0.000334761219105517
0.000334761202643854
0.000334761153632768
0.000334760966180573
0.000334760223276214
0.000334757359278733
0.000334746801399045
0.000334709865261585
0.00033458800267663
0.000334211364835437
0.000333129058727504
0.000330261454555509
0.000323318904254621
0.000308101107474095
0.000278163686885384
0.000225712781093808
0.000144399354273925
3.1641706432554e-05
1.10147576038656e-06
1.08403480337544e-06
3.13745256662451e-05
0.0001438293698918
0.000225250979626143
0.000277958821759223
0.000308163816434365
0.000323582774533956
0.000330647202182587
0.000333577289154893
0.000334687509452014
0.000335075240100597
0.000335201081244939
0.000335239314491543
0.00033525025215559
0.000335253206717348
0.000335253955321169
0.000335254125079452
0.00033525415028298
0.000335254141699481
0.000335254126233822
0.000335254109811738
0.000335254093827628
0.000335254078599433
0.000335254064217842
0.000335254050700442
0.000335254038065128
0.000335254026304849
0.000335254015421284
0.000335254005383738
0.000335253996126168
0.000335253987330598
0.000335253977634249
0.000335253960994333
0.000335253911644061
0.000335253723594273
0.000335252979451268
0.000335250112031672
0.000335239542617032
0.000335202565485726
0.000335080561360323
0.000334703464888911
0.000333619786987737
0.000330748435962827
0.000323796621498067
0.000308558232784998
0.000278579831824054
0.000226055877674427
0.000144625057056862
3.16890562803e-05
1.10293474412881e-06
1.08475621788953e-06
3.13982422314223e-05
0.000143946793461249
0.000225435724136977
0.000278189487395876
0.000308423080822069
0.000323858276203509
0.000330931121683744
0.000333865209516777
0.00033497718309829
0.000335365626966561
0.000335491739517826
0.000335530070386649
0.000335541041887811
0.000335544008274238
0.000335544761414318
0.000335544933496507
0.000335544960295114
0.000335544952876566
0.000335544938354187
0.000335544922776036
0.000335544907561104
0.000335544893036715
0.000335544879296983
0.000335544866361187
0.000335544854248254
0.000335544842951695
0.00033554483247201
0.000335544822775612
0.00033554481379176
0.0003355448051975
0.00033554479562424
0.000335544779020551
0.000335544729600355
0.000335544541318729
0.000335543796565281
0.000335540927278201
0.000335530351338854
0.000335493350718222
0.000335371264966574
0.000334993902854936
0.0003339094277585
0.0003310358933959
0.000324078667924206
0.00030882822541358
0.000278825780653266
0.000226258851924769
0.000144758727188035
3.17169022706144e-05
1.1037851537611e-06
1.08515593399945e-06
3.14115244296768e-05
0.000144013447025867
0.000225541212046556
0.000278321783874698
0.000308572269903979
0.000324017169784406
0.000331095106841665
0.000334031644285312
0.000335144704767864
0.000335533596431511
0.000335659881646752
0.000335698275519363
0.000335709269253292
0.000335712243637238
0.000335713000017414
0.000335713173874947
0.000335713201950056
0.000335713195494736
0.000335713181774457
0.000335713166934721
0.000335713152409249
0.000335713138530879
0.000335713125395518
0.000335713113022178
0.00033571310143077
0.000335713090615642
0.00033571308057653
0.000335713071277688
0.000335713062644809
0.000335713054351437
0.00033571304502505
0.000335713028609193
0.00033571297930695
0.000335712791043228
0.000335712046089756
0.000335709175897082
0.00033569859644207
0.000335661582758058
0.000335539451065499
0.00033516193851602
0.000334077010096854
0.000331202230306095
0.000324241910129925
0.000308984556758423
0.000278968291431238
0.00022637658691849
0.000144836356144184
3.17329635524521e-05
1.1042714508812e-06
1.08537268451009e-06
3.14188046325576e-05
0.000144050490264143
0.000225600213111494
0.000278396138939486
0.000308656420387294
0.000324107016913801
0.00033118797971886
0.00033412599102778
0.000335239713727435
0.000335628881749478
0.00033575527496677
0.000335793708853865
0.000335804717006321
0.00033580769678019
0.000335808455516155
0.000335808630773981
0.000335808659895063
0.000335808654261715
0.000335808641249385
0.000335808627081587
0.000335808613196715
0.000335808599930111
0.000335808587378461
0.000335808575558377
0.00033580856449112
0.000335808554172233
0.000335808544601184
0.000335808535740441
0.000335808527512979
0.000335808519589682
0.000335808510595692
0.000335808494471836
0.000335808445415621
0.000335808257338022
0.000335807512452305
0.000335804641947861
0.000335794060763967
0.000335757040120501
0.000335634883319278
0.000335257287632017
0.000334172107126438
0.000331296631851046
0.000324334577820091
0.000309073341374543
0.00027904928823217
0.00022644357778685
0.0001448805846758
3.174205363255e-05
1.10454438125024e-06
1.08548735980955e-06
3.14226992691528e-05
0.000144070599032058
0.000225632475430098
0.000278437023333967
0.000308702880686167
0.000324156762771233
0.000331239493318787
0.000334178376783542
0.000335292496399384
0.000335681832266505
0.000335808291985109
0.000335846750919179
0.000335857768326327
0.000335860751743977
0.000335861512240757
0.000335861688642325
0.000335861718652448
0.000335861713747476
0.000335861701380364
0.000335861687846864
0.000335861674576896
0.000335861661906164
0.000335861649932851
0.000335861638666203
0.000335861628130192
0.000335861618322864
0.000335861609243437
0.000335861600853122
0.000335861593072634
0.000335861585570738
0.000335861576971304
0.000335861561214036
0.000335861512494654
0.000335861324721275
0.000335860580087427
0.000335857709652131
0.000335847127816336
0.000335810103786029
0.000335687933935963
0.00033531029392115
0.000334224977259177
0.000331349123389473
0.000324386120354192
0.000309122749620903
0.000279094400222505
0.000226480934669756
0.000144905284264998
3.17470977706211e-05
1.10469461033955e-06
1.08554578470771e-06
3.14247079667706e-05
0.000144081145022821
0.000225649557730699
0.000278458828826412
0.00030872779125158
0.000324183531054714
0.000331267275668991
0.000334206666446196
0.000335321020107566
0.00033571045639832
0.000335836956450589
0.000335875430842725
0.000335886454132405
0.000335889440025954
0.000335890201871623
0.000335890379235475
0.000335890410033907
0.000335890405785489
0.000335890394002205
0.000335890381076602
0.000335890368405121
0.000335890356321963
0.000335890344930416
0.000335890334221779
0.000335890324225749
0.000335890314944983
0.00033589030637921
0.000335890298488444
0.000335890291191564
0.000335890284155773
0.000335890276004027
0.000335890260676292
0.000335890212369158
0.000335890024997299
0.000335889280762551
0.000335886410672843
0.000335875828887881
0.000335838803657695
0.000335716627908658
0.000335338966190376
0.000334253580317099
0.000331377529848078
0.000324414027156411
0.000309149522081671
0.000279118873249632
0.000226501233175916
0.000144918731665179
3.17498289507741e-05
1.10477535245379e-06
1.08557295633481e-06
3.14256575768422e-05
0.000144086251043325
0.000225657974087651
0.000278469712280518
0.000308740337500305
0.000324197094058971
0.000331281404677584
0.000334221083696145
0.000335335572573562
0.000335725068113243
0.000335851592211316
0.000335890075964003
0.00033590110292146
0.000335904090475559
0.00033590485334439
0.000335905031515337
0.000335905063007739
0.00033590505931606
0.000335905048052939
0.000335905035698455
0.00033590502360063
0.000335905012091199
0.000335905001286848
0.000335904991140536
0.000335904981694037
0.000335904972958093
0.000335904964933398
0.000335904957579269
0.000335904950812898
0.000335904944300285
0.00033590493666369
0.00033590492184415
0.000335904874041708
0.000335904687185447
0.000335903943506706
0.0003359010740183
0.000335890492843225
0.000335853467963178
0.000335731291021839
0.000335353621811283
0.000334268207487443
0.000331392068880939
0.000324428330336855
0.000309163272054362
0.000279131476792027
0.0002265117231053
0.00014492571095436
3.17512437758724e-05
1.10481698934334e-06
1.08558155623348e-06
3.14259696014164e-05
0.000144088046033511
0.000225661117817444
0.000278473957387706
0.000308745377521904
0.000324202646885941
0.00033128725538309
0.000334227091475947
0.000335341656358086
0.000335731187293851
0.000335857725857099
0.000335896215442217
0.000335907244879553
0.000335910233736073
0.000335910997546265
0.000335911176534376
0.000335911208752207
0.000335911205648974
0.000335911194929488
0.000335911183175107
0.000335911171676776
0.0003359111607619
0.000335911150567731
0.000335911140993119
0.000335911132102436
0.000335911123914254
0.000335911116429886
0.000335911109607746
0.000335911103363076
0.000335911097359707
0.000335911090218217
0.000335911075879879
0.00033591102854917
0.000335910842173194
0.000335910099024301
0.00033590723017578
0.000335896649901941
0.000335859626481244
0.00033573745190943
0.000335359785695312
0.000334274371693387
0.000331398218283881
0.000324434416146692
0.000309169174119551
0.000279136950561005
0.000226516344375085
0.000144928836825128
3.17518873485612e-05
1.10483615516415e-06
1.0855757111634e-06
3.14257898702726e-05
0.000144087353320283
0.000225660366805685
0.000278473351723433
0.000308744973619913
0.00032420241865664
0.00033128714905214
0.000334227057532034
0.00033534166057183
0.000335731210028934
0.000335857756916739
0.000335896250371418
0.000335907281775167
0.000335910271895084
0.000335911036743839
0.000335911216677033
0.000335911249766201
0.000335911247382559
0.000335911237289012
0.000335911226212221
0.000335911215377116
0.000335911205098292
0.000335911195511113
0.000335911186513697
0.000335911178179708
0.000335911170524862
0.000335911163549349
0.000335911157210016
0.000335911151418859
0.000335911145835506
0.000335911139076404
0.000335911125081113
0.000335911078058108
0.000335910891972582
0.000335910149145533
0.000335907280788931
0.000335896701559801
0.000335859680668784
0.000335737512149795
0.00033535985945854
0.000334274472999024
0.000331398369826739
0.000324434648223662
0.000309169516308659
0.000279137412574594
0.000226516884729498
0.00014492932440136
3.17520202181288e-05
1.10484099225325e-06
1.08555350658054e-06
3.14250700044857e-05
0.000144084011149587
0.000225655562508405
0.000278467778855731
0.000308739058345349
0.000324196383266455
0.000331281088334918
0.000334221001606319
0.000335335613815962
0.00033572516859689
0.000335851719523203
0.000335890215287182
0.000335901248106546
0.000335904239273664
0.000335905005047585
0.000335905185844968
0.000335905219786269
0.000335905218119017
0.00033590520860083
0.000335905198174641
0.000335905187983582
0.000335905178317847
0.000335905169290418
0.000335905160860542
0.000335905153080542
0.000335905145959149
0.000335905139494731
0.000335905133641963
0.000335905128308677
0.000335905123149051
0.000335905116774109
0.000335905103121712
0.000335905056406748
0.000335904870617913
0.00033590412815001
0.000335901260478735
0.000335890682989277
0.000335853666750534
0.00033573151019764
0.00033535388635535
0.000334268564474803
0.000331392594882187
0.000324429127861598
0.000309164440823888
0.000279133048093684
0.000226513555553781
0.000144927355910951
3.17516818648508e-05
1.10483230752166e-06
1.08550814559031e-06
3.14235758441941e-05
0.000144076838119364
0.000225644948887423
0.000278455162781871
0.00030872539678229
0.000324182238141014
0.000331266747160153
0.000334206591849522
0.000335321184153959
0.000335710734480208
0.000335837285501171
0.00033587578213348
0.000335886815796329
0.000335889807723832
0.000335890574226259
0.000335890755719188
0.000335890790417268
0.000335890789396022
0.000335890780366392
0.000335890770523856
0.000335890760923415
0.000335890751829695
0.00033589074334374
0.000335890735467215
0.00033589072823792
0.000335890721660009
0.000335890715730112
0.000335890710400588
0.00033589070557442
0.000335890700899429
0.000335890694980975
0.000335890681757173
0.000335890635455564
0.000335890450106442
0.000335889708238845
0.000335886841786885
0.000335876267412678
0.000335839259531493
0.000335717124758396
0.000335339554567773
0.000334254356178314
0.000331378650517257
0.000324415704684976
0.000309151963455124
0.000279122142464263
0.000226505034938301
0.000144922130514509
3.17507309118582e-05
1.10480714675046e-06
1.08542255196026e-06
3.14207593412143e-05
0.000144063248786031
0.000225624649266268