/*--------------------------------*- C++ -*----------------------------------*\
  =========                 |
  \\      /  F ield         | OpenFOAM: The Open Source CFD Toolbox
   \\    /   O peration     | Website:  https://openfoam.org
    \\  /    A nd           | Version:  10
     \\/     M anipulation  |
\*---------------------------------------------------------------------------*/
FoamFile
{
    format      ascii;
    class       volScalarField;
    location    "3.2";
    object      nut;
}
// * * * * * * * * * * * * * * * * * * * * * * * * * * * * * * * * * * * * * //

dimensions      [0 2 -1 0 0 0 0];

internalField   nonuniform List<scalar> 
2500
(
2.12053012306108e-14
4.05114144559045e-13
1.66685604897164e-12
2.70825258079571e-12
3.40175867068176e-12
3.79508403161412e-12
3.98894045507751e-12
4.0733574524701e-12
4.10630975162657e-12
4.11798559629239e-12
4.12178086601382e-12
4.12292215133446e-12
4.12324110770053e-12
4.12332341848764e-12
4.12334208452709e-12
4.12334483297707e-12
4.12334402864597e-12
4.12334267204153e-12
4.12334136747269e-12
4.12334020929638e-12
4.12333920587169e-12
4.12333834592515e-12
4.12333761792763e-12
4.12333701266773e-12
4.12333652964022e-12
4.12333617041283e-12
4.12333595044487e-12
4.12333596312061e-12
4.12333613281075e-12
4.12333620507041e-12
4.12333640127017e-12
4.12333675836223e-12
4.1233372396358e-12
4.1233376426892e-12
4.12333673774434e-12
4.12332910885798e-12
4.12329569090717e-12
4.12316987674386e-12
4.12272744595094e-12
4.12126434476432e-12
4.11672303825439e-12
4.10356782551546e-12
4.06828168102874e-12
3.98149029560919e-12
3.78799916171687e-12
3.40233276347993e-12
2.72588427921018e-12
1.70146100592122e-12
4.25005774742433e-13
2.31809090502824e-14
2.05586065352965e-12
1.03266186496871e-10
4.34778211725669e-10
7.09116822903191e-10
8.9417642052335e-10
1.00081756171321e-09
1.05428700605459e-09
1.07798010020481e-09
1.0873883406377e-09
1.09077723719459e-09
1.09189618110785e-09
1.09223770404701e-09
1.09233454873473e-09
1.09235995187771e-09
1.09236587535981e-09
1.09236684619604e-09
1.09236668460994e-09
1.09236633225906e-09
1.09236598460205e-09
1.09236567544672e-09
1.09236540807024e-09
1.09236517979856e-09
1.09236498728014e-09
1.09236482774435e-09
1.0923647007623e-09
1.09236460752794e-09
1.09236455283989e-09
1.09236456358492e-09
1.09236461018029e-09
1.09236462346679e-09
1.09236468301553e-09
1.09236478339674e-09
1.09236491155626e-09
1.09236500647005e-09
1.09236467444609e-09
1.09236225276576e-09
1.09235200461937e-09
1.0923139417208e-09
1.09218165455725e-09
1.09174935335909e-09
1.09042423600254e-09
1.08663647632905e-09
1.07661948011375e-09
1.05234603874057e-09
9.99060872946084e-10
8.94493545178528e-10
7.13799241280245e-10
4.43614556726715e-10
1.08148791059941e-10
2.23502682224987e-12
7.16267079968498e-12
1.82324900247409e-09
5.98559725361817e-07
9.70887895482738e-07
1.22050603342011e-06
1.36483720475423e-06
1.43784811337324e-06
1.47058934582114e-06
1.48376627952148e-06
1.48857936220912e-06
1.49019092982572e-06
1.49068969115487e-06
1.4908331381336e-06
1.49087138498696e-06
1.49088055291224e-06
1.49088220710141e-06
1.49088209330015e-06
1.4908816670631e-06
1.49088122737018e-06
1.49088083299602e-06
1.49088049096122e-06
1.49088019853247e-06
1.49087995172961e-06
1.49087974725342e-06
1.49087958405149e-06
1.49087946392329e-06
1.49087939394772e-06
1.49087940944298e-06
1.49087946038507e-06
1.4908794726156e-06
1.49087954925135e-06
1.49087967426883e-06
1.49087982925238e-06
1.49087992272362e-06
1.49087935104801e-06
1.49087569602726e-06
1.49086067183224e-06
1.49080540596751e-06
1.49061490344891e-06
1.489997369253e-06
1.48812042992929e-06
1.48280343205984e-06
1.46887467060156e-06
1.43544342001703e-06
1.36270477046379e-06
1.22093348711889e-06
9.76597655871034e-07
6.09308255804456e-07
1.89846326682119e-09
7.66162989116262e-12
1.24585307225525e-11
3.1947092079626e-09
1.04378660873369e-06
1.67810342085494e-06
2.09877016244773e-06
2.34091897024535e-06
2.46340508058644e-06
2.51848554473121e-06
2.5407530098091e-06
2.5489319523351e-06
2.55168776538729e-06
2.55254652655185e-06
2.5527953920681e-06
2.55286236733053e-06
2.5528786802323e-06
2.55288177290055e-06
2.5528817019583e-06
2.55288105553849e-06
2.55288036588504e-06
2.552879741956e-06
2.55287919846628e-06
2.55287873212466e-06
2.552878337252e-06
2.55287800914664e-06
2.55287774552575e-06
2.55287754851342e-06
2.55287742964516e-06
2.55287744244727e-06
2.55287749742087e-06
2.55287752429794e-06
2.55287763817778e-06
2.55287782458454e-06
2.55287805746303e-06
2.55287818805003e-06
2.55287719631012e-06
2.55287114909802e-06
2.55284639352767e-06
2.55275507016811e-06
2.55243926923742e-06
2.5514123728655e-06
2.54828253472206e-06
2.53939572363332e-06
2.51607190528816e-06
2.46000346096356e-06
2.33780186638337e-06
2.09896874678945e-06
1.68522951459401e-06
1.05758795294351e-06
3.29209090136582e-09
1.30991548820104e-11
1.73213471231531e-11
4.44775250680384e-09
1.44158850138552e-06
2.30110119371107e-06
2.86659740562618e-06
3.19111853420084e-06
3.35531872099732e-06
3.42934142083467e-06
3.45938403497054e-06
3.47047275470592e-06
3.47422992138395e-06
3.47540802276243e-06
3.47575183792146e-06
3.47584518728804e-06
3.47586827679814e-06
3.47587286209319e-06
3.47587295509951e-06
3.47587219745867e-06
3.47587135179859e-06
3.47587057814876e-06
3.47586990043662e-06
3.47586931605355e-06
3.47586881883595e-06
3.47586840354624e-06
3.47586806704558e-06
3.47586781103708e-06
3.47586764839111e-06
3.47586763612321e-06
3.47586767810322e-06
3.47586771996105e-06
3.47586784722396e-06
3.47586805944681e-06
3.47586832370116e-06
3.47586844083045e-06
3.47586704918304e-06
3.47585904128769e-06
3.4758264526153e-06
3.47570595203641e-06
3.47528798255909e-06
3.4739246074171e-06
3.46975728027516e-06
3.45789537077445e-06
3.42670003431403e-06
3.35158335988114e-06
3.18760077498324e-06
2.86641348268914e-06
2.3079463407968e-06
1.45530011658726e-06
4.54774081149082e-09
1.79974552176026e-11
2.15293309338857e-11
5.53630837160003e-09
1.78251775565114e-06
2.82935705147149e-06
3.51413442955553e-06
3.90634693133487e-06
4.10492896838634e-06
4.19466585495537e-06
4.23121616671166e-06
4.24476630619712e-06
4.24938071327183e-06
4.25083582474384e-06
4.25126323845983e-06
4.25138024845627e-06
4.25140961162616e-06
4.2514157003779e-06
4.25141606469798e-06
4.25141529448403e-06
4.25141437986268e-06
4.25141353064891e-06
4.25141278161112e-06
4.25141213203411e-06
4.25141157587331e-06
4.2514111079917e-06
4.25141072516526e-06
4.25141042824711e-06
4.25141022788538e-06
4.25141017292262e-06
4.2514101944715e-06
4.25141024708705e-06
4.25141036330752e-06
4.25141056865377e-06
4.25141082113697e-06
4.25141087508001e-06
4.25140909389393e-06
4.25139947644739e-06
4.25136064214552e-06
4.25121686430354e-06
4.25071694080129e-06
4.24908193888511e-06
4.24407205257587e-06
4.22978167536866e-06
4.19213526051047e-06
4.10136128852273e-06
3.90295777436054e-06
3.51376421279165e-06
2.83532273034242e-06
1.7947403875054e-06
5.62944527334528e-09
2.2186430195404e-11
2.50024892776367e-11
6.44082325812236e-09
2.06367670878908e-06
3.26168632823301e-06
4.04215609974092e-06
4.48868638685932e-06
4.71497622254039e-06
4.81746675188454e-06
4.8593466684363e-06
4.87493392140346e-06
4.88026613283152e-06
4.88195618876551e-06
4.88245553665454e-06
4.88259327909725e-06
4.88262830393379e-06
4.88263585648772e-06
4.88263657076766e-06
4.88263586312072e-06
4.88263495037673e-06
4.88263408663414e-06
4.88263331820474e-06
4.88263264724468e-06
4.88263206856066e-06
4.88263157742539e-06
4.8826311707941e-06
4.8826308487351e-06
4.88263061811128e-06
4.8826305102724e-06
4.88263050841803e-06
4.8826305668973e-06
4.88263065088238e-06
4.88263082262421e-06
4.88263102857131e-06
4.88263097375611e-06
4.88262881313789e-06
4.88261789502749e-06
4.88257416401141e-06
4.88241216859356e-06
4.88184784328484e-06
4.87999822336278e-06
4.87431912112112e-06
4.85809140553148e-06
4.81528148825069e-06
4.71194744848597e-06
4.48589466784457e-06
4.0420152401456e-06
3.26691109206168e-06
2.07416683072306e-06
6.52427215259009e-09
2.56197315730799e-11
2.77490646702224e-11
7.16206420209926e-09
2.28722673241876e-06
3.60370246718649e-06
4.45896669068112e-06
4.94804519506916e-06
5.1961558107791e-06
5.308766825077e-06
5.35491521290443e-06
5.37215119281034e-06
5.37807109264306e-06
5.37995593559301e-06
5.38051576638557e-06
5.38067124866929e-06
5.38071124894346e-06
5.38072018327463e-06
5.38072129758215e-06
5.3807206932452e-06
5.38071983306965e-06
5.38071899950527e-06
5.3807182500767e-06
5.38071759037493e-06
5.3807170165369e-06
5.38071652452225e-06
5.38071611157548e-06
5.3807157772962e-06
5.3807155254672e-06
5.38071537338285e-06
5.38071533959954e-06
5.38071537062064e-06
5.38071543374454e-06
5.38071555005602e-06
5.38071568718688e-06
5.38071548954222e-06
5.38071297437572e-06
5.38070102912567e-06
5.38065353192871e-06
5.38047758542326e-06
5.37986379821035e-06
5.37784856199111e-06
5.37165061850557e-06
5.3539150415645e-06
5.30707490125696e-06
5.19392052518655e-06
4.94623266406149e-06
4.45954945720037e-06
3.60872641219347e-06
2.29641887976683e-06
7.23701399463681e-09
2.8326618546128e-11
2.98357635264301e-11
7.71518088241832e-09
2.4588269470201e-06
3.86548597650227e-06
4.77769163747533e-06
5.29928458463442e-06
5.56417517225456e-06
5.68463201851888e-06
5.73412101800703e-06
5.75266103613874e-06
5.75905112778046e-06
5.76109375914859e-06
5.76170326318275e-06
5.76187356200334e-06
5.76191781631004e-06
5.76192799506345e-06
5.76192951219581e-06
5.76192906069226e-06
5.76192828494596e-06
5.76192750985461e-06
5.76192680402926e-06
5.76192617671989e-06
5.76192562560246e-06
5.76192514755954e-06
5.7619247402325e-06
5.76192440305225e-06
5.76192413791461e-06
5.76192395415938e-06
5.76192386809718e-06
5.76192385916949e-06
5.76192389413732e-06
5.76192395841716e-06
5.76192402377979e-06
5.7619236645535e-06
5.76192082269805e-06
5.76190809576497e-06
5.76185776211829e-06
5.76167138230666e-06
5.76102053862296e-06
5.75888070701736e-06
5.75229078129259e-06
5.73341204200909e-06
5.68350888255867e-06
5.56288045977496e-06
5.29871907917027e-06
4.7794474617058e-06
3.8709687916989e-06
2.46744327235283e-06
7.78473944579838e-09
3.03846146438975e-11
3.13622077838262e-11
8.12391605126902e-09
2.58614431897157e-06
4.05950549686832e-06
5.01392196746663e-06
5.55974090708734e-06
5.83722280354495e-06
5.96361772077064e-06
6.01565983067446e-06
6.03520720298021e-06
6.04196471817768e-06
6.0441321810235e-06
6.04478151883894e-06
6.04496389381192e-06
6.04501169460516e-06
6.04502295548859e-06
6.04502485700209e-06
6.04502457298951e-06
6.04502389656031e-06
6.04502319416569e-06
6.04502254479241e-06
6.04502196127631e-06
6.04502144292376e-06
6.04502098758345e-06
6.04502059337221e-06
6.04502025975073e-06
6.04501998753899e-06
6.04501978152651e-06
6.04501964997682e-06
6.04501959259196e-06
6.0450195781694e-06
6.04501959699097e-06
6.04501958075435e-06
6.04501904808349e-06
6.04501596656791e-06
6.04500264928594e-06
6.04495022706371e-06
6.04475623970287e-06
6.04407835445757e-06
6.04184726886779e-06
6.03496914897328e-06
6.01524725776261e-06
5.9630799123415e-06
5.83691997986412e-06
5.56056283061031e-06
5.01717149032368e-06
4.06602661737035e-06
2.59491187468914e-06
8.1915584666009e-09
3.18965156805942e-11
3.24395101564697e-11
8.41548319848283e-09
2.67755534345325e-06
4.19886262924456e-06
5.18374452256827e-06
5.74715734186903e-06
6.03385509379811e-06
6.16463570891282e-06
6.21858253620259e-06
6.23888965849023e-06
6.24592751920288e-06
6.24819141025206e-06
6.24887193282023e-06
6.24906391161337e-06
6.2491145982601e-06
6.24912677147447e-06
6.24912901304659e-06
6.24912889122044e-06
6.24912831601003e-06
6.24912768965685e-06
6.24912710047262e-06
6.24912656460759e-06
6.24912608293312e-06
6.24912565421381e-06
6.24912527705849e-06
6.2491249510602e-06
6.24912467648984e-06
6.24912445584478e-06
6.24912429316084e-06
6.24912418939233e-06
6.24912413149202e-06
6.2491240965259e-06
6.24912399187039e-06
6.24912332398296e-06
6.24912006360732e-06
6.24910629575459e-06
6.24905237135921e-06
6.24885298151014e-06
6.24815589447884e-06
6.24585980288285e-06
6.238775656723e-06
6.21844923208729e-06
6.16465514015085e-06
6.03451651459601e-06
5.74938455895234e-06
5.18864312747008e-06
4.20681247575812e-06
2.68703973512419e-06
8.48410521360151e-09
3.29718311799528e-11
3.3174519620253e-11
8.61661931171871e-09
2.7411471060591e-06
4.29596357953787e-06
5.30225675618951e-06
5.87812362021986e-06
6.17140018353754e-06
6.3053414077071e-06
6.36067519351133e-06
6.38154171389072e-06
6.38878842491345e-06
6.39112504583956e-06
6.39182940320117e-06
6.39202883464455e-06
6.39208180833448e-06
6.39209472351987e-06
6.39209725500002e-06
6.39209728099632e-06
6.39209680030448e-06
6.39209624597925e-06
6.39209571452036e-06
6.39209522499842e-06
6.39209477968085e-06
6.39209437814151e-06
6.39209401944726e-06
6.39209370335918e-06
6.39209342988772e-06
6.39209320037335e-06
6.3920930167334e-06
6.39209287968714e-06
6.39209278187368e-06
6.39209269782633e-06
6.39209251994209e-06
6.39209175411012e-06
6.39208834673323e-06
6.39207424523329e-06
6.3920192674243e-06
6.39181614359811e-06
6.39110579570815e-06
6.38876468268395e-06
6.38153737710724e-06
6.36078971920758e-06
6.30585989145271e-06
6.17294034856889e-06
5.88167276516511e-06
5.30880030627119e-06
4.30551469133895e-06
2.75168884495582e-06
8.6881338954667e-09
3.37136301941821e-11
3.36602519425638e-11
8.75104481523547e-09
2.78406923867722e-06
4.36167095611554e-06
5.38262311737779e-06
5.9670849500772e-06
6.26494286602959e-06
6.40110697392617e-06
6.45742667805536e-06
6.47869536786012e-06
6.48609401989534e-06
6.48848421366076e-06
6.48920636072243e-06
6.48941143730386e-06
6.48946617624418e-06
6.48947967785629e-06
6.48948244784273e-06
6.48948260122686e-06
6.48948220328653e-06
6.4894817127475e-06
6.48948123294349e-06
6.4894807854028e-06
6.48948037356674e-06
6.48947999768633e-06
6.48947965721944e-06
6.48947935209258e-06
6.48947908220161e-06
6.48947884828725e-06
6.48947865114839e-06
6.48947849094944e-06
6.4894783618749e-06
6.48947823803479e-06
6.48947800548496e-06
6.48947716466381e-06
6.48947364478433e-06
6.48945930405648e-06
6.4894036069842e-06
6.48919797213988e-06
6.48847871821494e-06
6.48610729081218e-06
6.47878329002774e-06
6.45775035444542e-06
6.4020498584371e-06
6.26724102050954e-06
5.97180262590724e-06
5.39068218466553e-06
4.37280508829962e-06
2.79579383162749e-06
8.82637226242298e-09
3.42108582527701e-11
3.3971766672339e-11
8.83823938542755e-09
2.81221755325976e-06
4.40490550724709e-06
5.43564040342632e-06
6.02588831527261e-06
6.32685987604117e-06
6.46455034395027e-06
6.52155448995623e-06
6.54310560705829e-06
6.55061224994512e-06
6.55304099859195e-06
6.55377611772603e-06
6.55398537061368e-06
6.55404143893242e-06
6.55405539178415e-06
6.55405835141185e-06
6.55405860965067e-06
6.55405828061335e-06
6.55405784393313e-06
6.55405740821647e-06
6.55405699697435e-06
6.55405661458764e-06
6.55405626184334e-06
6.55405593851315e-06
6.55405564466397e-06
6.55405538015074e-06
6.55405514538966e-06
6.55405494056156e-06
6.55405476532175e-06
6.55405461406905e-06
6.55405446068596e-06
6.55405418834547e-06
6.55405329288102e-06
6.55404969128761e-06
6.55403518478041e-06
6.55397900999937e-06
6.55377173219202e-06
6.55304666003408e-06
6.55065538097413e-06
6.54326786741371e-06
6.52204705901885e-06
6.465838026242e-06
6.32978085316167e-06
6.03158440933969e-06
5.44500690098015e-06
4.41746940099268e-06
2.82508612359572e-06
8.91751635494637e-09
3.45352687461964e-11
3.41660045220322e-11
8.89322734543273e-09
2.83017887987326e-06
4.43260246156344e-06
5.46970616186507e-06
6.06375627990522e-06
6.3667944294232e-06
6.50550879574094e-06
6.56297724978535e-06
6.58472221610529e-06
6.59230388627329e-06
6.59475975983144e-06
6.59550412594258e-06
6.59571639864584e-06
6.59577344486421e-06
6.5957877363381e-06
6.59579084306486e-06
6.59579118513099e-06
6.59579091094862e-06
6.59579051825368e-06
6.59579011900083e-06
6.59578973822848e-06
6.595789381042e-06
6.59578904863021e-06
6.59578874100092e-06
6.59578845833545e-06
6.59578820047612e-06
6.59578796765797e-06
6.59578775970818e-06
6.59578757589572e-06
6.59578741046026e-06
6.59578723702063e-06
6.59578693729979e-06
6.59578600404954e-06
6.59578234600282e-06
6.59576772869116e-06
6.59571124557604e-06
6.5955029216715e-06
6.59477415027502e-06
6.59237021977568e-06
6.58494210908726e-06
6.56360089665249e-06
6.50706528211608e-06
6.37020523003283e-06
6.07023301320443e-06
5.48013882778238e-06
4.44636919999609e-06
2.8440510321979e-06
8.9760874323406e-09
3.47416244585238e-11
3.42839592644269e-11
8.92699780013183e-09
2.84134649422402e-06
4.44990010687701e-06
5.4910523478545e-06
6.08754345531185e-06
6.39192219051505e-06
6.53130805859121e-06
6.58908452599086e-06
6.61095962700359e-06
6.61859228652669e-06
6.6210668291205e-06
6.62181764387481e-06
6.62203205269428e-06
6.62208980241346e-06
6.62210434215758e-06
6.62210756226913e-06
6.62210797130359e-06
6.62210773782276e-06
6.62210738030803e-06
6.62210701072808e-06
6.62210665519987e-06
6.62210631936198e-06
6.62210600469369e-06
6.62210571136911e-06
6.62210543965081e-06
6.62210518938325e-06
6.62210496069901e-06
6.62210475321002e-06
6.62210456591782e-06
6.62210439284166e-06
6.62210420733858e-06
6.62210389033512e-06
6.6221029326744e-06
6.62209923778602e-06
6.62208454936927e-06
6.62202787317332e-06
6.6218189010627e-06
6.62108783916889e-06
6.61867605553097e-06
6.61122266881829e-06
6.58980629024625e-06
6.53306635359666e-06
6.39570313931678e-06
6.0946165320722e-06
5.50231264014718e-06
4.46462109930396e-06
2.85603671923658e-06
9.01282814450217e-09
3.48697948355153e-11
3.43538341390052e-11
8.94722674586844e-09
2.8481216819683e-06
4.46044544885068e-06
5.50411316391135e-06
6.10213672045618e-06
6.40736616927194e-06
6.54718296729866e-06
6.60515941817319e-06
6.62712003616395e-06
6.63478662080911e-06
6.6372737438789e-06
6.63802896214025e-06
6.63824485075919e-06
6.63830309634517e-06
6.63831781442217e-06
6.63832111890566e-06
6.6383215785738e-06
6.63832137994973e-06
6.63832105055987e-06
6.63832070507981e-06
6.63832037048241e-06
6.63832005279749e-06
6.63831975369824e-06
6.63831947346906e-06
6.63831921242983e-06
6.63831897043037e-06
6.63831874754225e-06
6.63831854324401e-06
6.63831835635323e-06
6.63831818070329e-06
6.63831798943425e-06
6.63831766300177e-06
6.63831669111388e-06
6.63831297393751e-06
6.63829824213972e-06
6.63824144904625e-06
6.63803208619941e-06
6.63729964226355e-06
6.63488310610923e-06
6.62741437432955e-06
6.60595223446569e-06
6.54908761791394e-06
6.41141678292832e-06
6.10964773572503e-06
5.51598841583612e-06
4.47588648160006e-06
2.86344049541494e-06
9.03535665643849e-09
3.49476387678491e-11
3.43942710825036e-11
8.95906241989742e-09
2.85213763607524e-06
4.46672885409694e-06
5.51192581478822e-06
6.11089111775631e-06
6.41664918885966e-06
6.55673684960507e-06
6.61484049934924e-06
6.63685617734689e-06
6.64454487943002e-06
6.64704031040269e-06
6.64779847601365e-06
6.6480153699891e-06
6.64807395897805e-06
6.64808880380235e-06
6.64809217011474e-06
6.64809266990511e-06
6.64809249969843e-06
6.64809219301837e-06
6.6480918673723e-06
6.64809155041114e-06
6.6480912484396e-06
6.64809096325611e-06
6.64809069520931e-06
6.64809044465415e-06
6.64809021145076e-06
6.64808999563244e-06
6.64808979659053e-06
6.64808961301539e-06
6.64808943860159e-06
6.64808924632521e-06
6.64808891635775e-06
6.64808793774356e-06
6.64808420871674e-06
6.64806945235665e-06
6.6480125914036e-06
6.64780299982297e-06
6.6470697429949e-06
6.64465040014621e-06
6.63717257389269e-06
6.61568323183866e-06
6.55874431643805e-06
6.420889776095e-06
6.11871239747123e-06
5.52424044978932e-06
4.48268998936987e-06
2.86791611942733e-06
9.04887730473321e-09
3.49939286609252e-11
3.44171593553743e-11
8.96583453231225e-09
2.8544660817166e-06
4.47039223788834e-06
5.51649979114303e-06
6.1160321939771e-06
6.42211224356996e-06
6.56236682680442e-06
6.62054981233048e-06
6.64260025747224e-06
6.65030310253313e-06
6.65280391545069e-06
6.65356401689383e-06
6.65378158185462e-06
6.65384040532548e-06
6.65385534010341e-06
6.6538587524987e-06
6.65385928391938e-06
6.65385913681354e-06
6.65385884883861e-06
6.65385853992758e-06
6.65385823821906e-06
6.65385795020386e-06
6.65385767774822e-06
6.65385742123449e-06
6.65385718103794e-06
6.65385695702991e-06
6.65385674922035e-06
6.65385655694319e-06
6.65385637879566e-06
6.6538562083736e-06
6.65385601853785e-06
6.65385568928853e-06
6.65385470928751e-06
6.65385097566314e-06
6.65383620719803e-06
6.65377930921375e-06
6.65356958825258e-06
6.65283586564731e-06
6.65041490420407e-06
6.6429318104721e-06
6.62142666051697e-06
6.5644444508044e-06
6.42648261327905e-06
6.12406621461176e-06
5.52911749169015e-06
4.48671486867362e-06
2.87056673415483e-06
9.0568285811967e-09
3.50209096799163e-11
3.44298407708934e-11
8.96962708811261e-09
2.85578775746598e-06
4.4724839622189e-06
5.51912310579887e-06
6.11899047543753e-06
6.42526295835423e-06
6.56561850440853e-06
6.62385006440795e-06
6.64592206230399e-06
6.6536337869754e-06
6.65613802376406e-06
6.65689937455552e-06
6.65711738038727e-06
6.65717636244757e-06
6.65719136147622e-06
6.65719480907642e-06
6.65719536581001e-06
6.65719523780486e-06
6.65719496573543e-06
6.65719467146704e-06
6.65719438343035e-06
6.65719410822553e-06
6.65719384775442e-06
6.65719360239398e-06
6.65719337253909e-06
6.65719315807764e-06
6.65719295900441e-06
6.65719277461058e-06
6.65719260342261e-06
6.65719243896694e-06
6.65719225402644e-06
6.65719192850155e-06
6.6571909508393e-06
6.65718721756979e-06
6.65717244513825e-06
6.65711552919704e-06
6.65690573852465e-06
6.65617175688882e-06
6.65374988449171e-06
6.64626380774609e-06
6.62474966888676e-06
6.56774276362062e-06
6.42971956122108e-06
6.12716612701172e-06
5.53194335568314e-06
4.48904945239951e-06
2.87210605163186e-06
9.06141470809933e-09
3.50363381252619e-11
3.44367170498926e-11
8.97170576114489e-09
2.85652226012433e-06
4.47365385192543e-06
5.52059744160094e-06
6.1206590408008e-06
6.42704448127681e-06
6.56746002473614e-06
6.62572081016881e-06
6.64780593933235e-06
6.65552314401726e-06
6.65802952243039e-06
6.65879166669203e-06
6.65900995843828e-06
6.6590690473794e-06
6.65908409312292e-06
6.65908756849076e-06
6.65908814596587e-06
6.65908803426031e-06
6.65908777622937e-06
6.65908749528535e-06
6.65908721995159e-06
6.65908695687792e-06
6.65908670798159e-06
6.65908647359203e-06
6.65908625413087e-06
6.65908604950966e-06
6.65908585971791e-06
6.65908568401136e-06
6.65908552086259e-06
6.65908536374526e-06
6.65908518539595e-06
6.65908486566119e-06
6.65908389287744e-06
6.65908016329854e-06
6.65906539221062e-06
6.65900847008799e-06
6.65879864513633e-06
6.65806452551082e-06
6.65564215526349e-06
6.64815443006515e-06
6.62663529281989e-06
6.56961459738609e-06
6.4315570157761e-06
6.12892658706938e-06
5.53354939686295e-06
4.49037777958323e-06
2.87298303833395e-06
9.06401019327873e-09
3.50449968656723e-11
3.44403546848724e-11
8.97281767848649e-09
2.85692095207742e-06
4.47429351204423e-06
5.521408053701e-06
6.12158020945789e-06
6.42803079560537e-06
6.56848139021294e-06
6.62675946917519e-06
6.64885246868659e-06
6.65657300156488e-06
6.65908069864244e-06
6.65984333956843e-06
6.66006181483029e-06
6.66012097602621e-06
6.66013605668628e-06
6.66013955473434e-06
6.660140149839e-06
6.66014005257699e-06
6.66013980734058e-06
6.66013953897452e-06
6.66013927583415e-06
6.66013902457643e-06
6.66013878714835e-06
6.66013856373325e-06
6.66013835480646e-06
6.66013816032927e-06
6.66013798028618e-06
6.66013781390797e-06
6.66013765962248e-06
6.66013751086129e-06
6.66013734033575e-06
6.6601370278702e-06
6.66013606176558e-06
6.66013233821916e-06
6.66011757212583e-06
6.66006065137539e-06
6.65985081350097e-06
6.65911662673076e-06
6.6566939977796e-06
6.64920539373568e-06
6.62768355699786e-06
6.57065535533441e-06
6.43257895810579e-06
6.12990621335028e-06
5.53444384191639e-06
4.49111846456067e-06
2.87347276592596e-06
9.06545035106522e-09
3.50497625378017e-11
3.44422076063191e-11
8.97339106195041e-09
2.85713001407915e-06
4.47463215227841e-06
5.52184033101325e-06
6.12207404671909e-06
6.42856146444902e-06
6.56903216480786e-06
6.62732030245219e-06
6.64941794258491e-06
6.65714046668875e-06
6.65964896352608e-06
6.66041191096823e-06
6.66063050287574e-06
6.66068971316735e-06
6.66070482057549e-06
6.66070833770545e-06
6.66070894844215e-06
6.66070886419947e-06
6.66070863054022e-06
6.6607083742286e-06
6.66070812295606e-06
6.66070788334976e-06
6.66070765745789e-06
6.66070744510794e-06
6.66070724688879e-06
6.6607070628531e-06
6.66070689299554e-06
6.66070673652316e-06
6.66070659182736e-06
6.66070645230878e-06
6.66070629066065e-06
6.66070598671247e-06
6.66070502878248e-06
6.66070131319802e-06
6.66068655501886e-06
6.66062964112241e-06
6.66041980426044e-06
6.65968559371298e-06
6.65726284783998e-06
6.64977381358629e-06
6.62825060487758e-06
6.57121850594672e-06
6.43313220367293e-06
6.13043697181194e-06
5.53492901615524e-06
4.49152088178317e-06
2.8737393625145e-06
9.06623003880772e-09
3.50523235261912e-11
3.4443068923591e-11
8.97366202073048e-09
2.85723120142899e-06
4.47479894678356e-06
5.52205602422121e-06
6.12232269948507e-06
6.42883027250371e-06
6.56931219353312e-06
6.62760604567801e-06
6.64970636664265e-06
6.65743006547728e-06
6.65993903908597e-06
6.66070217213054e-06
6.66092083676509e-06
6.660980079984e-06
6.66099520768101e-06
6.66099874081548e-06
6.66099936531347e-06
6.6609992921108e-06
6.66099906876623e-06
6.66099882377974e-06
6.66099858388261e-06
6.66099835565313e-06
6.66099814140519e-06
6.66099794020594e-06
6.66099775288376e-06
6.66099757965169e-06
6.66099742052346e-06
6.66099727469237e-06
6.66099714051633e-06
6.66099701137212e-06
6.66099685993918e-06
6.66099656606824e-06
6.66099561814603e-06
6.66099191278566e-06
6.66097716563215e-06
6.6609202636605e-06
6.66071043889704e-06
6.6599762353092e-06
6.65755346584762e-06
6.65006428319225e-06
6.62854051079844e-06
6.57150666539919e-06
6.43341568931491e-06
6.13070949423413e-06
5.53517881841982e-06
4.49172879485208e-06
2.87387769641162e-06
9.06663383858354e-09
3.50536437835112e-11
3.44433409968622e-11
8.97375091563468e-09
2.85726673102516e-06
4.47486118505613e-06
5.52214007896422e-06
6.12242250371539e-06
6.42894023868741e-06
6.56942806345081e-06
6.62772502905249e-06
6.64982685668802e-06
6.65755125725139e-06
6.6600605176475e-06
6.66082376633183e-06
6.66104248013737e-06
6.6611017491819e-06
6.66111689554567e-06
6.66112044488434e-06
6.66112108376744e-06
6.66112102223352e-06
6.66112080966907e-06
6.66112057658247e-06
6.66112034857312e-06
6.6611201321335e-06
6.66111992998526e-06
6.66111974012261e-06
6.66111956382207e-06
6.66111940145189e-06
6.66111925303813e-06
6.66111911775615e-06
6.66111899392518e-06
6.66111887487903e-06
6.66111873326377e-06
6.66111844893479e-06
6.66111751036679e-06
6.66111381453025e-06
6.66109907788367e-06
6.66104218860191e-06
6.66083238171439e-06
6.66009820708183e-06
6.65767548466275e-06
6.6501863615969e-06
6.62866259607639e-06
6.57162845843197e-06
6.43353622444053e-06
6.13082639259581e-06
5.53528723722773e-06
4.49182033236001e-06
2.8739396169945e-06
9.06681740561287e-09
3.5054251078504e-11
3.44431547600381e-11
8.97369938867118e-09
2.85725292944878e-06
4.47484619058174e-06
5.52212794288142e-06
6.12241435490956e-06
6.42893556649175e-06
6.56942580530093e-06
6.62772420501051e-06
6.64982678880938e-06
6.65755155647516e-06
6.6600609818902e-06
6.66082430729057e-06
6.66104306008508e-06
6.66110235418137e-06
6.66111752113944e-06
6.66112108921891e-06
6.66112174538048e-06
6.66112169811591e-06
6.66112149796368e-06
6.66112127831354e-06
6.6611210634558e-06
6.66112085962888e-06
6.66112066951708e-06
6.66112049110003e-06
6.6611203258385e-06
6.66112017404416e-06
6.66112003572077e-06
6.66111991001261e-06
6.66111979517457e-06
6.66111968445708e-06
6.66111955042429e-06
6.66111927289768e-06
6.66111834043118e-06
6.66111465035407e-06
6.66109992008967e-06
6.66104304056363e-06
6.66083325439712e-06
6.66009912994449e-06
6.65767652760773e-06
6.65018767287049e-06
6.62866445400583e-06
6.57163131386418e-06
6.43354068000905e-06
6.1308330385821e-06
5.53529627289663e-06
4.49183094529185e-06
2.87394922018092e-06
9.06685514029992e-09
3.505440375136e-11
3.44424494684836e-11
8.97349362514751e-09
2.85718658911955e-06
4.47475081943794e-06
5.5220173071329e-06
6.1222969155612e-06
6.42881573826989e-06
6.56930547164464e-06
6.62760396504236e-06
6.64970673017613e-06
6.65743160323756e-06
6.65994110867911e-06
6.66070447985554e-06
6.66092326071671e-06
6.66098257557758e-06
6.66099776088127e-06
6.66100134609742e-06
6.66100201915666e-06
6.66100198609796e-06
6.66100179735498e-06
6.6610015906061e-06
6.66100138851962e-06
6.66100119685009e-06
6.66100101783792e-06
6.66100085067498e-06
6.66100069639888e-06
6.66100055518268e-06
6.66100042699407e-06
6.66100031093426e-06
6.66100020517554e-06
6.66100010286032e-06
6.66099997644518e-06
6.66099970571788e-06
6.66099877935955e-06
6.66099509516561e-06
6.6609803720231e-06
6.66092350608808e-06
6.66071375442371e-06
6.65997972224204e-06
6.65755735724779e-06
6.65006907475577e-06
6.6285471369821e-06
6.57151664702432e-06
6.43343106468549e-06
6.13073225207074e-06
5.53520959915756e-06
4.49176482542335e-06
2.8739101195544e-06
9.06675831632895e-09
3.50541274037812e-11
3.4441009470318e-11
8.97306676024357e-09
2.85704428283338e-06
4.47454024938592e-06
5.52176700458271e-06
6.12202586728592e-06
6.42853509397045e-06
6.56902093648714e-06
6.62731806857543e-06
6.64942043848569e-06
6.65714522303497e-06
6.65965473029634e-06
6.66041811867438e-06
6.66063691625686e-06
6.66069624619478e-06
6.66071144594431e-06
6.66071504495296e-06
6.66071573301899e-06
6.66071571277046e-06
6.66071553371542e-06
6.66071533854022e-06
6.66071514816552e-06
6.66071496783886e-06
6.66071479956393e-06
6.66071464337375e-06
6.66071450001788e-06
6.66071436957873e-06
6.66071425198944e-06
6.66071414630532e-06
6.66071405060253e-06
6.66071395789736e-06
6.6607138405341e-06
6.66071357830557e-06
6.66071266014381e-06
6.66070898466917e-06
6.66069427343077e-06
6.66063743167572e-06
6.66042774179123e-06
6.65969387535632e-06
6.65727194231033e-06
6.6497847239012e-06
6.62826523544601e-06
6.57123998055047e-06
6.43316473652222e-06
6.1304846861744e-06
5.53499321442096e-06
4.49159575928635e-06
2.87380643446983e-06
9.0664865632527e-09
3.50533283043247e-11
3.44382929707893e-11
8.97226229769107e-09
2.85677474123987e-06