/*--------------------------------*- C++ -*----------------------------------*\
  =========                 |
  \\      /  F ield         | OpenFOAM: The Open Source CFD Toolbox
   \\    /   O peration     | Website:  https://openfoam.org
    \\  /    A nd           | Version:  10
     \\/     M anipulation  |
\*---------------------------------------------------------------------------*/
FoamFile
{
    format      ascii;
    class       volScalarField;
    location    "3.2";
    object      omega;
}
// * * * * * * * * * * * * * * * * * * * * * * * * * * * * * * * * * * * * * //

dimensions      [0 0 -1 0 0 0 0];

internalField   nonuniform List<scalar> 
2500
(
128298.437471889
128315.621914912
128308.913616189
128305.993350683
128304.879831678
128304.471678507
128304.32796613
128304.279350258
128304.263272188
128304.258337517
128304.256136835
128304.255144241
128304.254646921
128304.254079026
128304.253568052
128304.252996417
128304.252713503
128304.252353505
128304.251941391
128304.251658124
128304.251401355
128304.251161788
128304.250955667
128304.250849558
128304.250729994
128304.250599002
128304.250554856
128304.250515686
128304.250494815
128304.250527396
128304.250579904
128304.250675177
128304.250825917
128304.251023908
128304.251229765
128304.251460456
128304.251733411
128304.251977967
128304.252555986
128304.253407355
128304.2554244
128304.26120777
128304.278703009
128304.33062125
128304.480291951
128304.891036722
128305.997317302
128308.912771667
128315.71433467
128298.394503847
31873.6063687219
14161.8727446721
14158.7693927037
14157.3042825309
14156.6801962376
14156.4269756166
14156.3297601817
14156.2949035069
14156.2832780177
14156.2796721766
14156.2785933326
14156.2782814345
14156.2781946612
14156.2781552659
14156.2781287069
14156.2781039388
14156.2780898508
14156.2780733564
14156.2780540586
14156.2780385647
14156.2780214002
14156.2780011492
14156.2779823104
14156.2779746982
14156.2779692015
14156.2779597329
14156.2779574347
14156.2779552076
14156.2779487102
14156.2779531583
14156.2779553479
14156.2779516227
14156.2779701083
14156.2779956284
14156.2780072921
14156.278016402
14156.2780331514
14156.2780676219
14156.2781857051
14156.2785699152
14156.2798634101
14156.2840533178
14156.2968752575
14156.3337402394
14156.4331696009
14156.6861856722
14157.3044862474
14158.7682060739
14161.9281272761
31873.6836392176
31723.015420008
3523.54121374532
50.7264096282333
50.7204596236631
50.7179240281231
50.7168937746368
50.7164964087967
50.7163528882109
50.7163046494473
50.7162895674284
50.7162851000392
50.716283856497
50.7162835606371
50.7162834748997
50.716283440483
50.7162834185692
50.7162834080062
50.7162833934387
50.7162833706756
50.7162833503255
50.7162833206295
50.7162832769694
50.7162832309259
50.716283209571
50.7162832009837
50.7162831787634
50.7162831780076
50.7162831776285
50.7162831586619
50.7162831731622
50.71628317302
50.7162831499575
50.716283203546
50.7162832794384
50.7162832801919
50.7162832696558
50.7162833121807
50.7162834267093
50.716283853143
50.7162853699724
50.7162905929404
50.7163076299227
50.7163597864779
50.7165095664404
50.716913073257
50.7179408155404
50.7204586193967
50.7264285139136
3523.56280034568
31723.4071894582
31622.5866633183
3512.62101342826
50.5727290324805
50.5685924006415
50.5669057374249
50.566247273293
50.5660002066652
50.5659123429635
50.5658830218366
50.5658738732323
50.5658711616607
50.5658704195238
50.5658702630276
50.5658702297672
50.5658702280583
50.5658702292797
50.5658702322328
50.5658702320018
50.565870227749
50.5658702246225
50.5658702154897
50.5658701950423
50.5658701684415
50.5658701530206
50.5658701500367
50.5658701430679
50.5658701439406
50.5658701510587
50.5658701481521
50.5658701486717
50.5658701482132
50.5658701307649
50.565870156198
50.5658701941853
50.5658701931902
50.5658701919106
50.5658701936595
50.5658702328951
50.5658704660792
50.5658713197931
50.5658743149244
50.5658842573994
50.5659151629931
50.566005543032
50.566254992141
50.5669122499282
50.5685950104489
50.5727719009553
3512.64234230035
31623.1330474152
31565.9387378739
3506.69196180693
50.4912670249958
50.4889906111176
50.4880962213164
50.4877589051541
50.4876352330458
50.4875917218779
50.4875772284214
50.487572691475
50.4875713362682
50.487570967935
50.4875709022264
50.4875708950471
50.4875708987198
50.4875709038695
50.4875709091565
50.4875709128492
50.4875709139287
50.4875709139305
50.4875709120951
50.4875709050704
50.4875708924038
50.4875708837722
50.4875708848955
50.4875708864997
50.4875708873697
50.4875708910735
50.4875708897788
50.487570888959
50.4875708886183
50.4875708771059
50.4875708887098
50.4875709047876
50.487570903985
50.4875709046348
50.4875709033425
50.487570910367
50.4875710070045
50.4875714029922
50.4875728158372
50.4875775565805
50.4875924268648
50.4876364472553
50.4877602732565
50.4880962131038
50.4889904087814
50.4913000425207
3506.70730329304
31566.4198884405
31537.9971763144
3503.88310151189
50.4534725192963
50.4524060126852
50.4519989253598
50.4518496785922
50.4517960012187
50.4517772591871
50.4517710089496
50.4517690406193
50.4517684466601
50.4517682863268
50.4517682622086
50.4517682623207
50.4517682659467
50.4517682698117
50.4517682736556
50.4517682766826
50.451768278273
50.4517682790018
50.4517682790514
50.4517682766946
50.4517682717548
50.4517682685436
50.4517682697387
50.4517682713063
50.4517682719643
50.4517682738282
50.4517682733403
50.4517682728554
50.4517682726229
50.4517682668007
50.4517682711869
50.451768276936
50.451768275305
50.4517682748211
50.4517682740797
50.4517682746455
50.451768309818
50.4517684710034
50.4517690599994
50.4517710464754
50.4517773014231
50.4517959475226
50.4518491407982
50.4519969863515
50.4524035234975
50.4534886713571
3503.89190006397
31538.32062903
31525.6536422954
3502.69208275555
50.437730118246
50.437287258562
50.437121886503
50.4370626159163
50.4370416386309
50.437034355865
50.4370319206863
50.4370311481435
50.4370309128216
50.437030849895
50.4370308417793
50.4370308429848
50.4370308452189
50.4370308473539
50.4370308494228
50.4370308510779
50.4370308520849
50.437030852568
50.4370308529186
50.4370308522272
50.4370308504627
50.4370308497018
50.4370308503955
50.4370308510577
50.4370308514069
50.4370308521941
50.4370308520404
50.4370308518212
50.4370308516785
50.4370308491346
50.4370308505561
50.4370308522825
50.4370308516983
50.4370308514854
50.4370308503743
50.4370308494968
50.437030860877
50.4370309209956
50.437031145709
50.4370319038182
50.4370342901938
50.4370414230545
50.4370619714229
50.4371202070494
50.4372846558359
50.4377356761598
3502.69633444934
31525.833923113
31520.6819435786
3502.23152343065
50.4317351105585
50.4315678515088
50.4315064208513
50.4314847919869
50.4314772395033
50.4314746296185
50.4314737541964
50.4314734743409
50.4314733885087
50.4314733658267
50.4314733632403
50.4314733640574
50.4314733651621
50.4314733661535
50.4314733670722
50.431473367801
50.4314733682791
50.4314733684995
50.4314733687249
50.4314733685412
50.4314733679693
50.4314733679326
50.4314733682523
50.4314733684336
50.4314733685593
50.4314733688276
50.4314733688134
50.4314733686646
50.4314733685203
50.4314733675607
50.4314733679554
50.4314733683522
50.4314733680777
50.4314733679996
50.4314733673403
50.4314733666933
50.4314733700417
50.4314733909146
50.4314734709058
50.431473739978
50.4314745840917
50.4314771052817
50.431484412719
50.4315054402582
50.4315661046418
50.4317363089838
3502.23331687213
31520.7691732323
31518.8310275212
3502.0667923103
50.4296195985268
50.4295610944054
50.4295398786427
50.4295325105808
50.4295299666466
50.4295290911416
50.4295287966068
50.4295287017716
50.429528672557
50.4295286649321
50.4295286641397
50.4295286645224
50.4295286649866
50.4295286653831
50.4295286657297
50.4295286659989
50.4295286661824
50.4295286662585
50.429528666339
50.4295286662877
50.4295286661268
50.4295286661637
50.4295286662651
50.4295286663024
50.4295286663259
50.4295286663895
50.4295286663756
50.4295286662913
50.4295286662061
50.4295286658509
50.4295286659269
50.429528665964
50.4295286658171
50.4295286657506
50.4295286654291
50.4295286651055
50.4295286659991
50.4295286728742
50.4295286997645
50.4295287897724
50.4295290706183
50.4295299066972
50.4295323372685
50.4295394116542
50.4295601712086
50.429619564097
3502.06746845539
31518.8687545233
31518.1873607751
3502.01170744418
50.4289209643328
50.4289017583808
50.4288948636164
50.4288924937403
50.4288916831315
50.4288914052238
50.4288913115081
50.4288912811435
50.4288912717635
50.4288912693537
50.4288912691098
50.4288912692334
50.4288912693955
50.4288912695254
50.4288912696298
50.4288912697063
50.4288912697554
50.4288912697643
50.4288912697715
50.4288912697415
50.4288912696888
50.4288912696948
50.4288912697047
50.4288912696943
50.4288912696805
50.4288912696761
50.4288912696508
50.4288912696008
50.4288912695493
50.4288912694117
50.428891269402
50.4288912693687
50.4288912692885
50.4288912692349
50.4288912690889
50.4288912689392
50.4288912691498
50.4288912713037
50.4288912798958
50.4288913085211
50.4288913972859
50.4288916602329
50.4288924250184
50.4288946689733
50.4289013417579
50.4289207644664
3502.01193894577
31518.2022433231
31517.976668262
3501.99435971801
50.428703648448
50.4286976709039
50.4286955431016
50.4286948172698
50.4286945708864
50.428694486726
50.4286944582979
50.4286944490363
50.4286944461653
50.4286944454276
50.4286944453416
50.4286944453676
50.428694445405
50.4286944454285
50.4286944454407
50.4286944454433
50.4286944454376
50.4286944454185
50.4286944453969
50.428694445367
50.428694445334
50.4286944453145
50.4286944452931
50.4286944452673
50.4286944452415
50.4286944452177
50.4286944451883
50.4286944451521
50.4286944451156
50.4286944450564
50.4286944450264
50.4286944449918
50.4286944449467
50.4286944449003
50.4286944448295
50.4286944447632
50.4286944447949
50.428694445422
50.4286944480337
50.4286944567321
50.4286944835615
50.428694562594
50.4286947921444
50.428695469151
50.4286975029373
50.4287035160147
3501.99443245151
31517.9821022965
31517.9115309629
3501.98920558216
50.4286399640537
50.4286381864661
50.4286375584525
50.4286373453914
50.4286372735037
50.4286372490333
50.4286372407578
50.4286372380453
50.4286372371953
50.428637236967
50.428637236925
50.4286372369142
50.4286372369052
50.42863723689
50.42863723687
50.4286372368465
50.4286372368205
50.4286372367905
50.4286372367593
50.4286372367266
50.428637236694
50.4286372366648
50.4286372366352
50.4286372366052
50.4286372365761
50.4286372365478
50.4286372365185
50.4286372364878
50.4286372364577
50.4286372364222
50.428637236393
50.4286372363634
50.4286372363303
50.428637236295
50.4286372362535
50.4286372362137
50.4286372362002
50.4286372363621
50.4286372371088
50.4286372396331
50.4286372474142
50.4286372702316
50.4286373363519
50.4286375319238
50.42863812399
50.4286399001164
3501.98922665945
31517.9133878992
31517.8926561971
3501.98778221994
50.4286227217014
50.4286222135513
50.4286220352944
50.4286219750531
50.4286219548221
50.4286219479568
50.4286219456309
50.4286219448593
50.4286219446077
50.4286219445278
50.4286219444974
50.4286219444737
50.4286219444489
50.4286219444209
50.4286219443905
50.4286219443587
50.4286219443261
50.4286219442925
50.4286219442586
50.4286219442247
50.4286219441916
50.4286219441599
50.4286219441287
50.4286219440983
50.4286219440689
50.4286219440404
50.4286219440122
50.4286219439844
50.4286219439572
50.4286219439293
50.4286219439029
50.4286219438767
50.4286219438493
50.4286219438209
50.4286219437907
50.4286219437605
50.4286219437368
50.4286219437619
50.4286219439516
50.4286219446411
50.4286219468006
50.4286219531397
50.4286219714858
50.428622025842
50.4286221913929
50.4286226949575
3501.98778783695
31517.8932550777
31517.8877793698
3501.98744714207
50.4286188604078
50.4286187201098
50.4286186712395
50.4286186547728
50.4286186492626
50.4286186473964
50.4286186467596
50.4286186465403
50.4286186464585
50.4286186464202
50.4286186463926
50.4286186463648
50.4286186463351
50.4286186463034
50.4286186462703
50.4286186462363
50.428618646202
50.4286186461677
50.4286186461336
50.4286186461
50.4286186460672
50.4286186460355
50.4286186460048
50.428618645975
50.4286186459465
50.4286186459189
50.4286186458922
50.4286186458662
50.4286186458411
50.4286186458163
50.4286186457921
50.4286186457683
50.4286186457442
50.4286186457197
50.4286186456944
50.4286186456684
50.4286186456434
50.4286186456308
50.4286186456615
50.4286186458268
50.4286186463884
50.4286186480737
50.428618652978
50.4286186675537
50.4286187121994
50.4286188498746
3501.98744848269
31517.8879627056
31517.8869574657
3501.9874164224
50.428618693139
50.4286186555925
50.4286186426105
50.4286186382494
50.4286186367941
50.4286186362999
50.428618636126
50.4286186360578
50.4286186360223
50.4286186359951
50.4286186359681
50.4286186359393
50.4286186359083
50.4286186358759
50.4286186358424
50.4286186358083
50.4286186357741
50.4286186357402
50.4286186357067
50.4286186356739
50.4286186356421
50.4286186356113
50.4286186355815
50.4286186355529
50.4286186355255
50.4286186354993
50.428618635474
50.4286186354497
50.4286186354263
50.4286186354035
50.4286186353813
50.4286186353594
50.4286186353376
50.4286186353157
50.4286186352932
50.42861863527
50.4286186352463
50.4286186352246
50.4286186352128
50.4286186352347
50.4286186353588
50.4286186357744
50.4286186370256
50.4286186407919
50.4286186524305
50.4286186888515
3501.98741667082
31517.8870108094
31517.8872654094
3501.9874676877
50.4286195072999
50.4286194975356
50.4286194941887
50.4286194930699
50.4286194926968
50.4286194925669
50.4286194925152
50.4286194924865
50.4286194924628
50.4286194924384
50.4286194924116
50.4286194923826
50.4286194923516
50.4286194923194
50.4286194922862
50.4286194922527
50.4286194922192
50.4286194921861
50.4286194921536
50.4286194921219
50.4286194920912
50.4286194920615
50.428619492033
50.4286194920058
50.4286194919798
50.4286194919549
50.4286194919312
50.4286194919084
50.4286194918867
50.4286194918656
50.4286194918453
50.4286194918253
50.4286194918055
50.4286194917857
50.4286194917655
50.4286194917446
50.4286194917228
50.4286194917004
50.428619491679
50.4286194916646
50.4286194916741
50.4286194917558
50.4286194920466
50.4286194929718
50.4286194958993
50.4286195052387
3501.98746768153
31517.8872799921
31517.8878773611
3501.98754030668
50.4286205733466
50.4286205708761
50.4286205700397
50.4286205697628
50.4286205696692
50.4286205696324
50.4286205696111
50.4286205695919
50.4286205695708
50.4286205695469
50.4286205695202
50.4286205694912
50.4286205694606
50.4286205694288
50.4286205693963
50.4286205693636
50.428620569331
50.4286205692988
50.4286205692674
50.4286205692368
50.4286205692073
50.428620569179
50.4286205691519
50.428620569126
50.4286205691015
50.4286205690781
50.4286205690559
50.4286205690349
50.4286205690148
50.4286205689955
50.4286205689769
50.4286205689588
50.428620568941
50.4286205689233
50.4286205689052
50.4286205688866
50.428620568867
50.4286205688462
50.4286205688244
50.4286205688026
50.4286205687849
50.4286205687832
50.4286205688309
50.4286205690336
50.4286205697334
50.4286205720506
3501.98754024906
31517.8878808799
31517.888568567
3501.98761832093
50.4286217020439
50.4286217014359
50.4286217012344
50.4286217011687
50.428621701144
50.4286217011291
50.4286217011144
50.4286217010968
50.4286217010759
50.4286217010518
50.4286217010251
50.4286217009963
50.428621700966
50.4286217009348
50.4286217009031
50.4286217008712
50.4286217008396
50.4286217008085
50.4286217007782
50.4286217007489
50.4286217007207
50.4286217006937
50.428621700668
50.4286217006436
50.4286217006205
50.4286217005988
50.4286217005782
50.4286217005588
50.4286217005404
50.428621700523
50.4286217005062
50.4286217004901
50.4286217004742
50.4286217004586
50.4286217004427
50.4286217004263
50.4286217004091
50.4286217003907
50.4286217003708
50.4286217003495
50.4286217003274
50.4286217003075
50.4286217002977
50.4286217003241
50.4286217004723
50.4286217010214
3501.98761825672
31517.8885690639
31517.8892798467
3501.98769766107
50.428622845882
50.428622845736
50.4286228456894
50.4286228456735
50.4286228456638
50.4286228456528
50.4286228456386
50.4286228456206
50.4286228455992
50.4286228455748
50.4286228455481
50.4286228455195
50.4286228454897
50.4286228454591
50.4286228454281
50.4286228453971
50.4286228453665
50.4286228453365
50.4286228453074
50.4286228452794
50.4286228452525
50.4286228452269
50.4286228452027
50.4286228451798
50.4286228451583
50.4286228451382
50.4286228451193
50.4286228451016
50.428622845085
50.4286228450694
50.4286228450545
50.4286228450403
50.4286228450266
50.428622845013
50.4286228449994
50.4286228449854
50.4286228449706
50.4286228449548
50.4286228449376
50.4286228449187
50.4286228448981
50.4286228448766
50.4286228448558
50.4286228448428
50.4286228448603
50.4286228449782
3501.98769759906
31517.8892795607
31517.8899960765
3501.98777731867
50.428623993281
50.4286239932451
50.4286239932335
50.4286239932274
50.4286239932194
50.4286239932078
50.4286239931925
50.4286239931736
50.4286239931515
50.4286239931268
50.4286239931
50.4286239930717
50.4286239930423
50.4286239930123
50.4286239929821
50.428623992952
50.4286239929225
50.4286239928937
50.4286239928658
50.4286239928391
50.4286239928136
50.4286239927894
50.4286239927667
50.4286239927454
50.4286239927255
50.428623992707
50.4286239926898
50.4286239926739
50.4286239926591
50.4286239926454
50.4286239926325
50.4286239926203
50.4286239926086
50.4286239925973
50.4286239925859
50.4286239925743
50.4286239925621
50.4286239925491
50.4286239925347
50.4286239925189
50.4286239925013
50.4286239924822
50.4286239924619
50.4286239924428
50.4286239924325
50.4286239924502
3501.98777726047
31517.8899956156
31517.8907134955
3501.98785705029
50.4286251414941
50.4286251414818
50.4286251414761
50.4286251414701
50.4286251414606
50.4286251414474
50.4286251414307
50.4286251414107
50.428625141388
50.428625141363
50.4286251413361
50.428625141308
50.428625141279
50.4286251412497
50.4286251412203
50.4286251411912
50.4286251411627
50.4286251411351
50.4286251411084
50.428625141083
50.4286251410589
50.4286251410362
50.4286251410151
50.4286251409953
50.4286251409771
50.4286251409603
50.4286251409449
50.4286251409307
50.4286251409178
50.428625140906
50.4286251408951
50.4286251408849
50.4286251408755
50.4286251408663
50.4286251408573
50.4286251408482
50.4286251408386
50.4286251408283
50.428625140817
50.4286251408043
50.4286251407901
50.4286251407744
50.4286251407573
50.4286251407401
50.4286251407265
50.4286251407238
3501.98785699599
31517.8907130158
31517.8914311919
3501.98793679859
50.428626289886
50.4286262898767
50.4286262898702
50.4286262898621
50.4286262898504
50.4286262898353
50.4286262898171
50.428626289796
50.4286262897726
50.4286262897472
50.4286262897203
50.4286262896925
50.4286262896639
50.4286262896352
50.4286262896066
50.4286262895784
50.428626289551
50.4286262895245
50.4286262894992
50.4286262894752
50.4286262894525
50.4286262894313
50.4286262894117
50.4286262893936
50.428626289377
50.4286262893619
50.4286262893483
50.4286262893359
50.4286262893249
50.428626289315
50.4286262893062
50.4286262892982
50.4286262892908
50.428626289284
50.4286262892774
50.4286262892708
50.4286262892639
50.4286262892564
50.4286262892481
50.4286262892387
50.428626289228
50.428626289216
50.4286262892026
50.428626289189
50.4286262891777
50.4286262891734
3501.98793674831
31517.8914307373
31517.8921489501
3501.98801655038
50.4286274383136
50.4286274383027
50.4286274382938
50.4286274382832
50.4286274382692
50.4286274382523
50.4286274382326
50.4286274382104
50.4286274381863
50.4286274381605
50.4286274381336
50.4286274381059
50.4286274380779
50.4286274380498
50.428627438022
50.4286274379948
50.4286274379685
50.4286274379432
50.4286274379191
50.4286274378964
50.4286274378752
50.4286274378556
50.4286274378375
50.428627437821
50.4286274378061
50.4286274377928
50.4286274377809
50.4286274377705
50.4286274377614
50.4286274377535
50.4286274377467
50.4286274377408
50.4286274377356
50.4286274377311
50.4286274377269
50.4286274377229
50.4286274377187
50.4286274377141
50.4286274377089
50.4286274377028
50.4286274376956
50.4286274376873
50.4286274376779
50.4286274376682
50.4286274376605
50.4286274376588
3501.98801650409
31517.8921485276
31517.8928667204
3501.98809630275
50.4286285867463
50.4286285867328
50.4286285867213
50.4286285867081
50.4286285866919
50.428628586673
50.4286285866519
50.4286285866286
50.4286285866038
50.4286285865777
50.4286285865508
50.4286285865232
50.4286285864956
50.4286285864682
50.4286285864412
50.428628586415
50.4286285863897
50.4286285863656
50.4286285863429
50.4286285863215
50.4286285863018
50.4286285862837
50.4286285862671
50.4286285862523
50.4286285862391
50.4286285862276
50.4286285862175
50.428628586209
50.4286285862018
50.4286285861959
50.4286285861912
50.4286285861874
50.4286285861846
50.4286285861824
50.4286285861806
50.4286285861792
50.4286285861777
50.428628586176
50.4286285861739
50.4286285861711
50.4286285861674
50.4286285861629
50.4286285861574
50.4286285861517
50.4286285861477
50.4286285861495
3501.98809626053
31517.892866334
31517.8935844923
3501.98817605512
50.4286297351782
50.428629735162
50.4286297351478
50.4286297351321
50.4286297351137
50.4286297350931
50.4286297350704
50.4286297350461
50.4286297350206
50.4286297349942
50.4286297349671
50.4286297349398
50.4286297349126
50.4286297348858
50.4286297348597
50.4286297348344
50.4286297348102
50.4286297347873
50.4286297347658
50.4286297347459
50.4286297347276
50.428629734711
50.4286297346961
50.4286297346829
50.4286297346715
50.4286297346616
50.4286297346534
50.4286297346468
50.4286297346415
50.4286297346377
50.428629734635
50.4286297346335
50.4286297346328
50.428629734633
50.4286297346337
50.4286297346349
50.4286297346362
50.4286297346374
50.4286297346384
50.4286297346389
50.4286297346388
50.428629734638
50.4286297346364
50.4286297346345
50.4286297346344
50.4286297346397
3501.98817601698
31517.8935841438
31517.8943022639
3501.98825580741
50.428630883609
50.4286308835899
50.4286308835732
50.4286308835552
50.4286308835346
50.4286308835121
50.4286308834881
50.4286308834627
50.4286308834364
50.4286308834096
50.4286308833825
50.4286308833554
50.4286308833287
50.4286308833025
50.4286308832771
50.4286308832528
50.4286308832297
50.428630883208
50.4286308831878
50.4286308831693
50.4286308831524
50.4286308831373
50.428630883124
50.4286308831125
50.4286308831027
50.4286308830947
50.4286308830883
50.4286308830835
50.4286308830802
50.4286308830784
50.4286308830779
50.4286308830785
50.4286308830801
50.4286308830826
50.4286308830859
50.4286308830895
50.4286308830936
50.4286308830978
50.4286308831019
50.4286308831058
50.4286308831092
50.4286308831121
50.4286308831143
50.4286308831164
50.4286308831199
50.4286308831289
3501.98825577337
31517.8943019503
31517.8950200353
3501.98833555968
50.4286320320393
50.4286320320176
50.4286320319984
50.4286320319779
50.4286320319552
50.428632031931
50.4286320319055
50.4286320318791
50.4286320318521
50.4286320318249
50.4286320317978
50.4286320317708
50.4286320317445
50.4286320317189
50.4286320316943
50.428632031671
50.428632031649
50.4286320316284
50.4286320316095
50.4286320315924
50.428632031577
50.4286320315634
50.4286320315517
50.4286320315418
50.4286320315337
50.4286320315274
50.4286320315229
50.42863203152
50.4286320315187
50.4286320315188
50.4286320315204
50.4286320315232
50.4286320315271
50.4286320315319
50.4286320315377
50.428632031544
50.4286320315508
50.428632031558
50.4286320315652
50.4286320315724
50.4286320315793
50.4286320315859
50.4286320315919
50.4286320315978
50.4286320316051
50.4286320316175
3501.98833552969
31517.8950197598
31517.8957378071
3501.98841531199
50.4286331804702
50.4286331804459
50.4286331804242
50.4286331804014
50.4286331803766
50.4286331803506
50.4286331803237
50.4286331802962
50.4286331802686
50.428633180241
50.4286331802137
50.428633180187
50.428633180161
50.4286331801361
50.4286331801123
50.4286331800898
50.4286331800688
50.4286331800495
50.4286331800318
50.428633180016
50.4286331800021
50.42863317999
50.4286331799799
50.4286331799716
50.4286331799652
50.4286331799607
50.428633179958
50.4286331799569
50.4286331799576
50.4286331799598
50.4286331799634
50.4286331799684
50.4286331799745
50.4286331799817
50.4286331799899
50.4286331799989
50.4286331800084
50.4286331800185
50.4286331800288
50.4286331800393
50.4286331800498
50.42863318006
50.4286331800698
50.4286331800795
50.4286331800904
50.4286331801065
3501.98841528611
31517.8957375684
31517.8964555799
3501.98849506442
50.4286343289028
50.4286343288758
50.4286343288517
50.4286343288265
50.4286343287997
50.428634328772
50.4286343287437
50.4286343287152
50.4286343286868
50.4286343286588
50.4286343286314
50.4286343286049
50.4286343285793
50.4286343285549
50.4286343285318
50.4286343285103
50.4286343284903
50.4286343284721
50.4286343284557
50.4286343284412
50.4286343284287
50.4286343284181
50.4286343284095
50.4286343284029
50.4286343283982
50.4286343283954
50.4286343283945
50.4286343283953
50.4286343283979
50.428634328402
50.4286343284077
50.4286343284148
50.4286343284232
50.4286343284328
50.4286343284434
50.4286343284549
50.4286343284673
50.4286343284802
50.4286343284936
50.4286343285074
50.4286343285214
50.4286343285352
50.4286343285488
50.4286343285623
50.4286343285769
50.4286343285965
3501.98849504257
31517.8964553788
31517.8971733545
3501.98857481703
50.428635477338
50.4286354773083
50.4286354772818
50.4286354772543
50.4286354772254
50.428635477196
50.4286354771663
50.4286354771367
50.4286354771076
50.4286354770792
50.4286354770517
50.4286354770253
50.428635477
50.4286354769762
50.4286354769539
50.4286354769332
50.4286354769143
50.4286354768972
50.4286354768821
50.4286354768689
50.4286354768577
50.4286354768486
50.4286354768415
50.4286354768365
50.4286354768335
50.4286354768324
50.4286354768332
50.4286354768359
50.4286354768403
50.4286354768465
50.4286354768542
50.4286354768634
50.428635476874
50.428635476886
50.428635476899
50.4286354769131
50.4286354769281
50.4286354769439
50.4286354769605
50.4286354769775
50.4286354769949
50.4286354770124
50.4286354770297
50.428635477047
50.4286354770652
50.4286354770884
3501.98857479919
31517.8971731893
31517.8978911314
3501.9886545699
50.4286366257769
50.4286366257444
50.4286366257154
50.4286366256857
50.4286366256547
50.4286366256236
50.4286366255925
50.4286366255619
50.4286366255321
50.4286366255032
50.4286366254756
50.4286366254493
50.4286366254244
50.4286366254011
50.4286366253795
50.4286366253596
50.4286366253417
50.4286366253257
50.4286366253117
50.4286366252999
50.4286366252901
50.4286366252824
50.4286366252768
50.4286366252733
50.4286366252719
50.4286366252725
50.4286366252751
50.4286366252796
50.4286366252859
50.4286366252939
50.4286366253037
50.428636625315
50.4286366253278
50.428636625342
50.4286366253575
50.4286366253741
50.4286366253918
50.4286366254105
50.42863662543
50.4286366254503
50.4286366254711
50.4286366254921
50.4286366255132
50.4286366255343
50.4286366255561
50.428636625583
3501.98865455593
31517.8978910016
31517.8986089113
3501.9887343231
50.4286377742204
50.4286377741851
50.4286377741537
50.4286377741215
50.4286377740885
50.4286377740557
50.4286377740231
50.4286377739915
50.4286377739609
50.4286377739317
50.4286377739039
50.4286377738777
50.4286377738531
50.4286377738303
50.4286377738093
50.4286377737903
50.4286377737734
50.4286377737584
50.4286377737456
50.428637773735
50.4286377737265
50.4286377737202
50.4286377737161
50.4286377737142
50.4286377737143
50.4286377737166
50.4286377737208
50.4286377737271
50.4286377737352
50.4286377737452
50.4286377737569
50.4286377737703
50.4286377737853
50.4286377738017
50.4286377738195
50.4286377738386
50.428637773859
50.4286377738805
50.428637773903
50.4286377739264
50.4286377739506
50.4286377739752
50.428637774
50.4286377740248
50.4286377740504
50.4286377740809
3501.9887343129
31517.8986088139
31517.8993266949
3501.98881407669
50.4286389226696
50.4286389226312
50.4286389225973
50.4286389225628
50.4286389225277
50.4286389224932
50.4286389224592
50.4286389224265
50.4286389223953
50.4286389223656
50.4286389223376
50.4286389223114
50.4286389222871
50.4286389222648
50.4286389222445
50.4286389222263
50.4286389222102
50.4286389221963
50.4286389221846
50.4286389221752
50.428638922168
50.428638922163
50.4286389221604
50.4286389221599
50.4286389221616
50.4286389221655
50.4286389221714
50.4286389221794
50.4286389221893
50.4286389222011
50.4286389222148
50.4286389222302
50.4286389222472
50.4286389222658
50.4286389222859
50.4286389223075
50.4286389223305
50.4286389223547
50.4286389223802
50.4286389224067
50.4286389224343
50.4286389224623
50.4286389224908
50.4286389225194
50.4286389225486
50.428638922583
3501.98881407026
31517.8993266321
31517.9000444827
3501.98889383075
50.4286400711252
50.4286400710837
50.4286400710473
50.4286400710103
50.4286400709731
50.4286400709369
50.4286400709016
50.4286400708678
50.4286400708357
50.4286400708056
50.4286400707774
50.4286400707513
50.4286400707273
50.4286400707054
50.4286400706857
50.4286400706683
50.428640070653
50.4286400706401
50.4286400706295
50.4286400706213
50.4286400706153
50.4286400706117
50.4286400706104
50.4286400706113
50.4286400706145
50.4286400706199
50.4286400706275
50.4286400706371
50.4286400706488
50.4286400706625
50.4286400706779
50.4286400706953
50.4286400707143
50.4286400707351
50.4286400707575
50.4286400707814
50.4286400708069
50.4286400708339
50.4286400708622
50.4286400708919
50.4286400709228
50.4286400709542
50.4286400709864
50.4286400710188
50.4286400710517
50.4286400710901
3501.98889382796
31517.9000444537
31517.9007622755
3501.98897358535
50.4286412195884
50.4286412195435
50.4286412195044
50.4286412194649
50.4286412194257
50.4286412193878
50.4286412193511
50.4286412193162
50.4286412192834
50.4286412192528
50.4286412192244
50.4286412191983
50.4286412191745
50.4286412191531
50.4286412191339
50.4286412191172
50.4286412191028
50.4286412190908
50.4286412190812
50.4286412190741
50.4286412190694
50.428641219067
50.428641219067
50.4286412190693
50.428641219074
50.4286412190809
50.42864121909
50.4286412191013
50.4286412191146
50.42864121913
50.4286412191473
50.4286412191665
50.4286412191876
50.4286412192104