/*--------------------------------*- C++ -*----------------------------------*\
  =========                 |
  \\      /  F ield         | OpenFOAM: The Open Source CFD Toolbox
   \\    /   O peration     | Website:  https://openfoam.org
    \\  /    A nd           | Version:  10
     \\/     M anipulation  |
\*---------------------------------------------------------------------------*/
FoamFile
{
    format      ascii;
    class       volScalarField;
    location    "3.2";
    object      p;
}
// * * * * * * * * * * * * * * * * * * * * * * * * * * * * * * * * * * * * * //

dimensions      [1 -1 -2 0 0 0 0];

internalField   nonuniform List<scalar> 
2500
(
100075.133848241
100075.133849985
100075.133850886
100075.133851589
100075.133851977
100075.133852201
100075.133852362
100075.133852488
100075.133852608
100075.133852735
100075.133852874
100075.133853026
100075.133853192
100075.133853369
100075.133853558
100075.133853757
100075.133853964
100075.133854177
100075.133854395
100075.133854617
100075.133854841
100075.133855066
100075.133855291
100075.133855516
100075.133855738
100075.133855958
100075.133856175
100075.133856388
100075.133856597
100075.133856801
100075.133857
100075.133857194
100075.133857382
100075.133857565
100075.133857743
100075.133857915
100075.133858081
100075.133858241
100075.133858396
100075.133858544
100075.133858683
100075.13385881
100075.133858919
100075.133858995
100075.133859007
100075.133858926
100075.133858646
100075.133858015
100075.133857137
100075.133855395
100075.131604137
100075.131605597
100075.131606289
100075.131606891
100075.131607231
100075.131607427
100075.131607571
100075.131607688
100075.131607805
100075.131607932
100075.13160807
100075.131608223
100075.131608388
100075.131608567
100075.131608756
100075.131608955
100075.131609161
100075.131609375
100075.131609593
100075.131609815
100075.131610039
100075.131610264
100075.131610489
100075.131610713
100075.131610936
100075.131611156
100075.131611372
100075.131611585
100075.131611793
100075.131611997
100075.131612196
100075.13161239
100075.131612578
100075.13161276
100075.131612938
100075.131613109
100075.131613275
100075.131613435
100075.131613589
100075.131613737
100075.131613876
100075.131614004
100075.131614116
100075.1316142
100075.131614229
100075.131614174
100075.131613943
100075.131613414
100075.131612746
100075.13161129
100075.129344429
100075.129345119
100075.129345252
100075.129345533
100075.129345714
100075.129345832
100075.129345942
100075.129346045
100075.129346156
100075.12934628
100075.129346418
100075.129346571
100075.129346737
100075.129346915
100075.129347105
100075.129347303
100075.12934751
100075.129347723
100075.129347942
100075.129348163
100075.129348387
100075.129348612
100075.129348837
100075.129349061
100075.129349283
100075.129349503
100075.129349719
100075.129349932
100075.12935014
100075.129350343
100075.129350541
100075.129350734
100075.129350922
100075.129351104
100075.129351281
100075.129351452
100075.129351617
100075.129351776
100075.12935193
100075.129352077
100075.129352217
100075.129352347
100075.129352465
100075.129352564
100075.129352627
100075.129352651
100075.129352578
100075.129352368
100075.129352267
100075.129351563
100075.127075764
100075.12707578
100075.127075569
100075.127075577
100075.127075626
100075.127075682
100075.127075766
100075.127075858
100075.127075965
100075.127076087
100075.127076225
100075.127076377
100075.127076543
100075.127076722
100075.127076911
100075.12707711
100075.127077317
100075.12707753
100075.127077748
100075.127077969
100075.127078193
100075.127078417
100075.127078642
100075.127078865
100075.127079087
100075.127079306
100075.127079521
100075.127079733
100075.127079941
100075.127080143
100075.127080341
100075.127080533
100075.12708072
100075.127080901
100075.127081077
100075.127081247
100075.127081411
100075.12708157
100075.127081723
100075.127081869
100075.127082009
100075.12708214
100075.127082263
100075.127082373
100075.127082463
100075.127082549
100075.127082608
100075.127082672
100075.127082926
100075.127082903
100075.12480134
100075.124801044
100075.124800737
100075.124800602
100075.124800578
100075.124800594
100075.124800658
100075.124800741
100075.124800843
100075.124800964
100075.124801101
100075.124801252
100075.124801418
100075.124801596
100075.124801785
100075.124801984
100075.12480219
100075.124802403
100075.12480262
100075.124802841
100075.124803064
100075.124803288
100075.124803512
100075.124803734
100075.124803955
100075.124804173
100075.124804388
100075.124804599
100075.124804805
100075.124805007
100075.124805204
100075.124805395
100075.124805581
100075.124805761
100075.124805935
100075.124806104
100075.124806267
100075.124806425
100075.124806577
100075.124806723
100075.124806862
100075.124806995
100075.124807122
100075.124807241
100075.124807351
100075.124807478
100075.124807611
100075.12480782
100075.124808175
100075.12480848
100075.122523854
100075.122523494
100075.1225232
100075.122523009
100075.122522952
100075.122522946
100075.122522996
100075.122523072
100075.122523171
100075.122523289
100075.122523424
100075.122523576
100075.122523741
100075.122523919
100075.122524107
100075.122524305
100075.122524511
100075.122524723
100075.12252494
100075.12252516
100075.122525382
100075.122525605
100075.122525828
100075.122526049
100075.122526269
100075.122526486
100075.122526699
100075.122526909
100075.122527114
100075.122527314
100075.12252751
100075.1225277
100075.122527884
100075.122528063
100075.122528236
100075.122528403
100075.122528565
100075.122528721
100075.122528872
100075.122529017
100075.122529157
100075.122529291
100075.122529421
100075.122529548
100075.122529671
100075.12252982
100075.122529987
100075.122530254
100075.122530598
100075.12253098
100075.120245002
100075.120244687
100075.12024444
100075.120244244
100075.120244177
100075.120244161
100075.120244202
100075.120244272
100075.120244367
100075.120244484
100075.120244618
100075.120244768
100075.120244933
100075.12024511
100075.120245298
100075.120245495
100075.1202457
100075.120245911
100075.120246127
100075.120246346
100075.120246567
100075.120246789
100075.12024701
100075.120247231
100075.120247449
100075.120247664
100075.120247877
100075.120248085
100075.120248288
100075.120248487
100075.120248681
100075.120248869
100075.120249051
100075.120249229
100075.1202494
100075.120249566
100075.120249726
100075.12024988
100075.12025003
100075.120250174
100075.120250314
100075.120250449
100075.120250581
100075.120250713
100075.120250844
100075.120251004
100075.120251181
100075.120251455
100075.120251751
100075.120252094
100075.117965629
100075.117965383
100075.117965187
100075.117965009
100075.117964945
100075.117964925
100075.117964961
100075.117965028
100075.11796512
100075.117965235
100075.117965368
100075.117965517
100075.117965681
100075.117965857
100075.117966045
100075.117966241
100075.117966445
100075.117966655
100075.117966869
100075.117967087
100075.117967307
100075.117967527
100075.117967747
100075.117967966
100075.117968182
100075.117968396
100075.117968607
100075.117968813
100075.117969015
100075.117969212
100075.117969403
100075.11796959
100075.11796977
100075.117969945
100075.117970115
100075.117970279
100075.117970437
100075.11797059
100075.117970738
100075.117970881
100075.11797102
100075.117971155
100075.117971289
100075.117971423
100075.11797156
100075.117971723
100075.117971898
100075.117972155
100075.117972398
100075.117972673
100075.115686098
100075.115685915
100075.115685761
100075.11568561
100075.115685553
100075.115685535
100075.115685569
100075.115685633
100075.115685724
100075.115685837
100075.115685969
100075.115686117
100075.11568628
100075.115686456
100075.115686642
100075.115686838
100075.11568704
100075.115687249
100075.115687462
100075.115687678
100075.115687896
100075.115688115
100075.115688333
100075.11568855
100075.115688765
100075.115688977
100075.115689185
100075.115689389
100075.115689589
100075.115689784
100075.115689973
100075.115690158
100075.115690336
100075.115690509
100075.115690676
100075.115690838
100075.115690994
100075.115691144
100075.11569129
100075.115691432
100075.11569157
100075.115691705
100075.115691839
100075.115691975
100075.115692113
100075.115692275
100075.115692442
100075.115692673
100075.115692872
100075.115693085
100075.113406546
100075.11340641
100075.11340629
100075.113406165
100075.113406119
100075.113406106
100075.113406139
100075.113406203
100075.113406292
100075.113406404
100075.113406535
100075.113406683
100075.113406845
100075.11340702
100075.113407205
100075.113407399
100075.113407601
100075.113407808
100075.11340802
100075.113408234
100075.11340845
100075.113408667
100075.113408883
100075.113409098
100075.113409311
100075.11340952
100075.113409727
100075.113409929
100075.113410126
100075.113410318
100075.113410505
100075.113410687
100075.113410863
100075.113411033
100075.113411198
100075.113411357
100075.113411511
100075.113411659
100075.113411803
100075.113411943
100075.113412079
100075.113412213
100075.113412346
100075.113412482
100075.11341262
100075.113412776
100075.113412933
100075.113413138
100075.113413303
100075.113413467
100075.111127014
100075.111126912
100075.111126819
100075.111126719
100075.111126683
100075.111126676
100075.111126711
100075.111126775
100075.111126864
100075.111126976
100075.111127106
100075.111127253
100075.111127414
100075.111127588
100075.111127772
100075.111127965
100075.111128165
100075.11112837
100075.11112858
100075.111128793
100075.111129007
100075.111129222
100075.111129436
100075.111129648
100075.111129859
100075.111130066
100075.11113027
100075.111130469
100075.111130664
100075.111130854
100075.111131038
100075.111131217
100075.11113139
100075.111131558
100075.11113172
100075.111131876
100075.111132027
100075.111132173
100075.111132314
100075.111132451
100075.111132585
100075.111132717
100075.111132849
100075.111132982
100075.111133118
100075.111133268
100075.111133414
100075.111133594
100075.111133732
100075.111133862
100075.108847512
100075.108847434
100075.108847362
100075.108847283
100075.108847258
100075.108847259
100075.108847297
100075.108847362
100075.108847451
100075.108847563
100075.108847693
100075.108847839
100075.108847999
100075.108848172
100075.108848355
100075.108848546
100075.108848745
100075.108848948
100075.108849156
100075.108849367
100075.108849579
100075.108849791
100075.108850003
100075.108850213
100075.108850421
100075.108850625
100075.108850826
100075.108851023
100075.108851215
100075.108851402
100075.108851584
100075.10885176
100075.10885193
100075.108852095
100075.108852254
100075.108852407
100075.108852555
100075.108852698
100075.108852836
100075.108852971
100075.108853102
100075.108853231
100075.108853361
100075.10885349
100075.108853622
100075.108853764
100075.1088539
100075.108854058
100075.108854176
100075.108854281
100075.106568041
100075.106567981
100075.106567925
100075.106567865
100075.10656785
100075.106567858
100075.106567899
100075.106567966
100075.106568057
100075.106568168
100075.106568298
100075.106568444
100075.106568603
100075.106568775
100075.106568956
100075.106569146
100075.106569343
100075.106569545
100075.106569751
100075.106569959
100075.106570169
100075.106570378
100075.106570588
100075.106570795
100075.106571
100075.106571202
100075.1065714
100075.106571594
100075.106571783
100075.106571967
100075.106572145
100075.106572318
100075.106572485
100075.106572647
100075.106572803
100075.106572953
100075.106573097
100075.106573237
100075.106573372
100075.106573504
100075.106573632
100075.106573758
100075.106573884
100075.10657401
100075.106574137
100075.10657427
100075.106574396
100075.106574535
100075.106574637
100075.106574724
100075.104288598
100075.104288552
100075.104288509
100075.104288465
100075.104288459
100075.104288475
100075.10428852
100075.10428859
100075.104288682
100075.104288794
100075.104288923
100075.104289069
100075.104289227
100075.104289398
100075.104289578
100075.104289766
100075.104289961
100075.104290161
100075.104290364
100075.10429057
100075.104290777
100075.104290985
100075.104291191
100075.104291396
100075.104291598
100075.104291797
100075.104291992
100075.104292182
100075.104292368
100075.104292549
100075.104292724
100075.104292894
100075.104293058
100075.104293216
100075.104293368
100075.104293515
100075.104293656
100075.104293792
100075.104293924
100075.104294052
100075.104294176
100075.104294299
100075.10429442
100075.104294541
100075.104294662
100075.104294787
100075.104294903
100075.104295026
100075.104295116
100075.104295189
100075.102009182
100075.102009147
100075.102009114
100075.102009084
100075.102009087
100075.10200911
100075.102009159
100075.102009232
100075.102009325
100075.102009438
100075.102009568
100075.102009713
100075.102009871
100075.10201004
100075.102010219
100075.102010405
100075.102010598
100075.102010796
100075.102010997
100075.1020112
100075.102011405
100075.102011609
100075.102011813
100075.102012014
100075.102012214
100075.102012409
100075.102012601
100075.102012788
100075.102012971
100075.102013148
100075.10201332
100075.102013486
100075.102013647
100075.102013801
100075.10201395
100075.102014093
100075.10201423
100075.102014363
100075.102014491
100075.102014615
100075.102014735
100075.102014853
100075.10201497
100075.102015086
100075.102015201
100075.102015316
100075.102015424
100075.102015533
100075.102015612
100075.102015675
100075.099729792
100075.099729764
100075.099729741
100075.099729723
100075.099729733
100075.099729763
100075.099729817
100075.099729892
100075.099729988
100075.099730101
100075.099730231
100075.099730376
100075.099730533
100075.099730701
100075.099730878
100075.099731063
100075.099731254
100075.099731449
100075.099731648
100075.099731849
100075.09973205
100075.099732252
100075.099732452
100075.099732651
100075.099732847
100075.099733039
100075.099733228
100075.099733412
100075.099733591
100075.099733764
100075.099733933
100075.099734095
100075.099734252
100075.099734403
100075.099734547
100075.099734687
100075.09973482
100075.099734949
100075.099735073
100075.099735192
100075.099735308
100075.099735422
100075.099735534
100075.099735643
100075.099735752
100075.099735859
100075.099735958
100075.099736054
100075.099736125
100075.09973618
100075.097450423
100075.097450403
100075.097450387
100075.097450379
100075.097450397
100075.097450433
100075.097450491
100075.09745057
100075.097450667
100075.097450782
100075.097450913
100075.097451057
100075.097451213
100075.09745138
100075.097451556
100075.097451739
100075.097451927
100075.09745212
100075.097452317
100075.097452515
100075.097452713
100075.097452912
100075.097453109
100075.097453304
100075.097453497
100075.097453686
100075.097453871
100075.097454051
100075.097454226
100075.097454397
100075.097454561
100075.09745472
100075.097454872
100075.097455019
100075.09745516
100075.097455295
100075.097455425
100075.097455549
100075.097455669
100075.097455784
100075.097455895
100075.097456004
100075.09745611
100075.097456214
100075.097456316
100075.097456415
100075.097456505
100075.097456591
100075.097456654
100075.097456702
100075.095171076
100075.095171062
100075.095171053
100075.095171053
100075.095171077
100075.09517112
100075.095171182
100075.095171264
100075.095171364
100075.095171479
100075.09517161
100075.095171754
100075.09517191
100075.095172076
100075.09517225
100075.095172431
100075.095172617
100075.095172808
100075.095173001
100075.095173197
100075.095173392
100075.095173588
100075.095173782
100075.095173974
100075.095174163
100075.095174348
100075.095174529
100075.095174706
100075.095174877
100075.095175044
100075.095175204
100075.095175359
100075.095175508
100075.095175651
100075.095175787
100075.095175918
100075.095176044
100075.095176163
100075.095176278
100075.095176389
100075.095176496
100075.095176599
100075.095176699
100075.095176797
100075.095176892
100075.095176982
100075.095177065
100075.095177141
100075.095177198
100075.09517724
100075.092891748
100075.092891738
100075.092891735
100075.092891744
100075.092891774
100075.092891822
100075.092891889
100075.092891973
100075.092892075
100075.092892192
100075.092892323
100075.092892467
100075.092892622
100075.092892786
100075.092892959
100075.092893138
100075.092893322
100075.09289351
100075.092893701
100075.092893893
100075.092894086
100075.092894278
100075.092894469
100075.092894657
100075.092894843
100075.092895024
100075.092895202
100075.092895375
100075.092895542
100075.092895705
100075.092895861
100075.092896012
100075.092896157
100075.092896295
100075.092896428
100075.092896554
100075.092896675
100075.09289679
100075.092896901
100075.092897006
100075.092897108
100075.092897206
100075.0928973
100075.092897391
100075.092897479
100075.092897562
100075.092897637
100075.092897704
100075.092897755
100075.092897792
100075.090612436
100075.090612431
100075.090612434
100075.090612449
100075.090612485
100075.090612538
100075.090612609
100075.090612696
100075.0906128
100075.090612918
100075.09061305
100075.090613194
100075.090613348
100075.090613511
100075.090613682
100075.090613859
100075.090614041
100075.090614226
100075.090614414
100075.090614604
100075.090614793
100075.090614982
100075.090615169
100075.090615354
100075.090615536
100075.090615714
100075.090615887
100075.090616056
100075.09061622
100075.090616378
100075.090616531
100075.090616677
100075.090616818
100075.090616952
100075.09061708
100075.090617202
100075.090617318
100075.090617429
100075.090617534
100075.090617635
100075.090617731
100075.090617823
100075.090617912
100075.090617996
100075.090618077
100075.090618153
100075.09061822
100075.09061828
100075.090618324
100075.090618357
100075.088333139
100075.088333138
100075.088333146
100075.088333167
100075.088333208
100075.088333266
100075.088333341
100075.088333431
100075.088333537
100075.088333656
100075.088333789
100075.088333932
100075.088334086
100075.088334248
100075.088334417
100075.088334592
100075.088334772
100075.088334955
100075.08833514
100075.088335326
100075.088335512
100075.088335698
100075.088335881
100075.088336062
100075.08833624
100075.088336415
100075.088336584
100075.088336749
100075.088336909
100075.088337063
100075.088337211
100075.088337353
100075.088337489
100075.088337619
100075.088337743
100075.08833786
100075.088337972
100075.088338078
100075.088338178
100075.088338274
100075.088338364
100075.088338451
100075.088338533
100075.088338611
100075.088338685
100075.088338753
100075.088338813
100075.088338865
100075.088338904
100075.088338932
100075.086053854
100075.086053857
100075.08605387
100075.086053896
100075.086053942
100075.086054004
100075.086054083
100075.086054176
100075.086054284
100075.086054405
100075.086054538
100075.086054681
100075.086054834
100075.086054995
100075.086055162
100075.086055335
100075.086055512
100075.086055693
100075.086055875
100075.086056058
100075.086056241
100075.086056423
100075.086056603
100075.086056781
100075.086056955
100075.086057125
100075.086057291
100075.086057452
100075.086057607
100075.086057757
100075.086057901
100075.086058039
100075.08605817
100075.086058296
100075.086058415
100075.086058528
100075.086058634
100075.086058735
100075.086058831
100075.086058921
100075.086059006
100075.086059086
100075.086059162
100075.086059234
100075.0860593
100075.086059361
100075.086059415
100075.08605946
100075.086059493
100075.086059517
100075.08377458
100075.083774586
100075.083774603
100075.083774635
100075.083774685
100075.083774752
100075.083774834
100075.08377493
100075.08377504
100075.083775162
100075.083775295
100075.083775438
100075.08377559
100075.08377575
100075.083775916
100075.083776087
100075.083776262
100075.083776439
100075.083776619
100075.083776799
100075.083776978
100075.083777157
100075.083777333
100075.083777507
100075.083777677
100075.083777844
100075.083778005
100075.083778162
100075.083778313
100075.083778459
100075.083778599
100075.083778732
100075.083778859
100075.08377898
100075.083779094
100075.083779202
100075.083779304
100075.0837794
100075.08377949
100075.083779575
100075.083779654
100075.083779729
100075.083779799
100075.083779863
100075.083779923
100075.083779977
100075.083780024
100075.083780062
100075.08378009
100075.08378011
100075.081495313
100075.081495323
100075.081495345
100075.081495381
100075.081495436
100075.081495506
100075.081495592
100075.081495691
100075.081495802
100075.081495925
100075.081496059
100075.081496202
100075.081496353
100075.081496512
100075.081496676
100075.081496845
100075.081497018
100075.081497193
100075.081497369
100075.081497546
100075.081497722
100075.081497897
100075.08149807
100075.08149824
100075.081498406
100075.081498569
100075.081498726
100075.081498879
100075.081499026
100075.081499167
100075.081499302
100075.081499431
100075.081499554
100075.08149967
100075.08149978
100075.081499883
100075.08149998
100075.081500071
100075.081500156
100075.081500235
100075.081500309
100075.081500377
100075.08150044
100075.081500499
100075.081500552
100075.081500599
100075.081500638
100075.08150067
100075.081500693
100075.08150071
100075.079216053
100075.079216066
100075.079216091
100075.079216133
100075.079216191
100075.079216266
100075.079216354
100075.079216456
100075.079216569
100075.079216694
100075.079216828
100075.079216971
100075.079217121
100075.079217278
100075.079217441
100075.079217608
100075.079217778
100075.079217951
100075.079218124
100075.079218298
100075.079218471
100075.079218642
100075.079218811
100075.079218978
100075.07921914
100075.079219298
100075.079219452
100075.0792196
100075.079219743
100075.07921988
100075.079220011
100075.079220135
100075.079220253
100075.079220365
100075.07922047
100075.079220568
100075.07922066
100075.079220746
100075.079220825
100075.079220899
100075.079220967
100075.079221029
100075.079221086
100075.079221138
100075.079221184
100075.079221224
100075.079221258
100075.079221284
100075.079221301
100075.079221314
100075.076936796
100075.076936812
100075.076936842
100075.076936888
100075.07693695
100075.076937028
100075.07693712
100075.076937224
100075.076937339
100075.076937465
100075.076937599
100075.076937742
100075.076937892
100075.076938048
100075.076938209
100075.076938374
100075.076938542
100075.076938711
100075.076938882
100075.076939052
100075.076939222
100075.07693939
100075.076939556
100075.076939718
100075.076939877
100075.076940031
100075.07694018
100075.076940324
100075.076940463
100075.076940595
100075.076940722
100075.076940842
100075.076940955
100075.076941062
100075.076941162
100075.076941256
100075.076941343
100075.076941423
100075.076941497
100075.076941566
100075.076941628
100075.076941684
100075.076941735
100075.07694178
100075.076941819
100075.076941853
100075.07694188
100075.0769419
100075.076941912
100075.076941921
100075.074657541
100075.07465756
100075.074657594
100075.074657644
100075.07465771
100075.074657792
100075.074657887
100075.074657993
100075.07465811
100075.074658236
100075.074658371
100075.074658514
100075.074658663
100075.074658818
100075.074658977
100075.07465914
100075.074659306
100075.074659473
100075.074659641
100075.074659808
100075.074659974
100075.074660139
100075.074660301
100075.074660459
100075.074660614
100075.074660764
100075.07466091
100075.07466105
100075.074661184
100075.074661312
100075.074661434
100075.074661549
100075.074661658
100075.07466176
100075.074661856
100075.074661944
100075.074662026
100075.074662102
100075.074662171
100075.074662233
100075.07466229
100075.07466234
100075.074662384
100075.074662423
100075.074662456
100075.074662483
100075.074662504
100075.074662517
100075.074662525
100075.07466253
100075.072378285
100075.072378308
100075.072378345
100075.072378399
100075.072378469
100075.072378554
100075.072378652
100075.072378761
100075.072378879
100075.072379007
100075.072379143
100075.072379285
100075.072379434
100075.072379587
100075.072379745
100075.072379906
100075.072380069
100075.072380234
100075.072380398
100075.072380563
100075.072380726
100075.072380887
100075.072381045
100075.0723812
100075.072381351
100075.072381497
100075.072381638
100075.072381774
100075.072381904
100075.072382028
100075.072382146
100075.072382257
100075.072382361
100075.072382458
100075.072382549
100075.072382633
100075.07238271
100075.07238278
100075.072382844
100075.072382901
100075.072382951
100075.072382996
100075.072383034
100075.072383066
100075.072383092
100075.072383113
100075.072383127
100075.072383135
100075.072383137
100075.072383139
100075.070099027
100075.070099053
100075.070099094
100075.070099152
100075.070099226
100075.070099314
100075.070099415
100075.070099526
100075.070099646
100075.070099775
100075.070099911
100075.070100053
100075.070100201
100075.070100354
100075.07010051
100075.070100669
100075.07010083
100075.070100992
100075.070101154
100075.070101315
100075.070101475
100075.070101632
100075.070101787
100075.070101938
100075.070102085
100075.070102228
100075.070102365
100075.070102496
100075.070102622
100075.070102742
100075.070102855
100075.070102962
100075.070103061
100075.070103154
100075.07010324
100075.070103319
100075.070103391
100075.070103456
100075.070103514
100075.070103566
100075.070103611
100075.070103649
100075.070103681
100075.070103707
100075.070103727
100075.070103741
100075.07010375
100075.070103751
100075.070103749
100075.070103746
100075.067819764
100075.067819793
100075.067819838
100075.0678199
100075.067819978
100075.067820069
100075.067820173
100075.067820286
100075.067820408
100075.067820538
100075.067820674
100075.067820816
100075.067820964
100075.067821115
100075.06782127
100075.067821427
100075.067821586
100075.067821745
100075.067821904
100075.067822063
100075.067822219
100075.067822374
100075.067822525
100075.067822672
100075.067822815
100075.067822954
100075.067823087
100075.067823215
100075.067823336
100075.067823452
100075.067823561
100075.067823663
100075.067823758
100075.067823846
100075.067823928
100075.067824002
100075.067824069
100075.067824129
100075.067824182
100075.067824228
100075.067824267
100075.0678243
100075.067824326
100075.067824346
100075.067824359
100075.067824367
100075.067824369
100075.067824365
100075.067824357
100075.067824351
100075.065540495
100075.065540527
100075.065540576
100075.065540642
100075.065540723
100075.065540818
100075.065540924
100075.06554104
100075.065541164
100075.065541294
100075.065541431
100075.065541573
100075.06554172
100075.06554187
100075.065542024
100075.065542179
100075.065542335
100075.065542492
100075.065542649
100075.065542804
100075.065542958
100075.065543109
100075.065543257
100075.0655434
100075.06554354
100075.065543675
100075.065543804
100075.065543928
100075.065544045
100075.065544156
100075.065544261
100075.065544359
100075.06554445
100075.065544533
100075.06554461
100075.065544679
100075.065544742
100075.065544797
100075.065544845
100075.065544885
100075.065544919
100075.065544946
100075.065544966
100075.065544979
100075.065544987
100075.065544988
100075.065544984
100075.065544974
100075.065544961
100075.065544951
100075.063261217
100075.063261252
100075.063261305
100075.063261376
100075.06326146
100075.063261558
100075.063261668
100075.063261785
100075.063261911
100075.063262042
100075.06326218
100075.063262322
100075.063262468
100075.063262617
100075.063262769
100075.063262923
100075.063263077
100075.063263232
100075.063263386
100075.063263538
100075.063263689
100075.063263836
100075.063263981
100075.063264121
100075.063264257
100075.063264388
100075.063264513
100075.063264633
100075.063264747
100075.063264854
100075.063264954
100075.063265048
100075.063265134
100075.063265214
100075.063265286
100075.063265351
100075.063265408
100075.063265458
100075.063265501
100075.063265537
100075.063265565
100075.063265586
100075.0632656
100075.063265607
100075.063265608
100075.063265603
100075.063265594
100075.063265577
100075.063265559
100075.063265546
100075.060981928
100075.060981967
100075.060982024
100075.0609821
100075.060982187
100075.060982289
100075.060982401
100075.060982521
100075.060982648
100075.060982781
100075.060982918
100075.06098306
100075.060983206
100075.060983354
100075.060983505
100075.060983657
100075.060983809
100075.060983961
100075.060984113
100075.060984262
100075.06098441
100075.060984555
100075.060984696
100075.060984833
100075.060984965
100075.060985092
100075.060985214
100075.06098533
100075.06098544
100075.060985543
100075.060985639
100075.060985729
100075.060985811
100075.060985886
100075.060985954
100075.060986014
100075.060986067
100075.060986112
100075.06098615
100075.06098618
100075.060986203
100075.060986219
100075.060986227
100075.060986228
100075.060986223
100075.060986212
100075.060986197
100075.060986174
100075.060986151
100075.060986133
100075.058702628
100075.05870267
100075.058702732
100075.058702812
100075.058702903
100075.058703008
100075.058703123
100075.058703245
100075.058703373
100075.058703507
100075.058703645
100075.058703787
100075.058703933
100075.05870408
100075.058704229
100075.058704379
100075.05870453
100075.05870468
100075.058704829
100075.058704976
100075.05870512
100075.058705262
100075.0587054
100075.058705534
100075.058705663
100075.058705787
100075.058705905
100075.058706017
100075.058706123
100075.058706222
100075.058706315
100075.0587064
100075.058706478
100075.058706549
100075.058706612
100075.058706668
100075.058706716
100075.058706757
100075.05870679
100075.058706815
100075.058706833
100075.058706843
100075.058706845
100075.058706841
100075.05870683
100075.058706813
100075.058706791
100075.058706762
100075.058706734
100075.058706712
100075.056423313
100075.05642336
100075.056423426
100075.056423511
100075.056423606
100075.056423714
100075.056423831
100075.056423955
100075.056424085
100075.05642422
100075.056424359
100075.056424501
100075.056424646
100075.056424793
100075.056424941
100075.056425089
100075.056425238
100075.056425386
100075.056425532
100075.056425677
100075.056425819
100075.056425957
100075.056426092
100075.056426223
100075.056426348
100075.056426469
100075.056426583
100075.056426692
100075.056426794
100075.05642689
100075.056426979
100075.05642706
100075.056427134
100075.056427201
100075.05642726
100075.056427312
100075.056427356
100075.056427392