/*--------------------------------*- C++ -*----------------------------------*\
  =========                 |
  \\      /  F ield         | OpenFOAM: The Open Source CFD Toolbox
   \\    /   O peration     | Website:  https://openfoam.org
    \\  /    A nd           | Version:  10
     \\/     M anipulation  |
\*---------------------------------------------------------------------------*/
FoamFile
{
    format      ascii;
    class       volScalarField;
    location    "3.2";
    object      p_rgh;
}
// * * * * * * * * * * * * * * * * * * * * * * * * * * * * * * * * * * * * * //

dimensions      [1 -1 -2 0 0 0 0];

internalField   nonuniform List<scalar> 
2500
(
75.2470381866151
75.2470511339488
75.2470609194716
75.2470654888893
75.2470673508797
75.2470681149862
75.2470684649452
75.2470686546876
75.2470687956229
75.2470689291222
75.2470690701739
75.2470692232309
75.2470693891373
75.2470695675147
75.247069756937
75.2470699560217
75.2470701629063
75.2470703763393
75.2470705948217
75.2470708168403
75.2470710411726
75.24707126664
75.2470714920928
75.2470717165561
75.2470719392004
75.2470721593127
75.2470723760925
75.2470725890889
75.2470727977925
75.2470730017958
75.2470732008078
75.2470733945956
75.2470735829411
75.2470737657713
75.2470739430719
75.247074114799
75.24707428088
75.2470744412567
75.2470745953178
75.2470747421903
75.2470748791384
75.247074998988
75.2470750848006
75.2470750923385
75.2470749073545
75.2470742818841
75.2470725374733
75.2470680463448
75.2470581597881
75.2470453889837
75.2476937511965
75.2477294313867
75.2477555749065
75.2477681972669
75.2477736578003
75.2477759317262
75.2477768735116
75.2477772774146
75.2477774897998
75.2477776456362
75.2477777930908
75.2477779480105
75.2477781144989
75.2477782930218
75.2477784824732
75.2477786814707
75.2477788883552
75.2477791017009
75.2477793200524
75.2477795419691
75.2477797661995
75.2477799915505
75.247780216916
75.2477804412338
75.2477806637035
75.247780883612
75.2477811002464
75.2477813130245
75.247781521568
75.2477817253239
75.247781924103
75.2477821177017
75.2477823057416
75.2477824881935
75.247782665203
75.2477828366245
75.2477830023417
75.24778316218
75.2477833152952
75.2477834595629
75.2477835883474
75.2477836822363
75.2477836890612
75.2477834705933
75.2477826828399
75.2477805524395
75.2477752477425
75.2477627102198
75.2477361254714
75.247700622931
75.2482499951002
75.2482924715005
75.2483221125149
75.2483363507054
75.2483424799429
75.2483450158179
75.2483460576477
75.2483464974357
75.2483467218553
75.2483468815044
75.2483470301522
75.2483471854939
75.2483473521861
75.2483475307963
75.2483477202913
75.2483479192451
75.2483481261006
75.2483483393444
75.2483485575503
75.2483487792924
75.2483490033046
75.2483492284082
75.2483494535118
75.2483496775676
75.2483498997317
75.2483501193346
75.2483503355907
75.2483505479904
75.2483507561119
75.2483509594458
75.2483511577884
75.248351350936
75.2483515384811
75.2483517204091
75.2483518969239
75.2483520678215
75.2483522329421
75.2483523921401
75.2483525446441
75.248352688126
75.2483528155717
75.2483529058227
75.2483529014571
75.2483526493161
75.2483517657092
75.248349377609
75.2483433977177
75.2483291841781
75.2482988913689
75.2482556603936
75.2486310179229
75.2486656295077
75.2486870896973
75.2486970453756
75.2487011509802
75.2487027913594
75.2487034688529
75.2487037724495
75.2487039499101
75.2487040945416
75.2487042386347
75.2487043927104
75.2487045590678
75.2487047375762
75.2487049269985
75.2487051258067
75.2487053325021
75.2487055455131
75.2487057634135
75.2487059847772
75.2487062083819
75.2487064330053
75.2487066575995
75.2487068811461
75.2487071027572
75.248707321749
75.2487075373792
75.2487077491096
75.2487079565326
75.2487081591971
75.2487083568121
75.2487085491593
75.2487087359477
75.2487089171336
75.2487090927752
75.2487092627707
75.2487094270909
75.2487095856195
75.2487097378034
75.248709882304
75.2487100148574
75.2487101225124
75.2487101704028
75.2487100633734
75.2487095532852
75.2487080582796
75.2487040699634
75.2486940889212
75.2486720370071
75.2486360558541
75.2488508739043
75.2488730250043
75.2488852439565
75.2488907035586
75.248892877702
75.2488937232556
75.2488940906624
75.2488942805066
75.2488944186625
75.2488945503865
75.2488946903468
75.2488948430691
75.248895008961
75.2488951872219
75.2488953763677
75.248895574885
75.248895781202
75.2488959937764
75.2488962111383
75.2488964319346
75.248896654899
75.2488968788093
75.2488971026323
75.2488973253785
75.2488975461456
75.2488977642352
75.2488979789778
75.2488981897914
75.2488983962394
75.2488985978853
75.2488987944525
75.2488989857229
75.248899171449
75.2488993515581
75.2488995260501
75.248899694896
75.2488998580957
75.2489000156202
75.2489001672511
75.2489003122755
75.2489004486706
75.2489005700045
75.2489006597316
75.2489006711403
75.2489004766248
75.2488997774053
75.2488977126923
75.2488922458142
75.248879613704
75.2488561230712
75.2489614465012
75.2489733123512
75.2489791433763
75.2489816258021
75.2489825891389
75.2489829573897
75.2489831420098
75.2489832646534
75.2489833788713
75.248983502257
75.2489836392197
75.2489837907633
75.2489839560876
75.2489841338829
75.2489843226067
75.2489845206292
75.2489847263641
75.2489849382691
75.248985154918
75.2489853748993
75.248985596947
75.2489858198969
75.2489860427013
75.2489862643852
75.2489864840609
75.2489867009863
75.2489869145356
75.2489871241269
75.2489873292943
75.2489875296451
75.2489877248736
75.2489879147615
75.2489880991052
75.2489882778318
75.2489884509123
75.2489886183321
75.2489887801348
75.2489889363933
75.2489890870784
75.2489892319718
75.248989370346
75.248989499567
75.2489896135085
75.2489896933112
75.2489896831248
75.2489894617902
75.2489886095282
75.2489861569775
75.2489800984767
75.248967275169
75.2490111459774
75.249016651258
75.2490190488024
75.2490199834283
75.249020339048
75.2490204739734
75.2490205688664
75.2490206576331
75.2490207589435
75.2490208772797
75.2490210121177
75.2490211625991
75.2490213272395
75.2490215044527
75.2490216925362
75.2490218898602
75.2490220948239
75.2490223058558
75.2490225215151
75.2490227404487
75.2490229613759
75.2490231831325
75.2490234046563
75.2490236250014
75.2490238433093
75.2490240588086
75.2490242708882
75.249024478966
75.2490246825764
75.249024881341
75.2490250749543
75.2490252631833
75.249025445868
75.2490256228775
75.2490257942409
75.2490259599726
75.2490261201456
75.2490262748761
75.2490264242952
75.2490265685046
75.2490267075191
75.2490268406691
75.249026966776
75.2490270800336
75.2490271592978
75.2490271707211
75.2490269275877
75.2490260501363
75.2490235590521
75.2490175018756
75.2490314890456
75.2490337313502
75.2490345714177
75.2490348280844
75.2490349235159
75.2490349602449
75.2490350159787
75.2490350891312
75.2490351837332
75.2490352989844
75.2490354322363
75.2490355817281
75.2490357456118
75.2490359220537
75.249036109366
75.2490363058023
75.249036509791
75.2490367197461
75.2490369342268
75.2490371518797
75.249037371439
75.2490375917405
75.2490378117509
75.2490380305098
75.2490382471733
75.2490384609991
75.2490386713325
75.249038877635
75.2490390794264
75.2490392763284
75.2490394680353
75.249039654329
75.2490398350492
75.2490400101087
75.249040179493
75.2490403432603
75.2490405015124
75.2490406544384
75.2490408022859
75.2490409453894
75.2490410841274
75.2490412188199
75.2490413504565
75.2490414783824
75.2490415960492
75.2490417047084
75.2490417216904
75.2490415361244
75.2490406792058
75.249038170834
75.2490391956671
75.2490399848175
75.2490402074327
75.2490402102558
75.2490402100229
75.2490402117255
75.2490402521216
75.2490403186093
75.2490404097916
75.2490405231074
75.2490406551224
75.249040803712
75.2490409667371
75.2490411423496
75.2490413287014
75.2490415241191
75.2490417269146
75.249041935589
75.2490421486873
75.2490423648414
75.2490425828
75.249042801428
75.2490430196922
75.2490432366176
75.2490434514038
75.2490436632797
75.2490438716341
75.2490440758847
75.2490442755952
75.2490444703726
75.2490446599259
75.2490448440221
75.2490450225159
75.2490451953345
75.2490453624778
75.249045524004
75.2490456801024
75.2490458309621
75.2490459769178
75.2490461184643
75.2490462562564
75.2490463910362
75.2490465246228
75.2490466580348
75.2490467901807
75.2490469330223
75.2490470451303
75.2490471190831
75.2490469166805
75.2490460223489
75.2490419536043
75.2490421698749
75.2490421785915
75.2490421052935
75.2490420775575
75.24904207082
75.2490421064867
75.2490421706607
75.2490422602277
75.2490423723648
75.249042503463
75.2490426511795
75.249042813346
75.2490429880127
75.2490431733167
75.2490433675266
75.2490435690124
75.2490437762171
75.2490439877292
75.2490442021808
75.249044418335
75.2490446350712
75.2490448513418
75.2490450662299
75.2490452788916
75.2490454885847
75.249045694698
75.249045896664
75.2490460940462
75.2490462864516
75.2490464735893
75.2490466552408
75.2490468312608
75.249047001591
75.2490471662459
75.2490473252838
75.2490474789083
75.2490476273961
75.2490477711544
75.249047910751
75.2490480469714
75.2490481807909
75.2490483142174
75.2490484485752
75.2490485846065
75.2490487351606
75.2490488743497
75.2490490263881
75.2490490536875
75.2490488098556
75.2490429301251
75.2490429476311
75.24904289603
75.2490428122255
75.2490427823941
75.2490427776938
75.2490428133315
75.2490428774181
75.2490429665486
75.2490430780599
75.2490432084887
75.2490433554485
75.2490435167565
75.24904369039
75.2490438745299
75.2490440674155
75.2490442674025
75.249044472992
75.2490446827287
75.2490448953031
75.2490451094636
75.2490453240898
75.2490455381776
75.2490457507811
75.2490459610999
75.2490461683919
75.249046372046
75.2490465714945
75.2490467663156
75.2490469561017
75.2490471405908
75.2490473195649
75.2490474928782
75.2490476604726
75.2490478223772
75.2490479786793
75.2490481295827
75.249048275422
75.2490484166483
75.2490485538583
75.2490486879396
75.2490488199401
75.2490489518095
75.2490490846394
75.2490492197248
75.2490493675432
75.2490495086095
75.2490496716928
75.2490497655526
75.2490497539111
75.2490433197527
75.2490432804188
75.2490432207705
75.2490431473707
75.249043123913
75.2490431251645
75.2490431629849
75.2490432282939
75.2490433177591
75.2490434291103
75.249043559088
75.249043705393
75.2490438658278
75.249044038399
75.2490442212729
75.2490444127179
75.2490446110896
75.2490448148892
75.2490450227051
75.2490452331986
75.2490454451763
75.2490456575179
75.2490458692191
75.2490460793488
75.249046287121
75.2490464917937
75.2490466927702
75.2490468894975
75.2490470815246
75.2490472685022
75.2490474501246
75.2490476261883
75.2490477965621
75.2490479611879
75.2490481201094
75.2490482734283
75.2490484213631
75.2490485642775
75.2490487026225
75.2490488370386
75.2490489684424
75.2490490978817
75.2490492271172
75.2490493569057
75.2490494886006
75.2490496296959
75.2490497642284
75.2490499170672
75.2490500214481
75.2490500799177
75.2490435402287
75.2490434921638
75.2490434397623
75.2490433816129
75.2490433668427
75.2490433752828
75.2490434164793
75.2490434837673
75.2490435741638
75.2490436857333
75.2490438154928
75.2490439612302
75.2490441208211
75.2490442922863
75.2490444738214
75.2490446637094
75.2490448603494
75.2490450622427
75.2490452679631
75.2490454762301
75.2490456858504
75.2490458957182
75.2490461048437
75.2490463123249
75.2490465173469
75.2490467192256
75.2490469173208
75.2490471111232
75.2490473001671
75.2490474841179
75.2490476626554
75.2490478356194
75.2490480028355
75.249048164289
75.249048320009
75.2490484700975
75.2490486148163
75.2490487544856
75.2490488896292
75.2490490208875
75.2490491491189
75.2490492753568
75.2490494010999
75.2490495268139
75.2490496537648
75.2490497866675
75.2490499122941
75.2490500497952
75.249050148137
75.2490502204164
75.2490437280649
75.2490436852531
75.249043643169
75.2490436000371
75.2490435941727
75.2490436100488
75.2490436552034
75.2490437249944
75.2490438167442
75.2490439288085
75.2490440585389
75.2490442037961
75.2490443625575
75.2490445329022
75.2490447130549
75.2490449012985
75.2490450960904
75.2490452959319
75.2490454994404
75.2490457053354
75.2490459124383
75.2490461196721
75.2490463260619
75.2490465307055
75.2490467328171
75.2490469316981
75.249047126752
75.2490473174257
75.2490475033119
75.2490476840176
75.2490478593099
75.2490480289416
75.2490481928253
75.2490483508882
75.2490485031885
75.2490486498427
75.2490487910836
75.2490489272896
75.2490490589262
75.2490491866338
75.2490493112564
75.2490494337108
75.249049555292
75.2490496761893
75.2490497974795
75.2490499217674
75.24905003811
75.249050160448
75.2490502491564
75.2490503182053
75.2490439245157
75.2490438897512
75.249043857606
75.2490438278328
75.2490438304085
75.2490438535315
75.249043903008
75.2490439755929
75.2490440690017
75.2490441818227
75.2490443116694
75.2490444565337
75.2490446144948
75.2490447836899
75.2490449623874
75.2490451489139
75.2490453417413
75.2490455394145
75.2490457405656
75.2490459439578
75.2490461484122
75.2490463528666
75.2490465563606
75.2490467580064
75.2490469570475
75.2490471527708
75.2490473445941
75.2490475319937
75.2490477145184
75.249047891848
75.2490480636916
75.2490482298308
75.2490483901784
75.249048544676
75.249048693353
75.2490488363546
75.2490489739139
75.24904910638
75.2490492342185
75.2490493580553
75.2490494786616
75.2490495968668
75.2490497137478
75.2490498292755
75.249049944352
75.2490500600106
75.2490501672874
75.2490502759319
75.2490503551817
75.2490504171001
75.249044140568
75.249044113516
75.2490440901311
75.2490440719703
75.2490440823603
75.2490441123518
75.2490441662376
75.2490442418202
75.2490443370916
75.2490444508439
75.2490445809235
75.2490447254677
75.2490448826575
75.2490450506739
75.2490452278726
75.2490454126237
75.2490456034138
75.2490457988024
75.2490459975088
75.2490461982525
75.2490463999275
75.2490466014715
75.2490468019241
75.2490470004414
75.2490471962519
75.2490473886719
75.2490475771046
75.2490477610554
75.2490479400876
75.2490481138666
75.2490482820867
75.249048444588
75.2490486012248
75.2490487519681
75.2490488968469
75.2490490359924
75.2490491696517
75.2490492981451
75.2490494219383
75.2490495415987
75.2490496578248
75.2490497713734
75.249049883103
75.2490499928681
75.2490501013672
75.249050208542
75.2490503071458
75.2490504037123
75.2490504744928
75.249050529208
75.2490443779388
75.2490443576098
75.2490443418646
75.2490443337301
75.2490443513379
75.2490443877323
75.2490444460418
75.2490445246949
75.2490446219745
75.2490447367745
75.2490448671742
75.2490450114565
75.249045167875
75.2490453347273
75.2490455103834
75.2490456932719
75.2490458819375
75.2490460749978
75.2490462711285
75.2490464691364
75.249046667901
75.2490468664182
75.2490470637131
75.2490472589707
75.2490474514198
75.2490476403909
75.2490478253167
75.2490480056877
75.2490481810673
75.249048351121
75.2490485156013
75.2490486742754
75.249048827056
75.2490489738848
75.249049114791
75.2490492499201
75.2490493794758
75.2490495037928
75.2490496232931
75.2490497385006
75.2490498500556
75.2490499586129
75.2490500648564
75.2490501685534
75.2490502702422
75.2490503691515
75.2490504594607
75.2490505453316
75.2490506086178
75.249050656872
75.2490446356678
75.2490446211305
75.2490446121374
75.2490446127049
75.2490446369338
75.2490446792799
75.2490447419405
75.249044823664
75.2490449230245
75.2490450389596
75.2490451697668
75.2490453138162
75.249045469478
75.249045635137
75.2490458092216
75.2490459902183
75.2490461767011
75.2490463673312
75.2490465608134
75.2490467559837
75.2490469517652
75.2490471471101
75.2490473411453
75.2490475330123
75.2490477219835
75.249047907404
75.2490480886772
75.2490482653229
75.2490484369337
75.2490486031602
75.249048763726
75.2490489184565
75.2490490672353
75.2490492099896
75.2490493467776
75.2490494777157
75.2490496030077
75.2490497229446
75.2490498379339
75.2490499484556
75.2490500550921
75.249050158367
75.2490502588626
75.2490503563022
75.2490504510497
75.2490505419264
75.2490506242757
75.249050700615
75.2490507571056
75.2490507996554
75.2490449120087
75.2490449025208
75.2490448995668
75.2490449077741
75.2490449380712
75.2490449859615
75.2490450528276
75.2490451376216
75.249045239063
75.2490453562059
75.2490454874496
75.2490456313099
75.2490457862295
75.2490459506807
75.2490461231646
75.2490463022259
75.2490464864677
75.2490466745949
75.2490468653559
75.2490470576013
75.2490472502832
75.2490474423976
75.2490476330568
75.2490478214459
75.2490480068373
75.2490481885761
75.2490483660949
75.249048538928
75.2490487066389
75.2490488689073
75.2490490254713
75.2490491761127
75.2490493207588
75.2490494593221
75.2490495918464
75.2490497184481
75.2490498393017
75.2490499546839
75.2490500649874
75.2490501706197
75.2490502721048
75.2490503698937
75.249050464452
75.2490505554597
75.2490506432077
75.2490507262846
75.2490508009942
75.2490508686751
75.2490509189083
75.2490509563504
75.2490452049242
75.2490451999329
75.2490452024795
75.2490452174825
75.2490452533821
75.2490453064238
75.2490453773353
75.2490454651124
75.2490455686493
75.2490456870146
75.2490458187094
75.249045962395
75.2490461165871
75.2490462798596
75.2490464507136
75.2490466277959
75.2490468097531
75.2490469953191
75.2490471832862
75.2490473725629
75.2490475620725
75.2490477508691
75.2490479380795
75.2490481229033
75.2490483046131
75.249048482583
75.2490486562601
75.2490488251497
75.2490489888733
75.2490491470817
75.249049299513
75.2490494459926
75.2490495863749
75.2490497206309
75.2490498487605
75.2490499708947
75.2490500871791
75.2490501978609
75.2490503033041
75.2490504038869
75.2490505000314
75.2490505921742
75.2490506806353
75.2490507651382
75.2490508458577
75.2490509213676
75.2490509886848
75.2490510484058
75.249051092731
75.2490511255019
75.2490455123334
75.2490455114312
75.2490455190709
75.2490455401858
75.2490455812804
75.2490456391097
75.249045713892
75.2490458045941
75.2490459101973
75.2490460297704
75.24904616196
75.2490463054855
75.24904645895
75.2490466209711
75.2490467901953
75.2490469652694
75.2490471449128
75.249047327874
75.249047513018
75.2490476992389
75.2490478855179
75.2490480709384
75.2490482546273
75.2490484357986
75.249048613754
75.2490487878822
75.2490489576303
75.249049122518
75.2490492821671
75.2490494362137
75.2490495844395
75.2490497266408
75.2490498626721
75.2490499925188
75.2490501161519
75.2490502336877
75.2490503452864
75.2490504511516
75.2490505516034
75.2490506469767
75.2490507376497
75.2490508239862
75.2490509062482
75.2490509842028
75.2490510579082
75.2490511260548
75.249051186227
75.2490512384975
75.249051277191
75.2490513055964
75.2490458320681
75.2490458349348
75.2490458473476
75.2490458740212
75.2490459199616
75.2490459822729
75.249046060766
75.2490461542911
75.2490462619171
75.249046382698
75.2490465153824
75.2490466587478
75.2490468114847
75.2490469722979
75.2490471398633
75.2490473129146
75.2490474902006
75.2490476705425
75.2490478528052
75.2490480359411
75.249048218946
75.2490484009177
75.2490485810267
75.2490487585019
75.2490489326447
75.249049102873
75.2490492686193
75.2490494294325
75.2490495849197
75.2490497347608
75.2490498786938
75.2490500165295
75.2490501481516
75.2490502734872
75.2490503925364
75.2490505054011
75.2490506121976
75.2490507131297
75.2490508084738
75.2490508985211
75.2490509836207
75.2490510640637
75.2490511400538
75.2490512114018
75.249051278166
75.2490513391094
75.2490513923258
75.2490514375822
75.2490514708188
75.2490514950623
75.2490461619454
75.2490461683483
75.2490461852867
75.2490462171118
75.2490462675778
75.2490463341092
75.2490464161383
75.2490465123992
75.2490466220042
75.2490467439784
75.249046877143
75.2490470203484
75.2490471723722
75.2490473319631
75.2490474978695
75.2490476688836
75.2490478438121
75.2490480215056
75.2490482008725
75.2490483808797
75.2490485605813
75.2490487390896
75.2490489155753
75.249049089296
75.2490492595971
75.2490494258527
75.2490495875536
75.2490497442341
75.2490498955303
75.2490500410931
75.2490501806751
75.2490503141016
75.2490504412272
75.2490505619789
75.2490506763861
75.2490507844923
75.2490508863993
75.249050982311
75.2490510724601
75.2490511571086
75.249051236533
75.2490513110097
75.2490513806988
75.2490514454548
75.2490515053069
75.2490515592071
75.2490516056714
75.2490516441903
75.2490516721009
75.2490516923717
75.2490464997973
75.2490465095761
75.2490465308365
75.2490465674782
75.2490466222225
75.2490466927411
75.2490467781608
75.2490468770557
75.2490469885815
75.2490471117344
75.2490472453792
75.2490473884391
75.2490475397353
75.2490476981184
75.2490478623658
75.2490480313427
75.2490482038993
75.2490483789152
75.2490485553571
75.2490487322357
75.2490489086049
75.2490490836062
75.2490492564393
75.2490494263911
75.2490495928068
75.2490497550752
75.249049912687
75.2490500652202
75.2490502122528
75.2490503534937
75.2490504886955
75.2490506176546
75.2490507402254
75.2490508563787
75.2490509660711
75.249051069346
75.24905116632
75.249051257153
75.2490513420344
75.2490514211968
75.2490514949022
75.2490515633544
75.249051626728
75.2490516849066
75.2490517379338
75.2490517849219
75.2490518247505
75.2490518567938
75.2490518794948
75.2490518958803
75.2490468434407
75.2490468564647
75.2490468819014
75.2490469230979
75.2490469819168
75.2490470562479
75.2490471449128
75.2490472463687
75.2490473597718
75.2490474840597
75.2490476181702
75.24904776107
75.2490479116677
75.249048068843
75.2490482314606
75.2490483984002
75.2490485685703
75.2490487409377
75.2490489144548
75.2490490881755
75.2490492612123
75.2490494327067
75.2490496018872
75.249049768041
75.2490499305422
75.2490500888089
75.2490502423316
75.2490503906592
75.2490505334281
75.2490506703325
75.2490508011106
75.2490509255731
75.2490510435891
75.2490511550714
75.2490512600052
75.2490513584344
75.2490514504316
75.2490515361133
75.2490516156977
75.2490516893304
75.2490517572733
75.249051819701
75.2490518767445
75.2490519283747
75.2490519746352
75.2490520148422
75.2490520481952
75.2490520739375
75.2490520915017
75.2490521040891
75.2490471906931
75.2490472068748
75.2490472363716
75.2490472819482
75.2490473446524
75.2490474226361
75.2490475144441
75.2490476183739
75.2490477335814
75.2490478590043
75.2490479935805
75.2490481363347
75.249048286234
75.2490484422015
75.2490486031893
75.2490487681061
75.2490489359334
75.2490491056233
75.2490492762299
75.249049446822
75.2490496165119
75.2490497844992
75.2490499500273
75.2490501123975
75.2490502709843
75.2490504252346
75.2490505746537
75.2490507187904
75.2490508572955
75.2490509898489
75.2490511161886
75.2490512361401
75.2490513495723
75.2490514563833
75.2490515565587
75.2490516500984
75.2490517370752
75.2490518176201
75.2490518918494
75.2490519599523
75.2490520221036
75.2490520784922
75.2490521292348
75.2490521743603
75.2490522139269
75.2490522474545
75.2490522744483
75.2490522940207
75.2490523064916
75.2490523153538
75.2490475394297
75.2490475587256
75.249047592195
75.2490476420207
75.2490477084793
75.2490477899846
75.249047884834
75.2490479911648
75.2490481081622
75.2490482346766
75.2490483697184
75.2490485123271
75.2490486615279
75.2490488163312
75.2490489757183
75.2490491386416
75.2490493041259
75.2490494711819
75.2490496388928
75.2490498063562
75.2490499727428
75.2490501372376
75.2490502991132
75.2490504577145
75.2490506124159
75.2490507626644
75.2490509079798
75.2490510479402
75.249051182167
75.2490513103694
75.2490514322999
75.2490515477548
75.2490516565886
75.2490517587285
75.2490518541163
75.2490519427811
75.249052024752
75.2490521001309
75.2490521690197
75.2490522315784
75.2490522879671
75.2490523383312
75.2490523827873
75.2490524214663
75.2490524544264
75.249052481362
75.2490525020985
75.2490525155881
75.2490525230096
75.2490525281755
75.2490478875407
75.2490479099361
75.2490479473345
75.2490480013221
75.2490480714478
75.2490481563727
75.2490482541762
75.2490483628499
75.2490484815789
75.2490486091701
75.2490487446776
75.2490488871554
75.2490490357013
75.2490491893404
75.2490493471123
75.249049508071
75.2490496712417
75.2490498357074
75.2490500005661
75.2490501649299
75.2490503280278
75.2490504890593
75.2490506473259
75.2490508021729
75.2490509530035
75.2490510992793
75.2490512405348
75.2490513763332
75.2490515063255
75.2490516302059
75.2490517477272
75.2490518587001
75.2490519629646
75.2490520604479
75.2490521510917
75.2490522348671
75.2490523118468
75.2490523820597
75.2490524456371
75.249052502666
75.2490525532921
75.2490525976755
75.2490526359034
75.2490526681941
75.2490526946203
75.2490527150512
75.2490527296031
75.2490527370828
75.2490527394839
75.2490527409682
75.249048232974
75.249048258469
75.2490482997673
75.2490483578877
75.2490484315931
75.2490485198941
75.2490486205788
75.2490487315517
75.2490488519834
75.2490489806514
75.2490491165954
75.2490492589568
75.2490494068479
75.249049559352
75.2490497155959
75.2490498746047
75.2490500355198
75.2490501974098
75.2490503594454
75.2490505207679
75.2490506806207
75.2490508382325
75.2490509929339
75.2490511440701
75.2490512910736
75.2490514334204
75.249051570645
75.2490517023252
75.249051828112
75.2490519476996
75.2490520608699
75.2490521673899
75.2490522671433
75.2490523599845
75.249052445899
75.2490525248577
75.2490525968606
75.2490526619513
75.2490527202317
75.2490527717746
75.2490528166963
75.249052855128
75.2490528871858
75.2490529131464
75.2490529331117
75.2490529471252
75.2490529555798
75.2490529570641
75.2490529544593
75.2490529522474
75.249048573678
75.2490486023307
75.249048647529
75.2490487098112
75.2490487870236
75.249048878657
75.2490489821794
75.2490490954078
75.2490492175275
75.2490493472287
75.2490494836384
75.2490496258979
75.2490497731633
75.2490499245905
75.2490500793065
75.2490502364381
75.2490503951121
75.2490505544993
75.24905071377
75.2490508720948
75.2490510287462
75.2490511829965
75.2490513341909
75.2490514816745
75.249051624909
75.2490517633851
75.2490518966224
75.2490520242427
75.2490521458822
75.2490522612497
75.2490523700981
75.249052472238
75.2490525674948
75.2490526557813
75.2490527370246
75.2490528111812
75.2490528782655
75.2490529382922
75.2490529913193
75.2490530374198
75.2490530766809
75.2490531092626
75.2490531352087
75.2490531549265
75.2490531685035
75.2490531761578
75.2490531785588
75.2490531740623
75.2490531664371
75.2490531604853
75.2490489077027
75.2490489395714
75.2490489887132
75.2490490552009
75.2490491359204
75.2490492308716
75.2490493372025
75.2490494526282
75.2490495764068
75.2490497071558
75.2490498440311
75.2490499862033
75.2490501328866
75.2490502832516
75.2490504364832
75.2490505917813
75.2490507483017
75.2490509052441
75.2490510617936
75.2490512171935
75.2490513707162
75.2490515216778
75.2490516694088
75.2490518133272
75.2490519528656
75.249052087529
75.2490522168664
75.2490523404995
75.2490524580498
75.2490525692556
75.2490526738693
75.2490527716727
75.2490528625349
75.2490529463103
75.2490530229406
75.2490530923824
75.2490531546064
75.2490532096272
75.2490532574884
75.2490532982192
75.2490533319215
75.2490533586824
75.2490533786186
75.2490533921664
75.2490533994569
75.2490534007957
75.2490533972159
75.2490533866949
75.249053373991
75.2490533642704
75.2490492331126
75.2490492682991
75.2490493214864
75.2490493922814
75.2490494765079
75.249049574777
75.2490496838582
75.2490498014813
75.2490499269043
75.249050058701
75.2490501960419
75.2490503381414
75.2490504842572
75.249050633618
75.2490507854382
75.2490509389609
75.2490510933858
75.2490512479271
75.2490514018427
75.2490515543905
75.2490517048718
75.2490518526029
75.2490519969724
75.2490521373838
75.2490522733133
75.2490524042514
75.2490525297762
75.2490526494948
75.249052763058
75.2490528701892
75.2490529706411
75.2490530642244
75.2490531507501
75.2490532301163
75.249053302221
75.2490533670207
75.2490534244716
75.2490534745739
75.2490535173565
75.249053552805
75.2490535810066
75.2490536020778
75.2490536160622
75.2490536235564
75.2490536246332
75.2490536197147
75.2490536101977
75.249053593594
75.2490535757679
75.2490535621619
75.2490495480306
75.2490495866659
75.2490496440296
75.2490497193066
75.2490498070401
75.2490499086707
75.2490500204731
75.2490501402499
75.2490502673027
75.2490504001325
75.2490505379537
75.2490506800241
75.249050825616
75.2490509740164
75.2490511244832
75.2490512762888
75.2490514286765
75.2490515809041
75.2490517322731
75.2490518820559
75.2490520295687
75.2490521741711
75.2490523152665
75.2490524522727
75.2490525846952
75.2490527120099
75.2490528338094
75.2490529497009
75.2490530593932
75.2490531625517
75.2490532589436
75.2490533483797
75.2490534306853
75.2490535057295
75.2490535734105
75.2490536336845
75.2490536864643
75.2490537317644
75.2490537695412
75.2490537998237
75.2490538226557
75.2490538381244
75.249053846288
75.2490538478305
75.2490538427955
75.2490538316488
75.2490538162383
75.2490537934355
75.2490537703707
75.2490537527774
75.2490498506231
75.2490498929255
75.2490499546402
75.2490500345884
75.249050125858
75.2490502308792
75.2490503453737
75.2490504672896
75.2490505959722
75.2490507298353
75.2490508681512
75.249051010207
75.2490511553187
75.2490513028024
75.2490514519741
75.2490516021353
75.249051752573
75.2490519025741
75.2490520514839
75.2490521985892
75.2490523432352
75.2490524848254
75.2490526227484
75.2490527564514
75.2490528854396
75.2490530092473
75.2490531274379
75.2490532396478
75.2490533455566
75.2490534448443
75.2490535373072
75.2490536227269
75.2490537009144
75.2490537717531
75.2490538351558
75.2490538909915
75.2490539392311
75.2490539798309
75.2490540127474
75.2490540379804
75.2490540555591
75.2490540655563
75.249054068001
75.2490540637082
75.2490540527069
75.249054035361
75.2490540141152
75.2490539849823
75.2490539565333
75.2490539347637
75.2490501391294
75.2490501853317
75.2490502516739
75.2490503365116
75.2490504313901
75.2490505398455
75.2490506569884
75.2490507810144
75.2490509112977
75.2490510461794
75.2490511850192
75.2490513270895
75.2490514717647
75.2490516183898
75.2490517663246
75.2490519149287
75.2490520634892
75.2490522113803
75.2490523579036
75.2490525024332
75.2490526443435
75.2490527830087
75.2490529178758
75.2490530484065
75.2490531741059
75.2490532945085
75.2490534092212
75.2490535178658
75.2490536201076
75.2490537156846
75.2490538043348
75.2490538858547
75.2490539600694
75.2490540268482
75.2490540860745
75.2490541376319