/*--------------------------------*- C++ -*----------------------------------*\
  =========                 |
  \\      /  F ield         | OpenFOAM: The Open Source CFD Toolbox
   \\    /   O peration     | Website:  https://openfoam.org
    \\  /    A nd           | Version:  10
     \\/     M anipulation  |
\*---------------------------------------------------------------------------*/
FoamFile
{
    format      ascii;
    class       surfaceScalarField;
    location    "3.2";
    object      phi;
}
// * * * * * * * * * * * * * * * * * * * * * * * * * * * * * * * * * * * * * //

dimensions      [1 0 -1 0 0 0 0];

internalField   nonuniform List<scalar> 
4900
(
-6.35257898164085e-12
6.65626900626552e-12
-7.27747327597754e-12
1.37917839008062e-12
-5.33020773763581e-12
-1.45915841711307e-12
-3.46488803908e-12
-1.37791784892601e-12
-2.19616291553329e-12
-7.88419849571774e-13
-1.42828207173245e-12
-2.93918957695244e-13
-9.58890608947253e-13
-3.44215253118384e-16
-6.59903609598215e-13
1.66236603051511e-13
-4.55804919029657e-13
2.58205740740573e-13
-3.06108282745185e-13
3.10486146416868e-13
-1.89814229323357e-13
3.42439213234743e-13
-9.54833223716114e-14
3.63443417408407e-13
-1.66520317737651e-14
3.7829033441339e-13
5.05649917389856e-14
3.89379173881864e-13
1.08629965165708e-13
3.98002340882982e-13
1.59186699520501e-13
4.04875778248352e-13
2.03400051187655e-13
4.10430884863281e-13
2.42113364070812e-13
4.14954308308521e-13
2.75994080325922e-13
4.18629697717373e-13
3.05572003549278e-13
4.21593411591184e-13
3.31311177230679e-13
4.23944662110762e-13
3.53599872095721e-13
4.25769957648087e-13
3.72816450337721e-13
4.27121607656705e-13
3.89315565649302e-13
4.28034707956235e-13
4.03455117021926e-13
4.28552432126192e-13
4.15606186146293e-13
4.28669723480798e-13
4.26150778477473e-13
4.28420546807496e-13
4.35499894073367e-13
4.27780191914798e-13
4.44095396492484e-13
4.26759227061558e-13
4.5240704048961e-13
4.2532779518218e-13
4.60992303650361e-13
4.23435296892062e-13
4.70464840992801e-13
4.21017984571417e-13
4.81541823199749e-13
4.18004648345245e-13
4.95066846394731e-13
4.14260169991773e-13
5.12154090266498e-13
4.09547950538709e-13
5.34189592848446e-13
4.03598747639483e-13
5.63090752497077e-13
3.95936874352293e-13
6.01573743610374e-13
3.85805022254945e-13
6.5379452389011e-13
3.71868559549259e-13
7.26555836537556e-13
3.51579953518975e-13
8.31732880671541e-13
3.20010183824862e-13
9.90826600369443e-13
2.67644977252734e-13
1.24492915700506e-12
1.75027380305229e-13
1.67091119129284e-12
6.57312724450959e-15
2.39780144166205e-12
-2.89389655173816e-13
3.63396019708531e-12
-7.91367086497888e-13
5.49038496167099e-12
-1.40168577672546e-12
7.47423310154323e-12
-1.51800090657092e-12
6.52179070518109e-12
1.40853881122773e-12
6.82821096349104e-12
-6.84804697257099e-12
1.39150478036799e-11
-1.1206034366418e-11
6.30042255690345e-12
-9.20178126874343e-12
-2.87786482547667e-12
-6.56111337909701e-12
-3.43990545816297e-12
-4.56581139397098e-12
-2.21662825705693e-12
-3.24162469718344e-12
-1.06040782863389e-12
-2.36720374724637e-12
-3.23738335199309e-13
-1.76240214054121e-12
1.07730610335145e-13
-1.31778097490835e-12
3.56505491991135e-13
-9.73044671332358e-13
5.06309604646063e-13
-6.94768806796499e-13
6.0313164927475e-13
-4.63687016142839e-13
6.70268601021196e-13
-2.67932276658406e-13
7.1969321437096e-13
-9.97843450147132e-14
7.57749972532653e-13
4.60287380728674e-14
7.88035057366618e-13
1.73283418569671e-13
8.12648106613085e-13
2.84798406966853e-13
8.32926971043588e-13
3.82745386821953e-13
8.49770028979509e-13
4.68888359595499e-13
8.63778622988526e-13
5.44684572153516e-13
8.75399115532459e-13
6.11422659949099e-13
8.84938706999847e-13
6.70247820623322e-13
8.92643671243202e-13
7.22223933867014e-13
8.98697534773748e-13
7.68354058027283e-13
9.03213515157673e-13
8.09639069901808e-13
9.06290430318345e-13
8.47090202928397e-13
9.07925973213467e-13
8.81740138949739e-13
9.08185724626585e-13
9.14655753667247e-13
9.07017114364005e-13
9.46994544474661e-13
9.04388180697493e-13
9.79971082298302e-13
9.00213311668632e-13
1.01497704567118e-12
8.94305145276523e-13
1.05354187940295e-12
8.86456995363135e-13
1.09742971381544e-12
8.7639880089023e-13
1.14870955856611e-12
8.63683915989435e-13
1.2099551218881e-12
8.47610345394595e-13
1.28436809775809e-12
8.27290623095728e-13
1.37613810747578e-12
8.01329896599701e-13
1.49093989992652e-12
7.67547023027261e-13
1.63692877408623e-12
7.22257423602167e-13
1.82648266788948e-12
6.58819673798008e-13
2.07957562656335e-12
5.64883143800493e-13
2.43057523224686e-12
4.16685619475874e-13
2.94119829872209e-12
1.67627312194886e-13
3.72299477554913e-12
-2.67324583016201e-13
4.95893693674471e-12
-1.01034621946933e-12
6.88080413575432e-12
-2.18729148294386e-12
9.49899311981439e-12
-3.47881350015391e-12
1.15687028629087e-11
-3.03418029964013e-12
7.14889066949637e-12
6.35150839308915e-12
1.43016804557735e-11
-3.95442963951939e-12
1.82782251528869e-11
-8.77540723498376e-12
1.16470317234356e-11
-8.28844575534424e-12
-2.84183781927096e-12
-6.6796627128946e-12
-4.54088265318704e-12
-5.16830161124853e-12
-3.23543374611136e-12
-3.99091373864389e-12
-1.75640175738646e-12
-3.11468540446681e-12
-7.25781027142091e-13
-2.45135437679383e-12
-8.60149510328497e-14
-1.93267549578954e-12
3.04398392228736e-13
-1.51496757939887e-12
5.53167109334446e-13
-1.17018791460113e-12
7.21588154610743e-13
-8.80205456556567e-13
8.42626877621593e-13
-6.32715459951012e-13
9.3388746912312e-13
-4.19123425142877e-13
1.0052514845058e-12
-2.33220407110395e-13
1.06257884286357e-12
-7.03768723349675e-14
1.10945386497871e-12
7.29570976508911e-14
1.14824999420064e-12
1.99596458555697e-13
1.18057167573769e-12
3.11850993963863e-13
1.20753668426145e-12
4.11669926217382e-13
1.22995666470213e-12
5.00762393274927e-13
1.24841571609919e-12
5.80667403697044e-13
1.26334709492006e-12
6.52803987449874e-13
1.2751011158802e-12
7.18518634196454e-13
1.28388142278016e-12
7.79139352560443e-13
1.28985573225127e-12
8.35981422303857e-13
1.2930477096943e-12
8.90397290036099e-13
1.29353534083298e-12
9.43767776043095e-13
1.29124453147018e-12
9.97581147993009e-13
1.286081039223e-12
1.05341947707572e-12
1.27786689632574e-12
1.11304953466397e-12
1.26626785742361e-12
1.17842175850283e-12
1.25088922465487e-12
1.25178639128595e-12
1.23119430022304e-12
1.33576442774491e-12
1.2063592543655e-12
1.43352769672232e-12
1.17516951196673e-12
1.54899595677015e-12
1.13599961557631e-12
1.68718217454031e-12
1.08642752521629e-12
1.85464654301169e-12
1.02278372804516e-12
2.06036163524005e-12
9.39095748383387e-13
2.31703238175498e-12
8.25113306213838e-13
2.64331489988818e-12
6.62702809141248e-13
3.06793995922779e-12
4.18186400022589e-13
3.63570980806489e-12
2.91557223450946e-14
4.41652793801628e-12
-6.13968036380516e-13
5.50266591400305e-12
-1.65443816143953e-12
6.93926219638442e-12
-3.16884618420068e-12
8.52879607429385e-12
-4.59421168116624e-12
9.09836073367385e-12
-3.1145332349302e-12
4.22936192082042e-12
1.16794623785014e-11
1.8804252627397e-11
-3.50010499277009e-12
2.21489628272844e-11
-5.84427250059661e-12
1.44424380961137e-11
-6.27163703342769e-12
-1.98341868747547e-12
-5.73091931224094e-12
-4.67002382296723e-12
-4.88224424412279e-12
-3.68877382398413e-12
-4.03306183343075e-12
-2.22152527903479e-12
-3.30285942679419e-12
-1.07884152788382e-12
-2.69945179970703e-12
-3.16399354268222e-13
-2.2029309149819e-12
1.78378206910778e-13
-1.79142380173549e-12
5.1055154692556e-13
-1.44624922885541e-12
7.44253036501291e-13
-1.15318435425942e-12
9.16679781449503e-13
-9.01565006560516e-13
1.04883119956995e-12
-6.83458000757869e-13
1.15317795182144e-12
-4.92878310572818e-13
1.23743001857105e-12
-3.25249165357545e-13
1.30649897168483e-12
-1.76977486530165e-13
1.36370868010478e-12
-4.51767620249521e-14
1.4113445762e-12
7.25464698035722e-14
1.45102943104064e-12
1.78220690247029e-13
1.48394488674406e-12
2.73630132858304e-13
1.51095523418056e-12
3.60376069483429e-13
1.5326909384032e-12
4.39947725707238e-13
1.54966041170226e-12
5.13745127971005e-13
1.56217245800947e-12
5.83154708218506e-13
1.57045562878433e-12
6.49526497359132e-13
1.57458339438916e-12
7.14260547210026e-13
1.57462944498349e-12
7.78782085433842e-13
1.57050191749356e-12
8.446200595893e-13
1.56204485678511e-12
9.13414239382377e-13
1.54897054945888e-12
9.86966862777534e-13
1.53081860342054e-12
1.06728354930466e-12
1.50698576548952e-12
1.15666815304243e-12
1.47666833883308e-12
1.25779459330073e-12
1.43866695999236e-12
1.37385865090154e-12
1.3912791591052e-12
1.50875324245347e-12
1.33219133352089e-12
1.66738448603211e-12
1.25802862914228e-12
1.85599717460561e-12
1.16383496598742e-12
2.08280053872939e-12
1.04178625899538e-12
2.35870403749011e-12
8.79040874621246e-13
2.69816153590607e-12
6.54074616898381e-13
3.12002502602852e-12
3.28960679618268e-13
3.64642342339041e-12
-1.61719181284276e-13
4.29764388035515e-12
-9.25114220195919e-13
5.06942635766906e-12
-2.07852618959119e-12
5.85476686271569e-12
-3.59330625546364e-12
6.38353495852241e-12
-4.74173345865036e-12
6.02899783327347e-12
-2.36194069410518e-12
3.64840551579516e-12
1.44320334201884e-11
2.2666331002648e-11
-3.11013293010698e-12
2.55614549550833e-11
-4.06724871501931e-12
1.57447982930578e-11
-4.8450206435296e-12
-8.90764938985379e-13
-4.83860950775653e-12
-4.38006895796619e-12
-4.39465280753309e-12
-3.85045627452661e-12
-3.79638569399966e-12
-2.54726129639391e-12
-3.2122441763438e-12
-1.3963184329705e-12
-2.69435223628884e-12
-5.70965353015546e-13
-2.2504564559125e-12
-4.12747167256144e-15
-1.87345349308648e-12
3.9374956634218e-13
-1.5524255137619e-12
6.82652857279438e-13
-1.27718530284081e-12
9.00319150162751e-13
-1.03927218556979e-12
1.0693459562241e-12
-8.31984789298297e-13
1.20385340087626e-12
-6.50059630523556e-13
1.31291150156991e-12
-4.89358564290332e-13
1.40249258508148e-12
-3.46561801638769e-13
1.47671279106176e-12
-2.18965098725784e-13
1.53845104251129e-12
-1.04300304464317e-13
1.58978049377026e-12
-6.34241015020498e-16
1.63222113896694e-12
9.37489932427269e-14
1.66688941386903e-12
1.80374491463115e-13
1.6946208226541e-12
2.60681021497855e-13
1.71605280422107e-12
3.36012196660142e-13
1.7316042788653e-12
4.07702212847257e-13
1.74155913939422e-12
4.77038829997063e-13
1.74604845760538e-12
5.45365030332456e-13
1.74513473856125e-12
6.1404651981386e-13
1.73871042436426e-12
6.84547092601141e-13
1.72656101522387e-12
7.58434741226228e-13
1.70829520921222e-12
8.37429904975101e-13
1.68333437758775e-12
9.23441304326883e-13
1.65088256503841e-12
1.01865389601088e-12
1.6098883908813e-12
1.12558459870167e-12
1.55881507048255e-12
1.24720445962306e-12
1.49553743802191e-12
1.38708438828383e-12
1.41714771470935e-12
1.54963723834954e-12
1.31948257691732e-12
1.74032438536071e-12
1.1965809876362e-12
1.96603108487531e-12
1.03929127831527e-12
2.23534261166392e-12
8.33161727024286e-13
2.55845403744607e-12
5.55187730024879e-13
2.94603960984915e-12
1.67084348431022e-13
3.40465525668322e-12
-3.92225898797467e-13
3.92555773802963e-12
-1.21408773964999e-12
4.45885757265896e-12
-2.37337438435129e-12
4.8480486937004e-12
-3.73231961811221e-12
4.84975200656773e-12
-4.47438545102362e-12
4.1291305093755e-12
-1.35678181930053e-12
3.15645419028746e-12
1.56681855946245e-11
2.59641734586249e-11
-2.34578597171464e-12
2.81265689411389e-11
-3.1890824989864e-12
1.68162252572752e-11
-4.04698096524183e-12
1.63648574290834e-13
-4.20351070446339e-12
-4.04154391341932e-12
-3.94657547488442e-12
-3.93590481673467e-12
-3.50546247344162e-12
-2.8243374675538e-12
-3.03478440072209e-12
-1.70746548609772e-12
-2.59492866882451e-12
-8.53779602408e-13
-2.20482286587892e-12
-2.3856368043445e-13
-1.86570550253367e-12
2.09491932834339e-13
-1.57227077592103e-12
5.43551691204289e-13
-1.31781508124563e-12
7.99801398009062e-13
-1.09605232683487e-12
1.00116190277105e-12
-9.01619459106688e-13
1.16259215089816e-12
-7.30111215516649e-13
1.2940616925156e-12
-5.77932934784408e-13
1.40230096319847e-12
-4.42131532094692e-13
1.4920482448631e-12
-3.20251087352419e-13
1.56666232026619e-12
-2.10206039378661e-13
1.62859995505219e-12
-1.10197664189465e-13
1.67967273917532e-12
-1.86184250881124e-14
1.72122135114856e-12
6.59625692282165e-14
1.7542709915256e-12
1.44908859906444e-13
1.77956778899577e-12
2.19492154182594e-13
1.79763639726875e-12
2.90969850054046e-13
1.80881855291321e-12
3.60563354306146e-13
1.81329237088429e-12
4.29544224416302e-13
1.81111208637522e-12
4.99201708037092e-13
1.80215879767283e-12
5.7092280405908e-13
1.78615808457327e-12
6.46179817747607e-13
1.76263352085138e-12
7.2659587922694e-13
1.73088879120622e-12
8.13948924801732e-13
1.68996792068853e-12
9.10269831214003e-13
1.63859474058936e-12
1.01787189687287e-12
1.57494317305683e-12
1.13944647992989e-12
1.49653883995171e-12
1.27817000032453e-12
1.39999201047571e-12
1.43785875444738e-12
1.28054636132134e-12
1.62308605410952e-12
1.13151564373811e-12
1.83933259992667e-12
9.42921432069933e-13
2.09293402065069e-12
6.99525122966226e-13
2.39046689525139e-12
3.78182474178701e-13
2.7367694014465e-12
-5.75674951837077e-14
3.1296046804285e-12
-6.61568011921225e-13
3.54832556125447e-12
-1.50638499093762e-12
3.93390651524628e-12
-2.62747796629332e-12
4.14310836900556e-12
-3.80062540783897e-12
3.98812979176394e-12
-4.16277976800483e-12
3.17894242632825e-12
-3.77979530013967e-13
2.34346928863316e-12
1.66558967768283e-11
2.83795642947007e-11
-1.57932491287852e-12
2.9832145911193e-11
-2.70121392189778e-12
1.80425064491984e-11
-3.52661364043286e-12
1.06638723456162e-12
-3.71525169841905e-12
-3.78346513175545e-12
-3.55305879232246e-12
-4.03439687903874e-12
-3.21955118430208e-12
-3.09878280346829e-12
-2.8382732498333e-12
-2.03263497354996e-12
-2.46532379938985e-12
-1.1722276927969e-12
-2.12351767136067e-12
-5.26701323402932e-13
-1.81910033368093e-12
-4.17209867598746e-14
-1.55098440882822e-12
3.2833605264601e-13
-1.31543431045264e-12
6.16895028744143e-13
-1.10815775256104e-12
8.46254513607504e-13
-9.25100308706342e-13
1.03155128394226e-12
-7.62703586345542e-13
1.18320764715092e-12
-6.17939445012105e-13
1.30844444293551e-12
-4.88227076029754e-13
1.41243305945841e-12
-3.7137539633441e-13
1.49890728466164e-12
-2.65481889864631e-13
1.57062796941562e-12
-1.68885020970875e-13
1.62965160467487e-12
-8.00874591566832e-14
1.67751515946249e-12
2.25971734089189e-15
1.71540464812067e-12
7.94437987135594e-14
1.7441677465435e-12
1.52669340192411e-13
1.76442473244944e-12
2.23130180797237e-13
1.77657055149861e-12
2.91989240383402e-13
1.78082362863786e-12
3.60455106811794e-13
1.77723377937236e-12
4.29752877315392e-13
1.76567065162119e-12
5.01199793753245e-13
1.74580461876306e-12
5.76183756632163e-13
1.71708827603932e-12
6.56234299772294e-13
1.67871565061111e-12
7.43005633944523e-13
1.629600387589e-12
8.38381923047532e-13
1.56826368273687e-12
9.44468992983494e-13
1.49264979179089e-12
1.06368053679899e-12
1.40000369597345e-12
1.19879403867249e-12
1.28657208498729e-12
1.35303734941439e-12
1.14718666042054e-12
1.53010761598493e-12
9.74714928373163e-13
1.7341497466623e-12
7.58792540812293e-13
1.96945849718901e-12
4.84076211004994e-13
2.23958629259216e-12
1.28234060898205e-13
2.54509560613156e-12
-3.42160982671661e-13
2.87865499527786e-12
-9.7297025631549e-13
3.21573752785728e-12
-1.81935100430093e-12
3.50134311759772e-12
-2.88556490016984e-12
3.62256077822939e-12
-3.88767098152304e-12
3.43869520123063e-12
-3.93317756476863e-12
2.65920435989325e-12
4.55770903508864e-13
1.55882917076816e-12
1.77966230707935e-11
2.994072793927e-11
-1.04088859250704e-12
3.09097873710422e-11
-2.32313494480947e-12
1.93164889910491e-11
-3.07756977063819e-12
1.79459152767123e-12
-3.28353089406265e-12
-3.60460452653376e-12
-3.19042848895809e-12
-4.15569242277456e-12
-2.94238086144107e-12
-3.37694322559648e-12
-2.63576733365361e-12
-2.3708552788748e-12
-2.321077071808e-12
-1.51934748186454e-12
-2.02251311867533e-12
-8.58076026831304e-13
-1.74965817313447e-12
-3.47570797912565e-13
-1.50469434228621e-12
5.02515114075337e-14
-1.28639684971987e-12
3.65333362961342e-13
-1.09224526701028e-12
6.18634840879751e-13
-9.19404489457758e-13
8.24935258176022e-13
-7.65124814270259e-13
9.94712754964537e-13
-6.26933782365522e-13
1.13543336926917e-12
-5.02620391889318e-13
1.25252134258662e-12
-3.90257147916398e-13
1.34998227094699e-12
-2.88127023248494e-13
1.43080306227138e-12
-1.94704418636187e-13
1.4972356259984e-12
-1.08602162309905e-13
1.550987114605e-12
-2.85464793089592e-14
1.5933684012605e-12
4.66745048015504e-14
1.62532785246506e-12
1.18207332180769e-13
1.64756308592537e-12
1.87189139529709e-13
1.66051989490037e-12
2.54729222025883e-13
1.66445359554977e-12
3.21978297952254e-13
1.65941214664236e-12
3.90105740259373e-13
1.64525126740506e-12
4.60364629852409e-13
1.62159359674219e-12
5.34064990884817e-13
1.58783381166422e-12
6.12648837133289e-13
1.54306562698825e-12
6.97656136599971e-13
1.48609819264809e-12
7.90823439329563e-13
1.41528289350493e-12
8.94056394421235e-13
1.32838644630997e-12
1.00950045045737e-12
1.22243954275645e-12
1.13954022492629e-12
1.09344637186242e-12
1.28684418617593e-12
9.35987984629262e-13
1.45427558951487e-12
7.42748847118989e-13
1.64475888824375e-12
5.03349598417516e-13
1.86079463194579e-12
2.02892852511848e-13
2.10342917635989e-12
-1.79457681321027e-13
2.37000168788366e-12
-6.73416882813559e-13
2.6499854027645e-12
-1.3169575365648e-12
2.91789675210505e-12
-2.15020668307828e-12
3.12437188522676e-12
-3.15312458300736e-12
3.18266585846958e-12
-4.00314143479255e-12
2.98100045533711e-12
-3.78161977236562e-12
2.26946188005177e-12
1.12139014415289e-12
1.01233779613441e-12
1.89959513915134e-11
3.08973195113812e-11
-7.25665908859007e-13
3.15901900982909e-11
-1.97854017308498e-12
2.04622394864702e-11
-2.65509552432675e-12
2.35679197936664e-12
-2.88339707129451e-12
-3.48443024086018e-12
-2.84934452056931e-12
-4.29455204480058e-12
-2.67276045474354e-12
-3.65773907069282e-12
-2.42992287985689e-12
-2.71807434693325e-12
-2.16657670498488e-12
-1.88721011323773e-12
-1.90723579651822e-12
-1.22193418142475e-12
-1.6636981494821e-12
-6.95578956685129e-13
-1.44061541440458e-12
-2.77279285320825e-13
-1.23881179547587e-12
5.90339354031741e-14
-1.05729650321789e-12
3.32481716169912e-13
-8.94329016519189e-13
5.57063758487011e-13
-7.47920470628748e-13
7.42991344375586e-13
-6.16120694921562e-13
8.97743456545869e-13
-4.97094457977282e-13
1.0268560218347e-12
-3.89170046934511e-13
1.13448789134747e-12
-2.90820113417891e-13
1.22378691597334e-12
-2.00658470264252e-13
1.29715079087017e-12
-1.17403938023728e-13
1.35642229931444e-12
-3.98652284449098e-14
1.40301292483077e-12
3.30963743756754e-14
1.43796201805713e-12
1.02568271316733e-13
1.46202953243634e-12
1.69628306261941e-13
1.4757111750721e-12
2.3533639693188e-13
1.47928880301336e-12
3.00786371706074e-13
1.47281512779757e-12
3.67092947348112e-13
1.45612889662477e-12
4.35443468069374e-13
1.42881523403987e-12
5.0707646789212e-13
1.3902168852033e-12
5.83337970427081e-13
1.33934993853786e-12
6.65659175751683e-13
1.27493241982342e-12
7.55628687494185e-13
1.19518416923896e-12
8.54955948064514e-13
1.09774209108487e-12
9.65519307138055e-13
9.79491757688636e-13
1.08932573652971e-12
8.36302764013199e-13
1.22851347373438e-12
6.62653175020048e-13
1.38518219350589e-12
4.51267921969905e-13
1.5611670940106e-12
1.9206372136436e-13
1.75743646041957e-12
-1.2898918555869e-13
1.97302803628499e-12
-5.30784159351386e-13
2.20290912362754e-12
-1.03899590852768e-12
2.43457667589591e-12
-1.68416073682452e-12
2.64276671373187e-12
-2.49369291544734e-12
2.78288716273013e-12
-3.42809241228244e-12
2.78709943319781e-12
-4.14089082357737e-12
2.55995609113322e-12
-3.68543290016832e-12
1.92046493982103e-12
1.62894032986284e-12
6.91763263421165e-13
2.00828564581326e-11
3.14837768092681e-11
-5.51673292766203e-13
3.20307660412799e-11
-1.66921853484241e-12
2.13976260775901e-11
-2.27120506449048e-12
2.7799796229637e-12
-2.51753107776666e-12
-3.4049101644117e-12
-2.53127195796464e-12
-4.44082539714414e-12
-2.41317650955214e-12
-3.93324932570164e-12
-2.22431930223457e-12
-3.06346138663452e-12
-2.00602692713253e-12
-2.26163337582821e-12
-1.78230518744828e-12
-1.60150346583585e-12
-1.56621813358883e-12
-1.0672980687916e-12
-1.36415315019319e-12
-6.34845105842612e-13
-1.17852213495799e-12
-2.82072926779704e-13
-1.0096061049718e-12
7.99614393848728e-15
-8.56607797268454e-13
2.48263659565491e-13
-7.18235147421044e-13
4.48433630853997e-13
-5.93026936639395e-13
6.15796932734962e-13
-4.79504250316241e-13
7.5587039132193e-13
-3.76250761278314e-13
8.728680504643e-13
-2.81926554698694e-13
9.70030984644e-13
-1.95290335940575e-13
1.04986036021017e-12
-1.15167385210983e-13
1.114295462674e-12
-4.04589797899888e-14
1.16483426609708e-12
2.9901743633931e-14
1.20258525027594e-12
9.69390292309585e-14
1.22836176321407e-12
1.61669923940134e-13
1.24270626322625e-12
2.25100939105194e-13
1.24591884251301e-12
2.88267142718405e-13
1.23806158282699e-12
3.52226520373352e-13
1.21895445758424e-12
4.18096023472908e-13
1.18815714379776e-12
4.87042955198312e-13
1.14496152525194e-12
5.60312961065973e-13
1.08833418183808e-12
6.39231150777359e-13
1.01690825369561e-12
7.25230391695446e-13
9.28820258954162e-13
8.19832147076244e-13
8.21609741765254e-13
9.24649521219043e-13
6.92093268486405e-13
1.04133338267065e-12
5.36094921759642e-13
1.17152621499363e-12
3.48124229295078e-13
1.3166468283358e-12
1.21125154109087e-13
1.47759109888947e-12
-1.54444805750277e-13
1.65407486720012e-12
-4.91451300027098e-13
1.84360525797208e-12
-9.0659043376574e-13
2.03951801115865e-12
-1.42142520949799e-12
2.22829198508925e-12
-2.05971275730956e-12
2.38561403055272e-12
-2.83821280650673e-12
2.47125219996009e-12
-3.70162022765092e-12
2.43123763680193e-12
-4.28971232634144e-12
2.18162333453353e-12
-3.62624520023967e-12
1.60849513925912e-12
2.00635658803396e-12
5.13042258926564e-13
2.09737017110228e-11
3.18563770381928e-11
-4.50102228128427e-13
3.23205982154379e-11
-1.40386897148093e-12
2.21163887883113e-11
-1.93713751718561e-12
3.09067210568126e-12
-2.19041323701415e-12
-3.35771778481822e-12
-2.23910726184778e-12
-4.58879874736525e-12
-2.1669382638924e-12
-4.19796718463896e-12
-2.02285980872026e-12
-3.39839945236773e-12
-1.84360510161746e-12
-2.6309442443904e-12
-1.65196847715748e-12
-1.98270103634665e-12
-1.46146728272743e-12
-1.4470189933725e-12
-1.27957264829342e-12
-1.00574451101446e-12
-1.1098460632213e-12
-6.40721349032253e-13
-9.53577642792172e-13
-3.37246680839926e-13
-8.10762845511614e-13
-8.3728374711592e-14
-6.80711764148401e-13
1.2884645364441e-13
-5.62412328288966e-13
3.07430174534009e-13
-4.54716003850248e-13
4.57405728016042e-13
-3.56456401917277e-13
5.82962863931122e-13
-2.66478396852006e-13
6.8737163945628e-13
-1.83684637168281e-13
7.73195142534428e-13
-1.07012320378664e-13
8.42437577103709e-13
-3.54542280395313e-14
8.9666183137616e-13
3.19795981928167e-14
9.37030857662321e-13
9.62444471072022e-14
9.6440249260246e-13
1.58295863263002e-13
9.79357632018847e-13
2.19080993198602e-13
9.82212310568286e-13
2.79575301329704e-13
9.73037811958004e-13
3.40772160060496e-13
9.51638863103511e-13
4.03718783794399e-13
9.17554845938106e-13
4.69504186027888e-13
8.70034507094402e-13
5.39275636960505e-13
8.08015188151133e-13
6.14242862643881e-13
7.30061035684851e-13
6.95693577743756e-13
6.3425504365388e-13
7.84958885463228e-13
5.18084597448546e-13
8.83402713098037e-13
3.78354524175318e-13
9.9234078011424e-13
2.10927731125216e-13
1.1129657537821e-12
1.04573948133032e-14
1.2461097896394e-12
-2.29763884344041e-13
1.39188802858821e-12
-5.18551831797677e-13
1.54903901066961e-12
-8.67427351828835e-13
1.71397298652087e-12
-1.29078677018404e-12
1.87904914279918e-12
-1.80622594217306e-12
2.03049924850735e-12
-2.43148411191256e-12
2.14552114152124e-12
-3.17449666254428e-12
2.18832439783102e-12
-3.96730200542033e-12
2.11569873888527e-12
-4.44282810433517e-12
1.85459085272053e-12
-3.59616728281031e-12
1.34095762859329e-12
2.27925197101508e-12
4.07308510553496e-13
2.16586839078931e-11
3.20989842953772e-11
-3.82416341867636e-13
3.2512321938473e-11
-1.18254036546912e-12
2.26524466440077e-11
-1.65307364043207e-12
3.31626110234458e-12
-1.90198152112479e-12
-3.33449884744764e-12
-1.97366690610364e-12
-4.73179397216018e-12
-1.93611799693e-12
-4.44510897289336e-12
-1.82841715923221e-12
-3.71347409883397e-12
-1.68250529825572e-12
-2.98316042881015e-12
-1.51944005888155e-12
-2.35143955416742e-12
-1.35254915478144e-12
-1.81916214034666e-12
-1.18984537440828e-12
-1.37343114292158e-12
-1.03565544529637e-12
-9.9977091083063e-13
-8.92009715658698e-13
-6.8577457400965e-13
-7.59540925684868e-13
-4.2125811809022e-13
-6.38071938099326e-13
-1.98022514425782e-13
-5.26987969568286e-13
-9.56529696295483e-15
-4.2544126007973e-13
1.49267103831425e-13
-3.3249873765398e-13
2.82574197925404e-13
-2.47184390554855e-13
3.93601159039173e-13
-1.68540023231422e-13
4.8493310422192e-13
-9.56180432208871e-14
5.586147121155e-13
-2.75050954516398e-14
6.16252193447109e-13
3.67084516384078e-14
6.59048392787486e-13
9.79067056415453e-14
6.87896612731994e-13
1.56981092424919e-13
7.0340803534641e-13
2.14813080832573e-13
7.05915847176418e-13
2.72316702928644e-13
6.95495399286967e-13
3.30417477359716e-13
6.71942490079406e-13
3.90092414097409e-13
6.34778103273976e-13
4.52342272612726e-13
5.83225283813299e-13
5.18224361176085e-13
5.16193411203628e-13
5.88825727835716e-13
4.32210093268738e-13
6.65297088333103e-13
3.29319358384446e-13
7.4877830764762e-13
2.05009386231739e-13
8.40405641915905e-13
5.61102776454168e-14
9.41190799331034e-13
-1.21401134537605e-13
1.05193166591842e-12
-3.32640340640153e-13
1.17296868991345e-12
-5.83871939541074e-13
1.3037948626577e-12
-8.83062289506981e-13
1.44243271323834e-12
-1.24030139092041e-12
1.58457431226558e-12
-1.66769733894469e-12
1.72214362178848e-12
-2.17917608656134e-12
1.84171019625829e-12
-2.7872532356982e-12
1.92238858577186e-12
-3.4926700148878e-12
1.9329797597749e-12
-4.21766244729189e-12
1.83882541960107e-12
-4.59282317352864e-12
1.57804282380277e-12
-3.58792440041979e-12
1.11821276954579e-12
2.47353262603314e-12
3.36157580144866e-13
2.216744747217e-11
3.22583266034271e-11
-3.30538598174645e-13
3.26375625617872e-11
-9.9926511750684e-13
2.30468876174667e-11
-1.41282293813628e-12
3.47901823906066e-12
-1.64892748212575e-12
-3.3285541488225e-12
-1.73380751086337e-12
-4.86529311588556e-12
-1.721347462219e-12
-4.67033983324304e-12
-1.64262258579397e-12
-4.00244327472049e-12
-1.52480607447461e-12
-3.30999247534798e-12
-1.38689663216393e-12
-2.69765071564658e-12
-1.24156985172375e-12
-2.17231894082011e-12
-1.09693790804277e-12
-1.72558650607135e-12
-9.5776241393754e-13
-1.34631628216551e-12
-8.26587065894228e-13
-1.02431744463566e-12
-7.04533686748446e-13
-7.50837067088002e-13
-5.91835835621899e-13
-5.18565688426514e-13
-4.88215586804022e-13
-3.2152364721047e-13
-3.93097364474691e-13
-1.54848816862759e-13
-3.05757973580912e-13
-1.45937756980719e-14
-2.25392485566882e-13
1.02423292357089e-13
-1.51178615639806e-13
1.98774456540425e-13
-8.22817150329764e-14
2.76520969237321e-13
-1.78785262530988e-14
3.37289928264218e-13
4.2856298894033e-14
3.82317275773736e-13
1.00729525447301e-13
4.12524200193849e-13
1.56568224336681e-13
4.28538739781246e-13
2.11185376507936e-13
4.30714578594048e-13
2.6543153536678e-13
4.19125871116558e-13
3.20158976874836e-13
3.93568485790383e-13
3.76274064907609e-13
3.53542197160367e-13
4.34689454297898e-13
2.98260608974706e-13
4.96367884100432e-13
2.26611900381231e-13
5.62277344848259e-13
1.37111407558307e-13
6.33432912710454e-13
2.77798445691368e-14
7.10804905163645e-13
-1.03859499976339e-13
7.95314234909777e-13
-2.6090642545174e-13
8.87704381388242e-13
-4.47217578171981e-13
9.88435461479041e-13
-6.67608930675713e-13
1.09745321798356e-12
-9.27848065650706e-13
1.21378376237804e-12
-1.2349827116221e-12
1.33496075094996e-12
-1.59765608714375e-12
1.4562874713891e-12
-2.0257935702282e-12
1.56966474466824e-12
-2.53002436060361e-12
1.66242208422865e-12
-3.11843583375673e-12
1.71583192559224e-12
-3.78601037930964e-12
1.70326201248385e-12
-4.44774457521022e-12
1.59685396780519e-12
-4.73458138912918e-12
1.34568576619311e-12
-3.59573360918233e-12
9.34950108920848e-13
2.60930741773714e-12
2.82096423167685e-13
2.25377947089825e-11
3.23602231024613e-11
-2.86996463761617e-13
3.27182641471309e-11
-8.46725192342524e-13
2.33377821215072e-11
-1.20860398097521e-12
3.5975434671052e-12
-1.42664832633659e-12
-3.33312015478445e-12
-1.51726345228069e-12
-4.98545105699654e-12
-1.52221420849718e-12
-4.87041789371235e-12
-1.46614309631289e-12
-4.26090138960944e-12
-1.37172310307562e-12
-3.6055037966073e-12
-1.25574039998709e-12
-3.01397630105124e-12
-1.12991768427793e-12
-2.49799100640906e-12
-1.00214432172768e-12
-2.05288345819711e-12
-8.77348110344222e-13
-1.6704646082834e-12
-7.58379671970488e-13
-1.34261845574142e-12
-6.46707105759547e-13
-1.06198410328985e-12
-5.42887151711882e-13
-8.22163847984515e-13
-4.46916330500026e-13
-6.17747998271722e-13
-3.58451607277982e-13
-4.4420808322841e-13
-2.76958304591098e-13
-2.97791345435135e-13
-2.01790416860231e-13
-1.75408804619307e-13
-1.32253667865011e-13
-7.45326305306678e-14
-6.76213106630942e-14
6.89489314150837e-15
-7.16534278047439e-15
7.05081934079763e-14
4.98571589031103e-14
1.17563310639006e-13
1.04179911006002e-13
1.48999244086395e-13
1.56556403072942e-13
1.65460605804774e-13
2.07731069697537e-13
1.67317001083199e-13
2.58486771717514e-13
1.54638718916035e-13
3.09604976691304e-13
1.27225091416523e-13
3.61913648075031e-13
8.45616906085937e-14
4.16241525352185e-13
2.58581643823239e-14
4.73454860389893e-13
-5.00072258613049e-14
5.34413541118681e-13
-1.44519368060447e-13
5.99996364699507e-13
-2.59653195557691e-13
6.7101813265943e-13
-3.97830695161036e-13
7.48205063377264e-13
-5.62042993553888e-13
8.32075809984536e-13
-7.55950474268062e-13
9.22815648660496e-13
-9.84019708029846e-13
1.02005602999973e-12
-1.25148280902845e-12
1.1225012979195e-12
-1.5644629734164e-12
1.22739577737195e-12
-1.9301888537838e-12
1.3299213616722e-12
-2.35657202537957e-12
1.42226214162882e-12
-2.85134930022232e-12
1.49278437047492e-12
-3.41893633554226e-12
1.52500466260877e-12
-4.04978986745899e-12
1.4966223848318e-12
-4.65387311281287e-12
1.38514974723385e-12
-4.86388606570869e-12