/*--------------------------------*- C++ -*----------------------------------*\
  =========                 |
  \\      /  F ield         | OpenFOAM: The Open Source CFD Toolbox
   \\    /   O peration     | Website:  https://openfoam.org
    \\  /    A nd           | Version:  10
     \\/     M anipulation  |
\*---------------------------------------------------------------------------*/
FoamFile
{
    format      ascii;
    class       volScalarField;
    location    "3.2";
    object      rho;
}
// * * * * * * * * * * * * * * * * * * * * * * * * * * * * * * * * * * * * * //

dimensions      [1 -3 0 0 0 0 0];

internalField   nonuniform List<scalar> 
2500
(
1.14239809607553
1.1425111721295
1.14260083539744
1.14263986194176
1.14265473620411
1.14266018275816
1.14266209848552
1.14266274131814
1.14266294866443
1.14266301139883
1.14266303518713
1.142663044823
1.14266304928095
1.14266305389214
1.14266305806269
1.14266306259127
1.14266306498238
1.1426630678986
1.14266307120521
1.14266307356523
1.14266307575181
1.14266307788044
1.14266307972722
1.142663080629
1.1426630815832
1.14266308271593
1.14266308309861
1.14266308343835
1.14266308368697
1.14266308337658
1.14266308295891
1.14266308232065
1.14266308098359
1.14266307919793
1.14266307750262
1.1426630756864
1.14266307353658
1.14266307140844
1.14266306634522
1.14266305735054
1.14266303317342
1.1426629591453
1.14266272919716
1.14266203815254
1.14266004464179
1.14265455740284
1.14263977463146
1.14260081219759
1.14250989763739
1.14239858314709
1.14891297760193
1.14925164552679
1.14950354117233
1.14962250091909
1.14967318113758
1.14969374571626
1.14970164098147
1.14970447186175
1.14970541602742
1.14970570887662
1.1497057964952
1.14970582182609
1.14970582887343
1.14970583207289
1.14970583422992
1.14970583624145
1.14970583738562
1.14970583872523
1.14970584029249
1.14970584155085
1.14970584294487
1.14970584458956
1.14970584611952
1.14970584673778
1.1497058471842
1.14970584795317
1.14970584813983
1.14970584832073
1.14970584884837
1.14970584848716
1.14970584830932
1.14970584861186
1.14970584711055
1.14970584503794
1.14970584409067
1.14970584335078
1.14970584199049
1.14970583919097
1.14970582960081
1.14970579839709
1.14970569334557
1.14970535306128
1.14970431172594
1.14970131774251
1.14969324268101
1.14967269473191
1.14962248437661
1.14950363751089
1.1492471511848
1.14891019232377
1.15436693249859
1.15477261143312
1.15505907927276
1.15519457896759
1.15525233184842
1.15527579942803
1.15528485106154
1.15528812036521
1.15528921921638
1.15528956277649
1.1552896645412
1.15528969286842
1.15528969960795
1.155289701561
1.15528970234499
1.15528970284418
1.1552897030848
1.15528970341664
1.15528970393517
1.15528970439873
1.15528970507519
1.15528970606975
1.15528970711859
1.15528970760505
1.15528970780066
1.15528970830683
1.15528970832404
1.15528970833268
1.15528970876473
1.15528970843442
1.15528970843766
1.15528970896301
1.15528970774229
1.15528970601351
1.15528970599634
1.15528970623635
1.15528970526765
1.15528970265875
1.15528969294482
1.15528965839226
1.15528953941588
1.15528915132281
1.15528796322685
1.15528455134008
1.15527535982657
1.15525194946493
1.15519460184047
1.15505864923901
1.15476553688492
1.1543526765993
1.15803303473838
1.1583626224788
1.15856907706857
1.15866385079085
1.15870249811698
1.1587175865223
1.1587232480428
1.15872526144885
1.15872593334714
1.15872614298902
1.15872620512518
1.15872622213139
1.15872622571752
1.15872622647969
1.15872622651885
1.15872622649086
1.15872622642319
1.15872622642849
1.15872622652594
1.15872622659758
1.15872622680686
1.15872622727542
1.15872622788498
1.15872622823836
1.15872622830673
1.15872622846642
1.15872622844643
1.15872622828331
1.15872622834992
1.15872622833801
1.15872622834852
1.15872622874835
1.15872622816554
1.15872622729506
1.15872622731786
1.15872622734718
1.15872622730711
1.15872622640802
1.15872622106456
1.15872620150155
1.15872613286757
1.15872590503401
1.15872519682746
1.15872312575961
1.15871740964614
1.1587023488879
1.15866379099307
1.15856809499685
1.15835558886541
1.15801302625808
1.16011122951531
1.16032116114136
1.16043829858724
1.16049061965398
1.16051117758847
1.16051893113478
1.16052177388672
1.16052277404648
1.16052310719747
1.16052321148514
1.16052324263635
1.16052325110297
1.16052325261337
1.1605232527784
1.16052325269398
1.1605232525756
1.16052325245408
1.16052325236919
1.16052325234438
1.16052325234434
1.16052325238653
1.160523252548
1.16052325283916
1.16052325303757
1.16052325301174
1.16052325297487
1.16052325295487
1.16052325286973
1.1605232528995
1.16052325291834
1.16052325292617
1.1605232531908
1.16052325292407
1.1605232525545
1.16052325257295
1.16052325255801
1.16052325258772
1.16052325242625
1.16052325020491
1.16052324110261
1.16052320862651
1.16052309965431
1.16052275784145
1.16052174597659
1.16051889968738
1.16051117777725
1.16049062430469
1.16043753974759
1.16031608485485
1.16009354654154
1.16113904745677
1.16125132346259
1.16130757853369
1.16133212725808
1.16134149782019
1.16134493330305
1.16134616889723
1.16134660031884
1.16134674419271
1.16134678950161
1.16134680317393
1.16134680686463
1.16134680741981
1.16134680741723
1.16134680733376
1.16134680724479
1.16134680715631
1.16134680708663
1.16134680705002
1.16134680703325
1.16134680703211
1.16134680708636
1.16134680720007
1.16134680727398
1.16134680724647
1.16134680721039
1.16134680719524
1.16134680715234
1.16134680716357
1.16134680717473
1.16134680718008
1.1613468073141
1.16134680721314
1.1613468070808
1.16134680711834
1.16134680712948
1.16134680714655
1.16134680713353
1.16134680632389
1.16134680261357
1.1613467890555
1.16134674332891
1.16134659934661
1.16134617013326
1.16134494568246
1.16134154245372
1.16133218455512
1.16130720675542
1.16124840746788
1.16112713897301
1.16159367908775
1.16164618320886
1.16167004071431
1.16168024064486
1.16168404953494
1.1616854146758
1.16168589783274
1.1616860655723
1.16168612166032
1.16168613945384
1.16168614487387
1.16168614632322
1.16168614651015
1.16168614648238
1.16168614643092
1.16168614638175
1.1616861463341
1.16168614629598
1.16168614627278
1.16168614626166
1.16168614625358
1.16168614626951
1.16168614631015
1.16168614632767
1.16168614631169
1.16168614629644
1.1616861462884
1.16168614627027
1.16168614627381
1.16168614627886
1.16168614628214
1.16168614634074
1.16168614630799
1.16168614626823
1.16168614628169
1.16168614628659
1.16168614631218
1.16168614633239
1.16168614607028
1.1616861446856
1.16168613950991
1.16168612204884
1.16168606708487
1.16168590279798
1.16168542952001
1.16168408821666
1.16168030059129
1.16166991270575
1.16164477316261
1.16158703650188
1.16177689510491
1.16179894494901
1.16180813274721
1.16181198594735
1.16181340115144
1.16181389942558
1.16181407341573
1.1618141335409
1.16181415370842
1.16181416015558
1.16181416213294
1.16181416265548
1.16181416271506
1.16181416269624
1.16181416267079
1.16181416264795
1.16181416262679
1.16181416261
1.16181416259898
1.1618141625939
1.16181416258871
1.16181416259294
1.16181416260612
1.16181416260696
1.1618141625996
1.16181416259542
1.16181416259252
1.16181416258634
1.16181416258667
1.1618141625901
1.16181416259342
1.16181416261553
1.16181416260644
1.1618141625973
1.16181416260362
1.16181416260542
1.16181416262061
1.16181416263551
1.16181416255837
1.16181416207752
1.16181416023472
1.16181415403598
1.16181413458972
1.16181407650786
1.16181390816295
1.16181342374181
1.16181202619062
1.1618081051388
1.16179835000909
1.16177368003755
1.16184511944699
1.16185359394721
1.16185687035624
1.16185821824454
1.16185870703956
1.1618588767942
1.16185893540455
1.16185895557554
1.1618589623614
1.16185896454633
1.16185896521942
1.16185896539509
1.16185896541334
1.16185896540453
1.16185896539383
1.1618589653847
1.16185896537671
1.16185896537051
1.16185896536628
1.16185896536453
1.16185896536267
1.16185896536386
1.16185896536756
1.16185896536671
1.16185896536438
1.16185896536352
1.16185896536298
1.16185896536151
1.16185896536183
1.16185896536377
1.16185896536574
1.16185896537392
1.16185896537217
1.16185896537132
1.1618589653747
1.16185896537623
1.16185896538364
1.16185896539109
1.16185896537051
1.16185896521211
1.16185896459258
1.16185896251886
1.16185895604838
1.16185893678574
1.16185888078719
1.16185871779863
1.16185823951428
1.16185687114947
1.16185336962781
1.16184372875831
1.16186884673369
1.16187186931434
1.16187296653523
1.16187340903696
1.1618735678912
1.16187362249276
1.16187364116906
1.16187364757201
1.1618736497312
1.1618736504308
1.16187365064691
1.16187365070243
1.16187365070805
1.1618736507052
1.16187365070147
1.16187365069848
1.16187365069607
1.16187365069431
1.16187365069318
1.16187365069297
1.16187365069281
1.1618736506935
1.16187365069471
1.16187365069457
1.16187365069435
1.16187365069458
1.1618736506949
1.161873650695
1.16187365069559
1.16187365069674
1.16187365069793
1.1618736507011
1.16187365070132
1.16187365070209
1.16187365070393
1.16187365070517
1.16187365070853
1.16187365071198
1.16187365070713
1.1618736506575
1.16187365045954
1.16187364980002
1.16187364775489
1.16187364169664
1.1618736240761
1.16187357237574
1.16187341863588
1.16187297114012
1.16187179250844
1.16186829811199
1.16187661363668
1.16187762484476
1.1618779734744
1.16187811119711
1.16187816022172
1.1618781769449
1.16187818262158
1.16187818456063
1.16187818521562
1.161878185429
1.16187818549515
1.16187818551215
1.16187818551413
1.16187818551353
1.16187818551267
1.16187818551213
1.16187818551185
1.16187818551179
1.16187818551192
1.16187818551236
1.16187818551286
1.16187818551355
1.16187818551431
1.16187818551475
1.16187818551525
1.16187818551584
1.16187818551644
1.16187818551699
1.16187818551766
1.1618781855185
1.16187818551934
1.1618781855207
1.16187818552139
1.16187818552219
1.16187818552323
1.1618781855243
1.16187818552593
1.16187818552746
1.16187818552673
1.16187818551228
1.1618781854521
1.16187818525169
1.16187818463354
1.16187818281263
1.16187817752379
1.16187816192554
1.16187811506707
1.16187797652567
1.16187760071353
1.16187641331679
1.16187901485874
1.16187933486577
1.16187944076551
1.16187948172126
1.16187949619074
1.16187950109968
1.16187950275598
1.16187950331978
1.16187950351045
1.16187950357294
1.16187950359252
1.16187950359778
1.16187950359875
1.161879503599
1.16187950359921
1.16187950359956
1.16187950360002
1.16187950360056
1.16187950360116
1.16187950360185
1.16187950360257
1.16187950360332
1.16187950360407
1.16187950360475
1.16187950360543
1.16187950360612
1.16187950360679
1.16187950360744
1.16187950360812
1.16187950360882
1.16187950360952
1.16187950361034
1.16187950361101
1.16187950361169
1.16187950361246
1.16187950361327
1.16187950361422
1.16187950361514
1.16187950361545
1.16187950361172
1.16187950359452
1.16187950353636
1.16187950335708
1.16187950283137
1.16187950130795
1.16187949680196
1.16187948316071
1.16187944223863
1.16187932787281
1.16187894640446
1.16187971066015
1.16187980710475
1.16187983803067
1.16187984973849
1.16187985384554
1.16187985523351
1.16187985569963
1.16187985585781
1.1618798559114
1.16187985592918
1.16187985593497
1.16187985593681
1.16187985593751
1.16187985593806
1.16187985593863
1.16187985593928
1.16187985593998
1.16187985594071
1.16187985594146
1.16187985594224
1.16187985594302
1.1618798559438
1.16187985594456
1.16187985594529
1.16187985594601
1.16187985594671
1.16187985594739
1.16187985594804
1.16187985594869
1.16187985594933
1.16187985594996
1.1618798559506
1.16187985595121
1.16187985595182
1.16187985595245
1.1618798559531
1.1618798559538
1.16187985595449
1.16187985595504
1.16187985595446
1.16187985595009
1.1618798559342
1.16187985588445
1.16187985573839
1.1618798553157
1.16187985406333
1.16187985024902
1.16187983864685
1.16187980524115
1.16187968858291
1.16187989044018
1.16187991827597
1.16187992699521
1.16187993022769
1.16187993135367
1.16187993173306
1.16187993186002
1.16187993190302
1.16187993191769
1.16187993192274
1.16187993192462
1.16187993192551
1.16187993192614
1.16187993192678
1.16187993192747
1.1618799319282
1.16187993192896
1.16187993192974
1.16187993193053
1.16187993193132
1.16187993193211
1.16187993193288
1.16187993193364
1.16187993193437
1.16187993193508
1.16187993193576
1.16187993193642
1.16187993193706
1.16187993193767
1.16187993193827
1.16187993193885
1.16187993193942
1.16187993193998
1.16187993194053
1.16187993194108
1.16187993194165
1.16187993194223
1.16187993194283
1.1618799319434
1.16187993194369
1.16187993194299
1.16187993193918
1.16187993192624
1.16187993188741
1.16187993177441
1.16187993143859
1.16187993040995
1.1618799272379
1.16187991783118
1.16187988368163
1.16187992073897
1.16187992846805
1.1618799308491
1.16187993171418
1.16187993201328
1.16187993211376
1.16187993214729
1.16187993215868
1.16187993216269
1.16187993216426
1.16187993216508
1.1618799321657
1.16187993216632
1.16187993216699
1.1618799321677
1.16187993216845
1.16187993216922
1.16187993217001
1.16187993217079
1.16187993217157
1.16187993217235
1.1618799321731
1.16187993217384
1.16187993217455
1.16187993217523
1.16187993217589
1.16187993217652
1.16187993217713
1.16187993217771
1.16187993217827
1.16187993217881
1.16187993217933
1.16187993217984
1.16187993218035
1.16187993218085
1.16187993218136
1.16187993218187
1.16187993218241
1.16187993218295
1.16187993218345
1.16187993218373
1.16187993218322
1.16187993218036
1.16187993217079
1.16187993214196
1.16187993205518
1.16187993178703
1.16187993094788
1.16187992838564
1.16187991877247
1.16187990938689
1.16187991145939
1.16187991209076
1.16187991231573
1.16187991239284
1.16187991241862
1.16187991242722
1.16187991243021
1.1618799124314
1.16187991243206
1.16187991243261
1.16187991243317
1.16187991243379
1.16187991243446
1.16187991243517
1.16187991243591
1.16187991243668
1.16187991243745
1.16187991243822
1.16187991243898
1.16187991243973
1.16187991244046
1.16187991244117
1.16187991244185
1.16187991244251
1.16187991244314
1.16187991244374
1.16187991244431
1.16187991244486
1.16187991244538
1.16187991244588
1.16187991244637
1.16187991244684
1.1618799124473
1.16187991244775
1.16187991244821
1.16187991244867
1.16187991244916
1.16187991244966
1.16187991245017
1.16187991245067
1.161879912451
1.16187991245078
1.1618799124489
1.1618799124422
1.16187991242088
1.16187991235343
1.16187991213825
1.16187991146143
1.16187990884924
1.16187988682781
1.16187988736606
1.16187988752895
1.16187988758587
1.16187988760514
1.16187988761152
1.16187988761368
1.16187988761453
1.16187988761501
1.16187988761546
1.16187988761594
1.16187988761649
1.16187988761711
1.16187988761778
1.16187988761848
1.16187988761922
1.16187988761996
1.16187988762072
1.16187988762147
1.16187988762221
1.16187988762293
1.16187988762364
1.16187988762432
1.16187988762497
1.1618798876256
1.16187988762619
1.16187988762676
1.1618798876273
1.16187988762781
1.16187988762829
1.16187988762876
1.1618798876292
1.16187988762963
1.16187988763004
1.16187988763045
1.16187988763086
1.16187988763128
1.16187988763171
1.16187988763216
1.16187988763264
1.16187988763314
1.16187988763364
1.16187988763405
1.16187988763409
1.16187988763299
1.16187988762832
1.1618798876122
1.16187988755881
1.16187988738518
1.16187988669803
1.1618798613471
1.16187986148271
1.16187986152367
1.16187986153767
1.16187986154231
1.16187986154383
1.1618798615444
1.16187986154474
1.16187986154508
1.16187986154548
1.16187986154597
1.16187986154652
1.16187986154714
1.1618798615478
1.1618798615485
1.16187986154922
1.16187986154995
1.16187986155068
1.16187986155141
1.16187986155213
1.16187986155283
1.1618798615535
1.16187986155415
1.16187986155477
1.16187986155536
1.16187986155593
1.16187986155646
1.16187986155696
1.16187986155743
1.16187986155788
1.1618798615583
1.16187986155871
1.16187986155909
1.16187986155946
1.16187986155983
1.16187986156019
1.16187986156056
1.16187986156093
1.16187986156133
1.16187986156175
1.16187986156221
1.1618798615627
1.16187986156321
1.16187986156367
1.1618798615639
1.16187986156329
1.16187986155988
1.16187986154722
1.16187986150401
1.1618798613288
1.16187983512639
1.16187983515946
1.16187983516954
1.1618798351729
1.16187983517397
1.16187983517434
1.16187983517456
1.16187983517481
1.16187983517514
1.16187983517556
1.16187983517605
1.16187983517661
1.16187983517723
1.16187983517789
1.16187983517857
1.16187983517928
1.16187983517999
1.16187983518071
1.16187983518141
1.1618798351821
1.16187983518277
1.16187983518342
1.16187983518404
1.16187983518463
1.16187983518519
1.16187983518571
1.16187983518621
1.16187983518667
1.16187983518711
1.16187983518751
1.1618798351879
1.16187983518826
1.1618798351886
1.16187983518893
1.16187983518924
1.16187983518956
1.16187983518987
1.16187983519019
1.16187983519053
1.1618798351909
1.16187983519129
1.16187983519173
1.1618798351922
1.1618798351927
1.16187983519318
1.16187983519348
1.16187983519307
1.16187983519036
1.16187983518002
1.16187983513686
1.16187980872319
1.16187980873088
1.16187980873336
1.16187980873419
1.16187980873446
1.1618798087346
1.16187980873478
1.16187980873505
1.1618798087354
1.16187980873584
1.16187980873635
1.16187980873691
1.16187980873753
1.16187980873818
1.16187980873886
1.16187980873955
1.16187980874025
1.16187980874094
1.16187980874162
1.16187980874229
1.16187980874293
1.16187980874355
1.16187980874413
1.16187980874469
1.16187980874521
1.1618798087457
1.16187980874616
1.16187980874659
1.16187980874698
1.16187980874735
1.16187980874769
1.16187980874801
1.1618798087483
1.16187980874859
1.16187980874885
1.16187980874912
1.16187980874938
1.16187980874964
1.16187980874993
1.16187980875023
1.16187980875056
1.16187980875092
1.16187980875133
1.16187980875177
1.16187980875224
1.16187980875267
1.16187980875291
1.16187980875251
1.1618798087502
1.16187980874016
1.16187978227616
1.16187978227774
1.16187978227843
1.16187978227872
1.16187978227885
1.16187978227899
1.16187978227921
1.16187978227951
1.1618797822799
1.16187978228036
1.16187978228088
1.16187978228146
1.16187978228207
1.16187978228272
1.16187978228339
1.16187978228407
1.16187978228474
1.16187978228541
1.16187978228607
1.16187978228671
1.16187978228732
1.16187978228791
1.16187978228846
1.16187978228898
1.16187978228947
1.16187978228993
1.16187978229035
1.16187978229074
1.16187978229109
1.16187978229142
1.16187978229171
1.16187978229199
1.16187978229224
1.16187978229247
1.16187978229269
1.1618797822929
1.16187978229311
1.16187978229332
1.16187978229354
1.16187978229377
1.16187978229404
1.16187978229433
1.16187978229466
1.16187978229502
1.16187978229541
1.16187978229581
1.16187978229612
1.16187978229618
1.16187978229576
1.16187978229378
1.1618797558189
1.16187975581907
1.16187975581939
1.1618797558196
1.16187975581976
1.16187975581994
1.16187975582021
1.16187975582056
1.16187975582098
1.16187975582146
1.161879755822
1.16187975582259
1.16187975582321
1.16187975582385
1.16187975582451
1.16187975582517
1.16187975582583
1.16187975582648
1.16187975582711
1.16187975582772
1.1618797558283
1.16187975582886
1.16187975582938
1.16187975582987
1.16187975583032
1.16187975583074
1.16187975583112
1.16187975583147
1.16187975583178
1.16187975583206
1.16187975583232
1.16187975583254
1.16187975583275
1.16187975583293
1.1618797558331
1.16187975583326
1.16187975583341
1.16187975583357
1.16187975583372
1.1618797558339
1.16187975583409
1.1618797558343
1.16187975583455
1.16187975583483
1.16187975583513
1.16187975583545
1.16187975583571
1.16187975583581
1.16187975583577
1.16187975583568
1.16187972935937
1.16187972935925
1.16187972935952
1.16187972935977
1.16187972935998
1.16187972936022
1.16187972936054
1.16187972936094
1.16187972936139
1.1618797293619
1.16187972936246
1.16187972936305
1.16187972936367
1.16187972936431
1.16187972936495
1.1618797293656
1.16187972936624
1.16187972936687
1.16187972936747
1.16187972936806
1.16187972936861
1.16187972936913
1.16187972936962
1.16187972937008
1.16187972937049
1.16187972937087
1.16187972937122
1.16187972937152
1.1618797293718
1.16187972937204
1.16187972937225
1.16187972937243
1.16187972937258
1.16187972937272
1.16187972937284
1.16187972937294
1.16187972937304
1.16187972937313
1.16187972937323
1.16187972937333
1.16187972937346
1.1618797293736
1.16187972937376
1.16187972937395
1.16187972937417
1.16187972937439
1.16187972937457
1.16187972937461
1.16187972937461
1.16187972937492
1.16187970289939
1.16187970289923
1.16187970289954
1.16187970289985
1.16187970290012
1.16187970290042
1.16187970290079
1.16187970290123
1.16187970290171
1.16187970290225
1.16187970290282
1.16187970290342
1.16187970290404
1.16187970290468
1.16187970290531
1.16187970290595
1.16187970290657
1.16187970290717
1.16187970290775
1.16187970290831
1.16187970290883
1.16187970290933
1.16187970290978
1.1618797029102
1.16187970291058
1.16187970291092
1.16187970291122
1.16187970291149
1.16187970291172
1.16187970291192
1.16187970291208
1.16187970291222
1.16187970291233
1.16187970291242
1.16187970291248
1.16187970291253
1.16187970291257
1.16187970291261
1.16187970291264
1.16187970291268
1.16187970291273
1.16187970291279
1.16187970291288
1.16187970291298
1.16187970291311
1.16187970291324
1.16187970291333
1.16187970291329
1.16187970291324
1.16187970291361
1.16187967643936
1.16187967643922
1.16187967643958
1.16187967643995
1.16187967644028
1.16187967644064
1.16187967644106
1.16187967644154
1.16187967644206
1.16187967644262
1.16187967644321
1.16187967644382
1.16187967644444
1.16187967644507
1.16187967644569
1.16187967644631
1.16187967644691
1.1618796764475
1.16187967644805
1.16187967644858
1.16187967644908
1.16187967644954
1.16187967644996
1.16187967645034
1.16187967645068
1.16187967645099
1.16187967645125
1.16187967645148
1.16187967645167
1.16187967645182
1.16187967645194
1.16187967645203
1.16187967645209
1.16187967645213
1.16187967645214
1.16187967645214
1.16187967645212
1.16187967645209
1.16187967645206
1.16187967645204
1.16187967645201
1.161879676452
1.161879676452
1.16187967645202
1.16187967645206
1.1618796764521
1.16187967645211
1.16187967645198
1.16187967645187
1.16187967645222
1.16187964997933
1.16187964997923
1.16187964997964
1.16187964998008
1.16187964998046
1.16187964998088
1.16187964998135
1.16187964998187
1.16187964998243
1.16187964998301
1.16187964998361
1.16187964998423
1.16187964998486
1.16187964998548
1.1618796499861
1.1618796499867
1.16187964998729
1.16187964998785
1.16187964998838
1.16187964998888
1.16187964998934
1.16187964998977
1.16187964999016
1.16187964999051
1.16187964999081
1.16187964999108
1.1618796499913
1.16187964999149
1.16187964999164
1.16187964999175
1.16187964999182
1.16187964999186
1.16187964999188
1.16187964999186
1.16187964999182
1.16187964999177
1.16187964999169
1.16187964999161
1.16187964999151
1.16187964999142
1.16187964999132
1.16187964999123
1.16187964999115
1.16187964999109
1.16187964999104
1.16187964999099
1.16187964999091
1.1618796499907
1.16187964999052
1.16187964999083
1.16187962351932
1.16187962351925
1.16187962351971
1.16187962352021
1.16187962352066
1.16187962352113
1.16187962352165
1.16187962352221
1.1618796235228
1.16187962352341
1.16187962352403
1.16187962352465
1.16187962352528
1.1618796235259
1.16187962352651
1.1618796235271
1.16187962352766
1.1618796235282
1.16187962352871
1.16187962352918
1.16187962352962
1.16187962353001
1.16187962353037
1.16187962353068
1.16187962353095
1.16187962353118
1.16187962353136
1.16187962353151
1.16187962353161
1.16187962353168
1.16187962353171
1.16187962353171
1.16187962353167
1.16187962353161
1.16187962353152
1.1618796235314
1.16187962353127
1.16187962353113
1.16187962353097
1.1618796235308
1.16187962353064
1.16187962353047
1.16187962353031
1.16187962353016
1.16187962353002
1.16187962352989
1.16187962352972
1.16187962352943
1.16187962352919
1.16187962352945
1.16187959705929
1.16187959705926
1.16187959705978
1.16187959706034
1.16187959706084
1.16187959706136
1.16187959706193
1.16187959706253
1.16187959706315
1.16187959706378
1.16187959706442
1.16187959706506
1.16187959706569
1.1618795970663
1.1618795970669
1.16187959706748
1.16187959706802
1.16187959706854
1.16187959706902
1.16187959706947
1.16187959706988
1.16187959707024
1.16187959707056
1.16187959707084
1.16187959707107
1.16187959707126
1.16187959707141
1.16187959707152
1.16187959707158
1.1618795970716
1.16187959707159
1.16187959707154
1.16187959707145
1.16187959707134
1.1618795970712
1.16187959707103
1.16187959707084
1.16187959707064
1.16187959707042
1.16187959707018
1.16187959706995
1.16187959706971
1.16187959706946
1.16187959706923
1.161879597069
1.16187959706878
1.16187959706853
1.16187959706816
1.16187959706785
1.16187959706806
1.16187957059922
1.16187957059923
1.1618795705998
1.16187957060042
1.16187957060098
1.16187957060156
1.16187957060218
1.16187957060282
1.16187957060347
1.16187957060413
1.16187957060478
1.16187957060542
1.16187957060605
1.16187957060667
1.16187957060726
1.16187957060782
1.16187957060835
1.16187957060885
1.16187957060931
1.16187957060972
1.1618795706101
1.16187957061044
1.16187957061072
1.16187957061097
1.16187957061117
1.16187957061132
1.16187957061143
1.16187957061149
1.16187957061151
1.16187957061149
1.16187957061144
1.16187957061134
1.16187957061121
1.16187957061104
1.16187957061085
1.16187957061063
1.16187957061039
1.16187957061012
1.16187957060984
1.16187957060954
1.16187957060923
1.16187957060891
1.16187957060859
1.16187957060827
1.16187957060796
1.16187957060765
1.16187957060731
1.16187957060686
1.16187957060648
1.16187957060665
1.1618795441391
1.16187954413914
1.16187954413977
1.16187954414045
1.16187954414106
1.1618795441417
1.16187954414236
1.16187954414304
1.16187954414373
1.16187954414441
1.16187954414508
1.16187954414573
1.16187954414636
1.16187954414697
1.16187954414755
1.1618795441481
1.16187954414862
1.16187954414909
1.16187954414953
1.16187954414992
1.16187954415027
1.16187954415058
1.16187954415083
1.16187954415104
1.16187954415121
1.16187954415132
1.16187954415139
1.16187954415142
1.1618795441514
1.16187954415134
1.16187954415123
1.16187954415109
1.16187954415091
1.1618795441507
1.16187954415046
1.16187954415018
1.16187954414988
1.16187954414956
1.16187954414921
1.16187954414885
1.16187954414847
1.16187954414807
1.16187954414767
1.16187954414727
1.16187954414687
1.16187954414647
1.16187954414605
1.16187954414552
1.16187954414507
1.1618795441452
1.16187951767888
1.16187951767897
1.16187951767965
1.1618795176804
1.16187951768107
1.16187951768175
1.16187951768247
1.16187951768318
1.1618795176839
1.1618795176846
1.16187951768529
1.16187951768596
1.16187951768659
1.1618795176872
1.16187951768777
1.16187951768831
1.16187951768881
1.16187951768926
1.16187951768968
1.16187951769005
1.16187951769037
1.16187951769064
1.16187951769087
1.16187951769104
1.16187951769117
1.16187951769125
1.16187951769129
1.16187951769127
1.16187951769121
1.16187951769111
1.16187951769096
1.16187951769078
1.16187951769055
1.16187951769029
1.16187951769
1.16187951768967
1.16187951768931
1.16187951768893
1.16187951768852
1.16187951768809
1.16187951768764
1.16187951768718
1.1618795176867
1.16187951768621
1.16187951768573
1.16187951768524
1.16187951768474
1.16187951768412
1.1618795176836
1.16187951768368
1.16187949121856
1.16187949121869
1.16187949121943
1.16187949122024
1.16187949122097
1.16187949122171
1.16187949122247
1.16187949122322
1.16187949122397
1.1618794912247
1.16187949122541
1.16187949122608
1.16187949122672
1.16187949122732
1.16187949122789
1.16187949122842
1.1618794912289
1.16187949122934
1.16187949122973
1.16187949123007
1.16187949123037
1.16187949123061
1.16187949123081
1.16187949123095
1.16187949123105
1.16187949123109
1.16187949123109
1.16187949123104
1.16187949123094
1.16187949123079
1.16187949123061
1.16187949123038
1.16187949123011
1.1618794912298
1.16187949122945
1.16187949122908
1.16187949122866
1.16187949122822
1.16187949122776
1.16187949122726
1.16187949122674
1.1618794912262
1.16187949122564
1.16187949122508
1.16187949122451
1.16187949122393
1.16187949122335
1.16187949122264
1.16187949122206
1.16187949122209
1.1618794647581
1.16187946475827
1.16187946475908
1.16187946475996
1.16187946476074
1.16187946476154
1.16187946476234
1.16187946476314
1.16187946476392
1.16187946476468
1.1618794647654
1.16187946476608
1.16187946476672
1.16187946476733
1.16187946476789
1.1618794647684
1.16187946476887
1.16187946476929
1.16187946476966
1.16187946476998
1.16187946477025
1.16187946477047
1.16187946477063
1.16187946477075
1.16187946477081
1.16187946477082
1.16187946477078
1.16187946477069
1.16187946477055
1.16187946477037
1.16187946477014
1.16187946476987
1.16187946476955
1.1618794647692
1.16187946476881
1.16187946476838
1.16187946476791
1.16187946476742
1.16187946476689
1.16187946476633
1.16187946476574
1.16187946476513
1.1618794647645
1.16187946476385
1.16187946476319
1.16187946476253
1.16187946476186
1.16187946476107
1.16187946476041
1.16187946476039
1.16187943829749
1.16187943829771
1.16187943829857
1.16187943829953
1.16187943830037
1.16187943830122
1.16187943830208
1.16187943830291
1.16187943830373
1.16187943830451
1.16187943830525
1.16187943830594
1.16187943830659
1.16187943830719
1.16187943830774
1.16187943830825
1.1618794383087
1.1618794383091
1.16187943830945
1.16187943830975
1.16187943831
1.16187943831019
1.16187943831032
1.16187943831041
1.16187943831044
1.16187943831042
1.16187943831034
1.16187943831022
1.16187943831004
1.16187943830982
1.16187943830955
1.16187943830924
1.16187943830888
1.16187943830848
1.16187943830804
1.16187943830756
1.16187943830705
1.1618794383065
1.16187943830591
1.16187943830529
1.16187943830464
1.16187943830395
1.16187943830324
1.16187943830252
1.16187943830178
1.16187943830103
1.16187943830027
1.16187943829939
1.16187943829865
1.16187943829857
1.16187941183669
1.16187941183697
1.1618794118379
1.16187941183894
1.16187941183984
1.16187941184075
1.16187941184165
1.16187941184253
1.16187941184337
1.16187941184418
1.16187941184493
1.16187941184564
1.16187941184629
1.16187941184689
1.16187941184744
1.16187941184793
1.16187941184837
1.16187941184876
1.16187941184909
1.16187941184937
1.16187941184959
1.16187941184975
1.16187941184986
1.16187941184992
1.16187941184992
1.16187941184986
1.16187941184976
1.1618794118496
1.16187941184939
1.16187941184913
1.16187941184882
1.16187941184847
1.16187941184807
1.16187941184762
1.16187941184714
1.16187941184661