/*--------------------------------*- C++ -*----------------------------------*\
  =========                 |
  \\      /  F ield         | OpenFOAM: The Open Source CFD Toolbox
   \\    /   O peration     | Website:  https://openfoam.org
    \\  /    A nd           | Version:  10
     \\/     M anipulation  |
\*---------------------------------------------------------------------------*/
FoamFile
{
    format      ascii;
    class       volScalarField;
    location    "3.2";
    object      T;
}
// * * * * * * * * * * * * * * * * * * * * * * * * * * * * * * * * * * * * * //

dimensions      [0 0 0 1 0 0 0];

internalField   nonuniform List<scalar> 
2500
(
305.116136316541
305.085938517787
305.061997524152
305.051578218969
305.047607276579
305.046153250409
305.045641826241
305.045470215531
305.045414862414
305.04539811492
305.045391764498
305.045389192238
305.045388002303
305.045386771478
305.045385658309
305.045384449577
305.045383811474
305.045383033197
305.045382150708
305.045381520923
305.045380937439
305.045380369427
305.045379876654
305.045379636157
305.04537938166
305.045379079499
305.045378977566
305.045378887092
305.045378820943
305.045378904022
305.045379015736
305.045379186341
305.045379543495
305.045380020411
305.04538047321
305.045380958288
305.045381532433
305.045382100795
305.045383452715
305.045385854187
305.045392308768
305.045412071571
305.045473458791
305.045657940479
305.046190130103
305.047655018226
305.051601536569
305.06200372664
305.086278855492
305.116006235995
303.385976302096
303.296572824511
303.230110146488
303.198732737564
303.18536704602
303.179943967926
303.177861961788
303.17711545679
303.176866480536
303.17678925642
303.176766151556
303.176759471946
303.176757613726
303.176756770212
303.176756201605
303.17675567138
303.176755369892
303.176755016875
303.17675460383
303.176754272247
303.176753904891
303.176753471431
303.176753068222
303.176752905428
303.176752787943
303.176752585397
303.176752536399
303.17675248892
303.176752349999
303.176752445465
303.176752492576
303.176752413006
303.176752809114
303.176753355872
303.17675360588
303.176753801207
303.176754160141
303.176754898604
303.176757427764
303.176765656415
303.176793358695
303.176883091765
303.177157692003
303.177947208019
303.180076628766
303.185495326337
303.198737108665
303.230084741447
303.297758929767
303.386711802475
301.952583455373
301.846505601748
301.771644222171
301.736247618156
301.721163348921
301.71503436628
301.712670435137
301.711816630555
301.711529657983
301.711439935062
301.711413358648
301.711405960943
301.71140420103
301.711403691159
301.711403486615
301.711403356465
301.711403293853
301.711403207427
301.711403072249
301.711402951431
301.711402775013
301.711402515522
301.71140224185
301.711402115047
301.711402064195
301.711401932235
301.711401927963
301.711401925929
301.711401813313
301.711401899788
301.711401899153
301.711401762163
301.71140208117
301.711402532864
301.711402537558
301.711402475094
301.711402728297
301.711403409856
301.711405946949
301.711414970819
301.711446042531
301.711547395872
301.71185767571
301.712748717626
301.7151491817
301.721263225373
301.73624165194
301.771756581424
301.848354840542
301.956312484803
300.99665481361
300.911012540997
300.857390826219
300.832781984695
300.822748017616
300.818830811483
300.817361011014
300.816838309479
300.816663878008
300.816609452997
300.816593321951
300.816588907108
300.816587976271
300.816587778586
300.816587768621
300.816587776102
300.816587793897
300.816587792757
300.816587767698
300.816587749341
300.816587695253
300.816587573853
300.816587415843
300.81658732434
300.816587306821
300.81658726559
300.816587271004
300.816587313568
300.816587296491
300.816587299792
300.816587297273
300.816587193679
300.816587345187
300.81658757138
300.816587565668
300.816587558268
300.81658756889
300.816587802528
300.816589189973
300.816594268962
300.816612087262
300.816671235346
300.816855093121
300.81739276463
300.818876738723
300.8227867685
300.832797518561
300.857645859164
300.912839701261
301.001855528133
300.457449965718
300.403089565921
300.372766151148
300.359223754502
300.353903025435
300.351896329949
300.351160603995
300.350901755865
300.350815534265
300.350788544023
300.350780481996
300.350778290914
300.350777900173
300.350777857645
300.350777879694
300.350777910545
300.350777942223
300.350777964425
300.350777971086
300.350777971338
300.35077796066
300.35077791911
300.350777843994
300.350777792878
300.35077779979
300.350777809558
300.350777814954
300.350777837203
300.350777829712
300.350777825043
300.350777823221
300.350777754936
300.35077782417
300.35077792002
300.35077791545
300.350777919524
300.35077791205
300.350777954059
300.350778529185
300.350780885156
300.350789290425
300.350817493385
300.350905957038
300.351167834807
300.351904476503
300.353902984478
300.359222558844
300.372962580682
300.404403812711
300.462029760834
300.191483980389
300.162459856632
300.147919641833
300.14157498877
300.139153224213
300.138265354336
300.137946027336
300.137834530891
300.137797348228
300.137785638692
300.137782105328
300.137781151637
300.137781008318
300.137781009166
300.137781030938
300.137781054145
300.137781077238
300.137781095478
300.137781105177
300.137781109752
300.137781110286
300.137781096503
300.137781067351
300.137781048479
300.137781055815
300.137781065362
300.137781069493
300.137781080794
300.1377810781
300.137781075419
300.137781074237
300.1377810398
300.137781066092
300.137781100492
300.13778109099
300.137781088314
300.137781084112
300.137781087694
300.13778129716
300.137782256287
300.137785760473
300.137797578286
300.13783478927
300.137945715285
300.138262162616
300.139141696856
300.141560188537
300.148015738566
300.16321359855
300.194562743094
300.073986370193
300.060423615649
300.054261199577
300.051626624768
300.050642825347
300.050290224132
300.050165430075
300.050122104838
300.050107617969
300.050103022173
300.050101622343
300.050101248125
300.050101200004
300.050101207357
300.050101220847
300.050101233762
300.050101246293
300.05010125637
300.050101262597
300.050101265707
300.05010126803
300.050101264152
300.050101253887
300.050101249588
300.050101253939
300.050101258096
300.050101260387
300.050101265278
300.050101264568
300.050101263464
300.050101262812
300.050101247872
300.050101256523
300.050101266986
300.050101263706
300.050101262638
300.050101256232
300.050101251221
300.050101319142
300.050101677018
300.050103014083
300.050107524335
300.050121721172
300.05016415489
300.050286397549
300.050632841975
300.051611148988
300.054294271583
300.060787847834
300.075702364416
300.026656887484
300.02096266482
300.018590041712
300.017595016286
300.017229564705
300.017100894248
300.017055964381
300.017040438125
300.01703523025
300.017033565451
300.017033054934
300.01703292013
300.017032904903
300.017032909945
300.017032916715
300.017032922825
300.017032928512
300.017032933077
300.017032936154
300.017032937699
300.017032939274
300.017032938413
300.017032935239
300.017032935245
300.017032937367
300.017032938659
300.017032939616
300.017032941416
300.01703294153
300.017032940841
300.017032940174
300.017032934654
300.01703293719
300.017032939739
300.017032938295
300.017032938023
300.017032934298
300.017032930653
300.017032950787
300.017033075184
300.017033551292
300.017035152259
300.017040174175
300.01705517305
300.017098645366
300.017223738729
300.017584631888
300.018597178978
300.021116309071
300.027487182751
300.00903228318
300.006844032198
300.005998019432
300.005649977596
300.005523764611
300.005479931735
300.005464797744
300.005459589318
300.005457837141
300.005457273027
300.005457099328
300.005457054099
300.005457049543
300.005457052
300.005457054958
300.005457057527
300.005457059809
300.005457061637
300.005457062959
300.005457063643
300.005457064352
300.005457064274
300.005457063542
300.005457063981
300.005457064799
300.00545706523
300.005457065574
300.005457066151
300.005457066263
300.005457065951
300.00545706563
300.0054570637
300.005457064334
300.005457064736
300.005457064045
300.005457063835
300.005457062113
300.005457060385
300.005457065907
300.005457107026
300.00545726723
300.00545780294
300.005459473971
300.005464448114
300.005478907935
300.005520993923
300.005644493067
300.00599782229
300.006901962373
300.009391391947
300.00289876858
300.0021183181
300.001835009085
300.001720752298
300.001679735019
300.001665636389
300.001660813961
300.001659160644
300.001658603141
300.001658422562
300.001658366859
300.001658352655
300.001658351361
300.001658352276
300.001658353435
300.001658354417
300.001658355255
300.001658355934
300.001658356453
300.001658356733
300.001658357002
300.001658357047
300.001658356953
300.001658357204
300.001658357472
300.001658357615
300.001658357731
300.001658357898
300.001658357935
300.001658357822
300.001658357695
300.001658357053
300.00165835717
300.001658357147
300.001658356845
300.001658356703
300.001658356018
300.001658355317
300.001658356768
300.001658369793
300.001658421134
300.001658591673
300.001659120007
300.001660684581
300.001665234631
300.001678584347
300.00171828121
300.001833827592
300.002138157424
300.003040434381
300.000886478733
300.000625380923
300.00053536328
300.00049980242
300.000487143852
300.00048282567
300.000481359829
300.000480859121
300.000480690017
300.000480634981
300.000480618001
300.000480613743
300.000480613389
300.000480613721
300.000480614138
300.000480614484
300.000480614771
300.000480615007
300.000480615196
300.000480615305
300.000480615398
300.000480615439
300.000480615457
300.000480615551
300.000480615627
300.000480615673
300.000480615711
300.000480615756
300.000480615763
300.000480615724
300.00048061568
300.000480615497
300.000480615486
300.000480615447
300.000480615346
300.000480615239
300.000480614993
300.000480614778
300.000480615157
300.00048061909
300.000480634845
300.00048068683
300.000480846702
300.000481317158
300.000482683082
300.000486710991
300.000498810401
300.000534582759
300.000631619088
300.000938209557
300.000259642629
300.000177015727
300.000149671863
300.000139096629
300.000135360344
300.000134092663
300.000133664909
300.000133519304
300.000133470092
300.000133454019
300.000133449064
300.000133447838
300.000133447744
300.000133447857
300.000133447995
300.000133448108
300.0001334482
300.000133448277
300.000133448341
300.000133448381
300.000133448412
300.000133448431
300.000133448446
300.000133448476
300.000133448498
300.000133448512
300.000133448524
300.000133448536
300.000133448536
300.000133448523
300.000133448508
300.000133448459
300.000133448445
300.000133448427
300.000133448388
300.000133448339
300.000133448257
300.000133448192
300.000133448292
300.000133449447
300.000133454097
300.000133469342
300.000133515884
300.000133651903
300.000134045566
300.00013520939
300.000138731967
300.000149298617
300.000178828522
300.000277324973
300.000073152202
300.00004824978
300.000040264402
300.000037241117
300.000036180469
300.00003582194
300.000035701507
300.000035660644
300.000035646832
300.00003564231
300.000035640916
300.000035640573
300.000035640548
300.000035640583
300.000035640625
300.000035640659
300.000035640687
300.00003564071
300.00003564073
300.000035640743
300.000035640753
300.000035640759
300.000035640765
300.000035640774
300.000035640779
300.000035640783
300.000035640787
300.00003564079
300.00003564079
300.000035640785
300.000035640781
300.000035640768
300.000035640762
300.000035640755
300.000035640742
300.000035640724
300.000035640699
300.00003564068
300.000035640709
300.000035641039
300.000035642364
300.000035646681
300.000035659767
300.000035697742
300.000035807177
300.000036130878
300.00003711608
300.000040112194
300.000048737935
300.000078859637
300.000019899933
300.00001271251
300.000010460987
300.000009626107
300.000009335212
300.000009237126
300.000009204282
300.000009193169
300.000009189413
300.000009188181
300.0000091878
300.000009187706
300.000009187698
300.000009187707
300.000009187718
300.000009187727
300.000009187734
300.00000918774
300.000009187745
300.000009187749
300.000009187751
300.000009187753
300.000009187754
300.000009187756
300.000009187757
300.000009187758
300.00000918776
300.00000918776
300.00000918776
300.000009187759
300.000009187758
300.000009187754
300.000009187752
300.00000918775
300.000009187747
300.000009187742
300.000009187735
300.00000918773
300.00000918774
300.000009187834
300.0000091882
300.000009189385
300.00000919295
300.000009203221
300.00000923267
300.000009319686
300.000009585591
300.000010404973
300.000012834083
300.000021651802
300.000005244162
300.000003248367
300.000002633416
300.00000240985
300.000002332484
300.00000230644
300.000002297735
300.000002294795
300.000002293801
300.000002293473
300.000002293371
300.000002293344
300.00000229334
300.000002293341
300.000002293342
300.000002293344
300.000002293344
300.000002293345
300.000002293346
300.000002293346
300.000002293346
300.000002293346
300.000002293346
300.000002293347
300.000002293347
300.000002293346
300.000002293347
300.000002293347
300.000002293347
300.000002293347
300.000002293346
300.000002293346
300.000002293346
300.000002293346
300.000002293345
300.000002293345
300.000002293344
300.000002293344
300.000002293348
300.000002293375
300.000002293475
300.000002293792
300.000002294736
300.000002297436
300.00000230513
300.000002327811
300.000002397324
300.000002614299
300.000003276116
300.000005758454
300.000001342824
300.000000807598
300.000000644448
300.000000586198
300.000000566178
300.000000559446
300.000000557196
300.000000556436
300.000000556178
300.000000556091
300.000000556062
300.000000556053
300.00000055605
300.000000556048
300.000000556047
300.000000556046
300.000000556046
300.000000556045
300.000000556044
300.000000556043
300.000000556043
300.000000556042
300.000000556042
300.000000556041
300.000000556041
300.000000556041
300.000000556041
300.000000556041
300.000000556041
300.000000556041
300.000000556041
300.000000556041
300.000000556042
300.000000556042
300.000000556043
300.000000556044
300.000000556044
300.000000556046
300.000000556049
300.000000556058
300.000000556085
300.00000055617
300.000000556415
300.000000557107
300.000000559065
300.000000564815
300.000000582476
300.0000006383
300.000000813267
300.000001487909
300.000000335236
300.000000196179
300.000000154017
300.000000139192
300.000000134133
300.000000132432
300.000000131862
300.000000131668
300.0000001316
300.000000131576
300.000000131566
300.000000131561
300.000000131559
300.000000131557
300.000000131555
300.000000131553
300.000000131552
300.00000013155
300.000000131549
300.000000131548
300.000000131547
300.000000131547
300.000000131546
300.000000131545
300.000000131545
300.000000131545
300.000000131544
300.000000131544
300.000000131544
300.000000131545
300.000000131545
300.000000131546
300.000000131546
300.000000131547
300.000000131548
300.000000131549
300.00000013155
300.000000131552
300.000000131555
300.000000131559
300.000000131568
300.000000131591
300.000000131655
300.00000013183
300.000000132318
300.000000133742
300.000000138121
300.000000152134
300.000000197149
300.00000037472
300.00000008209
300.000000047015
300.000000036358
300.000000032643
300.000000031384
300.000000030961
300.000000030818
300.000000030767
300.000000030747
300.000000030738
300.000000030734
300.00000003073
300.000000030728
300.000000030725
300.000000030723
300.000000030721
300.00000003072
300.000000030718
300.000000030717
300.000000030716
300.000000030715
300.000000030714
300.000000030713
300.000000030713
300.000000030712
300.000000030712
300.000000030712
300.000000030712
300.000000030712
300.000000030712
300.000000030712
300.000000030713
300.000000030714
300.000000030715
300.000000030716
300.000000030717
300.000000030719
300.00000003072
300.000000030723
300.000000030725
300.00000003073
300.000000030738
300.000000030756
300.000000030802
300.000000030923
300.00000003127
300.00000003234
300.000000035803
300.000000047119
300.000000092487
300.000000020076
300.000000011493
300.000000008829
300.000000007889
300.000000007573
300.000000007467
300.000000007429
300.000000007413
300.000000007406
300.000000007401
300.000000007397
300.000000007394
300.000000007392
300.000000007389
300.000000007387
300.000000007385
300.000000007383
300.000000007382
300.00000000738
300.000000007379
300.000000007378
300.000000007377
300.000000007377
300.000000007376
300.000000007376
300.000000007375
300.000000007375
300.000000007375
300.000000007375
300.000000007375
300.000000007376
300.000000007376
300.000000007377
300.000000007378
300.000000007379
300.000000007381
300.000000007382
300.000000007384
300.000000007386
300.000000007389
300.000000007392
300.000000007396
300.000000007403
300.000000007417
300.000000007448
300.000000007535
300.000000007801
300.000000008668
300.000000011475
300.000000022727
300.000000005233
300.000000003218
300.000000002534
300.000000002272
300.000000002185
300.000000002155
300.000000002143
300.000000002137
300.000000002132
300.000000002128
300.000000002125
300.000000002122
300.000000002119
300.000000002117
300.000000002114
300.000000002112
300.000000002111
300.000000002109
300.000000002108
300.000000002107
300.000000002106
300.000000002105
300.000000002104
300.000000002103
300.000000002103
300.000000002103
300.000000002102
300.000000002102
300.000000002103
300.000000002103
300.000000002103
300.000000002104
300.000000002104
300.000000002105
300.000000002107
300.000000002108
300.00000000211
300.000000002111
300.000000002114
300.000000002116
300.000000002119
300.000000002122
300.000000002126
300.000000002132
300.000000002143
300.000000002167
300.000000002242
300.000000002485
300.000000003197
300.000000005884
300.000000001755
300.000000001329
300.000000001124
300.000000001024
300.000000000992
300.000000000981
300.000000000975
300.000000000971
300.000000000967
300.000000000963
300.00000000096
300.000000000957
300.000000000954
300.000000000952
300.00000000095
300.000000000948
300.000000000946
300.000000000944
300.000000000943
300.000000000942
300.000000000941
300.00000000094
300.000000000939
300.000000000939
300.000000000938
300.000000000938
300.000000000938
300.000000000938
300.000000000938
300.000000000938
300.000000000938
300.000000000939
300.00000000094
300.000000000941
300.000000000942
300.000000000943
300.000000000945
300.000000000947
300.000000000949
300.000000000951
300.000000000954
300.000000000957
300.000000000961
300.000000000965
300.00000000097
300.00000000098
300.000000001011
300.000000001107
300.000000001313
300.000000001904
300.000000000955
300.000000000905
300.000000000815
300.000000000753
300.000000000733
300.000000000727
300.000000000723
300.000000000719
300.000000000715
300.000000000712
300.000000000708
300.000000000705
300.000000000703
300.0000000007
300.000000000698
300.000000000696
300.000000000694
300.000000000693
300.000000000691
300.00000000069
300.000000000689
300.000000000688
300.000000000687
300.000000000687
300.000000000686
300.000000000686
300.000000000686
300.000000000686
300.000000000686
300.000000000686
300.000000000686
300.000000000687
300.000000000688
300.000000000689
300.00000000069
300.000000000691
300.000000000693
300.000000000695
300.000000000697
300.0000000007
300.000000000702
300.000000000705
300.000000000708
300.000000000712
300.000000000716
300.000000000723
300.000000000743
300.000000000805
300.000000000893
300.000000000981
300.000000000775
300.000000000812
300.000000000748
300.000000000695
300.000000000678
300.000000000673
300.000000000669
300.000000000666
300.000000000662
300.000000000658
300.000000000655
300.000000000652
300.00000000065
300.000000000647
300.000000000645
300.000000000643
300.000000000641
300.000000000639
300.000000000638
300.000000000637
300.000000000636
300.000000000635
300.000000000634
300.000000000634
300.000000000633
300.000000000633
300.000000000632
300.000000000632
300.000000000633
300.000000000633
300.000000000633
300.000000000634
300.000000000635
300.000000000636
300.000000000637
300.000000000638
300.00000000064
300.000000000642
300.000000000644
300.000000000646
300.000000000649
300.000000000652
300.000000000655
300.000000000659
300.000000000662
300.000000000668
300.000000000686
300.00000000074
300.0000000008
300.000000000771
300.000000000735
300.000000000791
300.000000000733
300.000000000683
300.000000000667
300.000000000662
300.000000000658
300.000000000655
300.000000000651
300.000000000648
300.000000000644
300.000000000641
300.000000000639
300.000000000636
300.000000000634
300.000000000632
300.00000000063
300.000000000629
300.000000000627
300.000000000626
300.000000000625
300.000000000624
300.000000000623
300.000000000623
300.000000000622
300.000000000622
300.000000000622
300.000000000622
300.000000000622
300.000000000622
300.000000000622
300.000000000623
300.000000000624
300.000000000625
300.000000000626
300.000000000627
300.000000000629
300.000000000631
300.000000000633
300.000000000635
300.000000000638
300.000000000641
300.000000000644
300.000000000648
300.000000000651
300.000000000656
300.000000000674
300.000000000727
300.00000000078
300.000000000724
300.000000000726
300.000000000787
300.00000000073
300.00000000068
300.000000000665
300.00000000066
300.000000000656
300.000000000652
300.000000000649
300.000000000645
300.000000000642
300.000000000639
300.000000000637
300.000000000634
300.000000000632
300.00000000063
300.000000000628
300.000000000626
300.000000000625
300.000000000624
300.000000000623
300.000000000622
300.000000000621
300.00000000062
300.00000000062
300.00000000062
300.000000000619
300.000000000619
300.00000000062
300.00000000062
300.00000000062
300.000000000621
300.000000000622
300.000000000623
300.000000000624
300.000000000625
300.000000000627
300.000000000629
300.000000000631
300.000000000633
300.000000000636
300.000000000639
300.000000000642
300.000000000645
300.000000000649
300.000000000654
300.000000000672
300.000000000724
300.000000000776
300.000000000714
300.000000000724
300.000000000786
300.00000000073
300.00000000068
300.000000000664
300.000000000659
300.000000000656
300.000000000652
300.000000000648
300.000000000645
300.000000000642
300.000000000639
300.000000000636
300.000000000634
300.000000000631
300.000000000629
300.000000000628
300.000000000626
300.000000000625
300.000000000623
300.000000000622
300.000000000621
300.000000000621
300.00000000062
300.00000000062
300.000000000619
300.000000000619
300.000000000619
300.000000000619
300.000000000619
300.00000000062
300.00000000062
300.000000000621
300.000000000622
300.000000000623
300.000000000625
300.000000000626
300.000000000628
300.00000000063
300.000000000633
300.000000000636
300.000000000639
300.000000000642
300.000000000645
300.000000000648
300.000000000654
300.000000000671
300.000000000723
300.000000000775
300.000000000712
300.000000000724
300.000000000786
300.00000000073
300.00000000068
300.000000000664
300.000000000659
300.000000000655
300.000000000652
300.000000000648
300.000000000645
300.000000000641
300.000000000638
300.000000000636
300.000000000633
300.000000000631
300.000000000629
300.000000000627
300.000000000626
300.000000000624
300.000000000623
300.000000000622
300.000000000621
300.00000000062
300.00000000062
300.000000000619
300.000000000619
300.000000000619
300.000000000619
300.000000000619
300.000000000619
300.00000000062
300.00000000062
300.000000000621
300.000000000622
300.000000000623
300.000000000625
300.000000000626
300.000000000628
300.00000000063
300.000000000633
300.000000000635
300.000000000638
300.000000000641
300.000000000645
300.000000000648
300.000000000654
300.000000000671
300.000000000723
300.000000000775
300.000000000712
300.000000000724
300.000000000786
300.00000000073
300.00000000068
300.000000000664
300.000000000659
300.000000000655
300.000000000651
300.000000000648
300.000000000644
300.000000000641
300.000000000638
300.000000000635
300.000000000633
300.000000000631
300.000000000629
300.000000000627
300.000000000625
300.000000000624
300.000000000623
300.000000000622
300.000000000621
300.00000000062
300.00000000062
300.000000000619
300.000000000619
300.000000000619
300.000000000619
300.000000000619
300.000000000619
300.000000000619
300.00000000062
300.000000000621
300.000000000622
300.000000000623
300.000000000624
300.000000000626
300.000000000628
300.00000000063
300.000000000632
300.000000000635
300.000000000638
300.000000000641
300.000000000645
300.000000000648
300.000000000654
300.000000000671
300.000000000724
300.000000000776
300.000000000712
300.000000000725
300.000000000787
300.00000000073
300.00000000068
300.000000000664
300.000000000659
300.000000000655
300.000000000651
300.000000000647
300.000000000644
300.000000000641
300.000000000638
300.000000000635
300.000000000632
300.00000000063
300.000000000628
300.000000000627
300.000000000625
300.000000000624
300.000000000622
300.000000000621
300.000000000621
300.00000000062
300.000000000619
300.000000000619
300.000000000618
300.000000000618
300.000000000618
300.000000000618
300.000000000619
300.000000000619
300.00000000062
300.00000000062
300.000000000621
300.000000000623
300.000000000624
300.000000000626
300.000000000628
300.00000000063
300.000000000632
300.000000000635
300.000000000638
300.000000000641
300.000000000644
300.000000000648
300.000000000654
300.000000000672
300.000000000724
300.000000000777
300.000000000713
300.000000000725
300.000000000788
300.00000000073
300.00000000068
300.000000000664
300.000000000658
300.000000000654
300.00000000065
300.000000000647
300.000000000643
300.00000000064
300.000000000637
300.000000000634
300.000000000632
300.00000000063
300.000000000628
300.000000000626
300.000000000624
300.000000000623
300.000000000622
300.000000000621
300.00000000062
300.000000000619
300.000000000619
300.000000000618
300.000000000618
300.000000000618
300.000000000618
300.000000000618
300.000000000618
300.000000000619
300.000000000619
300.00000000062
300.000000000621
300.000000000622
300.000000000624
300.000000000625
300.000000000627
300.000000000629
300.000000000632
300.000000000634
300.000000000637
300.000000000641
300.000000000644
300.000000000648
300.000000000654
300.000000000672
300.000000000725
300.000000000778
300.000000000714
300.000000000727
300.000000000789
300.000000000731
300.00000000068
300.000000000663
300.000000000658
300.000000000654
300.00000000065
300.000000000646
300.000000000642
300.000000000639
300.000000000636
300.000000000633
300.000000000631
300.000000000629
300.000000000627
300.000000000625
300.000000000624
300.000000000622
300.000000000621
300.00000000062
300.000000000619
300.000000000619
300.000000000618
300.000000000618
300.000000000617
300.000000000617
300.000000000617
300.000000000617
300.000000000618
300.000000000618
300.000000000619
300.000000000619
300.00000000062
300.000000000622
300.000000000623
300.000000000625
300.000000000626
300.000000000629
300.000000000631
300.000000000634
300.000000000637
300.00000000064
300.000000000644
300.000000000648
300.000000000654
300.000000000672
300.000000000726
300.000000000779
300.000000000715
300.000000000728
300.00000000079
300.000000000731
300.00000000068
300.000000000663
300.000000000657
300.000000000653
300.000000000649
300.000000000645
300.000000000641
300.000000000638
300.000000000635
300.000000000632
300.00000000063
300.000000000628
300.000000000626
300.000000000624
300.000000000623
300.000000000622
300.000000000621
300.00000000062
300.000000000619
300.000000000618
300.000000000618
300.000000000617
300.000000000617
300.000000000617
300.000000000617
300.000000000617
300.000000000617
300.000000000617
300.000000000618
300.000000000619
300.00000000062
300.000000000621
300.000000000622
300.000000000624
300.000000000626
300.000000000628
300.00000000063
300.000000000633
300.000000000636
300.00000000064
300.000000000643
300.000000000648
300.000000000654
300.000000000673
300.000000000726
300.000000000781
300.000000000717
300.00000000073
300.000000000792
300.000000000732
300.00000000068
300.000000000663
300.000000000657
300.000000000652
300.000000000648
300.000000000644
300.00000000064
300.000000000637
300.000000000634
300.000000000631
300.000000000629
300.000000000627
300.000000000625
300.000000000623
300.000000000622
300.000000000621
300.00000000062
300.000000000619
300.000000000618
300.000000000617
300.000000000617
300.000000000616
300.000000000616
300.000000000616
300.000000000616
300.000000000616
300.000000000616
300.000000000617
300.000000000617
300.000000000618
300.000000000619
300.00000000062
300.000000000621
300.000000000623
300.000000000625
300.000000000627
300.000000000629
300.000000000632
300.000000000635
300.000000000639
300.000000000643
300.000000000647
300.000000000654
300.000000000673
300.000000000728
300.000000000783
300.000000000719
300.000000000732
300.000000000794
300.000000000733
300.00000000068
300.000000000663
300.000000000656
300.000000000651
300.000000000647
300.000000000643
300.000000000639
300.000000000636
300.000000000633
300.00000000063
300.000000000628
300.000000000626
300.000000000624
300.000000000622
300.000000000621
300.00000000062
300.000000000619
300.000000000618
300.000000000617
300.000000000616
300.000000000616
300.000000000616
300.000000000615
300.000000000615
300.000000000615
300.000000000615
300.000000000615
300.000000000616
300.000000000616
300.000000000617
300.000000000618
300.000000000619
300.00000000062
300.000000000622
300.000000000624
300.000000000626
300.000000000628
300.000000000631
300.000000000634
300.000000000638
300.000000000642
300.000000000647
300.000000000654
300.000000000674
300.000000000729
300.000000000785
300.000000000722
300.000000000735
300.000000000796
300.000000000734
300.00000000068
300.000000000662
300.000000000655
300.00000000065
300.000000000645
300.000000000641
300.000000000637
300.000000000634
300.000000000631
300.000000000629
300.000000000626
300.000000000624
300.000000000623
300.000000000621
300.00000000062
300.000000000619
300.000000000618
300.000000000617
300.000000000616
300.000000000615
300.000000000615
300.000000000615
300.000000000614
300.000000000614
300.000000000614
300.000000000614
300.000000000615
300.000000000615
300.000000000615
300.000000000616
300.000000000617
300.000000000618
300.000000000619
300.000000000621