/*--------------------------------*- C++ -*----------------------------------*\
  =========                 |
  \\      /  F ield         | OpenFOAM: The Open Source CFD Toolbox
   \\    /   O peration     | Website:  https://openfoam.org
    \\  /    A nd           | Version:  10
     \\/     M anipulation  |
\*---------------------------------------------------------------------------*/
FoamFile
{
    format      ascii;
    class       volVectorField;
    location    "3.2";
    object      U;
}
// * * * * * * * * * * * * * * * * * * * * * * * * * * * * * * * * * * * * * //

dimensions      [0 1 -1 0 0 0 0];

internalField   nonuniform List<vector> 
2500
(
(-1.64035086761622e-06 -1.11959315556224e-05 1.05554177107304e-24)
(-3.89509728243775e-06 -1.35287781598006e-05 1.12472039022678e-23)
(-2.72912444694518e-06 -1.39682942028268e-05 1.23064970122674e-24)
(-1.83561868017965e-06 -1.39653610433756e-05 4.57604823249776e-25)
(-1.15521086293045e-06 -1.38668493892496e-05 3.11182592466768e-24)
(-7.27522638574004e-07 -1.37853801174143e-05 7.6595975982771e-25)
(-4.81249892653021e-07 -1.37401540841644e-05 2.94412795281042e-25)
(-3.23077337340772e-07 -1.37172141682955e-05 3.92765833010737e-25)
(-2.17372507215201e-07 -1.37069418148373e-05 1.36586834055796e-24)
(-1.4217230599506e-07 -1.3702649354809e-05 1.13444199693017e-23)
(-8.43514334972426e-08 -1.37008166797291e-05 1.54316220360423e-24)
(-3.80680504694385e-08 -1.37000270307932e-05 1.21770204458082e-23)
(3.38706718708071e-10 -1.36996621123484e-05 1.1628960864888e-23)
(3.29568437699882e-08 -1.3699495424985e-05 1.27232639660472e-24)
(6.10754586721122e-08 -1.36994290364877e-05 1.05442251186286e-23)
(8.55424726297403e-08 -1.3699415698725e-05 1.45996477139689e-24)
(1.06938585657948e-07 -1.36994492763124e-05 1.12073643787456e-23)
(1.25673495383574e-07 -1.36995088927684e-05 1.38853808213706e-23)
(1.42060997021457e-07 -1.369959098079e-05 2.07989634952221e-24)
(1.56344718692052e-07 -1.36996896520411e-05 1.13483126718837e-23)
(1.68733943810735e-07 -1.36998012083057e-05 1.40851672098429e-24)
(1.79405138723936e-07 -1.36999306540216e-05 1.11953849262011e-24)
(1.88525130828625e-07 -1.37000640678617e-05 1.11369529376569e-23)
(1.96249998807164e-07 -1.37001976217669e-05 8.62013496610262e-25)
(2.02728925811884e-07 -1.37003343147258e-05 1.05426627922185e-24)
(2.08126594202717e-07 -1.37004715434188e-05 1.02365329015767e-23)
(2.12612381123808e-07 -1.37006047503099e-05 8.50375966797547e-25)
(2.16356804764101e-07 -1.37007434683738e-05 6.55315220333894e-28)
(2.19551307352976e-07 -1.37008752445614e-05 9.06848802926334e-24)
(2.2239946421925e-07 -1.37010050180692e-05 4.91496683735288e-25)
(2.25120004655739e-07 -1.37011289398949e-05 -4.45788671618422e-25)
(2.27980778664099e-07 -1.37012561756605e-05 -4.69632238085164e-25)
(2.31266286801753e-07 -1.37013829138972e-05 -4.34125207429481e-25)
(2.35308885307069e-07 -1.37015095256552e-05 -3.5723927183973e-25)
(2.40532388766556e-07 -1.37016562052342e-05 5.19377730182555e-25)
(2.47467458861782e-07 -1.370182303501e-05 9.35460181978635e-24)
(2.56814805986971e-07 -1.37020383752903e-05 -9.34115878132894e-24)
(2.69543842139021e-07 -1.37023492988984e-05 -7.88818562698676e-25)
(2.87080164382439e-07 -1.3702856967977e-05 -2.88042231275534e-25)
(3.11645604441028e-07 -1.37038285998208e-05 -3.64648145337575e-24)
(3.47079973166458e-07 -1.37059088793527e-05 -1.06903529417821e-23)
(3.99510127273797e-07 -1.37105405122158e-05 -9.98488443523941e-24)
(4.82081158666536e-07 -1.37211771185045e-05 -2.59504927049346e-24)
(6.1784733078795e-07 -1.37443149193808e-05 -1.01294294991048e-23)
(8.41797318876385e-07 -1.37888145524663e-05 -1.09293935687213e-23)
(1.25058350471583e-06 -1.38689597118724e-05 -2.8680325020099e-24)
(1.91440261476648e-06 -1.39674232939419e-05 -9.47005645252473e-24)
(2.8098152060441e-06 -1.3974723004601e-05 -1.23647895015086e-23)
(3.99168549874471e-06 -1.35199417641266e-05 -2.83934405995674e-24)
(1.68783121837241e-06 -1.11472667798641e-05 -9.92108039754165e-24)
(-6.99326099609635e-07 -1.23576540570583e-05 1.61349287855901e-24)
(-5.92162919242361e-06 -1.54952524257217e-05 4.93492340248696e-24)
(-4.55811149443605e-06 -1.66153595626749e-05 2.06987606094217e-24)
(-3.28765048105347e-06 -1.63873624203662e-05 1.57384198446834e-24)
(-2.26921434439679e-06 -1.59791491856726e-05 1.12973464306489e-23)
(-1.57502672733598e-06 -1.56740263497876e-05 1.6571870136226e-24)
(-1.14423857141725e-06 -1.54993812169224e-05 7.84213756603783e-25)
(-8.45168224470668e-07 -1.54073748163864e-05 9.32586101519426e-25)
(-6.27455840753215e-07 -1.53603795151278e-05 8.57792153005328e-25)
(-4.61138719112429e-07 -1.53355702705007e-05 3.01358716676777e-24)
(-3.27229485918683e-07 -1.53212913042472e-05 3.38012338945814e-24)
(-2.16763925820177e-07 -1.53121876897166e-05 5.34974581095005e-24)
(-1.23584124630318e-07 -1.53058100443096e-05 2.65269286753837e-24)
(-4.37901395123365e-08 -1.5301040440077e-05 1.92750542887304e-24)
(2.52733983931311e-08 -1.52973050973471e-05 2.31585751107877e-24)
(8.54708969440405e-08 -1.5294289988457e-05 1.47164851553536e-24)
(1.38179242167245e-07 -1.529183050933e-05 5.37423779197907e-24)
(1.84444961722623e-07 -1.52897881603955e-05 4.42855814327307e-24)
(2.2508405497707e-07 -1.52881038083299e-05 2.50184063484424e-24)
(2.60772643008924e-07 -1.52867067663158e-05 4.0463739916121e-24)
(2.92092502176605e-07 -1.52855667708797e-05 2.04405511137393e-24)
(3.19558833874861e-07 -1.52846501585992e-05 -5.64953306188763e-25)
(3.4365280956758e-07 -1.52839386995593e-05 4.43368069371728e-24)
(3.64809992931715e-07 -1.5283406281825e-05 1.06697353363264e-24)
(3.83456455229188e-07 -1.52830444942603e-05 3.96146554072404e-26)
(4.00040176646796e-07 -1.52828513721394e-05 4.86768345811119e-24)
(4.15004301332543e-07 -1.52828208594251e-05 -1.23332142615947e-26)
(4.28805812893291e-07 -1.52829652166845e-05 -1.80327700387945e-25)
(4.41934553779514e-07 -1.52832733813883e-05 2.65751122817974e-24)
(4.54908266206084e-07 -1.52837627837086e-05 -1.18667940677681e-24)
(4.68283188560137e-07 -1.52844543569729e-05 3.38254885507148e-25)
(4.82705493267784e-07 -1.52853771971436e-05 -3.47679727568237e-24)
(4.98888631356986e-07 -1.52865616930396e-05 1.06826164451629e-24)
(5.1764089975008e-07 -1.52880594422498e-05 1.26854896826097e-24)
(5.39964376371928e-07 -1.52899680396868e-05 -1.4027091663201e-24)
(5.67084756881985e-07 -1.5292400561513e-05 3.23623115337586e-24)
(6.00561646162169e-07 -1.52955668853153e-05 -3.59956177196123e-24)
(6.42463669742594e-07 -1.52997806789757e-05 -8.57389302266561e-25)
(6.95634216725202e-07 -1.53056371673826e-05 6.33708482812377e-25)
(7.64176914013952e-07 -1.53143512868408e-05 -1.4986308415133e-23)
(8.54529903349091e-07 -1.5328469661122e-05 -5.19816307131691e-24)
(9.76137663689002e-07 -1.53534505245554e-05 -3.81036852897122e-24)
(1.14823296673197e-06 -1.54010222058708e-05 -1.02342614529513e-23)
(1.40287991576142e-06 -1.5493903887491e-05 -4.04691664620452e-24)
(1.78934193736586e-06 -1.56689331982699e-05 -4.9092067314816e-24)
(2.44448701887073e-06 -1.59751871248257e-05 -1.50141763785043e-23)
(3.42630387509683e-06 -1.63908690676682e-05 -3.21799188948887e-24)
(4.69988542176316e-06 -1.66353833012634e-05 -4.87168706622699e-24)
(6.11238322959915e-06 -1.54808387359129e-05 -1.08976809090628e-23)
(8.05852747469396e-07 -1.22354994520056e-05 -3.88380081305469e-24)
(5.24717546721793e-07 2.68672233698209e-06 1.5420009970667e-24)
(-4.21296073472753e-06 2.23343001857653e-06 -4.9730814195413e-24)
(-3.72155730343446e-06 2.51660913791995e-07 2.0266012414362e-24)
(-3.0942773444533e-06 2.36884799764669e-07 7.63953872161364e-25)
(-2.43336432287886e-06 5.96014074808719e-07 -1.21148996035016e-24)
(-1.86981838885904e-06 9.07303174291804e-07 -1.62306012767158e-24)
(-1.46730706796931e-06 1.10428386872924e-06 8.12912056544255e-25)
(-1.15404116841637e-06 1.22068782352339e-06 8.91975305702039e-25)
(-9.07648049140002e-07 1.28947699656201e-06 -5.87090105656965e-24)
(-7.10105061247678e-07 1.33221491555084e-06 -4.76623972130719e-24)
(-5.46725448147184e-07 1.36060262764823e-06 1.00865346731776e-23)
(-4.09831825036862e-07 1.38069943389827e-06 3.77423500689693e-24)
(-2.93355289256217e-07 1.39569893400406e-06 -5.69521653598114e-24)
(-1.93111739456302e-07 1.40734021198552e-06 5.20252523498605e-24)
(-1.06047769009053e-07 1.4166490116714e-06 -5.08684828565935e-24)
(-2.99199426724968e-08 1.42423274347736e-06 1.50770461846591e-24)
(3.69851474071788e-08 1.43050073723048e-06 3.90848531807616e-24)
(9.60029046565911e-08 1.43571171529563e-06 -3.81166885034947e-24)
(1.48201552700281e-07 1.44005223486031e-06 1.96106868002347e-24)
(1.94481602057321e-07 1.44366068225958e-06 -4.09713464554862e-24)
(2.35618989968023e-07 1.44662652287529e-06 1.40183485751214e-24)
(2.7229658284276e-07 1.44902680313285e-06 -9.01579690311623e-24)
(3.05150302944629e-07 1.45091377849086e-06 2.91962715484816e-24)
(3.34776804148318e-07 1.45231280948852e-06 1.0321745492718e-24)
(3.61741053742351e-07 1.45327262085677e-06 -7.52157603751118e-24)
(3.86618114162638e-07 1.45377831131562e-06 3.40172183434661e-24)
(4.09986704998979e-07 1.45385095672185e-06 -3.76273677442069e-24)
(4.3244220926836e-07 1.45348453377674e-06 2.11619558865614e-24)
(4.54604609628965e-07 1.45265712299125e-06 1.60909661778771e-24)
(4.77137037062459e-07 1.45134630695054e-06 -7.14680320622125e-24)
(5.00761721845887e-07 1.44948842160192e-06 7.60139399792959e-24)
(5.26285773457507e-07 1.44703807025386e-06 -9.96219994669058e-24)
(5.54612816259507e-07 1.44389353039142e-06 7.66072985245269e-24)
(5.86779046212038e-07 1.43993053254628e-06 7.99682401719292e-24)
(6.24023180231672e-07 1.43493743904302e-06 -8.98105908443718e-24)
(6.67840146407614e-07 1.42864684659171e-06 1.73491000162207e-24)
(7.20124910082528e-07 1.42065536010569e-06 -2.27361779776894e-24)
(7.83308503004709e-07 1.41032551527419e-06 -5.19720394934132e-25)
(8.60593729048332e-07 1.39662376214116e-06 5.70892876692421e-24)
(9.56343727422474e-07 1.37773280422028e-06 -1.49496398263779e-23)
(1.07684421269719e-06 1.3503797252036e-06 -3.80234507344728e-24)
(1.23015813551343e-06 1.30837824526718e-06 -2.48871936686483e-24)
(1.43105305541238e-06 1.23975735077804e-06 -8.74193960874835e-24)
(1.69953422036647e-06 1.12232733342492e-06 -2.49515235345066e-24)
(2.05653151098318e-06 9.22535503451147e-07 -3.19460622948791e-24)
(2.58039842268043e-06 6.03232695518409e-07 -1.37394263729933e-23)
(3.20565804484824e-06 2.22365928005447e-07 -2.29716957422907e-24)
(3.83520483923942e-06 2.01201596713379e-07 -2.87489293749075e-24)
(4.40307037918555e-06 2.22457224699264e-06 -1.37373526863876e-23)
(-4.03624471818274e-07 2.79235428212327e-06 -2.18077244566514e-24)
(-4.19337777683529e-07 9.39454739855769e-06 2.08533858272898e-24)
(-2.26662181251776e-06 9.22822853674114e-06 4.31437792840658e-24)
(-2.49550941723314e-06 5.73645084679991e-06 2.54873033605814e-24)
(-2.46449581966283e-06 5.04092372813259e-06 6.62510833208109e-25)
(-2.21572486322966e-06 5.11278614673066e-06 -6.4347625575341e-25)
(-1.8495075482094e-06 5.32423274718936e-06 9.71422130536004e-25)
(-1.53297757338543e-06 5.50433043347874e-06 8.51295399153135e-25)
(-1.25479501027345e-06 5.63143890813455e-06 1.08020839340035e-24)
(-1.02195091038184e-06 5.71744689971756e-06 1.53219405069163e-24)
(-8.28992870315976e-07 5.7768002449953e-06 2.11650331246679e-24)
(-6.66568060007075e-07 5.81911875748257e-06 3.61684974895226e-24)
(-5.29067958110481e-07 5.85044805837043e-06 4.09999483067804e-24)
(-4.11326641904299e-07 5.87442735597082e-06 1.64547263032625e-24)
(-3.09543227447119e-07 5.89330829642867e-06 2.31507912774578e-24)
(-2.2081109267142e-07 5.90852102807179e-06 1.92823730789316e-24)
(-1.42928498646888e-07 5.92096393694218e-06 2.26271847090097e-24)
(-7.41870790985567e-08 5.93126922255199e-06 4.33947924271744e-24)
(-1.32250721253761e-08 5.93983195806125e-06 3.03658348764137e-24)
(4.10636558251863e-08 5.94696777574072e-06 2.96316177711444e-24)
(8.96086897902345e-08 5.95288107081931e-06 2.79741804203945e-24)
(1.33217182968744e-07 5.95773356042799e-06 2.33014665739155e-24)
(1.72605327762136e-07 5.9616315133379e-06 2.63501405763315e-25)
(2.08429253351815e-07 5.96468159983339e-06 3.6046926969777e-24)
(2.41314740153361e-07 5.96693037241104e-06 1.54653673108168e-24)
(2.71850747105862e-07 5.96841935789134e-06 6.49488500662177e-25)
(3.00625500197416e-07 5.96915677636298e-06 3.55452392013404e-24)
(3.282425757637e-07 5.9691698670022e-06 4.82069478009499e-25)
(3.55304540939493e-07 5.9684373915709e-06 6.97632385933886e-27)
(3.8244953043045e-07 5.96693084054383e-06 2.24627687378389e-24)
(4.10361638211845e-07 5.96460442622155e-06 -5.01792996612454e-25)
(4.39788723734646e-07 5.96136609255228e-06 1.43052852113388e-25)
(4.71544449219154e-07 5.95712030676843e-06 -3.17968018039321e-24)
(5.06551936924345e-07 5.95171613727417e-06 6.68724407818777e-25)
(5.45876274862014e-07 5.94494186465071e-06 9.14478800555055e-25)
(5.90763447831218e-07 5.93647209209675e-06 -8.54917833341184e-25)
(6.4271957073617e-07 5.92588523812605e-06 2.25171252186561e-24)
(7.03605158268102e-07 5.91257714101572e-06 -1.64026674306698e-24)
(7.7576933847946e-07 5.89562007073191e-06 -8.99907258635742e-25)
(8.62233790721191e-07 5.87356830139865e-06 1.5160653859501e-24)
(9.66933479588503e-07 5.84412604794432e-06 -2.02355033470319e-24)
(1.09516764708751e-06 5.80359355972381e-06 -2.88353230931791e-24)
(1.25275326576493e-06 5.74582604387994e-06 -2.43607526737458e-24)
(1.44877779907453e-06 5.66091851788179e-06 2.19034353651269e-25)
(1.69006669646504e-06 5.53367175949368e-06 -2.11976224200752e-24)
(1.96751025192782e-06 5.3507648955883e-06 -2.29094187818798e-24)
(2.299576526858e-06 5.1280568661119e-06 -1.15862311614613e-24)
(2.51869365202816e-06 5.0218492892944e-06 -1.97611793779959e-24)
(2.55201256832592e-06 5.65692571749166e-06 -2.0059063712541e-24)
(2.38204838702151e-06 9.21143468419431e-06 -4.67674782481498e-25)
(4.86592071296912e-07 9.44902455327415e-06 -7.72316442738498e-25)
(-9.01709401120629e-07 1.07059717740094e-05 1.62807467079733e-24)
(-1.20549604886972e-06 9.4748852518217e-06 6.37745799597277e-24)
(-1.81330559841929e-06 5.29634943170852e-06 1.94743658556991e-24)
(-2.00278521989166e-06 4.23408876497232e-06 3.62167678714523e-25)
(-1.96231484190708e-06 4.16179821989924e-06 -1.07310637572664e-24)
(-1.72072148807346e-06 4.33781265898747e-06 1.45743471657091e-24)
(-1.47632980676776e-06 4.52824052733415e-06 6.33672402715892e-25)
(-1.24070353305549e-06 4.67563860099441e-06 8.01387389249202e-25)
(-1.03423079987461e-06 4.78110592377866e-06 2.43803361509101e-24)
(-8.58579688715626e-07 4.8567644363457e-06 3.2431172293577e-24)
(-7.08309941993768e-07 4.91216876731086e-06 7.73246581021854e-25)
(-5.79745055747005e-07 4.9539547133086e-06 2.9847366326515e-24)
(-4.68844259007205e-07 4.98632312994075e-06 3.30926446677375e-24)
(-3.72448642398415e-07 5.01201979960508e-06 6.050393542822e-25)
(-2.88038872810177e-07 5.03279766350201e-06 3.37062938846056e-24)
(-2.13640414355473e-07 5.04984495583006e-06 1.74567318139605e-24)
(-1.47694199473543e-07 5.06394611048588e-06 3.30965203168155e-24)
(-8.89335975373782e-08 5.07566933023745e-06 4.05783350026802e-24)
(-3.63133745701999e-08 5.0854065136178e-06 2.25169124562798e-24)
(1.10503592850287e-08 5.09345515756196e-06 3.9823476957004e-24)
(5.39270348880595e-08 5.10003190532572e-06 1.82682918839454e-24)
(9.30026773286668e-08 5.10528380637378e-06 2.11879997780905e-24)
(1.28910947062806e-07 5.10934395812439e-06 2.80520218286401e-24)
(1.62242547725412e-07 5.11229574106517e-06 1.15634977004914e-24)
(1.93567681251984e-07 5.11417807932696e-06 1.97757318412887e-24)
(2.23457046407825e-07 5.11503191665677e-06 2.98937986729738e-24)
(2.52476862666344e-07 5.11486225987385e-06 1.4817926664025e-24)
(2.81207911457859e-07 5.11364742094068e-06 -6.92207902768489e-25)
(3.10263077037629e-07 5.11135853168493e-06 1.84932340451007e-24)
(3.40290086195631e-07 5.10791609864308e-06 1.13426546400764e-24)
(3.7200603225328e-07 5.10321157307788e-06 -1.10260972154549e-24)
(4.06187142590586e-07 5.09708845372422e-06 -2.55321589433618e-25)
(4.43708041838284e-07 5.08935836995817e-06 -1.36992049382623e-24)
(4.85574658460779e-07 5.07971815853685e-06 -1.24427584513769e-24)
(5.32951003289988e-07 5.06776209934582e-06 9.86306363819745e-25)
(5.87230793589469e-07 5.05292425250181e-06 1.84503476463082e-24)
(6.50111162881896e-07 5.03438848861672e-06 -1.43857774276122e-24)
(7.23670474286827e-07 5.01099959173604e-06 -7.52918147331638e-25)
(8.10525380097389e-07 4.98096150061167e-06 -2.59767940848684e-25)
(9.13936935459563e-07 4.94149799676982e-06 2.93159510999494e-24)
(1.0379992043543e-06 4.88833243930737e-06 -1.82837892515587e-24)
(1.18648258873704e-06 4.81473961845008e-06 -1.59109397859454e-24)
(1.36431719250387e-06 4.71093139205001e-06 3.9558033030706e-24)
(1.5706466938376e-06 4.56424069400972e-06 -1.39013334167301e-24)
(1.78217950006324e-06 4.3718269040043e-06 -1.51965008548584e-24)
(1.99416958977082e-06 4.1837489761095e-06 3.59712493764984e-24)
(2.00818972652956e-06 4.21320880300187e-06 -1.48343093751474e-24)
(1.82537928117255e-06 5.19953835277864e-06 -1.50265674658445e-24)
(1.24719005825767e-06 9.4610454293431e-06 4.9037173341666e-24)
(9.13306175367226e-07 1.07581962508139e-05 -8.51572708398872e-25)
(-7.27825018967862e-07 9.69131395035275e-06 1.01506867523142e-24)
(-8.09257383292292e-07 7.52685101365927e-06 6.18801639642344e-24)
(-1.54085180575859e-06 3.36781888580628e-06 1.19280950734015e-24)
(-1.72979263419364e-06 2.22122175795244e-06 2.90169874135875e-25)
(-1.75375546544653e-06 2.11743806475571e-06 1.22197737596558e-24)
(-1.57755797227282e-06 2.29211771866601e-06 2.24965635404142e-24)
(-1.38423810243698e-06 2.49819959542185e-06 4.24017329911519e-25)
(-1.18602105438564e-06 2.66343083757097e-06 4.91900590096439e-25)
(-1.00594471363146e-06 2.78494423751427e-06 2.68684493241031e-24)
(-8.48994972578064e-07 2.87411732486354e-06 3.10052428564879e-24)
(-7.1237720588968e-07 2.94062085051113e-06 -1.11084140793076e-24)
(-5.94028166126959e-07 2.99147538420283e-06 1.49590197841006e-24)
(-4.91005404300675e-07 3.03127495577918e-06 3.13203128081455e-24)
(-4.00845421062917e-07 3.06307865391669e-06 -9.37581176583976e-25)
(-3.21468751208578e-07 3.08890377450524e-06 3.1920228713808e-24)
(-2.51186354757702e-07 3.11012656166971e-06 9.72997202721664e-25)
(-1.88628572592583e-07 3.12769190559438e-06 1.85882356918239e-24)
(-1.32650609063775e-07 3.14228158166401e-06 3.17199597363021e-24)
(-8.23002225968648e-08 3.15437910664413e-06 1.31042853419321e-24)
(-3.67538991048187e-08 3.16434592355007e-06 3.11351186951596e-24)
(4.69710618466563e-09 3.17245208910366e-06 1.08917277694467e-24)
(4.27006428598026e-08 3.17889064633754e-06 2.50017624897165e-24)
(7.7856988527659e-08 3.18381996859507e-06 1.54546259055836e-24)
(1.1072141516577e-07 3.18732875785801e-06 6.74829430870721e-25)
(1.41837201774171e-07 3.18949869355082e-06 2.42999205219573e-24)
(1.7173955816714e-07 3.19035969827052e-06 1.81717013662387e-24)
(2.00961662341394e-07 3.18992355145618e-06 2.03307265659358e-24)
(2.30059405218814e-07 3.18817029572988e-06 -1.61210020491376e-24)
(2.59609612796587e-07 3.18504354053678e-06 1.012006139645e-24)
(2.90223842896281e-07 3.18045348262188e-06 1.90159638799863e-24)
(3.22576239032059e-07 3.1742684471292e-06 -1.70612671658575e-24)
(3.573930998743e-07 3.16629233502359e-06 9.99390947218715e-25)
(3.95489522905748e-07 3.15628357016849e-06 -2.13143761622443e-24)
(4.3779671088798e-07 3.14387199746907e-06 -2.08710106784239e-24)
(4.85380604935593e-07 3.12857317795738e-06 1.8235915249733e-24)
(5.39487084318374e-07 3.10970682913028e-06 1.09479071402576e-24)
(6.01610920814534e-07 3.0863012063347e-06 -7.95086428726464e-25)
(6.73535813699431e-07 3.05700572201879e-06 -4.78278970578891e-25)
(7.57409705620454e-07 3.01979208342133e-06 -1.49785198846222e-24)
(8.55772230430486e-07 2.97155017752196e-06 2.84288024750725e-24)
(9.71576515676096e-07 2.90763162251984e-06 -8.06272583975721e-25)
(1.10691823306815e-06 2.82094416063304e-06 -7.82416910729507e-25)
(1.26397024077373e-06 2.70166099685545e-06 3.09044524615268e-24)
(1.43821814910662e-06 2.53802587453093e-06 -7.18337455966615e-25)
(1.60340791705375e-06 2.33072638981191e-06 -7.26755769157857e-25)
(1.75379636349204e-06 2.14314702835642e-06 3.25357590737743e-24)
(1.70600570656691e-06 2.19584384503284e-06 -7.2035836441406e-25)
(1.52910647160496e-06 3.25725829422535e-06 -7.25129563434425e-25)
(8.08461240739806e-07 7.50596047969081e-06 4.63814345539647e-24)
(7.14146145268557e-07 9.74746676747101e-06 -5.15962385184343e-25)
(-3.83747415263748e-07 8.39151034687922e-06 4.6640220378549e-25)
(-6.86892541744172e-07 5.81851144882731e-06 3.46006678597258e-24)
(-1.39602402769087e-06 1.83388311863975e-06 5.44902274408177e-25)
(-1.53581948804852e-06 6.72237333812441e-07 1.29791139161553e-25)
(-1.57429251428089e-06 5.61948213910511e-07 4.32534527753068e-25)
(-1.43985523593101e-06 7.36736885424012e-07 8.24865668427171e-25)
(-1.28559843345173e-06 9.51907659586515e-07 1.79391631346366e-25)
(-1.11944417059748e-06 1.12847263840183e-06 1.99266792021859e-25)
(-9.63088622167965e-07 1.26128327328676e-06 9.98316632022906e-25)
(-8.23290640300487e-07 1.36078309431658e-06 1.65037932604326e-24)
(-6.99221849700656e-07 1.43628421111722e-06 -3.22570377337131e-25)
(-5.90170935779215e-07 1.49481050607647e-06 1.15781576627614e-24)
(-4.94216194569789e-07 1.54109733859963e-06 1.76558758472948e-24)
(-4.09558857523356e-07 1.57832855567503e-06 -1.91812716516265e-25)
(-3.34567899082035e-07 1.60871233340543e-06 1.81850389641506e-24)
(-2.67839600068918e-07 1.63373301925238e-06 4.71661766748621e-25)
(-2.08194296844268e-07 1.65447479028023e-06 1.3502218173754e-24)
(-1.54622956904722e-07 1.67169304478691e-06 1.93427251314076e-24)
(-1.0626374204625e-07 1.68595773617068e-06 6.02159326838014e-25)
(-6.23613588395912e-08 1.69768158002019e-06 1.85415690371907e-24)
(-2.22537029859172e-08 1.70717329783545e-06 4.71481156714507e-25)
(1.4665060283167e-08 1.71468331087861e-06 9.24698336669486e-25)
(4.8954797594345e-08 1.72037242093273e-06 1.1694642329907e-24)
(8.11468309872675e-08 1.72436273952779e-06 3.14537459163333e-25)
(1.11757964732936e-07 1.7267447738249e-06 9.33284508689898e-25)
(1.41294214824406e-07 1.72755396963651e-06 1.42328912651948e-24)
(1.70265950922333e-07 1.7268124616733e-06 7.48645549154603e-25)
(1.99194909358884e-07 1.72448512271722e-06 -4.899699225646e-25)
(2.28633275131002e-07 1.72050824818102e-06 9.77026988970928e-25)
(2.59162745681049e-07 1.71477941526269e-06 6.8440722945322e-25)
(2.9141462558398e-07 1.70713427038081e-06 -5.44698175266333e-25)
(3.26072311998338e-07 1.69735307117435e-06 3.9536344258771e-25)
(3.63893329483308e-07 1.68514526699793e-06 -7.36009361553551e-25)
(4.05733898251258e-07 1.67008862859474e-06 -7.43252439612105e-25)
(4.52560873397127e-07 1.65162415532424e-06 6.54616841177175e-25)
(5.05477266934638e-07 1.62898264623073e-06 1.00318512327675e-24)
(5.65774194711512e-07 1.6010956662645e-06 -8.1307398481144e-25)
(6.34936619188814e-07 1.56647068787477e-06 -2.278206536188e-25)
(7.14662237905203e-07 1.52293375001484e-06 -5.10056153930209e-25)
(8.06801789082997e-07 1.46722882165791e-06 1.02083792952532e-24)
(9.13263630645057e-07 1.39461443948784e-06 -9.79780249685307e-25)
(1.03477213850547e-06 1.29804867577789e-06 -1.00486719630916e-24)
(1.17153248892282e-06 1.1681254889132e-06 9.7889997167705e-25)
(1.3171135334008e-06 9.94172269942632e-07 -1.00679817115482e-24)
(1.44681823978255e-06 7.78626841658273e-07 -9.964582010697e-25)
(1.55885670158495e-06 5.89974652705607e-07 1.10972357444959e-24)
(1.49938659038292e-06 6.40389435037765e-07 -1.07203898364762e-24)
(1.37439413116432e-06 1.70800118171594e-06 -1.40730483677478e-24)
(6.70098889816503e-07 5.77933743464172e-06 1.68654352261569e-24)
(3.65376708832026e-07 8.4344357179178e-06 -9.66159101299722e-25)
(-1.41531983493401e-07 7.52884132285403e-06 1.63958580918661e-25)
(-6.23597889336799e-07 4.91464839928651e-06 1.07168518949247e-24)
(-1.24713112613806e-06 1.01558851816565e-06 1.94046537799902e-25)
(-1.35935877766597e-06 -1.7870493925221e-07 3.66119909755481e-26)
(-1.40639443745608e-06 -3.08079030678482e-07 -7.89968930324169e-26)
(-1.30711421367237e-06 -1.43871793212991e-07 2.79063992198847e-25)
(-1.18561591966613e-06 7.06244929489367e-08 6.80552309233814e-26)
(-1.0475632443739e-06 2.51548882441832e-07 7.59476138191965e-26)
(-9.12457482543327e-07 3.91007659125024e-07 3.51269558763636e-25)
(-7.88247587817002e-07 4.97776606961599e-07 5.15833516147301e-25)
(-6.75651612978875e-07 5.8028794521008e-07 -1.13114695664519e-25)
(-5.750782603404e-07 6.45171362729779e-07 3.43132868848423e-25)
(-4.85529508046816e-07 6.97032219641183e-07 5.72077899167462e-25)
(-4.05817166958961e-07 7.39075184796722e-07 -6.0122123811622e-26)
(-3.34724742686358e-07 7.73552899252949e-07 5.70110033698111e-25)
(-2.71135179116267e-07 8.02048041134805e-07 1.68622714576355e-25)
(-2.14055236878281e-07 8.25707783045375e-07 4.2361729222296e-25)
(-1.62608835249029e-07 8.45364842346185e-07 6.1737863957431e-25)
(-1.16024445903656e-07 8.61642853384678e-07 2.14860191131687e-25)
(-7.36187465749986e-08 8.75000878288671e-07 5.85313785790276e-25)
(-3.4774362806858e-08 8.85785803553602e-07 1.65324775121102e-25)
(1.07142072351708e-09 8.94277158481505e-07 3.15260108082296e-25)
(3.44452528607109e-08 9.00657635356287e-07 3.56172062989875e-25)
(6.58578418638881e-08 9.05080969939993e-07 1.12654326160646e-25)
(9.57958451414948e-08 9.07631948311893e-07 3.20834791534395e-25)
(1.24743880756083e-07 9.08369002030731e-07 4.18601605716922e-25)
(1.53185049902668e-07 9.07294490661779e-07 2.4995970331878e-25)
(1.8161936813996e-07 9.04383160800444e-07 -1.5060758907674e-25)
(2.10577188209217e-07 8.99569406981718e-07 2.97015772954264e-25)
(2.40606273067604e-07 8.92720931881073e-07 2.27795731566882e-25)
(2.72302043933197e-07 8.836573297148e-07 -1.70754716489742e-25)
(3.06307272797474e-07 8.72139839999174e-07 1.45182020214748e-25)
(3.43323975026415e-07 8.57828032350484e-07 -2.39504411157211e-25)
(3.84134315534443e-07 8.40262071491408e-07 -2.44637597123294e-25)
(4.29609158459692e-07 8.18827386678193e-07 2.12415900088435e-25)
(4.80718264209218e-07 7.92690736687009e-07 2.80586458655804e-25)
(5.38548908900105e-07 7.6071295768103e-07 -2.23071938352617e-25)
(6.04301169284596e-07 7.21333497691344e-07 -7.70320242889861e-26)
(6.79250567560391e-07 6.7232289385543e-07 -1.52159024660473e-25)
(7.64622602252596e-07 6.10437619835928e-07 6.0071227575776e-25)
(8.61415393433888e-07 5.31087009376215e-07 -2.66761583013048e-25)
(9.69217844715359e-07 4.27675246024283e-07 -2.82902342071624e-25)
(1.08675975004234e-06 2.91755431907485e-07 5.79007074007246e-25)
(1.20639643909698e-06 1.14402107494878e-07 -2.9252096292464e-25)
(1.30615533303555e-06 -9.97039772789263e-08 -2.79542231090771e-25)
(1.38596314750344e-06 -2.78779774162622e-07 6.44382376232073e-25)
(1.32063298964654e-06 -2.1726562978645e-07 -2.72127246098524e-25)
(1.22220559676033e-06 8.74407616259057e-07 -3.25381708445518e-25)
(6.03290131218739e-07 4.85464989459918e-06 9.76004501576101e-25)
(1.25028821613239e-07 7.54615187997891e-06 -2.81341268371302e-25)
(-2.85317431928782e-08 7.10547597334456e-06 7.2187818004585e-26)
(-5.55910538138037e-07 4.59943918994009e-06 5.2690708819874e-25)
(-1.08092051844473e-06 6.8467958752697e-07 8.65526279514708e-26)
(-1.18934203155772e-06 -5.63659762707118e-07 3.37119325629558e-26)
(-1.24663419620677e-06 -7.26855745752065e-07 1.6879083748782e-25)
(-1.17886643507556e-06 -5.82271308545954e-07 2.44127139329294e-25)
(-1.08544420674719e-06 -3.75943565085634e-07 4.27117328792283e-26)
(-9.72138874703268e-07 -1.96020289551568e-07 4.70019146548904e-26)
(-8.56198009452063e-07 -5.36604243819832e-08 2.58753150263877e-25)
(-7.46364837599971e-07 5.77938496592727e-08 2.82566060245901e-25)
(-6.44537196493931e-07 1.45551137472912e-07 -1.58309760081849e-25)
(-5.52033256831329e-07 2.15574051542535e-07 8.69732009995019e-26)
(-4.68623499865548e-07 2.72157002113017e-07 2.92478481381882e-25)
(-3.93668865157533e-07 3.18408125308092e-07 -1.3511585959899e-25)
(-3.26342719115707e-07 3.56553805163603e-07 2.65728433840962e-25)
(-2.65788494457404e-07 3.88210791974791e-07 6.67602924124989e-26)
(-2.1120078553745e-07 4.14556559313448e-07 1.30375725684831e-25)
(-1.6183347381085e-07 4.36477908229138e-07 3.09083306621624e-25)
(-1.17011369018176e-07 4.54631570432959e-07 9.39574439586214e-26)
(-7.61187725827175e-08 4.69514804780683e-07 3.0930791725608e-25)
(-3.85856489987035e-08 4.81513783877537e-07 7.80933730074016e-26)
(-3.89028733505504e-09 4.90920486860535e-07 2.35644532224097e-25)
(2.84626596725223e-08 4.9795334297381e-07 1.06992199145708e-25)
(5.89531964366453e-08 5.02770193657734e-07 4.75707273531718e-26)
(8.80451820297814e-08 5.05471352298556e-07 2.30022945732433e-25)
(1.16195790557362e-07 5.06117507632584e-07 1.2729832435869e-25)
(1.43869156243834e-07 5.04715213299282e-07 1.93934292682104e-25)
(1.71548119585596e-07 5.01240216087341e-07 -1.38712511339459e-25)
(1.99726331687748e-07 4.95607134861481e-07 7.592652630786e-26)
(2.28925142676649e-07 4.87679900240141e-07 1.83997007918075e-25)
(2.59710828513782e-07 4.77257973577593e-07 -1.52724959643465e-25)
(2.92677532897698e-07 4.64080222605807e-07 1.1935008801156e-25)
(3.28473453115689e-07 4.47771738560097e-07 -1.77574245558905e-25)
(3.67812284640436e-07 4.27849784445476e-07 -1.69331188669712e-25)
(4.11465665326013e-07 4.03651023985693e-07 1.75365090287124e-25)
(4.60269783409764e-07 3.74307984042921e-07 7.32192338097813e-26)
(5.15123180297138e-07 3.38639954617156e-07 -5.29267380379523e-26)
(5.76956179541185e-07 2.95076745607099e-07 -2.98931854234081e-26)
(6.46662055875732e-07 2.41410044894936e-07 -1.61075786803193e-25)
(7.24916087853929e-07 1.74528387720691e-07 2.58690426017027e-25)
(8.11942376464949e-07 9.01724904579627e-08 -4.41108525299134e-26)
(9.0644973167908e-07 -1.75605405544117e-08 -4.86562258143584e-26)
(1.00608853115157e-06 -1.55814699485529e-07 2.91089200167701e-25)
(1.10241628749059e-06 -3.31408731974349e-07 -5.29485579468711e-26)
(1.17636030683139e-06 -5.36791737081245e-07 -4.65658761212941e-26)
(1.22695054922377e-06 -6.97268018406843e-07 3.11982270056731e-25)