/*--------------------------------*- C++ -*----------------------------------*\
  =========                 |
  \\      /  F ield         | OpenFOAM: The Open Source CFD Toolbox
   \\    /   O peration     | Website:  https://openfoam.org
    \\  /    A nd           | Version:  10
     \\/     M anipulation  |
\*---------------------------------------------------------------------------*/
FoamFile
{
    format      ascii;
    class       volScalarField;
    location    "3.2";
    object      wallHeatFlux;
}
// * * * * * * * * * * * * * * * * * * * * * * * * * * * * * * * * * * * * * //

dimensions      [1 0 -3 0 0 0 0];

internalField   uniform 0;

boundaryField
{
    back
    {
        type            calculated;
        value           uniform 0;
    }
    bottom
    {
        type            calculated;
        value           nonuniform List<scalar> 
50
(
191.028293826342
198.904806346738
205.148141038156
207.863869873106
208.897819764
209.275635931567
209.408240619593
209.452005780673
209.465382990686
209.469299803456
209.470171438176
209.470336096306
209.470341298762
209.470247125326
209.470166859337
209.470048460999
209.470021146875
209.469959998494
209.469883364539
209.469848898206
209.469827544002
209.469826131683
209.469828120668
209.469818902099
209.469795612806
209.469788323631
209.46978605435
209.46978408893
209.469797162313
209.469792989534
209.469803515035
209.469847600296
209.469848967993
209.469844616108
209.469873788761
209.469923957597
209.469983117319
209.46999393105
209.470012540556
209.469718837433
209.468424023871
209.463728230334
209.44826817719
209.400580443196
209.26282110861
208.881330895276
207.853015253268
205.14172100648
198.810578504943
191.057345256045
)
;
    }
    left
    {
        type            calculated;
        value           uniform 0;
    }
    front
    {
        type            calculated;
        value           uniform 0;
    }
    right
    {
        type            calculated;
        value           uniform 0;
    }
    top
    {
        type            calculated;
        value           uniform 0;
    }
}


// ************************************************************************* //
