/*--------------------------------*- C++ -*----------------------------------*\
  =========                 |
  \\      /  F ield         | OpenFOAM: The Open Source CFD Toolbox
   \\    /   O peration     | Website:  https://openfoam.org
    \\  /    A nd           | Version:  10
     \\/     M anipulation  |
\*---------------------------------------------------------------------------*/
FoamFile
{
    format      ascii;
    class       volScalarField;
    location    "2.8";
    object      alphat;
}
// * * * * * * * * * * * * * * * * * * * * * * * * * * * * * * * * * * * * * //

dimensions      [1 -1 -1 0 0 0 0];

internalField   nonuniform List<scalar> 
2500
(
3.01399806722925e-14
5.6735697686253e-13
2.29993831640071e-12
3.65983033723267e-12
4.49696916255378e-12
4.92796355794969e-12
5.11866286361921e-12
5.19273797959118e-12
5.21844838318648e-12
5.22653922647558e-12
5.22887490661448e-12
5.22949836467014e-12
5.22965200203545e-12
5.22968551256174e-12
5.22969043347061e-12
5.22968941675657e-12
5.22968745757645e-12
5.22968558123438e-12
5.22968391736455e-12
5.22968245034195e-12
5.22968116732702e-12
5.2296800510874e-12
5.22967908687809e-12
5.22967826020703e-12
5.22967757756842e-12
5.22967703959307e-12
5.22967664124837e-12
5.22967641868951e-12
5.22967651160417e-12
5.22967676850562e-12
5.22967681761677e-12
5.22967713426382e-12
5.22967768520883e-12
5.22967838224634e-12
5.2296788882654e-12
5.22967706826392e-12
5.22966342778005e-12
5.22960281254038e-12
5.22936508443326e-12
5.22849379424244e-12
5.22549903140614e-12
5.21588410595896e-12
5.1872756726201e-12
5.1092145667579e-12
4.9164364538588e-12
4.49246859384644e-12
3.67840881903505e-12
2.34761219497535e-12
5.97585507145284e-13
3.33472193273244e-14
2.90544022492233e-12
1.44446109853377e-10
6.00474141922019e-10
9.60880943873339e-10
1.18676906478129e-09
1.3054973688717e-09
1.3591553770536e-09
1.38043315146505e-09
1.38796447057847e-09
1.39037832848233e-09
1.39108714283796e-09
1.39127942036423e-09
1.39132761503476e-09
1.39133842076183e-09
1.39134017983614e-09
1.39133999478232e-09
1.39133948779405e-09
1.39133898780893e-09
1.39133854176798e-09
1.39133815082088e-09
1.39133781086821e-09
1.39133751735833e-09
1.39133726558236e-09
1.39133705075066e-09
1.39133687404424e-09
1.39133673716305e-09
1.39133663860474e-09
1.39133658893039e-09
1.39133663168277e-09
1.39133671001238e-09
1.3913367201563e-09
1.39133681794811e-09
1.39133697205559e-09
1.39133716110537e-09
1.39133728276332e-09
1.39133663602816e-09
1.39133226079476e-09
1.39131339295054e-09
1.39124039333676e-09
1.39097622353217e-09
1.39008017546276e-09
1.38724412184176e-09
1.37893544527494e-09
1.35664127623008e-09
1.30256340547022e-09
1.18585046763148e-09
9.65963465664663e-10
6.12701010099321e-10
1.51838205450157e-10
3.19253951929138e-12
1.00980232030371e-11
2.54678112603586e-09
8.241228849201e-07
1.3113273683161e-06
1.61553207634819e-06
1.77658210327424e-06
1.85031051102891e-06
1.88000583795064e-06
1.89069138708456e-06
1.89417327068956e-06
1.89521241907146e-06
1.89549887618664e-06
1.89557194732271e-06
1.89558879344535e-06
1.89559180225931e-06
1.89559173286344e-06
1.89559113789774e-06
1.89559051557549e-06
1.8955899545354e-06
1.89558946181847e-06
1.89558903270129e-06
1.89558866164519e-06
1.89558834332788e-06
1.89558807271396e-06
1.89558784907648e-06
1.8955876742348e-06
1.89558754834726e-06
1.89558748516922e-06
1.89558754251943e-06
1.89558763153641e-06
1.89558764190378e-06
1.89558776027453e-06
1.89558794621178e-06
1.89558816866668e-06
1.89558827483079e-06
1.89558718143475e-06
1.89558057238171e-06
1.89555280562121e-06
1.8954464300775e-06
1.8950649096137e-06
1.89378251928923e-06
1.88976310748792e-06
1.87811130505505e-06
1.84719379113639e-06
1.77302730924308e-06
1.61449305763845e-06
1.31748910606405e-06
8.38824532177143e-07
2.65937484045559e-09
1.08826758142045e-11
1.75091732647012e-11
4.4506327214554e-09
1.43049041269651e-06
2.25414136021493e-06
2.76300877635404e-06
3.03161206648321e-06
3.15480989906754e-06
3.20466687830975e-06
3.22272320347396e-06
3.22865080626337e-06
3.23043432805348e-06
3.23093035142567e-06
3.23105819634979e-06
3.23108816172785e-06
3.23109378300339e-06
3.23109387779696e-06
3.23109300171785e-06
3.23109204333038e-06
3.23109116973086e-06
3.23109039892456e-06
3.2310897242311e-06
3.23108913811317e-06
3.23108863337721e-06
3.23108820326393e-06
3.2310878451298e-06
3.2310875609202e-06
3.23108735325635e-06
3.23108723914324e-06
3.23108730587149e-06
3.23108740696521e-06
3.23108744008075e-06
3.23108760286402e-06
3.23108787217035e-06
3.23108819443304e-06
3.2310883264204e-06
3.23108645143349e-06
3.23107562330397e-06
3.23103020867401e-06
3.23085561223309e-06
3.23022697324603e-06
3.22810607086377e-06
3.22143681807284e-06
3.20205189250184e-06
3.15050610867386e-06
3.02662025016702e-06
2.76113634467053e-06
2.26141766360873e-06
1.44875103386915e-06
4.59264291356682e-09
1.84913825070783e-11
2.41734434664401e-11
6.15678488561015e-09
1.96109418384582e-06
3.06693489867304e-06
3.74514814257302e-06
4.1025332681588e-06
4.2667672680643e-06
4.33350929057843e-06
4.35781646733566e-06
4.36584867593863e-06
4.36828318305819e-06
4.36896577155195e-06
4.36914341838347e-06
4.36918571646763e-06
4.36919401847891e-06
4.36919447223901e-06
4.36919348481299e-06
4.36919233634545e-06
4.36919127475307e-06
4.36919033267909e-06
4.36918950383508e-06
4.36918877920159e-06
4.36918815136243e-06
4.36918761348728e-06
4.36918716223661e-06
4.36918679900602e-06
4.36918652649186e-06
4.36918636141774e-06
4.36918639505819e-06
4.36918647775765e-06
4.36918652985582e-06
4.36918670226433e-06
4.3691869975491e-06
4.36918734678633e-06
4.36918742733367e-06
4.36918484682001e-06
4.36917066972015e-06
4.36911140293235e-06
4.36888287767556e-06
4.36805700129194e-06
4.36526035288807e-06
4.3564369969329e-06
4.33071954751309e-06
4.26218280710867e-06
4.09715359670982e-06
3.74277585039432e-06
3.07353768498134e-06
1.97860047121915e-06
6.29832763197144e-09
2.51827294679555e-11
2.97610213486125e-11
7.5966599694756e-09
2.40302974978785e-06
3.73679447703907e-06
4.5507480974861e-06
4.97936957243363e-06
5.17674597977016e-06
5.25726400707494e-06
5.28673557061929e-06
5.29653162487426e-06
5.29952034207916e-06
5.30036452251728e-06
5.30058619517328e-06
5.30063974777811e-06
5.30065069942095e-06
5.30065166786662e-06
5.30065071538478e-06
5.30064950580507e-06
5.30064836692492e-06
5.30064734844258e-06
5.30064644689889e-06
5.30064565355748e-06
5.30064496089701e-06
5.30064436301119e-06
5.30064385704854e-06
5.30064344308425e-06
5.30064312318581e-06
5.30064291095083e-06
5.30064288482735e-06
5.30064293932089e-06
5.3006429988387e-06
5.3006431414955e-06
5.30064341324745e-06
5.30064372426204e-06
5.30064367122918e-06
5.30064043661874e-06
5.30062362969451e-06
5.3005536525306e-06
5.30028328574216e-06
5.29930326308864e-06
5.29597436531677e-06
5.28544240613078e-06
5.25467344266598e-06
5.17252596263465e-06
4.97444523093544e-06
4.54850676675591e-06
3.74242279597418e-06
2.41823105722149e-06
7.72524549703691e-09
3.07208482235625e-11
3.41953210445129e-11
8.75075964981473e-09
2.75524781948827e-06
4.26700115581946e-06
5.18663000335258e-06
5.67090578253603e-06
5.89437649228924e-06
5.98585625499626e-06
6.01948912663505e-06
6.03072650753545e-06
6.03417505386376e-06
6.0351555592714e-06
6.03541510944898e-06
6.03547863169914e-06
6.03549209784561e-06
6.03549367985963e-06
6.03549286682278e-06
6.03549169409671e-06
6.03549056295752e-06
6.03548954120853e-06
6.03548863012575e-06
6.03548782240378e-06
6.03548711115272e-06
6.03548649157416e-06
6.03548596118044e-06
6.03548551952425e-06
6.03548516792302e-06
6.03548491513782e-06
6.03548480736047e-06
6.03548481186225e-06
6.0354848756328e-06
6.03548498120907e-06
6.03548519040927e-06
6.03548541809592e-06
6.03548516757711e-06
6.03548133942283e-06
6.03546250598369e-06
6.03538441155251e-06
6.03508232156273e-06
6.03398474332677e-06
6.0302471766812e-06
6.01839531080279e-06
5.98370525582812e-06
5.89095810214678e-06
5.66709093301596e-06
5.18527702229553e-06
4.2722467933032e-06
2.76829238725591e-06
8.86474198758503e-09
3.50871839391398e-11
3.75473412600159e-11
9.63348372555097e-09
3.02465504195241e-06
4.670980020027e-06
5.67054671263425e-06
6.1971542922932e-06
6.44064736432914e-06
6.54063129394167e-06
6.57753361917889e-06
6.58991925804574e-06
6.59373965306103e-06
6.59483220131167e-06
6.59512347285975e-06
6.59519556109506e-06
6.5952113267409e-06
6.59521357330324e-06
6.59521295195682e-06
6.59521187972629e-06
6.59521081309149e-06
6.59520983750833e-06
6.59520895987627e-06
6.59520817513592e-06
6.59520747758106e-06
6.595206863491e-06
6.5952063306956e-06
6.59520587870921e-06
6.59520550834169e-06
6.59520522468735e-06
6.5952050477258e-06
6.5952049882202e-06
6.59520501101083e-06
6.59520510617607e-06
6.59520522376012e-06
6.59520535617853e-06
6.59520487187936e-06
6.59520050148998e-06
6.59518015601298e-06
6.59509604949064e-06
6.5947705187338e-06
6.5935856651205e-06
6.58954286363658e-06
6.57669980413844e-06
6.53905288037554e-06
6.43829112171866e-06
6.19490274812469e-06
5.67078565096112e-06
4.67679665046211e-06
3.03653076345943e-06
9.73692789188534e-09
3.83840810976876e-11
3.99704699941923e-11
1.0279820091583e-08
3.22279936677721e-06
4.96767047097364e-06
6.02597232605616e-06
6.58390537565631e-06
6.84235838793581e-06
6.94876953603633e-06
6.98817471063525e-06
7.00145165268189e-06
7.00556498635904e-06
7.0067472141961e-06
7.00706433881512e-06
7.00714357556298e-06
7.00716135801948e-06
7.00716423467702e-06
7.0071638542395e-06
7.00716291650325e-06
7.00716194564692e-06
7.00716104415002e-06
7.00716022471608e-06
7.00715948507787e-06
7.0071588208292e-06
7.00715822923222e-06
7.007157708523e-06
7.00715725838483e-06
7.00715687931698e-06
7.00715657447937e-06
7.00715635290904e-06
7.00715622342311e-06
7.00715618911517e-06
7.00715622450056e-06
7.00715628860626e-06
7.00715629055121e-06
7.0071555377905e-06
7.00715077220834e-06
7.00712931911918e-06
7.00704087228416e-06
7.00669849734852e-06
7.00545069412446e-06
7.00118654925602e-06
6.98762120687956e-06
6.94781164171142e-06
6.84117465263792e-06
6.58346338478251e-06
6.02831513467176e-06
4.97497269488965e-06
3.23469096232401e-06
1.03786353838853e-08
4.0776491631104e-11
4.16507941168615e-11
1.07340832024193e-08
3.36316015844651e-06
5.17794463396282e-06
6.27815283784729e-06
6.85862536774295e-06
7.12795516282544e-06
7.23909527683426e-06
7.28036617494909e-06
7.29431686561637e-06
7.29865492347691e-06
7.29990703443786e-06
7.30024466119755e-06
7.30032969935082e-06
7.30034917836778e-06
7.30035262583333e-06
7.30035248953037e-06
7.30035169614143e-06
7.30035083231282e-06
7.30035001593603e-06
7.30034926513381e-06
7.30034857997242e-06
7.30034795779298e-06
7.30034739682821e-06
7.30034689581589e-06
7.30034645466147e-06
7.30034607368575e-06
7.30034575496902e-06
7.30034550294637e-06
7.3003453230804e-06
7.30034521833318e-06
7.30034518693581e-06
7.30034515746308e-06
7.30034504404054e-06
7.30034407593026e-06
7.30033904619324e-06
7.30031676882854e-06
7.30022527179781e-06
7.29987114432164e-06
7.29857929506442e-06
7.29415952865801e-06
7.28008410694987e-06
7.23874215421554e-06
7.12793364024202e-06
6.86004516746065e-06
6.28285326120923e-06
5.18737302513888e-06
3.37605089982273e-06
1.08335871166965e-08
4.24495911174024e-11
4.27717600277015e-11
1.10413215292546e-08
3.45908652135624e-06
5.32194610469841e-06
6.45118880269331e-06
7.04742770144992e-06
7.32445088051706e-06
7.43897746282248e-06
7.48160234069217e-06
7.49604891469209e-06
7.50055482863584e-06
7.50185995499974e-06
7.50221340198681e-06
7.50230301421662e-06
7.50232387178619e-06
7.50232780858043e-06
7.50232789447905e-06
7.50232723810347e-06
7.50232647787029e-06
7.50232574504628e-06
7.50232506255438e-06
7.50232443271314e-06
7.50232385426351e-06
7.50232332633457e-06
7.50232284816783e-06
7.50232241989189e-06
7.5023220417324e-06
7.50232171512299e-06
7.50232144237761e-06
7.50232122676284e-06
7.50232106971155e-06
7.50232096700434e-06
7.50232087285986e-06
7.50232064790011e-06
7.50231953871196e-06
7.50231428437438e-06
7.50229141476783e-06
7.5021978345209e-06
7.50183575240951e-06
7.50051402917739e-06
7.49598825293145e-06
7.4815639347134e-06
7.43917055083354e-06
7.32549425728716e-06
7.0506037776027e-06
6.45824695594542e-06
5.33378874672167e-06
3.47358617417386e-06
1.11451245910034e-08
4.35800736587615e-11
4.34931200416529e-11
1.12417894732965e-08
3.52245019694334e-06
5.41737628263873e-06
6.56616166457683e-06
7.17312487351615e-06
7.45544292469321e-06
7.57233014604545e-06
7.61591176880434e-06
7.63071376805367e-06
7.63534178706885e-06
7.63668607877045e-06
7.63705140827998e-06
7.63714452435739e-06
7.63716646524054e-06
7.6371708018059e-06
7.63717107985664e-06
7.63717054398815e-06
7.63716987592708e-06
7.63716921823395e-06
7.63716859786403e-06
7.63716801906702e-06
7.63716748173634e-06
7.6371669857482e-06
7.63716653077995e-06
7.63716611716222e-06
7.63716574507684e-06
7.63716541555093e-06
7.63716512980929e-06
7.63716488977581e-06
7.63716469579408e-06
7.63716454259536e-06
7.63716439190697e-06
7.63716408570129e-06
7.63716286726108e-06
7.63715744165545e-06
7.63713416081267e-06
7.63703919929058e-06
7.63667189582676e-06
7.63533053481229e-06
7.6307347934716e-06
7.61607931607539e-06
7.5729872308054e-06
7.45740154740788e-06
7.17784467868546e-06
6.5753791732267e-06
5.43160401608058e-06
3.53878952535207e-06
1.13516448074709e-08
4.43198506896158e-11
4.39420688425578e-11
1.13682838115796e-08
3.56297949312392e-06
5.47867387470884e-06
6.64024763950683e-06
7.25430858551165e-06
7.540174319938e-06
7.65866415295576e-06
7.70290435509436e-06
7.71795456158432e-06
7.72266912857065e-06
7.72404161090261e-06
7.72441563348554e-06
7.72451136071541e-06
7.72453412634718e-06
7.72453877778089e-06
7.72453921345303e-06
7.72453877741363e-06
7.72453818660959e-06
7.72453759252344e-06
7.72453702533587e-06
7.7245364908461e-06
7.72453598985709e-06
7.72453552282266e-06
7.72453508976964e-06
7.72453469119339e-06
7.7245343272608e-06
7.7245339987429e-06
7.72453370624981e-06
7.72453345087035e-06
7.72453323216052e-06
7.72453304411985e-06
7.72453285037488e-06
7.72453248580108e-06
7.72453118803915e-06
7.72452563981199e-06
7.72450208315569e-06
7.72440623287511e-06
7.72403560501784e-06
7.72268172767351e-06
7.71804122606355e-06
7.70323731338278e-06
7.65969524708418e-06
7.54287739071067e-06
7.26030563522786e-06
6.65130501123283e-06
5.49503485571127e-06
3.58109740489352e-06
1.14844690767712e-08
4.47897614445469e-11
4.42129554214693e-11
1.1445652257611e-08
3.58813021913636e-06
5.51690139153985e-06
6.68661926896695e-06
7.30525493474645e-06
7.59343665099649e-06
7.71298689424116e-06
7.75766904105839e-06
7.77288824992355e-06
7.77766263364436e-06
7.77905490113478e-06
7.77943512369964e-06
7.77953274690558e-06
7.77955612333072e-06
7.77956101501547e-06
7.77956157456965e-06
7.77956121732543e-06
7.77956068875312e-06
7.77956014652295e-06
7.77955962325709e-06
7.77955912594503e-06
7.77955865607139e-06
7.77955821451302e-06
7.77955780155315e-06
7.77955741781279e-06
7.77955706345755e-06
7.77955673909529e-06
7.77955644496804e-06
7.77955618163528e-06
7.7795559480939e-06
7.77955573778612e-06
7.77955551455489e-06
7.77955511025867e-06
7.77955375826088e-06
7.77954812697875e-06
7.77952439201004e-06
7.77942798710198e-06
7.77905530523526e-06
7.77769368723392e-06
7.77302540325486e-06
7.75812902021339e-06
7.71430579687565e-06
7.59671638685251e-06
7.31225399867505e-06
6.69915082727051e-06
5.53502790358908e-06
3.60778978613511e-06
1.15675229064619e-08
4.50801141206889e-11
4.43717768928376e-11
1.14916221745676e-08
3.60330070430896e-06
5.54008758135797e-06
6.71485880477444e-06
7.33636900643262e-06
7.62602528022684e-06
7.74626003643096e-06
7.7912315687232e-06
7.80656307654459e-06
7.81137780819674e-06
7.81278362779653e-06
7.81316816554158e-06
7.81326713180923e-06
7.81329094928162e-06
7.81329602096719e-06
7.81329667605252e-06
7.81329637775311e-06
7.81329589805246e-06
7.81329539715852e-06
7.81329490944535e-06
7.81329444278123e-06
7.81329399914092e-06
7.81329357969022e-06
7.81329318489146e-06
7.81329281544753e-06
7.81329247153279e-06
7.81329215364751e-06
7.81329186180906e-06
7.81329159623517e-06
7.81329135553702e-06
7.81329113274186e-06
7.81329089148836e-06
7.81329046219841e-06
7.81328907552019e-06
7.81328339108404e-06
7.81325954529163e-06
7.81316280488899e-06
7.81278889066963e-06
7.81142262273076e-06
7.80673758824478e-06
7.79178524745946e-06
7.74779136273289e-06
7.62973251489803e-06
7.34411772339778e-06
6.7285100599911e-06
5.55958504818451e-06
3.62419274829448e-06
1.16181115614134e-08
4.52549698241173e-11
4.44624459023497e-11
1.15182096678906e-08
3.61221110895941e-06
5.55378801653683e-06
6.7316182193915e-06
7.35489140226882e-06
7.64546435445673e-06
7.76613065413859e-06
7.81128728042269e-06
7.82669168535001e-06
7.83153300570525e-06
7.8329478944583e-06
7.83333536655329e-06
7.83343526232969e-06
7.83345939094983e-06
7.83346459346256e-06
7.83346532007271e-06
7.83346506994446e-06
7.83346462857739e-06
7.83346416057346e-06
7.8334637016707e-06
7.83346326039436e-06
7.83346283905748e-06
7.83346243900305e-06
7.83346206080181e-06
7.83346170521065e-06
7.83346137240787e-06
7.83346106282518e-06
7.83346077633608e-06
7.83346051293454e-06
7.83346027097197e-06
7.83346004317794e-06
7.83345979294357e-06
7.83345934994327e-06
7.83345794322483e-06
7.83345222724333e-06
7.83342831586088e-06
7.83333137926136e-06
7.83295674687956e-06
7.83158776269915e-06
7.82689290476682e-06
7.81190762208987e-06
7.76781294820837e-06
7.64947614142776e-06
7.36317753110415e-06
6.74608075619763e-06
5.57429402773233e-06
3.63402710837165e-06
1.16481814915142e-08
4.53577825930449e-11
4.4512939101005e-11
1.15332053739464e-08
3.61731588025103e-06
5.56168732418535e-06
6.74132641960178e-06
7.36565630826291e-06
7.65678635692788e-06
7.77771867681685e-06
7.82299107727414e-06
7.83844176105544e-06
7.84330021845409e-06
7.84472104371829e-06
7.84511046808728e-06
7.84521099375886e-06
7.84523533818744e-06
7.84524063473665e-06
7.84524141680896e-06
7.84524120513983e-06
7.84524079410587e-06
7.84524035254842e-06
7.84523991728079e-06
7.84523949733814e-06
7.84523909525571e-06
7.84523871246738e-06
7.84523834960204e-06
7.84523800743853e-06
7.84523768616129e-06
7.84523738615455e-06
7.84523710719819e-06
7.84523684913148e-06
7.84523661013231e-06
7.84523638272599e-06
7.84523613010325e-06
7.84523568152706e-06
7.84523426514138e-06
7.845228532458e-06
7.84520458471466e-06
7.84510753769244e-06
7.84473249884384e-06
7.84336196994443e-06
7.83866149974498e-06
7.82365732083068e-06
7.77950463640276e-06
7.66100739504903e-06
7.37431311423606e-06
6.75635260943401e-06
5.58290134828482e-06
3.63978857275213e-06
1.16656517129467e-08
4.54169000894829e-11
4.45404116958282e-11
1.1541466246134e-08
3.62017277362725e-06
5.56613809731869e-06
6.74682352261304e-06
7.37177321664191e-06
7.66323466938927e-06
7.78432753317422e-06
7.82967083626635e-06
7.84515028802611e-06
7.85001956119586e-06
7.85144419243196e-06
7.85183488979984e-06
7.85193583477532e-06
7.85196032761628e-06
7.85196569251974e-06
7.85196651804856e-06
7.85196633753782e-06
7.85196595103098e-06
7.85196553136251e-06
7.85196511609249e-06
7.85196471466204e-06
7.85196432974183e-06
7.85196396279878e-06
7.85196361447236e-06
7.8519632855509e-06
7.85196297621828e-06
7.85196268682511e-06
7.85196241708364e-06
7.85196216672135e-06
7.85196193379451e-06
7.85196171068825e-06
7.85196146045387e-06
7.85196101211185e-06
7.85195959330507e-06
7.85195385392341e-06
7.85192988831258e-06
7.85183278235627e-06
7.85145752063957e-06
7.85008613588992e-06
7.84538253729006e-06
7.83036777794835e-06
7.78618249540803e-06
7.66759482724492e-06
7.38067691815899e-06
6.76222687782768e-06
5.58782916017435e-06
3.64309147040078e-06
1.16755866801689e-08
4.54501873944915e-11
4.45550317514317e-11
1.15459165752341e-08
3.62173666086593e-06
5.56859187612981e-06
6.74987011951015e-06
7.37517604986456e-06
7.66683073752064e-06
7.7880185828999e-06
7.83340445643604e-06
7.84890144065474e-06
7.85377740683966e-06
7.85520443137577e-06
7.85559594391873e-06
7.85569716414309e-06
7.85572175885793e-06
7.85572717439179e-06
7.85572803504565e-06
7.85572788046872e-06
7.85572751401821e-06
7.85572711306937e-06
7.85572671527932e-06
7.85572633039092e-06
7.85572596116166e-06
7.85572560905053e-06
7.85572527468273e-06
7.85572495884411e-06
7.85572466172073e-06
7.85572438363961e-06
7.85572412425512e-06
7.85572388320437e-06
7.85572365845548e-06
7.85572344229659e-06
7.85572319768893e-06
7.85572275349922e-06
7.85572133708769e-06
7.85571559747269e-06
7.85569162533812e-06
7.85559449052597e-06
7.85521911115296e-06
7.85384726443734e-06
7.84914196178743e-06
7.83412140867222e-06
7.78991820690456e-06
7.67128067307768e-06
7.38423908426771e-06
6.76551748238085e-06
5.59059288743933e-06
3.64494657368528e-06
1.16811233805856e-08
4.54685617265211e-11
4.45626445656363e-11
1.15482626358527e-08
3.62257471184584e-06
5.56991682136332e-06
6.75152447379134e-06
7.37703132146201e-06
7.66879660770968e-06
7.79003962114364e-06
7.8354505888422e-06
7.85095806353202e-06
7.85583809649911e-06
7.85726659961564e-06
7.85765862609333e-06
7.8577600254395e-06
7.85778469071444e-06
7.85779014509597e-06
7.85779103520322e-06
7.85779090241469e-06
7.85779055326232e-06
7.85779016903883e-06
7.85778978720577e-06
7.85778941771875e-06
7.85778906336796e-06
7.85778872556655e-06
7.85778840492299e-06
7.85778810221808e-06
7.85778781764186e-06
7.85778755150398e-06
7.85778730340654e-06
7.85778707290421e-06
7.85778685789898e-06
7.85778665060825e-06
7.85778641394433e-06
7.85778597666617e-06
7.85778456596792e-06
7.85777883041917e-06
7.85775485882671e-06
7.85765771262693e-06
7.85728227475402e-06
7.85591018601137e-06
7.85120397574295e-06
7.83618031424438e-06
7.7919674568719e-06
7.67330296504808e-06
7.38619431655565e-06
6.76732502335796e-06
5.59211285975395e-06
3.64596836175733e-06
1.16841496643251e-08
4.54785112955374e-11
4.45665188087006e-11
1.15494721299205e-08
3.62301429546107e-06
5.57061764397524e-06
6.75240502764051e-06
7.37802323872346e-06
7.66985076468331e-06
7.79112529011899e-06
7.83655080513827e-06
7.85206445249874e-06
7.85694691590917e-06
7.85837631840561e-06
7.85876866504546e-06
7.85887018078796e-06
7.85889489602923e-06
7.85890038159667e-06
7.8589012970002e-06
7.85890118309908e-06
7.85890084951784e-06
7.85890048082114e-06
7.85890011407125e-06
7.85889975934776e-06
7.85889941942371e-06
7.85889909565719e-06
7.85889878862804e-06
7.85889849910315e-06
7.85889822729616e-06
7.85889797350521e-06
7.85889773728366e-06
7.85889751810486e-06
7.85889731381751e-06
7.85889711660129e-06
7.85889688934663e-06
7.85889646073454e-06
7.8588950578596e-06
7.85888932912262e-06
7.85886536242791e-06
7.85876821492282e-06
7.85839275135431e-06
7.85702054114696e-06
7.85231385932549e-06
7.83728856285521e-06
7.79307059722711e-06
7.67439179146373e-06
7.3872474335579e-06
6.76829927116425e-06
5.59293303936483e-06
3.64652050571437e-06
1.16857723356325e-08
4.54837961536603e-11
4.45684359440079e-11
1.1550079502821e-08
3.62323934105097e-06
5.57098002615683e-06
6.75286375308613e-06
7.37854270799398e-06
7.67040473371698e-06
7.79169699543135e-06
7.8371308206113e-06
7.85264804670414e-06
7.85753194172521e-06
7.85896188429432e-06
7.85935442891e-06
7.85945602095171e-06
7.85948077304568e-06
7.85948628499888e-06
7.8594872230202e-06
7.85948712643081e-06
7.85948680764996e-06
7.85948645413318e-06
7.85948610233121e-06
7.85948576233839e-06
7.85948543687572e-06
7.85948512723491e-06
7.85948483397862e-06
7.85948455786991e-06
7.85948429914629e-06
7.8594840580994e-06
7.85948383423198e-06
7.85948362694287e-06
7.85948343403707e-06
7.85948324767519e-06
7.85948303076476e-06
7.85948261192337e-06
7.85948121820836e-06
7.85947549815504e-06
7.85945153928734e-06
7.85935439662929e-06
7.85897892591077e-06
7.8576066603901e-06
7.85289974362417e-06
7.83787360925329e-06
7.79365299604787e-06
7.67496672826337e-06
7.38780369046412e-06
6.76881415994431e-06
5.59336689920879e-06
3.64681292404584e-06
1.16866247448103e-08
4.5486544959326e-11
4.45693427636365e-11
1.15503722799827e-08
3.62335043863742e-06
5.57116141875892e-06
6.75309576191971e-06
7.37880731585294e-06
7.67068819773191e-06
7.79199031363896e-06
7.83742882666681e-06
7.85294810170385e-06
7.85783283006635e-06
7.85926309404902e-06
7.85965576097283e-06
7.8597574039848e-06
7.85978218503055e-06
7.85978772081743e-06
7.85978868020318e-06
7.85978860034759e-06
7.85978829640674e-06
7.85978795840908e-06
7.8597876219642e-06
7.85978729706678e-06
7.85978698635333e-06
7.85978669107996e-06
7.85978641181186e-06
7.8597861493186e-06
7.85978590385579e-06
7.85978567569985e-06
7.8597854643083e-06
7.85978526901823e-06
7.85978508759422e-06
7.85978491219172e-06
7.85978470575763e-06
7.85978429685576e-06
7.85978291260583e-06
7.85977720229078e-06
7.85975325319314e-06
7.85965611930439e-06
7.85928065248646e-06
7.8579083694694e-06
7.8532013490017e-06
7.8381748115196e-06
7.79395288222618e-06
7.67526284165266e-06
7.38809028144455e-06
6.76907956434781e-06
5.59359068301565e-06
3.64696389454315e-06
1.16870610858254e-08
4.54879369848605e-11
4.45697261004188e-11
1.15504997854692e-08
3.62340068822885e-06
5.57124568812389e-06
6.75320569316917e-06
7.37893430483752e-06
7.67082530031501e-06
7.79213281095347e-06
7.83757393548117e-06
7.85309437011926e-06
7.85797957877041e-06
7.85941003279944e-06
7.85980277521147e-06
7.85990445263325e-06
7.85992925838418e-06
7.85993481750483e-06
7.85993579849678e-06
7.85993573607888e-06
7.85993544796731e-06
7.85993512661622e-06
7.85993480656091e-06
7.85993449759531e-06
7.85993420228864e-06
7.85993392189993e-06
7.85993365701867e-06
7.85993340842724e-06
7.85993317638579e-06
7.8599329611451e-06
7.85993276212783e-06
7.85993257861599e-06
7.85993240832492e-06
7.85993224339419e-06
7.85993204679592e-06
7.8599316470432e-06
7.85993027146406e-06
7.85992457183154e-06
7.85990063454126e-06
7.85980351295339e-06
7.8594280584502e-06
7.85805578356208e-06
7.85334874104502e-06
7.83832205681099e-06
7.79409957282181e-06
7.67540781100961e-06
7.38823074745486e-06
6.76920981163136e-06
5.59370063899883e-06
3.6470382159836e-06
1.16872744373799e-08
4.54886112973711e-11
4.45698168081639e-11
1.15505336319424e-08
3.62341618107418e-06
5.57127450734245e-06
6.75324598246414e-06
7.37898288375335e-06
7.67087908636989e-06
7.79218948958669e-06
7.8376320582415e-06
7.85315315272512e-06
7.85803864513049e-06
7.8594692188786e-06
7.85986201469485e-06
7.85996372117762e-06
7.85998855147977e-06
7.85999413528813e-06
7.85999513955558e-06
7.85999509635289e-06
7.85999482571341e-06
7.85999452260311e-06
7.85999422025397e-06
7.8599939281936e-06
7.85999364897884e-06
7.85999338391955e-06
7.8599931336592e-06
7.85999289899645e-06
7.85999268018791e-06
7.85999247744906e-06
7.85999229017453e-06
7.85999211758469e-06
7.85999195732069e-06
7.85999180145163e-06
7.85999161291044e-06
7.85999122014975e-06
7.85998985070996e-06
7.8599841590304e-06
7.85996023015706e-06
7.859863118058e-06
7.85948767681146e-06
7.8581154240864e-06
7.8534084144807e-06
7.83838175786658e-06
7.79415923336405e-06
7.67546704081014e-06
7.3882885090306e-06
6.76926381306225e-06
5.59374666994503e-06
3.64706973947681e-06
1.16873656986687e-08
4.54889039683676e-11
4.4569669531204e-11
1.15504940983387e-08
3.62340621529432e-06
5.5712640512453e-06
6.75323773135868e-06
7.3789773702087e-06
7.67087574998718e-06
7.79218753119881e-06
7.83763084832382e-06
7.85315230843127e-06
7.85803796912788e-06
7.85946862099909e-06
7.85986145679369e-06
7.85996318841182e-06
7.85998803963804e-06
7.85999364525988e-06
7.85999467074674e-06
7.85999464526899e-06
7.8599943906953e-06
7.85999410495224e-06
7.85999381968878e-06
7.85999354407332e-06
7.85999328067786e-06
7.85999303088828e-06
7.8599927954111e-06
7.85999257505735e-06
7.85999237007238e-06
7.85999218063838e-06
7.85999200612198e-06
7.85999184567577e-06
7.85999169683816e-06
7.85999155155977e-06
7.85999137267926e-06
7.85999098863015e-06
7.85998962711134e-06
7.85998394281369e-06
7.85996002097502e-06
7.85986291836556e-06
7.85948749579509e-06
7.85811528652995e-06
7.85340837716969e-06
7.83838193372245e-06
7.79415981884243e-06
7.6754683011719e-06
7.38829072239492e-06
6.76926711223583e-06
5.59375081391317e-06
3.64707377792321e-06
1.16873813775537e-08
4.54889600879948e-11
4.45692499166825e-11
1.15503720471188e-08
3.62336849063142e-06
5.57121212993096e-06
6.75317944272429e-06
7.37891697668837e-06
7.67081504746117e-06
7.79212703815953e-06
7.83757059476663e-06
7.85309221188797e-06
7.85797795803691e-06
7.85940865484344e-06
7.85980151608233e-06
7.85990326493342e-06
7.85992813017717e-06
7.85993375083804e-06
7.85993479206723e-06
7.85993477981027e-06
7.85993453686682e-06
7.85993426510842e-06
7.85993399427385e-06
7.85993373305762e-06
7.85993348403603e-06
7.85993324867086e-06
7.85993302772236e-06
7.85993282202084e-06
7.85993263180666e-06
7.85993245723746e-06
7.85993229766044e-06
7.8599321521553e-06
7.85993201814807e-06
7.85993188745411e-06
7.85993172282652e-06
7.8599313527823e-06
7.85993000506039e-06
7.85992433244268e-06
7.85990042308503e-06
7.85980333909525e-06
7.85942795457832e-06
7.85805583573875e-06
7.85334914725668e-06
7.83832321518035e-06
7.79410217359722e-06
7.67541283398558e-06
7.38823922137798e-06
6.76922222825154e-06
5.59371601952575e-06
3.64705277925154e-06
1.16873275686072e-08
4.5488793382399e-11
4.4568443095639e-11
1.15501293938194e-08
3.62328837212875e-06
5.5710971311424e-06
6.75304610934048e-06
7.37877523021678e-06
7.67066999461579e-06
7.79198090372837e-06
7.83742418905931e-06
7.85294577429211e-06
7.85783153922524e-06
7.85926225775304e-06
7.85965513597515e-06
7.85975689848954e-06
7.85978177597321e-06
7.85978740975013e-06
7.85978846570254e-06
7.85978846610212e-06
7.8597882335055e-06
7.85978797477187e-06
7.85978771753792e-06
7.85978747001159e-06
7.85978723476955e-06
7.859787013342e-06
7.85978680655333e-06
7.85978661526853e-06
7.85978643974026e-06
7.85978628010629e-06
7.85978613567507e-06
7.85978600542359e-06
7.85978588663044e-06
7.85978577094785e-06
7.85978562106648e-06
7.85978526565707e-06
7.85978393257664e-06
7.85977827308401e-06
7.85975437995989e-06
7.8596573242878e-06
7.85928200476592e-06
7.85791005130899e-06
7.85320378383159e-06
7.83817886541423e-06
7.79396008550427e-06
7.67527542643871e-06
7.38811067297635e-06
6.76910898297128e-06
5.59362679392774e-06
3.64699755928829e-06
1.16871840758284e-08
4.54883891286233e-11
4.45668922665498e-11
1.15496624098838e-08