/*--------------------------------*- C++ -*----------------------------------*\
  =========                 |
  \\      /  F ield         | OpenFOAM: The Open Source CFD Toolbox
   \\    /   O peration     | Website:  https://openfoam.org
    \\  /    A nd           | Version:  10
     \\/     M anipulation  |
\*---------------------------------------------------------------------------*/
FoamFile
{
    format      ascii;
    class       volScalarField;
    location    "2.8";
    object      h;
}
// * * * * * * * * * * * * * * * * * * * * * * * * * * * * * * * * * * * * * //

dimensions      [0 2 -2 0 0 0 0];

internalField   nonuniform List<scalar> 
2500
(
7067.76193126257
7029.34272464954
7003.57424988831
6993.68737104799
6990.33802035484
6989.24025584595
6988.89395967643
6988.78916376451
6988.75796572491
6988.74914647685
6988.74519059621
6988.74329698213
6988.74229260512
6988.74111288909
6988.74002006894
6988.73881911354
6988.73818901881
6988.73741490077
6988.73653565473
6988.73590738982
6988.73530925081
6988.73470091357
6988.73416541651
6988.73394179602
6988.73370138745
6988.73336945536
6988.73327204756
6988.73317434798
6988.73307676834
6988.73317747083
6988.73330113486
6988.73344393364
6988.73379670145
6988.73427812103
6988.734727838
6988.73519181437
6988.73572308444
6988.73620197609
6988.73726944159
6988.7387634575
6988.74229095862
6988.75302448178
6988.78846762579
6988.90455996365
6989.27341263308
6990.3920664872
6993.73104276269
7003.59233394224
7029.73024187634
7067.64771099465
5142.54616741928
5039.54905393894
4967.85056075017
4937.07006579507
4925.13865607807
4920.74035375868
4919.21466940406
4918.72291561513
4918.57577887523
4918.53486862022
4918.52351988345
4918.52035647294
4918.51950434738
4918.51894839462
4918.5184858126
4918.51801745429
4918.5177523496
4918.51743464383
4918.51705880974
4918.51675363679
4918.51638413378
4918.51591515429
4918.51546771744
4918.515335231
4918.51525283492
4918.51503181934
4918.5149990287
4918.51496108872
4918.51482720971
4918.51497434037
4918.51502806515
4918.51490718351
4918.51532070123
4918.51590973493
4918.51617272193
4918.51634091718
4918.51657005909
4918.5169132996
4918.51812751487
4918.52200392529
4918.53610400429
4918.58620783813
4918.75497080018
4919.28968458911
4920.87631940714
4925.30189398521
4937.12503990182
4967.80816501264
5040.86031096483
5143.79123815982
3638.13845753655
3525.8330874968
3449.68372584708
3416.62037593031
3403.76916139044
3399.01630931905
3397.35598558689
3396.81564254615
3396.65256659524
3396.60690043948
3396.59454185426
3396.59138098842
3396.59088482516
3396.59071243364
3396.59061360564
3396.59055562602
3396.59052907154
3396.59048394484
3396.590378668
3396.59028299602
3396.59011603901
3396.58984902885
3396.58955385881
3396.589424532
3396.58939411083
3396.58931095039
3396.58933488195
3396.58935044071
3396.58928179829
3396.58938283044
3396.58937817681
3396.58922383388
3396.58953692189
3396.59000892002
3396.59003290914
3396.58995982257
3396.59006052089
3396.59023945416
3396.59126587186
3396.59519147699
3396.61010189251
3396.66395402934
3396.84571504336
3397.42122293298
3399.12676252273
3403.88809726728
3416.64134294141
3449.75279335459
3527.71492537401
3642.78660121785
2705.26740384808
2622.13844663632
2572.32396154969
2551.19502247377
2543.33934445508
2540.5455276098
2539.59292375806
2539.28621880109
2539.19387686325
2539.16798302322
2539.1609289404
2539.15921777583
2539.15910503874
2539.15909575562
2539.15911707456
2539.15914507319
2539.15916694838
2539.15917842074
2539.15916216515
2539.15915454835
2539.15912235191
2539.1590107375
2539.15884790924
2539.15876585539
2539.15877650867
2539.15877474487
2539.15877567142
2539.15880726746
2539.15883493611
2539.15884493844
2539.15882653729
2539.15873848173
2539.1588873439
2539.15913340819
2539.1591260049
2539.15910551472
2539.1591072271
2539.15907362203
2539.1595266847
2539.16149545758
2539.16930139108
2539.19818466785
2539.29712728678
2539.6158582491
2540.58273123769
2543.37485192209
2551.20325008542
2572.51192370461
2623.82203004143
2710.98071933717
2219.17084881148
2170.836618383
2145.30147779097
2134.6673403307
2130.84496762503
2129.52808942432
2129.08755006232
2128.94651886243
2128.90393047592
2128.89191199564
2128.88860040962
2128.88782766563
2128.88783143067
2128.88786359291
2128.88789876677
2128.8879286539
2128.88795702965
2128.88797908623
2128.88798530103
2128.88798995228
2128.8879882746
2128.88795397703
2128.88788048509
2128.88784464832
2128.88786481547
2128.88787457061
2128.88787725995
2128.88790175681
2128.88791962395
2128.88791665275
2128.88790611255
2128.88786029648
2128.88792415762
2128.88802547017
2128.88801997681
2128.88801314482
2128.88799837834
2128.88796031824
2128.88809629976
2128.8888888447
2128.89227354927
2128.90497487146
2128.94884511025
2129.09163215814
2129.53221698387
2130.84038934981
2134.65118948315
2145.424291865
2171.92388389286
2223.69741148595
1998.22074811292
1974.56505280172
1963.4768877083
1958.92000339527
1957.31987316155
1956.78187367571
1956.60457547151
1956.54798385455
1956.53080256242
1956.52591299972
1956.52455097017
1956.52424315108
1956.52426267247
1956.52428962396
1956.52431310257
1956.52433118863
1956.52434952151
1956.52436437853
1956.52437169009
1956.52437456786
1956.52437893694
1956.52436905028
1956.52434217
1956.52433363154
1956.52434238988
1956.52434787709
1956.52435188181
1956.52436418309
1956.52437360314
1956.52437195758
1956.52436699517
1956.52434702954
1956.52437094418
1956.52440567816
1956.52440272329
1956.52439948624
1956.52438739769
1956.52437060801
1956.52439687976
1956.52467565653
1956.525982026
1956.53091882438
1956.54802077918
1956.60393385928
1956.77841843008
1957.30784445005
1958.89740251501
1963.52231082049
1975.12355101755
2000.97933472916
1908.29797673326
1898.14851916074
1893.88301692009
1892.14877668973
1891.54895152124
1891.3508655122
1891.28636085311
1891.26580659201
1891.25952878181
1891.2577245816
1891.25721975737
1891.25711106435
1891.25712264369
1891.25713723085
1891.2571492488
1891.25715831833
1891.25716722953
1891.25717429666
1891.2571785309
1891.25717984399
1891.2571831078
1891.2571803872
1891.25717224214
1891.25717247381
1891.2571759363
1891.25717790997
1891.25717997118
1891.25718471549
1891.25718870265
1891.25718842217
1891.2571864248
1891.25717875782
1891.25718662424
1891.25719676643
1891.25719512293
1891.25719336511
1891.25718655465
1891.2571782893
1891.25718042658
1891.25727271178
1891.25773477024
1891.25949224976
1891.26557376843
1891.28545636952
1891.34790506454
1891.54047388637
1892.13212568845
1893.89143839538
1898.39013179249
1909.69851049315
1874.89845059332
1870.97751983419
1869.48083925664
1868.87881367224
1868.67250255059
1868.60522418288
1868.58352347162
1868.57661785224
1868.57449687421
1868.57388133913
1868.57370983047
1868.57367502402
1868.57367970849
1868.57368610604
1868.5736914218
1868.57369538655
1868.57369898655
1868.57370178915
1868.57370370595
1868.57370429042
1868.57370585858
1868.57370526198
1868.5737033031
1868.57370443754
1868.57370570225
1868.57370643391
1868.57370717511
1868.57370867231
1868.57371013378
1868.5737102339
1868.57370953873
1868.57370687324
1868.5737091486
1868.57371162495
1868.57371074273
1868.57370985379
1868.57370674811
1868.57370297869
1868.57370181501
1868.57373072642
1868.57388401284
1868.57446857648
1868.57648352708
1868.58304970085
1868.60372594293
1868.66820958876
1868.86972425123
1869.47902520947
1871.06872355735
1875.51813500838
1863.41219024176
1862.02235948535
1861.5336341018
1861.33946500216
1861.27327768775
1861.25187157058
1861.24501877751
1861.24284125345
1861.24216938394
1861.24197278628
1861.24191847707
1861.24190808137
1861.24190977074
1861.24191223251
1861.24191432898
1861.24191586994
1861.24191716656
1861.24191817003
1861.2419189399
1861.24191922423
1861.24191974269
1861.24191972856
1861.24191947676
1861.241920025
1861.24192045943
1861.24192071831
1861.24192096226
1861.24192138013
1861.24192184951
1861.2419219424
1861.24192171081
1861.24192085172
1861.24192143616
1861.24192189865
1861.24192147604
1861.24192107411
1861.24191985228
1861.24191834463
1861.24191750521
1861.2419262003
1861.24197446409
1861.24215834227
1861.24278875557
1861.24483210114
1861.2512632904
1861.27146486229
1861.33535634008
1861.53110281011
1862.05308226996
1863.65813605667
1859.71343609029
1859.25507474635
1859.10443751965
1859.04546961156
1859.02542941923
1859.01897918007
1859.01692612007
1859.01627488376
1859.0160732864
1859.0160139365
1859.01599770267
1859.01599475964
1859.015995334
1859.01599619445
1859.01599694378
1859.01599748741
1859.01599792133
1859.01599827286
1859.01599856274
1859.01599868129
1859.01599881864
1859.01599887059
1859.01599891086
1859.01599911169
1859.01599924139
1859.01599932672
1859.01599940838
1859.0159995184
1859.01599965187
1859.015999691
1859.01599961456
1859.01599935242
1859.01599948073
1859.01599952316
1859.01599934612
1859.01599918261
1859.01599875221
1859.01599821651
1859.0159978599
1859.0160003943
1859.01601491233
1859.01607004974
1859.01625797923
1859.01686313787
1859.01876263449
1859.02475148373
1859.04384287062
1859.10297211579
1859.26443902554
1859.80275725376
1858.58822511342
1858.44607495817
1858.40180696881
1858.38477464571
1858.37899712591
1858.37714151399
1858.37655333895
1858.37636714105
1858.37630938919
1858.37629231936
1858.37628769493
1858.37628689592
1858.37628708042
1858.37628735818
1858.37628760401
1858.3762877808
1858.37628791768
1858.37628803221
1858.37628813214
1858.37628818363
1858.3762882246
1858.37628825181
1858.37628828395
1858.37628834604
1858.37628838265
1858.37628840879
1858.37628843643
1858.37628846513
1858.37628849891
1858.37628851021
1858.37628848636
1858.37628840899
1858.37628841747
1858.37628841645
1858.37628836356
1858.37628829124
1858.37628815209
1858.3762879798
1858.37628785836
1858.37628857808
1858.37629276873
1858.37630861797
1858.37636232952
1858.37653408271
1858.37707090756
1858.37876498966
1858.3841909092
1858.40115442495
1858.44867590489
1858.61834291653
1858.26251360565
1858.2207110344
1858.20821930968
1858.20350445033
1858.20190766144
1858.20139488538
1858.20123278568
1858.20118157758
1858.20116568233
1858.20116097284
1858.20115970696
1858.20115949627
1858.20115955142
1858.20115963453
1858.20115970894
1858.20115976213
1858.2011598027
1858.20115983699
1858.2011598686
1858.20115988858
1858.20115990178
1858.20115991164
1858.20115992316
1858.2011599399
1858.20115994923
1858.20115995682
1858.20115996617
1858.20115997373
1858.20115998132
1858.20115998363
1858.20115997675
1858.2011599546
1858.20115994945
1858.20115994755
1858.2011599308
1858.20115990461
1858.20115986311
1858.20115981253
1858.20115977713
1858.20115997741
1858.2011611428
1858.20116552859
1858.20118031176
1858.20122725573
1858.20137322535
1858.20183330185
1858.2033102417
1858.20796741278
1858.2213695654
1858.27204652142
1858.17227146903
1858.16053665679
1858.15713468494
1858.15587647476
1858.15545113075
1858.15531437132
1858.15527119639
1858.15525758382
1858.15525335827
1858.15525210435
1858.15525176813
1858.15525171217
1858.15525172666
1858.15525174916
1858.15525176951
1858.15525178383
1858.15525179456
1858.15525180371
1858.15525181265
1858.15525181909
1858.1552518229
1858.1552518257
1858.15525182862
1858.15525183252
1858.15525183473
1858.15525183678
1858.15525183969
1858.15525184165
1858.15525184314
1858.15525184342
1858.1552518416
1858.15525183633
1858.15525183447
1858.15525183288
1858.15525182703
1858.15525181931
1858.15525180828
1858.15525179512
1858.15525178665
1858.15525184232
1858.15525215642
1858.15525332925
1858.15525726111
1858.15526966223
1858.15530800437
1858.15542851819
1858.15581561566
1858.1570462745
1858.1606872745
1858.17512834903
1858.14822309124
1858.14506132913
1858.1441638342
1858.14383864803
1858.14372897782
1858.14369364145
1858.14368248668
1858.14367897441
1858.14367788367
1858.14367755892
1858.14367747063
1858.14367745425
1858.14367745656
1858.14367746136
1858.1436774657
1858.14367746856
1858.14367747058
1858.14367747222
1858.14367747402
1858.14367747541
1858.14367747612
1858.14367747651
1858.14367747689
1858.14367747745
1858.14367747758
1858.14367747793
1858.14367747873
1858.14367747917
1858.14367747943
1858.14367747945
1858.14367747905
1858.14367747779
1858.1436774773
1858.14367747707
1858.14367747581
1858.14367747431
1858.14367747228
1858.14367746981
1858.14367746903
1858.1436774855
1858.1436775687
1858.14367787361
1858.14367888795
1858.14368206398
1858.14369182372
1858.14372238111
1858.14382048261
1858.14413492404
1858.1450915985
1858.14903929953
1858.14203373182
1858.14121242219
1858.14098237599
1858.14090066348
1858.14087319112
1858.14086431664
1858.14086151145
1858.14086062762
1858.14086035182
1858.14086026829
1858.1408602442
1858.14086023811
1858.14086023691
1858.14086023669
1858.14086023652
1858.14086023613
1858.14086023563
1858.14086023514
1858.14086023481
1858.14086023452
1858.14086023414
1858.14086023374
1858.14086023339
1858.14086023315
1858.14086023287
1858.1408602327
1858.14086023274
1858.14086023273
1858.14086023274
1858.14086023288
1858.14086023297
1858.14086023291
1858.14086023315
1858.14086023349
1858.14086023369
1858.14086023403
1858.14086023443
1858.14086023491
1858.1408602362
1858.14086024202
1858.14086026463
1858.14086034308
1858.14086059878
1858.14086139056
1858.14086380529
1858.1408713288
1858.14089545569
1858.14097344085
1858.14121734459
1858.14225728012
1858.14048989146
1858.14028344949
1858.14022598913
1858.14020594278
1858.1401992306
1858.1401970565
1858.1401963665
1858.1401961474
1858.14019607737
1858.14019605459
1858.14019604655
1858.14019604309
1858.14019604103
1858.14019603943
1858.14019603802
1858.1401960367
1858.1401960355
1858.14019603441
1858.14019603347
1858.14019603266
1858.14019603192
1858.14019603126
1858.14019603069
1858.14019603023
1858.14019602984
1858.14019602955
1858.14019602939
1858.1401960293
1858.1401960293
1858.14019602943
1858.14019602964
1858.14019602991
1858.14019603037
1858.14019603095
1858.14019603164
1858.14019603252
1858.14019603358
1858.14019603485
1858.14019603655
1858.14019603957
1858.14019604692
1858.14019606812
1858.14019613259
1858.1401963266
1858.14019691016
1858.14019871549
1858.14020449748
1858.14022335303
1858.14028388261
1858.14054885344
1858.14011556387
1858.14006521698
1858.14005116138
1858.14004632147
1858.14004471078
1858.14004418778
1858.1400440197
1858.14004396445
1858.14004394507
1858.1400439372
1858.14004393308
1858.14004393026
1858.14004392798
1858.14004392601
1858.14004392425
1858.14004392266
1858.14004392124
1858.14004391997
1858.14004391885
1858.14004391787
1858.14004391701
1858.14004391626
1858.14004391562
1858.14004391509
1858.14004391466
1858.14004391434
1858.14004391413
1858.14004391403
1858.14004391403
1858.14004391416
1858.14004391441
1858.14004391478
1858.1400439153
1858.14004391598
1858.14004391682
1858.14004391786
1858.1400439191
1858.14004392059
1858.14004392238
1858.1400439247
1858.14004392829
1858.14004393542
1858.14004395302
1858.14004400131
1858.14004414097
1858.14004456651
1858.14004592796
1858.14005041159
1858.14006510624
1858.14013059245
1858.14002711053
1858.14001519088
1858.14001177423
1858.1400105944
1858.14001020669
1858.14001008065
1858.14001003835
1858.1400100226
1858.14001001543
1858.14001001116
1858.14001000798
1858.14001000531
1858.14001000297
1858.14001000088
1858.140009999
1858.14000999732
1858.14000999582
1858.14000999448
1858.1400099933
1858.14000999226
1858.14000999135
1858.14000999056
1858.14000998989
1858.14000998933
1858.14000998888
1858.14000998855
1858.14000998833
1858.14000998822
1858.14000998823
1858.14000998836
1858.14000998862
1858.14000998902
1858.14000998958
1858.1400099903
1858.14000999119
1858.14000999228
1858.14000999359
1858.14000999514
1858.14000999695
1858.14000999911
1858.14001000178
1858.14001000551
1858.14001001189
1858.14001002553
1858.14001006027
1858.14001016139
1858.14001048514
1858.14001156464
1858.14001510269
1858.1400308183
1858.14000669455
1858.1400039756
1858.1400031051
1858.14000278706
1858.14000268611
1858.14000265346
1858.14000264091
1858.14000263454
1858.14000263029
1858.14000262689
1858.14000262394
1858.14000262131
1858.14000261894
1858.1400026168
1858.14000261488
1858.14000261315
1858.14000261161
1858.14000261024
1858.14000260902
1858.14000260795
1858.14000260701
1858.14000260619
1858.1400026055
1858.14000260493
1858.14000260447
1858.14000260413
1858.1400026039
1858.14000260379
1858.1400026038
1858.14000260394
1858.14000260422
1858.14000260463
1858.1400026052
1858.14000260594
1858.14000260686
1858.14000260798
1858.14000260932
1858.14000261089
1858.14000261271
1858.14000261482
1858.14000261726
1858.14000262016
1858.14000262387
1858.1400026294
1858.14000263985
1858.14000266641
1858.14000275223
1858.14000304414
1858.14000393223
1858.14000757601
1858.14000208241
1858.1400015115
1858.14000123708
1858.14000111803
1858.14000108307
1858.14000107205
1858.14000106646
1858.14000106234
1858.14000105881
1858.14000105564
1858.14000105276
1858.14000105013
1858.14000104775
1858.14000104559
1858.14000104364
1858.14000104189
1858.14000104032
1858.14000103892
1858.14000103768
1858.14000103658
1858.14000103562
1858.14000103479
1858.14000103409
1858.14000103351
1858.14000103304
1858.14000103269
1858.14000103246
1858.14000103235
1858.14000103236
1858.14000103251
1858.14000103279
1858.14000103322
1858.1400010338
1858.14000103455
1858.14000103549
1858.14000103662
1858.14000103797
1858.14000103956
1858.14000104138
1858.14000104347
1858.14000104585
1858.14000104852
1858.14000105157
1858.14000105517
1858.14000106004
1858.14000106974
1858.14000110206
1858.14000121551
1858.14000148812
1858.14000227808
1858.14000106058
1858.14000097977
1858.1400008422
1858.14000076837
1858.14000074842
1858.14000074241
1858.1400007385
1858.14000073495
1858.14000073164
1858.14000072855
1858.14000072569
1858.14000072307
1858.14000072067
1858.1400007185
1858.14000071653
1858.14000071476
1858.14000071317
1858.14000071175
1858.14000071049
1858.14000070938
1858.1400007084
1858.14000070756
1858.14000070685
1858.14000070626
1858.14000070579
1858.14000070543
1858.1400007052
1858.14000070509
1858.1400007051
1858.14000070525
1858.14000070554
1858.14000070598
1858.14000070657
1858.14000070733
1858.14000070828
1858.14000070943
1858.14000071079
1858.14000071238
1858.14000071421
1858.14000071629
1858.14000071863
1858.14000072122
1858.14000072407
1858.14000072717
1858.14000073071
1858.14000073658
1858.140000757
1858.14000083067
1858.14000096312
1858.14000109405
1858.140000838
1858.1400008667
1858.14000076009
1858.14000069647
1858.14000067997
1858.14000067516
1858.1400006717
1858.14000066834
1858.14000066511
1858.14000066206
1858.14000065923
1858.1400006566
1858.1400006542
1858.14000065202
1858.14000065004
1858.14000064825
1858.14000064665
1858.14000064521
1858.14000064394
1858.14000064281
1858.14000064183
1858.14000064098
1858.14000064026
1858.14000063966
1858.14000063919
1858.14000063883
1858.1400006386
1858.14000063849
1858.1400006385
1858.14000063866
1858.14000063895
1858.14000063939
1858.14000063999
1858.14000064076
1858.14000064172
1858.14000064287
1858.14000064424
1858.14000064584
1858.14000064767
1858.14000064974
1858.14000065205
1858.14000065461
1858.14000065737
1858.14000066031
1858.14000066347
1858.14000066841
1858.14000068615
1858.14000075101
1858.14000085201
1858.14000083396
1858.14000079011
1858.14000084283
1858.1400007432
1858.14000068192
1858.14000066626
1858.14000066179
1858.14000065849
1858.14000065521
1858.14000065203
1858.14000064901
1858.14000064618
1858.14000064357
1858.14000064116
1858.14000063897
1858.14000063698
1858.14000063519
1858.14000063357
1858.14000063213
1858.14000063084
1858.14000062971
1858.14000062872
1858.14000062787
1858.14000062714
1858.14000062654
1858.14000062606
1858.1400006257
1858.14000062547
1858.14000062536
1858.14000062538
1858.14000062553
1858.14000062583
1858.14000062628
1858.14000062688
1858.14000062766
1858.14000062863
1858.14000062979
1858.14000063116
1858.14000063276
1858.14000063459
1858.14000063665
1858.14000063895
1858.14000064147
1858.14000064419
1858.14000064704
1858.14000065007
1858.14000065474
1858.14000067182
1858.14000073468
1858.14000082865
1858.14000077758
1858.14000077983
1858.14000083772
1858.1400007397
1858.140000679
1858.14000066358
1858.14000065923
1858.14000065599
1858.14000065277
1858.14000064961
1858.14000064661
1858.14000064379
1858.14000064118
1858.14000063878
1858.14000063658
1858.14000063459
1858.14000063279
1858.14000063117
1858.14000062972
1858.14000062843
1858.14000062729
1858.1400006263
1858.14000062544
1858.14000062471
1858.14000062411
1858.14000062363
1858.14000062327
1858.14000062304
1858.14000062293
1858.14000062295
1858.14000062311
1858.14000062341
1858.14000062386
1858.14000062447
1858.14000062525
1858.14000062622
1858.14000062739
1858.14000062877
1858.14000063037
1858.14000063219
1858.14000063425
1858.14000063654
1858.14000063904
1858.14000064172
1858.14000064454
1858.1400006475
1858.14000065206
1858.14000066895
1858.14000073132
1858.14000082369
1858.14000076542
1858.14000077759
1858.14000083658
1858.14000073894
1858.1400006784
1858.14000066304
1858.14000065874
1858.14000065553
1858.14000065233
1858.14000064919
1858.1400006462
1858.14000064339
1858.14000064078
1858.14000063837
1858.14000063618
1858.14000063418
1858.14000063238
1858.14000063076
1858.14000062931
1858.14000062802
1858.14000062688
1858.14000062589
1858.14000062503
1858.1400006243
1858.1400006237
1858.14000062322
1858.14000062287
1858.14000062263
1858.14000062253
1858.14000062255
1858.14000062271
1858.14000062301
1858.14000062347
1858.14000062408
1858.14000062487
1858.14000062584
1858.14000062701
1858.14000062839
1858.14000062999
1858.14000063181
1858.14000063387
1858.14000063615
1858.14000063864
1858.14000064131
1858.1400006441
1858.14000064703
1858.14000065156
1858.14000066839
1858.14000073062
1858.14000082263
1858.14000076283
1858.14000077712
1858.14000083633
1858.14000073875
1858.14000067824
1858.14000066289
1858.14000065859
1858.14000065538
1858.14000065217
1858.14000064903
1858.14000064604
1858.14000064324
1858.14000064063
1858.14000063823
1858.14000063603
1858.14000063404
1858.14000063224
1858.14000063063
1858.14000062918
1858.14000062789
1858.14000062676
1858.14000062577
1858.14000062491
1858.14000062419
1858.14000062359
1858.14000062311
1858.14000062276
1858.14000062253
1858.14000062243
1858.14000062245
1858.14000062261
1858.14000062292
1858.14000062337
1858.14000062399
1858.14000062478
1858.14000062575
1858.14000062692
1858.1400006283
1858.1400006299
1858.14000063172
1858.14000063378
1858.14000063606
1858.14000063855
1858.14000064122
1858.14000064401
1858.14000064694
1858.14000065147
1858.1400006683
1858.14000073053
1858.1400008225
1858.14000076237
1858.14000077713
1858.14000083635
1858.14000073872
1858.14000067815
1858.14000066276
1858.14000065842
1858.14000065519
1858.14000065196
1858.14000064881
1858.14000064582
1858.14000064301
1858.1400006404
1858.140000638
1858.14000063581
1858.14000063383
1858.14000063204
1858.14000063043
1858.14000062899
1858.14000062771
1858.14000062658
1858.1400006256
1858.14000062475
1858.14000062403
1858.14000062343
1858.14000062296
1858.14000062261
1858.14000062239
1858.14000062229
1858.14000062232
1858.14000062248
1858.14000062278
1858.14000062324
1858.14000062385
1858.14000062464
1858.14000062561
1858.14000062678
1858.14000062816
1858.14000062976
1858.14000063158
1858.14000063364
1858.14000063593
1858.14000063843
1858.14000064111
1858.14000064392
1858.14000064688
1858.14000065145
1858.14000066832
1858.14000073062
1858.14000082268
1858.14000076251
1858.14000077734
1858.14000083653
1858.14000073875
1858.14000067807
1858.14000066259
1858.14000065818
1858.1400006549
1858.14000065163
1858.14000064846
1858.14000064545
1858.14000064263
1858.14000064002
1858.14000063763
1858.14000063545
1858.14000063348
1858.1400006317
1858.1400006301
1858.14000062868
1858.14000062741
1858.14000062629
1858.14000062532
1858.14000062448
1858.14000062376
1858.14000062318
1858.14000062271
1858.14000062237
1858.14000062215
1858.14000062205
1858.14000062208
1858.14000062224
1858.14000062255
1858.140000623
1858.14000062362
1858.1400006244
1858.14000062537
1858.14000062653
1858.14000062791
1858.14000062951
1858.14000063133
1858.1400006334
1858.14000063569
1858.14000063821
1858.14000064092
1858.14000064377
1858.14000064679
1858.14000065143
1858.1400006684
1858.14000073082
1858.14000082306
1858.14000076291
1858.14000077773
1858.14000083685
1858.14000073884
1858.14000067799
1858.14000066238
1858.14000065786
1858.14000065449
1858.14000065116
1858.14000064795
1858.14000064492
1858.1400006421
1858.14000063949
1858.14000063711
1858.14000063494
1858.14000063298
1858.14000063122
1858.14000062964
1858.14000062823
1858.14000062697
1858.14000062587
1858.14000062491
1858.14000062408
1858.14000062338
1858.1400006228
1858.14000062235
1858.14000062201
1858.14000062179
1858.1400006217
1858.14000062173
1858.14000062189
1858.1400006222
1858.14000062265
1858.14000062326
1858.14000062404
1858.140000625
1858.14000062616
1858.14000062754
1858.14000062913
1858.14000063096
1858.14000063302
1858.14000063534
1858.14000063788
1858.14000064063
1858.14000064355
1858.14000064665
1858.1400006514
1858.14000066851
1858.14000073112
1858.14000082364
1858.14000076353
1858.14000077829
1858.14000083732
1858.14000073899
1858.14000067791
1858.14000066211
1858.14000065745
1858.14000065396
1858.14000065056
1858.1400006473
1858.14000064424
1858.1400006414
1858.1400006388
1858.14000063643
1858.14000063428
1858.14000063234
1858.14000063059
1858.14000062903
1858.14000062764
1858.14000062641
1858.14000062532
1858.14000062438
1858.14000062357
1858.14000062288
1858.14000062231
1858.14000062186
1858.14000062153
1858.14000062132
1858.14000062123
1858.14000062127
1858.14000062143
1858.14000062174
1858.14000062218
1858.14000062279
1858.14000062356
1858.14000062452
1858.14000062567
1858.14000062703
1858.14000062862
1858.14000063045
1858.14000063253
1858.14000063486
1858.14000063743
1858.14000064024
1858.14000064324
1858.14000064646
1858.14000065136
1858.14000066866
1858.14000073153
1858.14000082443
1858.14000076438
1858.14000077907
1858.14000083798
1858.14000073921
1858.14000067782
1858.14000066179
1858.14000065694
1858.14000065331
1858.14000064981
1858.14000064649
1858.1400006434
1858.14000064055
1858.14000063795
1858.14000063559
1858.14000063346
1858.14000063154
1858.14000062982
1858.14000062829
1858.14000062692
1858.14000062571
1858.14000062465
1858.14000062373
1858.14000062293
1858.14000062226
1858.14000062171
1858.14000062127
1858.14000062095
1858.14000062075
1858.14000062066
1858.1400006207
1858.14000062086
1858.14000062116
1858.1400006216
1858.1400006222
1858.14000062297
1858.14000062391
1858.14000062506
1858.14000062641
1858.14000062799
1858.14000062982
1858.1400006319
1858.14000063425
1858.14000063687
1858.14000063975
1858.14000064284
1858.14000064621
1858.1400006513
1858.14000066885
1858.14000073206
1858.14000082544
1858.14000076549
1858.14000078008
1858.14000083885
1858.14000073953
1858.14000067774
1858.1400006614
1858.14000065632
1858.14000065253
1858.14000064892
1858.14000064552
1858.14000064239
1858.14000063953
1858.14000063694
1858.1400006346
1858.14000063249
1858.14000063061
1858.14000062892
1858.14000062741
1858.14000062608
1858.14000062489
1858.14000062386
1858.14000062296
1858.14000062218
1858.14000062153
1858.14000062099
1858.14000062057
1858.14000062026
1858.14000062006
1858.14000061998
1858.14000062002
1858.14000062018
1858.14000062048
1858.14000062091
1858.1400006215
1858.14000062226
1858.14000062319
1858.14000062432
1858.14000062566
1858.14000062723
1858.14000062905
1858.14000063114
1858.14000063352
1858.14000063618
1858.14000063913
1858.14000064235
1858.14000064589
1858.14000065121
1858.14000066907
1858.14000073272
1858.14000082672
1858.14000076688
1858.1400007814
1858.14000083997
1858.14000073994
1858.14000067765
1858.14000066095
1858.14000065559
1858.14000065161
1858.14000064786
1858.14000064439
1858.14000064122
1858.14000063836
1858.14000063577
1858.14000063346
1858.14000063138
1858.14000062953
1858.14000062787
1858.1400006264
1858.1400006251
1858.14000062395
1858.14000062294
1858.14000062207
1858.14000062132
1858.14000062068
1858.14000062016
1858.14000061976
1858.14000061946
1858.14000061927
1858.14000061919
1858.14000061923
1858.14000061939
1858.14000061969
1858.14000062011
1858.14000062069
1858.14000062143
1858.14000062235
1858.14000062346
1858.14000062479
1858.14000062635
1858.14000062816
1858.14000063025
1858.14000063265
1858.14000063536
1858.1400006384
1858.14000064176
1858.14000064549
1858.1400006511
1858.14000066933
1858.14000073351
1858.14000082829
1858.14000076861
1858.14000078307
1858.1400008414
1858.14000074047
1858.14000067756
1858.14000066041
1858.14000065474
1858.14000065053
1858.14000064664
1858.14000064309
1858.14000063989
1858.14000063702
1858.14000063445
1858.14000063216
1858.14000063012
1858.14000062831
1858.14000062669
1858.14000062527
1858.140000624
1858.14000062289
1858.14000062191
1858.14000062107
1858.14000062034
1858.14000061973
1858.14000061923
1858.14000061884
1858.14000061855
1858.14000061837
1858.1400006183
1858.14000061834
1858.1400006185
1858.14000061879
1858.14000061921
1858.14000061978
1858.1400006205
1858.1400006214
1858.14000062249
1858.1400006238
1858.14000062534
1858.14000062714
1858.14000062923
1858.14000063164
1858.1400006344
1858.14000063753
1858.14000064104
1858.140000645
1858.14000065094
1858.14000066963
1858.14000073447
1858.14000083022
1858.14000077074
1858.14000078518
1858.1400008432
1858.14000074114
1858.14000067746
1858.14000065978
1858.14000065374
1858.14000064928
1858.14000064525
1858.14000064161
1858.14000063838
1858.14000063551
1858.14000063297
1858.14000063071
1858.14000062872
1858.14000062695
1858.14000062539
1858.140000624
1858.14000062278
1858.14000062171
1858.14000062077
1858.14000061996
1858.14000061927
1858.14000061868
1858.1400006182
1858.14000061783
1858.14000061755
1858.14000061738
1858.14000061732
1858.14000061736
1858.14000061752
1858.1400006178
1858.1400006182
1858.14000061876
1858.14000061946
1858.14000062034
1858.1400006214
1858.14000062268
1858.1400006242