/*--------------------------------*- C++ -*----------------------------------*\
  =========                 |
  \\      /  F ield         | OpenFOAM: The Open Source CFD Toolbox
   \\    /   O peration     | Website:  https://openfoam.org
    \\  /    A nd           | Version:  10
     \\/     M anipulation  |
\*---------------------------------------------------------------------------*/
FoamFile
{
    format      ascii;
    class       volScalarField;
    location    "2.8";
    object      k;
}
// * * * * * * * * * * * * * * * * * * * * * * * * * * * * * * * * * * * * * //

dimensions      [0 2 -2 0 0 0 0];

internalField   nonuniform List<scalar> 
2500
(
3.38705101514666e-09
6.37594819329835e-08
2.58430477385969e-07
4.11211401288999e-07
5.05261483414739e-07
5.53682983501249e-07
5.75107982748954e-07
5.83430366515604e-07
5.86318958303158e-07
5.87227976029055e-07
5.87490386869353e-07
5.87560428216049e-07
5.87577686184494e-07
5.875814464639e-07
5.87581994943619e-07
5.87581875797224e-07
5.87581653182063e-07
5.87581439237211e-07
5.87581248720296e-07
5.8758108139186e-07
5.87580934895948e-07
5.87580807164543e-07
5.87580696803877e-07
5.87580603030621e-07
5.87580525339093e-07
5.87580463613886e-07
5.87580418474108e-07
5.87580393088011e-07
5.87580403199671e-07
5.8758043242246e-07
5.87580438426452e-07
5.87580474666395e-07
5.87580537919589e-07
5.87580618060006e-07
5.875806767034e-07
5.87580474123539e-07
5.87578943746072e-07
5.87572135232981e-07
5.87545429587974e-07
5.87447541330294e-07
5.871110768745e-07
5.86030826973613e-07
5.82816639128131e-07
5.74046442658243e-07
5.52387943688919e-07
5.04755956911168e-07
4.13298932773378e-07
2.63787329705013e-07
6.71566989241142e-08
3.74746947714829e-09
8.05484427677976e-08
1.77858566076793e-06
7.39024273172581e-06
1.1823502484975e-05
1.46018787257738e-05
1.60622347899117e-05
1.67222504247631e-05
1.69839848005208e-05
1.7076628923825e-05
1.7106322892505e-05
1.71150424134361e-05
1.71174077169179e-05
1.71180005774688e-05
1.71181334618095e-05
1.71181550524593e-05
1.7118152723161e-05
1.71181464558543e-05
1.71181402687969e-05
1.71181347388978e-05
1.7118129894788e-05
1.71181256708459e-05
1.7118122007117e-05
1.71181188592775e-05
1.71181162014009e-05
1.71181140182249e-05
1.71181123094381e-05
1.711811109332e-05
1.71181104780553e-05
1.71181109891532e-05
1.71181119695741e-05
1.71181121005696e-05
1.71181132902832e-05
1.71181152329703e-05
1.71181176253003e-05
1.71181191518037e-05
1.71181112138226e-05
1.71180574096447e-05
1.71178253105281e-05
1.71169273068759e-05
1.71136775674286e-05
1.71026547524084e-05
1.70677673870526e-05
1.69655615399432e-05
1.66913266352195e-05
1.60261509858994e-05
1.45905920592871e-05
1.18860464850957e-05
7.54072092493468e-06
1.86962169628428e-06
8.85085113331191e-08
2.77192256304706e-07
7.76196984433412e-06
3.61506796245545e-05
5.75096605612843e-05
7.08448702184345e-05
7.79048464168093e-05
8.11370189115663e-05
8.24388793240196e-05
8.29073549130199e-05
8.30600114514953e-05
8.31055716079118e-05
8.31181310947566e-05
8.31213350119205e-05
8.3122073625007e-05
8.31222055088298e-05
8.31222024347779e-05
8.31221763316193e-05
8.31221490186903e-05
8.31221243599955e-05
8.31221027025697e-05
8.31220837948842e-05
8.3122067378273e-05
8.31220532588107e-05
8.31220413221824e-05
8.31220314997642e-05
8.31220237880919e-05
8.31220182818398e-05
8.31220155208012e-05
8.31220179987166e-05
8.31220219583408e-05
8.31220224111191e-05
8.31220275176779e-05
8.31220358435955e-05
8.31220458580166e-05
8.31220505271013e-05
8.31220025418309e-05
8.3121712788888e-05
8.31204953077436e-05
8.31158312756386e-05
8.30991036562233e-05
8.30428786742972e-05
8.28666558431545e-05
8.23558198070282e-05
8.10003841427943e-05
7.77490219880542e-05
7.07993624391787e-05
5.77798981608724e-05
3.67955936146514e-05
8.10522880233204e-06
2.98740250998372e-07
4.77675484625082e-07
1.34836530771709e-05
6.23864124949264e-05
9.82936458702422e-05
0.000120476950864785
0.000132186558202414
0.000137557452066404
0.000139731054873495
0.000140518267422756
0.000140776700625347
0.000140854459753473
0.000140876085932356
0.000140881660164736
0.000140882966717591
0.000140883211839497
0.000140883216000195
0.000140883177822905
0.000140883136047101
0.000140883097942399
0.000140883064327796
0.00014088303488101
0.000140883009222228
0.000140882987064102
0.000140882968235049
0.000140882952630934
0.000140882940238492
0.000140882931186106
0.000140882926241331
0.00014088292917796
0.000140882933596479
0.000140882935024445
0.000140882942041189
0.000140882953923578
0.000140882968205619
0.000140882973954671
0.0001408828921827
0.000140882420053516
0.000140880439839369
0.000140872827451455
0.000140845419164933
0.000140752950158322
0.000140462182057094
0.000139617045433776
0.000137369817150199
0.000131968933944454
0.000120395334570972
9.86109403319504e-05
6.31828716371878e-05
1.39140427670189e-05
5.04490645762961e-07
6.57366285512197e-07
1.85969277733497e-05
8.52853887739696e-05
0.000133367531776432
0.000162855919624028
0.000178395077621762
0.000185536107698767
0.000188438141567417
0.000189495060335034
0.000189844317338921
0.000189950175139052
0.000189979855805923
0.000189987580596874
0.000189989419926549
0.000189989780976811
0.000189989800747565
0.000189989757848007
0.000189989707937806
0.000189989661785347
0.000189989620828068
0.000189989584786511
0.000189989553235341
0.000189989525843782
0.000189989502411639
0.000189989482816809
0.000189989467036289
0.000189989455191539
0.000189989448046137
0.000189989449533225
0.000189989453127282
0.000189989455381077
0.000189989462821929
0.000189989475744038
0.000189989491059323
0.000189989494556266
0.000189989382338018
0.000189988765844399
0.000189986188643951
0.00018997625163716
0.000189940340275211
0.00018981873523774
0.000189435076881125
0.000188316835452117
0.00018533676207017
0.000178161152235381
0.000162752756777384
0.000133654643686892
8.60467841297592e-05
1.90246030501331e-05
6.84833095357213e-07
8.08128408330459e-07
2.29163031888202e-05
0.000104378622300416
0.000162307464704221
0.000197659397286794
0.000216275578001281
0.000224848225368878
0.000228345382029012
0.000229625431463633
0.000230050908339654
0.000230180718968119
0.00023021738484835
0.000230227013066824
0.000230229339127547
0.000230229814841993
0.000230229856935535
0.000230229815595456
0.000230229763083257
0.000230229713630348
0.000230229669400078
0.000230229630251242
0.000230229595780315
0.000230229565656421
0.000230229539676996
0.000230229517716581
0.000230229499747013
0.000230229485860815
0.000230229476663522
0.000230229475545381
0.000230229477911808
0.000230229480491321
0.000230229486658915
0.000230229498500607
0.000230229512064082
0.000230229509757755
0.000230229369261445
0.000230228639248169
0.000230225599817848
0.000230213856679115
0.000230171290551975
0.000230026704351353
0.000229569264064754
0.000228232862896412
0.000224664931079431
0.000216061687641869
0.000197562030534274
0.000162551906104559
0.000105038941915863
2.33042843565014e-05
8.3420673830015e-07
9.27983206604268e-07
2.63844123102504e-05
0.00011962240640338
0.000185254868171289
0.000225180307535768
0.000246205075074353
0.000255907052804233
0.000259878653115946
0.000261338828543338
0.000261826701357461
0.000261976420670244
0.000262018989566082
0.000262030258075988
0.000262033015950703
0.000262033600612813
0.000262033669314923
0.000262033634034612
0.000262033583135076
0.000262033534036165
0.000262033489681426
0.000262033450134716
0.000262033415065057
0.000262033384174284
0.00026203335727806
0.000262033334259424
0.000262033315090738
0.00026203329983193
0.000262033288867872
0.000262033284198009
0.000262033284395298
0.000262033287162697
0.000262033291735161
0.000262033300833421
0.000262033310738134
0.000262033299860738
0.00026203313365838
0.000262032315985934
0.000262028925468246
0.000262015810100723
0.000261968158410242
0.00026180589107917
0.00026129134004466
0.000259785266187284
0.000255758640370903
0.00024603944680498
0.000225121554543933
0.000185482590786682
0.000120188758797314
2.6728123282758e-05
9.52195186619742e-07
1.01872361579324e-06
2.9040677283801e-05
0.000131297785634976
0.000202762587571336
0.000246152444465549
0.000269011803255779
0.00027958153538714
0.000283921716609734
0.000285523602540926
0.000286061248528006
0.000286227087408914
0.00028627451367976
0.00028628715747309
0.000286290286759884
0.000286290971142193
0.000286291068673265
0.000286291041710903
0.000286290995174693
0.000286290948879745
0.000286290906534748
0.000286290868443586
0.000286290834380642
0.000286290804099728
0.000286290777447785
0.000286290754324971
0.00028629073470893
0.000286290718635839
0.000286290706328246
0.000286290698651929
0.000286290696071579
0.000286290697062018
0.000286290701190317
0.000286290706301077
0.00028629071205605
0.000286290691033483
0.00028629050131982
0.000286289618140588
0.000286285967162133
0.000286271836224297
0.000286220403070189
0.000286044909734363
0.000285487407557811
0.000283853199213865
0.000279479252646082
0.000268914063550402
0.000246162809586486
0.000203015069516507
0.00013181329938405
2.9352533305397e-05
1.0414300829523e-06
1.08438462078761e-06
3.09872540691919e-05
0.000139891694847775
0.000215630843539776
0.000261568260732931
0.000285786316312925
0.00029700492307793
0.000301623886781437
0.000303334338174937
0.000303910647417208
0.000304089193983179
0.000304140510697923
0.000304154276070412
0.000304157715492117
0.000304158487378739
0.000304158612251216
0.000304158595743183
0.00030415855504406
0.000304158512906873
0.000304158473779407
0.000304158438214522
0.000304158406112242
0.000304158377281892
0.000304158351606711
0.000304158329008277
0.000304158309472706
0.000304158293021983
0.00030415827979364
0.00030415827017969
0.000304158264561984
0.000304158263074899
0.000304158264611609
0.000304158267397779
0.000304158267485387
0.000304158234811723
0.000304158027954212
0.000304157096743548
0.000304153257547697
0.000304138396145475
0.000304084233013092
0.000303899140206439
0.000303310312404706
0.000301582307627956
0.000296953540626942
0.000285767129830456
0.000261669951521304
0.000215947804132301
0.000140407869701831
3.1285127010804e-05
1.10625350706114e-06
1.12994352696872e-06
3.23559815457913e-05
0.000145981973051087
0.000224754767110819
0.000272510559888397
0.000297706635581027
0.00030939720533103
0.000314221370217197
0.000316012781244916
0.00031661832711448
0.000316806625541365
0.000316860974873621
0.000316875629960568
0.000316879321145312
0.000316880166659188
0.000316880316304544
0.000316880310392095
0.000316880275957951
0.000316880238466208
0.000316880203033838
0.000316880170447865
0.000316880140710933
0.000316880113707771
0.000316880089362018
0.000316880067618384
0.000316880048472812
0.000316880031939299
0.0003168800181082
0.000316880007172004
0.000316879999367565
0.000316879994823401
0.000316879993462576
0.000316879992185999
0.000316879987265181
0.000316879945245056
0.000316879726925183
0.000316878759951221
0.000316874788416596
0.000316859417101543
0.000316803342885325
0.000316611497803783
0.000316000537832345
0.000314206042570082
0.000309396271077255
0.000297768263303439
0.000272714586111271
0.00022516401513852
0.000146541509656365
3.26559204086658e-05
1.15161475728199e-06
1.16034557460717e-06
3.32819195498821e-05
0.000150145077716619
0.000231004317535462
0.000280020199415699
0.00030590053188471
0.000317924994238432
0.000322896132785872
0.000324746307407728
0.000325373375125132
0.00032556895874362
0.0003256256090378
0.000325640950754959
0.000325644840465333
0.000325645745812101
0.000325645916695918
0.000325645920427815
0.000325645891940584
0.000325645858945329
0.000325645827139723
0.000325645797518827
0.000325645770183259
0.000325645745078395
0.000325645722166471
0.000325645701414434
0.000325645682827884
0.000325645666416632
0.000325645652242892
0.000325645640407102
0.000325645631050984
0.000325645624236694
0.000325645619781039
0.000325645615697126
0.000325645605934904
0.000325645557791636
0.000325645329723904
0.00032564433704781
0.000325640275106612
0.000325624558577884
0.000325567187884203
0.000325370742125734
0.000324744640443073
0.000322904514039458
0.0003179702830829
0.000306038392540057
0.000280326565155819
0.000231518358260952
0.000150774448906412
3.35948143114947e-05
1.18227437221736e-06
1.17991269305519e-06
3.38861420921449e-05
0.000152895251341815
0.000235146286283426
0.000285010387621128
0.000311356192269406
0.000323610470912089
0.000328684069933532
0.000330575770984393
0.000331218265593189
0.000331419149085256
0.000331477499325556
0.000331493356797326
0.000331497398590746
0.000331498350958401
0.00033149853919423
0.000331498551266487
0.000331498528009869
0.000331498499015351
0.000331498470470871
0.000331498443546442
0.000331498418426522
0.00033149839510648
0.000331498373580937
0.000331498353835848
0.000331498335885564
0.000331498319737974
0.000331498305437643
0.000331498293037725
0.00033149828262171
0.000331498274204493
0.000331498267557358
0.000331498261019106
0.000331498247730363
0.000331498194845063
0.000331497959343657
0.000331496948818811
0.000331492826926892
0.000331476883778237
0.000331418660751231
0.000331219178305338
0.000330583043617172
0.000328712591398926
0.000323695486841579
0.000311561059871184
0.000285410482147476
0.00023576385413235
0.000153604474991142
3.42172793431123e-05
1.20234091409718e-06
1.19209143982232e-06
3.42674220315685e-05
0.000154654418025262
0.000237806901276197
0.000288226082902277
0.000314879965234883
0.000327288231410714
0.000332431392036896
0.000334351678869132
0.000335004946983527
0.000335209587120209
0.000335269160986082
0.00033528539578454
0.000335289550916271
0.000335290539082543
0.000335290740985396
0.000335290759899294
0.000335290740975809
0.000335290715334669
0.000335290689551095
0.00033529066493509
0.000335290641738367
0.000335290619995764
0.000335290599726971
0.000335290580933132
0.00033529056363574
0.000335290547842029
0.000335290533585451
0.000335290520892481
0.000335290509810367
0.000335290500319826
0.000335290492160392
0.000335290483753247
0.000335290467930995
0.00033529041160271
0.000335290170778913
0.000335289148282464
0.00033528498781432
0.000335268900371496
0.000335210134076411
0.000335008708819526
0.000334366131318572
0.000332476147719346
0.000327405560782605
0.000315140272794504
0.000288706038377751
0.000238517064747121
0.000155440842686872
3.46176393638189e-05
1.21508826609201e-06
1.19944010520522e-06
3.45006317945932e-05
0.000155746102220442
0.000239466193738672
0.000290238876956488
0.000317091328572419
0.00032960012175307
0.000334789310324151
0.000336728780119631
0.000337389383919624
0.000337596620450982
0.000337657053108125
0.000337673557021975
0.000337677794450118
0.000337678809128365
0.000337679021459496
0.000337679045750581
0.000337679030247249
0.000337679007307312
0.000337678983774576
0.000337678961065021
0.000337678939482018
0.000337678919089996
0.000337678899927001
0.000337678882005313
0.000337678865351878
0.000337678849973871
0.000337678835897664
0.000337678823133755
0.000337678811706416
0.000337678801572098
0.000337678792446145
0.000337678782759122
0.000337678765212683
0.00033767870653025
0.000337678462101396
0.000337677431865183
0.000337673247323075
0.000337657070724597
0.000337597968440907
0.000337395337270454
0.000336748746026379
0.000334846558599237
0.000329742481803377
0.000317395129484282
0.000290782820875118
0.000240252991756127
0.000156599443878696
3.48679865322654e-05
1.22296500239223e-06
1.20374873100908e-06
3.4639199617269e-05
0.000156404594946923
0.00024047261796093
0.000291464647809464
0.000318441872079856
0.000331014670145681
0.000336233570778989
0.000338185601672142
0.000338851079930306
0.000339060067806579
0.000339121088707173
0.000339137779925822
0.000339142075650884
0.000339143109473194
0.000339143329617406
0.000339143358055086
0.000339143345110283
0.000339143324291642
0.000339143302553121
0.000339143281386742
0.000339143261134021
0.000339143241880661
0.00033914322367725
0.000339143206543845
0.00033914319051094
0.000339143175586095
0.000339143161791012
0.000339143149126434
0.000339143137601803
0.000339143127156827
0.000339143117488838
0.000339143107019532
0.000339143088388208
0.00033914302820043
0.000339142781464366
0.000339141746417719
0.000339137547313048
0.00033912131722273
0.000339062013102593
0.000338858654855339
0.000338209634695846
0.00033630003950075
0.000331175586180892
0.000318778212384535
0.00029205719322987
0.000241318923577422
0.000157311433448427
3.50204766194853e-05
1.22770861140579e-06
1.20620850617958e-06
3.47193436727781e-05
0.000156791365646105
0.000241067307873773
0.000292192117683416
0.000319245866907399
0.000331858454768834
0.000337096087162282
0.000339056152312179
0.000339724794764175
0.000339934936756322
0.000339996351314398
0.000340013169901883
0.000340017505973281
0.000340018553301261
0.00034001877912413
0.000340018810666384
0.000340018799812468
0.000340018780657703
0.000340018760346775
0.000340018740430912
0.000340018721280145
0.000340018702994859
0.000340018685633337
0.000340018669220336
0.000340018653788701
0.000340018639346157
0.000340018625911432
0.000340018613479026
0.000340018602048668
0.00034001859154879
0.000340018581663802
0.000340018570804657
0.000340018551578205
0.000340018490520549
0.000340018242415207
0.000340017204521511
0.000340012996900551
0.000339996735637054
0.000339937313613487
0.000339733528962049
0.000339083078902434
0.000337169108781811
0.000332032590184563
0.000319605534085535
0.000292819877558258
0.000241957390332002
0.000157738309330876
3.5111117799369e-05
1.23049783052661e-06
1.20757837320391e-06
3.47645467685765e-05
0.000157012949938688
0.00024141019537415
0.000292613524127587
0.00031971314185418
0.000332349911567692
0.000337599091048552
0.00033956418157119
0.000340234832829547
0.000340445718680296
0.000340507390920853
0.000340524294249321
0.000340528657662067
0.000340529714357429
0.000340529944262017
0.000340529978211628
0.000340529969027035
0.000340529951188875
0.00034052993202585
0.000340529913135859
0.000340529894911069
0.000340529877461511
0.000340529860849409
0.000340529845102048
0.000340529830253223
0.000340529816310929
0.000340529803291831
0.000340529791186365
0.000340529779987545
0.000340529769616271
0.000340529759748091
0.000340529748785255
0.000340529729316758
0.000340529667839465
0.000340529419009137
0.000340528379537102
0.000340524167122944
0.000340507888215643
0.000340448399139459
0.000340244370873271
0.000339593100575944
0.000337676612368403
0.000332533129730625
0.00032008889863264
0.000293265749912621
0.000242331009829669
0.000157988398039521
3.51637798451805e-05
1.23210166426181e-06
1.20832372345258e-06
3.47894490931939e-05
0.000157136963162648
0.00024160339625884
0.000292852144255853
0.000319978666439585
0.000332629821628331
0.000337885969904191
0.000339854138110658
0.000340526038100232
0.000340737393429107
0.000340799230874176
0.000340816189459079
0.000340820571072266
0.000340821634209619
0.000340821867081164
0.000340821902917014
0.000340821895084845
0.000340821878311273
0.000340821860098324
0.000340821842076314
0.000340821824655029
0.000340821807950379
0.000340821792026023
0.000340821776909705
0.000340821762635632
0.000340821749211774
0.000340821736653338
0.000340821724947824
0.000340821714083393
0.000340821703975669
0.000340821694294112
0.000340821683434921
0.000340821663976566
0.000340821602394162
0.000340821353273059
0.000340820313025406
0.000340816098052954
0.000340799809471107
0.000340740283243241
0.00034053611917667
0.000339884389596527
0.000337966486350728
0.000332819078420037
0.000320365139964759
0.000293520741283718
0.000242544917066351
0.000158131770537667
3.51937284134939e-05
1.23300476107907e-06
1.20872040154387e-06
3.48028653060488e-05
0.000157204852294504
0.000241709915807766
0.000292984397958539
0.000320126384146367
0.000332785927452041
0.000338046198731641
0.000340016214837415
0.000340688875870242
0.000340900521725259
0.000340962463056526
0.000340979457025599
0.000340983850586385
0.000340984918145683
0.000340985153214863
0.000340985190575313
0.000340985183868789
0.000340985167965743
0.0003409851505653
0.000340985133301988
0.00034098511659869
0.000340985100575084
0.000340985085294486
0.00034098507078402
0.000340985057077787
0.000340985044183849
0.00034098503211639
0.000340985020860401
0.000340985010400117
0.000340985000647336
0.000340984991267309
0.000340984980652327
0.000340984961374182
0.000340984899895722
0.00034098465076446
0.000340983610233574
0.0003409793940084
0.000340963100318817
0.000340903554036169
0.00034069931599442
0.00034004733490048
0.000338128653766649
0.000332979081136135
0.00032051977368049
0.000293663586395531
0.000242664890258769
0.000158212300218108
3.52104192945436e-05
1.23350328892961e-06
1.20892698239083e-06
3.48099386237444e-05
0.000157241235839527
0.000241767437301461
0.000293056220094897
0.000320206928522613
0.000332871273039963
0.000338133939180027
0.000340105044611036
0.000340778161023157
0.000340989983410255
0.00034105198892347
0.000341069005201099
0.000341073406536998
0.000341074477159035
0.000341074713914408
0.000341074752553275
0.000341074746792458
0.000341074731640217
0.000341074714965714
0.000341074698394992
0.000341074682360167
0.000341074666982337
0.000341074652322829
0.000341074638408042
0.000341074625271853
0.000341074612922502
0.000341074601373418
0.000341074590607321
0.000341074580604871
0.000341074571274993
0.000341074562279869
0.000341074552009666
0.000341074533031499
0.000341074471801003
0.000341074222846209
0.000341073182338788
0.000341068965619116
0.000341052669389535
0.000340993112598755
0.000340788835151668
0.000340136719105748
0.00033821761877399
0.000333066875771924
0.000320604656960719
0.000293742057773399
0.000242730877127665
0.000158256659088493
3.52195430278677e-05
1.23377326403484e-06
1.2090321406753e-06
3.48135859887869e-05
0.000157260323540839
0.00024179786817652
0.000293094454708951
0.000320249998206602
0.000332917044873781
0.000338181079061464
0.000340152816022296
0.000340826200395589
0.000341038128287968
0.000341100172842399
0.000341117203017704
0.000341121609406058
0.000341122682196941
0.00034112292030594
0.000341122960042778
0.000341122955101748
0.000341122940625346
0.00034112292462476
0.000341122908708697
0.000341122893314658
0.000341122878562996
0.000341122864512647
0.000341122851188769
0.000341122838624635
0.000341122826829509
0.000341122815816321
0.000341122805565675
0.000341122796054701
0.000341122787190013
0.000341122778632154
0.000341122768770341
0.000341122750168307
0.000341122689277364
0.000341122440618208
0.000341121400323313
0.000341117183546774
0.000341100886201095
0.000341041324135302
0.0003408370262107
0.000340184839167592
0.0003382655170198
0.000333114152473168
0.000320650383093785
0.000293784359291572
0.000242766488847978
0.000158280632622445
3.52244358520414e-05
1.23391669161173e-06
1.20908420516576e-06
3.48154183797123e-05
0.000157270099020201
0.000241813608730795
0.000293114379469891
0.000320272560847335
0.000332941105586126
0.000338205909873396
0.000340178007634335
0.000340851547376502
0.000341063537418902
0.000341125605418482
0.000341142644187852
0.000341147053888208
0.000341148128278727
0.000341148367532996
0.000341148408251544
0.000341148404061906
0.000341148390227888
0.00034114837488616
0.000341148359618885
0.000341148344864205
0.000341148330740213
0.000341148317302966
0.000341148304576873
0.000341148292595044
0.000341148281367778
0.000341148270907723
0.000341148261193286
0.000341148252198363
0.000341148243827671
0.000341148235740926
0.000341148226328086
0.000341148208150132
0.000341148147656758
0.000341147899374493
0.000341146859419269
0.000341142642852911
0.000341126345196124
0.000341066780726679
0.000340862472594777
0.000340210249152092
0.000338290811996287
0.000333139123318964
0.000320674542553514
0.000293806721905127
0.00024278533200048
0.000158293332524736
3.52270068747067e-05
1.23399131937597e-06
1.20910886109948e-06
3.48163024844764e-05
0.00015727492848044
0.000241821493263958
0.000293124463385333
0.000320284060991369
0.000332953424776456
0.000338218657034038
0.000340190958365229
0.000340864587074394
0.000341076613298382
0.000341138695252011
0.000341155739331018
0.000341160151243947
0.000341161226891156
0.00034116146717992
0.000341161508825772
0.00034116150536244
0.000341161492172525
0.000341161477504378
0.000341161462903652
0.000341161448804161
0.000341161435320334
0.000341161422506679
0.000341161410387719
0.000341161398996844
0.00034116138834514
0.000341161378444593
0.000341161369271648
0.000341161360797522
0.000341161352925176
0.000341161345314103
0.000341161336355971
0.000341161318609425
0.000341161258526865
0.000341161010667265
0.000341159971136054
0.000341155754950126
0.00034113945746189
0.000341079892230273
0.000340875579587783
0.000340223338617958
0.000338303844248673
0.000333151991575211
0.00032068699691283
0.00029381825541719
0.000242795056607131
0.000158299892752183
3.52283237428126e-05
1.23402913945126e-06
1.20911931561985e-06
3.48166884106754e-05
0.000157277116776659
0.00024182516207237
0.000293129248409315
0.000320289587659748
0.000332959391012273
0.000338224857673097
0.000340197272448717
0.00034087095152211
0.000341082998603102
0.000341145088808662
0.000341162136165044
0.000341166549571725
0.000341167626291295
0.000341167867592854
0.000341167910176505
0.000341167907470031
0.00034116789496716
0.000341167881021532
0.000341167867132169
0.000341167853724174
0.000341167840909052
0.000341167828741441
0.000341167817246916
0.000341167806459425
0.00034116779639025
0.000341167787050267
0.000341167778414406
0.000341167770451492
0.00034116776306235
0.000341167755905784
0.000341167747374556
0.000341167730025112
0.000341167670318888
0.000341167422922941
0.000341166383904172
0.000341162168251967
0.000341145871297507
0.000341086306416008
0.000340881992807127
0.000340229745437678
0.000338310226903855
0.000333158299283709
0.000320693108581477
0.000293823922308352
0.000242799840410888
0.0001583031259558
3.52289684535864e-05
1.23404748889966e-06
1.20912183149169e-06
3.48167920203979e-05
0.000157277796423744
0.000241826424015235
0.000293131010559042
0.000320291710865673
0.000332961740816178
0.00033822733327195
0.000340199810821095
0.000340873518566362
0.000341085577973596
0.000341147673378466
0.000341164723053647
0.00034116913772191
0.000341170215507156
0.000341170457880279
0.000341170501474186
0.000341170499601726
0.000341170487857207
0.000341170474703296
0.000341170461582445
0.000341170448908196
0.000341170436791519
0.000341170425289256
0.000341170414429327
0.000341170404246385
0.000341170394751561
0.000341170385954195
0.000341170377828004
0.000341170370339137
0.000341170363385198
0.000341170356621933
0.000341170348440402
0.000341170331394425
0.00034117027195466
0.000341170024903885
0.000341168986250394
0.000341164771009851
0.000341148474630051
0.000341088910707836
0.000340884598518187
0.000340232352317886
0.000338312831938093
0.000333160885386494
0.000320695630386717
0.000293826279676905
0.000242801849488575
0.000158304501474456
3.52292451475371e-05
1.23405548490622e-06
1.2091178911444e-06
3.48166744404374e-05
0.000157277371015208
0.000241825981176021
0.000293130665766979
0.000320291486137429
0.000332961611166913
0.000338227263675717
0.000340199773802748
0.000340873497448919
0.000341085564170617
0.000341147662969285
0.000341164714380502
0.00034116913013995
0.000341170208833435
0.000341170452153362
0.000341170496668279
0.000341170495565146
0.000341170484517936
0.000341170472117825
0.000341170459738553
0.000341170447778071
0.000341170436348005
0.000341170425508499
0.000341170415290208
0.000341170405728325
0.000341170396833488
0.000341170388613597
0.00034117038104115
0.000341170374079355
0.000341170367621358
0.00034117036131776
0.000341170353555532
0.000341170336887663
0.000341170277791689
0.000341170031061299
0.000341168992713089
0.000341164777884241
0.000341148482314336
0.000341088920275815
0.000340884612428097
0.000340232375450786
0.000338312872763596
0.000333160955271245
0.000320695741069577
0.00029382643626628
0.000242802040422578
0.000158304683978806
3.52292940133416e-05
1.23405706357855e-06
1.20910656262812e-06
3.48163081274594e-05
0.000157275740706022
0.00024182373849974
0.000293128149048549
0.000320288879291841
0.000332958991485853
0.000338224653327493
0.000340197173939302
0.000340870904431467
0.000341082974871929
0.000341145075623847
0.000341162128140235
0.000341166544647857
0.000341167623949795
0.000341167867922477
0.000341167913120666
0.000341167912591352
0.000341167902048923
0.000341167890255788
0.000341167878502775
0.000341167867167264
0.000341167856361069
0.000341167846147629
0.000341167836559931
0.000341167827634003
0.000341167819380271
0.000341167811805564
0.00034116780488154
0.000341167798568245
0.000341167792753942
0.000341167787083366
0.000341167779939771
0.000341167763879771
0.000341167705382638
0.000341167459159194
0.000341166421352667
0.000341162207331815
0.000341145913412903
0.000341086355296664
0.000340882057027057
0.000340229842216565
0.000338310386029394
0.00033315856284305
0.000320693520228854
0.000293824501420066
0.000242800541200395
0.000158303779723348
3.52291334218485e-05
1.23405259728873e-06
1.20908472969414e-06
3.48155782833551e-05
0.000157272270251831
0.000241818757885612
0.000293122374941305
0.00032028274124394
0.000332952710498873
0.000338218325633121
0.000340190834559761
0.000340864563698432
0.000341076634963863
0.000341138736661405
0.000341155789915703
0.000341160207016556
0.000341161286849788
0.000341161531391755
0.000341161577228981
0.000341161577248996
0.000341161567155639
0.000341161555927815
0.000341161544765109
0.000341161534023781
0.000341161523815662
0.000341161514207158
0.000341161505234042
0.000341161496933849
0.000341161489317535
0.000341161482391071
0.000341161476124431
0.000341161470473202
0.000341161465319251
0.000341161460300228
0.000341161453796679
0.000341161438371889
0.000341161380510257
0.000341161134856487
0.000341160097754525
0.000341155884962621
0.000341139593864125
0.000341080042923752
0.000340875762918936
0.000340223592077554
0.000338304233973008
0.00033315261371551
0.000320687955073064
0.000293819599286735
0.000242796679339713
0.000158301390060165
3.52287024961837e-05
1.2340416866208e-06
1.20904271277259e-06
3.48141722388621e-05
0.000157265502483149