/*--------------------------------*- C++ -*----------------------------------*\
  =========                 |
  \\      /  F ield         | OpenFOAM: The Open Source CFD Toolbox
   \\    /   O peration     | Website:  https://openfoam.org
    \\  /    A nd           | Version:  10
     \\/     M anipulation  |
\*---------------------------------------------------------------------------*/
FoamFile
{
    format      ascii;
    class       volScalarField;
    location    "2.8";
    object      nut;
}
// * * * * * * * * * * * * * * * * * * * * * * * * * * * * * * * * * * * * * //

dimensions      [0 2 -1 0 0 0 0];

internalField   nonuniform List<scalar> 
2500
(
2.63901986898009e-14
4.96708571107273e-13
2.01337618695396e-12
3.20372832517525e-12
3.93649669425383e-12
4.31375934853728e-12
4.48068549385708e-12
4.54552651776356e-12
4.56803196806696e-12
4.57511425404024e-12
4.5771587607997e-12
4.57770448406599e-12
4.5778389574034e-12
4.57786827364444e-12
4.57787256491788e-12
4.57787165700684e-12
4.57786993262503e-12
4.57786827860549e-12
4.577866809006e-12
4.57786551546856e-12
4.57786438345461e-12
4.5778633972771e-12
4.57786254526918e-12
4.57786181831575e-12
4.5778612171918e-12
4.577860741333e-12
4.57786039120451e-12
4.57786019494738e-12
4.57786027484497e-12
4.57786050125169e-12
4.57786054610893e-12
4.57786082544198e-12
4.57786131300629e-12
4.57786193037534e-12
4.57786238005955e-12
4.57786079384567e-12
4.57784886143438e-12
4.57779580832125e-12
4.57758772611669e-12
4.57682505407549e-12
4.574203604998e-12
4.56578722396327e-12
4.54074501107604e-12
4.47241496450775e-12
4.30366940883097e-12
3.93255774079283e-12
3.21999194510484e-12
2.05511023296572e-12
5.23173646958528e-13
2.91984067802141e-14
2.52799014634595e-12
1.25638403017315e-10
5.22166006798774e-10
8.35487492674486e-10
1.03185712234664e-09
1.13507112145613e-09
1.18171841786033e-09
1.20021645190686e-09
1.20676396768417e-09
1.20886253093747e-09
1.20947876351646e-09
1.20964592637491e-09
1.20968782578176e-09
1.20969721860181e-09
1.20969874619371e-09
1.20969858344337e-09
1.20969814159553e-09
1.20969770562763e-09
1.20969731633048e-09
1.20969697521549e-09
1.20969667818191e-09
1.20969642113259e-09
1.20969620045436e-09
1.20969601314892e-09
1.20969585919046e-09
1.20969573930697e-09
1.2096956534912e-09
1.20969561015691e-09
1.20969564680146e-09
1.20969571549521e-09
1.20969572453359e-09
1.20969580908316e-09
1.20969594471993e-09
1.20969611143456e-09
1.20969621825938e-09
1.20969565662892e-09
1.2096918535029e-09
1.20967545025021e-09
1.20961198566835e-09
1.20938231901151e-09
1.20860330726901e-09
1.20613770287097e-09
1.19891439894172e-09
1.17953282233649e-09
1.13252067857683e-09
1.03105898508568e-09
8.39906905187187e-10
5.32798288827417e-10
1.320685743709e-10
2.77780329730343e-12
8.74278017791869e-12
2.20416383126938e-09
7.13074750984571e-07
1.13450601681122e-06
1.39763200078897e-06
1.53693576885699e-06
1.60071004459699e-06
1.62639667325586e-06
1.63563988168845e-06
1.63865181720657e-06
1.63955071895662e-06
1.63979851627055e-06
1.63986172752489e-06
1.63987630020117e-06
1.63987890260254e-06
1.63987884226205e-06
1.63987832742078e-06
1.63987778881293e-06
1.63987730289478e-06
1.63987687613517e-06
1.63987650400984e-06
1.63987618157149e-06
1.63987590460501e-06
1.63987566980473e-06
1.63987547617926e-06
1.6398753244814e-06
1.63987521571353e-06
1.63987516115021e-06
1.6398752103999e-06
1.63987528796303e-06
1.63987529691377e-06
1.63987539848756e-06
1.63987556104389e-06
1.6398757560518e-06
1.63987584803025e-06
1.63987490174167e-06
1.63986918479176e-06
1.6398451647052e-06
1.63975314464744e-06
1.63942311205736e-06
1.63831379518528e-06
1.63483688734791e-06
1.62475787076003e-06
1.59801410385627e-06
1.53386104697397e-06
1.39673367177803e-06
1.13983697567272e-06
7.2579556013508e-07
2.30162466054561e-09
9.42227003963865e-12
1.51126326769428e-11
3.84040253780487e-09
1.23415106019184e-06
1.94461725307694e-06
2.38354828782586e-06
2.61523849124308e-06
2.72150726245359e-06
2.7645137440169e-06
2.78008922716386e-06
2.78520244789187e-06
2.78674094165543e-06
2.78716882147572e-06
2.78727910613823e-06
2.78730495576107e-06
2.78730980517592e-06
2.78730988722161e-06
2.78730913168578e-06
2.78730830505073e-06
2.78730755130247e-06
2.78730688630887e-06
2.78730630400042e-06
2.78730579736887e-06
2.78730536046891e-06
2.78730498868777e-06
2.78730467985505e-06
2.78730443467866e-06
2.78730425555917e-06
2.78730415742417e-06
2.78730421525573e-06
2.78730430256927e-06
2.78730433097869e-06
2.78730447060289e-06
2.78730470430553e-06
2.78730498458765e-06
2.78730509838841e-06
2.78730348074723e-06
2.78729413986314e-06
2.78725496253555e-06
2.78710435073945e-06
2.78656207217509e-06
2.78473254327156e-06
2.77897956400342e-06
2.76225802026293e-06
2.71779479013495e-06
2.61093259272925e-06
2.38193328877784e-06
1.95089447501858e-06
1.24990613115048e-06
3.96296367405055e-09
1.59607053507496e-11
2.08311767065914e-11
5.30468593922477e-09
1.68953573272166e-06
2.6421542863454e-06
3.22639186495647e-06
3.53425863617399e-06
3.67573790452604e-06
3.73323312699842e-06
3.7541727521642e-06
3.76109219124768e-06
3.76318942962138e-06
3.76377745645876e-06
3.76393049574775e-06
3.7639669351275e-06
3.76397408760221e-06
3.76397447889859e-06
3.76397362862327e-06
3.76397263953539e-06
3.7639717250913e-06
3.7639709135906e-06
3.76397019955641e-06
3.76396957489041e-06
3.76396903312158e-06
3.76396856932477e-06
3.76396818085195e-06
3.76396786807644e-06
3.7639676333628e-06
3.76396749147835e-06
3.76396752069933e-06
3.76396759192305e-06
3.7639676366893e-06
3.76396778465961e-06
3.7639680398535e-06
3.76396834199302e-06
3.76396841132776e-06
3.76396618819364e-06
3.76395397473037e-06
3.76390291710263e-06
3.76370604882813e-06
3.76299458258247e-06
3.76058536759205e-06
3.7529843791894e-06
3.73082984745581e-06
3.67178852985828e-06
3.52962419479729e-06
3.22434812052815e-06
2.64784242356057e-06
1.70461856763369e-06
5.42665873309735e-09
2.17012424995966e-11
2.56274227253125e-11
6.54102348231746e-09
2.0690271642571e-06
3.21736025004657e-06
3.91814920545702e-06
4.2871804136402e-06
4.4571166276172e-06
4.52644084023445e-06
4.55181524119681e-06
4.56024945120436e-06
4.56282267984637e-06
4.56354950431346e-06
4.56374036209404e-06
4.56378647066504e-06
4.56379590027316e-06
4.56379673438875e-06
4.56379591461336e-06
4.56379487342766e-06
4.5637938929995e-06
4.56379301616549e-06
4.56379224003694e-06
4.5637915568534e-06
4.56379096009756e-06
4.56379044521907e-06
4.56379000974694e-06
4.56378965343439e-06
4.5637893780885e-06
4.56378919556466e-06
4.56378917323632e-06
4.56378922015006e-06
4.56378927133868e-06
4.563789393881e-06
4.56378962823622e-06
4.56378989655902e-06
4.56378985086979e-06
4.56378706587563e-06
4.56377259514901e-06
4.56371234541929e-06
4.56347956330648e-06
4.56263577993011e-06
4.55976965913097e-06
4.55070184462511e-06
4.52421039674839e-06
4.45348323429851e-06
4.28294056331503e-06
3.91621928612922e-06
3.22220596173017e-06
2.08211592139045e-06
6.65175301212908e-09
2.64541784087328e-11
2.94370463221111e-11
7.53283882228264e-09
2.37174197471422e-06
3.67305163479261e-06
4.46466293257796e-06
4.88152541874563e-06
5.07388830272588e-06
5.15263387099665e-06
5.1815849884596e-06
5.19125811120851e-06
5.19422661620035e-06
5.19507063482091e-06
5.19529405621083e-06
5.19534873653017e-06
5.19536032843963e-06
5.19536169042061e-06
5.19536099073625e-06
5.19535998139959e-06
5.19535900781253e-06
5.19535812833861e-06
5.1953573441601e-06
5.19535664885157e-06
5.19535603649173e-06
5.19535550318792e-06
5.19535504670995e-06
5.1953546665913e-06
5.1953543639931e-06
5.19535414650155e-06
5.19535405381923e-06
5.19535405771264e-06
5.19535411259425e-06
5.19535420336365e-06
5.19535438359952e-06
5.19535457978677e-06
5.19535436412981e-06
5.19535106883597e-06
5.19533485688295e-06
5.19526763295596e-06
5.19500759350617e-06
5.19406279817571e-06
5.19084550336901e-06
5.18064343027861e-06
5.1507822844947e-06
5.0709457327779e-06
4.87824154254292e-06
4.46349815851133e-06
3.67756689785459e-06
2.38297092232568e-06
7.63096334648977e-09
3.02049469776879e-11
3.23190518976117e-11
8.29195886784192e-09
2.60343935187059e-06
4.02048786780383e-06
4.88084910553889e-06
5.33411851872386e-06
5.54370155787921e-06
5.62976126650073e-06
5.66152441158667e-06
5.67218517362566e-06
5.67547352450952e-06
5.67641392022174e-06
5.67666462843682e-06
5.6767266775701e-06
5.67674024776575e-06
5.67674218156583e-06
5.67674164684549e-06
5.67674072401819e-06
5.67673980599107e-06
5.67673896631061e-06
5.67673821095896e-06
5.67673753552185e-06
5.67673693510272e-06
5.67673640658286e-06
5.67673594803843e-06
5.67673555903879e-06
5.67673524029115e-06
5.67673499619432e-06
5.67673484393048e-06
5.67673479273884e-06
5.67673481236669e-06
5.67673489425193e-06
5.67673499552591e-06
5.67673510957104e-06
5.6767346927203e-06
5.67673093096788e-06
5.67671341882867e-06
5.67664102520568e-06
5.67636082893828e-06
5.6753409825403e-06
5.67186119794236e-06
5.6608067166369e-06
5.62840266632831e-06
5.5416734454785e-06
5.33218050616541e-06
4.88105469978639e-06
4.02549433918847e-06
2.61366123632082e-06
8.38100030355474e-09
3.30393476264091e-11
3.44034607902478e-11
8.84802596211731e-09
2.77391685496676e-06
4.27575359230968e-06
5.18664982135111e-06
5.6668712312141e-06
5.88932568258055e-06
5.98091539131535e-06
6.0148320323808e-06
6.02625970159244e-06
6.0298001116041e-06
6.03081767353784e-06
6.03109062775078e-06
6.03115882814322e-06
6.03117413385296e-06
6.03117660989653e-06
6.03117628250294e-06
6.03117547542827e-06
6.03117463984238e-06
6.03117386394585e-06
6.03117315868703e-06
6.03117252209904e-06
6.03117195039515e-06
6.03117144123949e-06
6.03117099309543e-06
6.03117060568901e-06
6.03117027945306e-06
6.03117001711106e-06
6.03116982643877e-06
6.03116971501659e-06
6.03116968550815e-06
6.03116971597229e-06
6.03116977118423e-06
6.03116977288985e-06
6.03116912498947e-06
6.03116502318961e-06
6.03114655817192e-06
6.03107043057501e-06
6.03077574307479e-06
6.02970173937674e-06
6.02603152371146e-06
6.01435562357044e-06
5.98009091637409e-06
5.88830682015551e-06
5.66649079209227e-06
5.18866628339717e-06
4.28203867573621e-06
2.7841521254806e-06
8.9330789728913e-09
3.50972499558924e-11
3.58493134046571e-11
9.23893374986598e-09
2.89470444513772e-06
4.45670610653509e-06
5.40366539376606e-06
5.90328345174942e-06
6.13509810126647e-06
6.23075743006437e-06
6.26627967628986e-06
6.278287165811e-06
6.28202097271774e-06
6.28309867636764e-06
6.28338927493488e-06
6.28346246811887e-06
6.28347923393606e-06
6.2834822012427e-06
6.28348208396452e-06
6.28348140112515e-06
6.28348065765686e-06
6.28347995502754e-06
6.28347930883944e-06
6.28347871914727e-06
6.28347818366392e-06
6.28347770087172e-06
6.28347726967931e-06
6.28347689000577e-06
6.28347656212793e-06
6.28347628783689e-06
6.28347607094977e-06
6.28347591616572e-06
6.28347582603371e-06
6.28347579902967e-06
6.2834757736892e-06
6.28347567608933e-06
6.28347484284585e-06
6.28347051372098e-06
6.2834513393937e-06
6.2833725870449e-06
6.28306778620258e-06
6.28195587945803e-06
6.27815174523728e-06
6.26603689847967e-06
6.23045349461727e-06
6.13507957617038e-06
5.90450548336068e-06
5.40771108115338e-06
4.46482118890932e-06
2.9057996171129e-06
9.32457806438889e-09
3.65368579273505e-11
3.68140049108007e-11
9.50335158008795e-09
2.97726231790861e-06
4.58063960008823e-06
5.55258729595926e-06
6.06577461615259e-06
6.30421056076366e-06
6.40278445696392e-06
6.43947201218808e-06
6.45190628791428e-06
6.45578456222574e-06
6.4569078944173e-06
6.4572121089567e-06
6.45728923891797e-06
6.45730719122085e-06
6.45731057968321e-06
6.45731065365034e-06
6.45731008873656e-06
6.45730943443193e-06
6.45730880371786e-06
6.45730821632497e-06
6.45730767424864e-06
6.45730717640547e-06
6.45730672204625e-06
6.45730631051683e-06
6.45730594192809e-06
6.45730561647439e-06
6.45730533538955e-06
6.45730510066519e-06
6.45730491511221e-06
6.4573047799635e-06
6.45730469158694e-06
6.45730461058106e-06
6.45730441698006e-06
6.45730346231455e-06
6.45729893988566e-06
6.457279255858e-06
6.45719871064243e-06
6.45688706383045e-06
6.45574944662677e-06
6.45185407670836e-06
6.43943895670919e-06
6.40295065006198e-06
6.30510860357402e-06
6.06850828851153e-06
5.55866229871946e-06
4.59083264419518e-06
2.98974227435757e-06
9.5926957694406e-09
3.75097308423731e-11
3.74348457830633e-11
9.67588888708916e-09
3.03179804104746e-06
4.66277438318628e-06
5.65154212037817e-06
6.17395966767422e-06
6.41695282163773e-06
6.5175584844177e-06
6.555069497176e-06
6.5678096832644e-06
6.57179305218636e-06
6.57295009364847e-06
6.57326453538719e-06
6.57334468108809e-06
6.57336356579329e-06
6.57336729833726e-06
6.57336753768929e-06
6.57336707649573e-06
6.5733665015235e-06
6.57336593547511e-06
6.5733654015511e-06
6.57336490340916e-06
6.57336444095752e-06
6.57336401408958e-06
6.57336362252722e-06
6.57336326655503e-06
6.57336294632946e-06
6.57336266273439e-06
6.57336241682393e-06
6.57336221025378e-06
6.57336204331951e-06
6.57336191148604e-06
6.57336178181243e-06
6.57336151828283e-06
6.57336046958484e-06
6.57335579974805e-06
6.57333576177973e-06
6.57325402773857e-06
6.57293788704743e-06
6.57178336808903e-06
6.56782778082642e-06
6.55521370716627e-06
6.518124042813e-06
6.41863862294311e-06
6.17802203804751e-06
5.65947569517447e-06
4.67502029246711e-06
3.04586141561616e-06
9.77044218453846e-09
3.81464200969804e-11
3.78212488263937e-11
9.7847617408019e-09
3.06668144566344e-06
4.71553301968483e-06
5.7153076957897e-06
6.24383425416554e-06
6.48988089486835e-06
6.59186592449903e-06
6.62994377653641e-06
6.6428975947608e-06
6.64695545563232e-06
6.64813676082109e-06
6.64845868470745e-06
6.64854107783393e-06
6.64856067240249e-06
6.64856467595459e-06
6.64856505097186e-06
6.64856467570149e-06
6.64856416722459e-06
6.64856365592303e-06
6.64856316777339e-06
6.648562707767e-06
6.64856227659486e-06
6.64856187464744e-06
6.64856150194767e-06
6.6485611589218e-06
6.64856084571341e-06
6.64856056298594e-06
6.64856031126445e-06
6.64856009148599e-06
6.64855990326829e-06
6.64855974144659e-06
6.64855957471406e-06
6.64855926094674e-06
6.64855814397645e-06
6.64855336859954e-06
6.64853309323993e-06
6.6484505942496e-06
6.64813159227134e-06
6.64696630056664e-06
6.64297218832065e-06
6.63023035693557e-06
6.59275339532943e-06
6.49220744770485e-06
6.24899595766047e-06
5.72482485356174e-06
4.72961503050289e-06
3.08227565898831e-06
9.88476322121147e-09
3.85508642038863e-11
3.80544006466918e-11
9.85135302428259e-09
3.08832878939271e-06
4.74843562992997e-06
5.75521998956485e-06
6.28768403483323e-06
6.53572405409916e-06
6.63862178485249e-06
6.67708002123976e-06
6.69017930080872e-06
6.69428864630404e-06
6.69548698069946e-06
6.69581424094826e-06
6.69589826595287e-06
6.69591838623481e-06
6.69592259657227e-06
6.69592307821539e-06
6.69592277076435e-06
6.69592231585051e-06
6.69592184918157e-06
6.69592139883553e-06
6.69592097082813e-06
6.69592056643709e-06
6.69592018641697e-06
6.69591983101141e-06
6.69591950075481e-06
6.69591919578961e-06
6.69591891663884e-06
6.69591866351076e-06
6.69591843688679e-06
6.69591823590347e-06
6.69591805491636e-06
6.69591786280481e-06
6.69591751484814e-06
6.69591635119677e-06
6.69591150433406e-06
6.69589107550022e-06
6.69580809913965e-06
6.69548732926626e-06
6.69431537514127e-06
6.69029735047321e-06
6.67747592938191e-06
6.63975697446749e-06
6.53854694659351e-06
6.29370817898271e-06
5.76600599018746e-06
4.76403724609895e-06
3.10524991645176e-06
9.95624794740818e-09
3.88007703284924e-11
3.81910994858636e-11
9.89091975258875e-09
3.1013861700452e-06
4.76839220786778e-06
5.77952603249545e-06
6.31446421857348e-06
6.56377340335322e-06
6.6672603006461e-06
6.70596761367395e-06
6.71916354992262e-06
6.72330762322165e-06
6.72451762202873e-06
6.72484859638751e-06
6.72493377737558e-06
6.72495427726997e-06
6.72495864253519e-06
6.72495920640242e-06
6.72495894968535e-06
6.72495853683545e-06
6.72495810574468e-06
6.72495768599886e-06
6.72495728437017e-06
6.72495690255814e-06
6.72495654156605e-06
6.72495620179171e-06
6.72495588383997e-06
6.72495558786079e-06
6.72495531428466e-06
6.7249550631264e-06
6.72495483457335e-06
6.72495462743002e-06
6.72495443569484e-06
6.7249542280713e-06
6.72495385860225e-06
6.72495266510111e-06
6.72494777248826e-06
6.72492724826739e-06
6.72484398314319e-06
6.72452215257093e-06
6.72334619619612e-06
6.71931375419405e-06
6.7064441697033e-06
6.66857832481238e-06
6.56696424711368e-06
6.32113359444872e-06
5.79127576432814e-06
4.78517381482612e-06
3.11936809909477e-06
9.99979005608595e-09
3.89512698690597e-11
3.82691396137504e-11
9.9138039897137e-09
3.10905548079412e-06
4.78018436631031e-06
5.79395109713157e-06
6.33040670466022e-06
6.58050488614653e-06
6.68436321808598e-06
6.72322984361374e-06
6.73648852318627e-06
6.74065548165426e-06
6.74187328636998e-06
6.74220678635093e-06
6.74229276737519e-06
6.74231353507679e-06
6.74231801294568e-06
6.74231863837456e-06
6.74231842311848e-06
6.74231804326228e-06
6.7423176404799e-06
6.74231724553114e-06
6.74231686575362e-06
6.74231650313805e-06
6.74231615884022e-06
6.74231583335123e-06
6.74231552732242e-06
6.74231524090716e-06
6.74231497447689e-06
6.74231472792265e-06
6.74231450123915e-06
6.74231429300734e-06
6.74231409696942e-06
6.74231388161582e-06
6.74231350034601e-06
6.74231228959596e-06
6.74230736983159e-06
6.74228678915639e-06
6.74220335516236e-06
6.74188090645594e-06
6.74070261216864e-06
6.73666171497395e-06
6.72376377689958e-06
6.68581118129167e-06
6.58395786027206e-06
6.33753863484631e-06
5.80639910498959e-06
4.79783403489133e-06
3.12783266519762e-06
1.00256716529988e-08
3.90397622081275e-11
3.83126002897794e-11
9.92671111821289e-09
3.11344926242676e-06
4.78698346241144e-06
5.80230714245789e-06
6.33967227607843e-06
6.5902499600085e-06
6.69433725973094e-06
6.73330353377177e-06
6.74660204617533e-06
6.75078375470995e-06
6.75200666904951e-06
6.75234184937358e-06
6.75242837255467e-06
6.75244932600427e-06
6.75245388481083e-06
6.75245455797609e-06
6.75245437582173e-06
6.75245402207314e-06
6.75245364205311e-06
6.75245326744696e-06
6.75245290603119e-06
6.75245255998776e-06
6.75245223055069e-06
6.75245191826113e-06
6.75245162378931e-06
6.75245134729388e-06
6.75245108910544e-06
6.75245084903443e-06
6.7524506269424e-06
6.75245042126097e-06
6.75245022555654e-06
6.75245000814704e-06
6.75244962207784e-06
6.75244840300693e-06
6.75244346886686e-06
6.752422856895e-06
6.75233932785739e-06
6.75201652929486e-06
6.75083690543069e-06
6.746791177628e-06
6.73387697514141e-06
6.6958744486012e-06
6.59388303814258e-06
6.34712325084163e-06
5.81524029072354e-06
4.80524252309033e-06
3.13279166763079e-06
1.00407086167526e-08
3.90906458888759e-11
3.83362470077235e-11
9.93382153374189e-09
3.11590828125414e-06
4.79081438276711e-06
5.80703866936263e-06
6.34493728602909e-06
6.5958002174761e-06
6.70002570082382e-06
6.73905300214654e-06
6.75237627565361e-06
6.75656729349332e-06
6.75779348368719e-06
6.75812975969769e-06
6.75821664377825e-06
6.75823772496758e-06
6.7582423426069e-06
6.75824305317517e-06
6.7582428978387e-06
6.75824256520044e-06
6.75824220402006e-06
6.75824184662566e-06
6.75824150114314e-06
6.75824116987101e-06
6.75824085407175e-06
6.75824055429562e-06
6.75824027122101e-06
6.7582400050061e-06
6.75823975595254e-06
6.75823952381256e-06
6.7582393083515e-06
6.75823910789632e-06
6.75823891589274e-06
6.75823870053868e-06
6.7582383146708e-06
6.75823709351581e-06
6.75823215361021e-06
6.75821152625904e-06
6.75812794649441e-06
6.75780495610029e-06
6.75662459557295e-06
6.75257617504215e-06
6.73965286561413e-06
6.70162228078672e-06
6.5995530370221e-06
6.3526007656919e-06
5.82029644682436e-06
4.80948403448506e-06
3.13563456592557e-06
1.0049259940269e-08
3.91192973849264e-11
3.83488314638401e-11
9.93765218944394e-09
3.11725440096869e-06
4.79292647658106e-06
5.80966102903076e-06
6.34786627306746e-06
6.59889552887791e-06
6.70320276592822e-06
6.74226670882148e-06
6.75560507294302e-06
6.75980185160334e-06
6.76103010175506e-06
6.76136707939984e-06
6.7614542003907e-06
6.76147536926373e-06
6.76148003048074e-06
6.76148077128105e-06
6.76148063826564e-06
6.76148032288963e-06
6.761479977821e-06
6.76147963547138e-06
6.76147930422635e-06
6.76147898645918e-06
6.7614786834255e-06
6.76147839566331e-06
6.76147812384887e-06
6.76147786814221e-06
6.76147762882468e-06
6.76147740559873e-06
6.76147719815189e-06
6.76147700473525e-06
6.76147681871105e-06
6.7614766081997e-06
6.76147622590551e-06
6.76147500681189e-06
6.76147006670514e-06
6.76144943373831e-06
6.7613658291352e-06
6.76104273746599e-06
6.7598619792943e-06
6.75581209198336e-06
6.74288379551935e-06
6.70483778662064e-06
6.60272562080343e-06
6.35566689183921e-06
5.8231288259041e-06
4.81186290354767e-06
3.13723133779934e-06
1.00540256460708e-08
3.91351131907165e-11
3.83553847400937e-11
9.93967168677957e-09
3.11797578839109e-06
4.79406697551008e-06
5.81108507582331e-06
6.34946326307869e-06
6.60058771759938e-06
6.70494244056151e-06
6.74402798306794e-06
6.75737537671593e-06
6.76157565577979e-06
6.76280517858382e-06
6.76314259858319e-06
6.76322987374709e-06
6.76325110335182e-06
6.76325579800504e-06
6.76325656415573e-06
6.76325644989338e-06
6.76325614940562e-06
6.76325581873224e-06
6.76325549011653e-06
6.7632551721272e-06
6.76325486716566e-06
6.7632545764481e-06
6.7632543004981e-06
6.76325403998758e-06
6.76325379508001e-06
6.76325356604179e-06
6.76325335253037e-06
6.76325315416232e-06
6.76325296913182e-06
6.76325279074024e-06
6.76325258706586e-06
6.76325221072025e-06
6.76325099654384e-06
6.76324605993662e-06
6.76322542743573e-06
6.76314181302916e-06
6.76281867100118e-06
6.7616377044881e-06
6.75758703589117e-06
6.74465606372506e-06
6.70660174331226e-06
6.60446637223022e-06
6.35734991889472e-06
5.82468472187171e-06
4.8131712640947e-06
3.13811086949248e-06
1.00566306189131e-08
3.91436777461833e-11
3.83587202022939e-11
9.94071293334527e-09
3.11835421216265e-06
4.79467028772621e-06
5.81184310716182e-06
6.35031715796268e-06
6.60149518836692e-06
6.7058770363101e-06
6.74497510068907e-06
6.75832780750235e-06
6.76253017856144e-06
6.76376047549581e-06
6.76409817106835e-06
6.76418554641703e-06
6.76420681902824e-06
6.76421154052312e-06
6.76421232844612e-06
6.76421223043992e-06
6.76421194335395e-06
6.7642116260442e-06
6.76421131041029e-06
6.76421100512764e-06
6.76421071258293e-06
6.76421043394491e-06
6.76421016971257e-06
6.76420992054583e-06
6.76420968662847e-06
6.76420946821701e-06
6.76420926492691e-06
6.7642090763048e-06
6.76420890049896e-06
6.76420873077829e-06
6.76420853520226e-06
6.76420816631534e-06
6.76420695887225e-06
6.76420202812766e-06
6.76418139984164e-06
6.7640977843095e-06
6.76377462015764e-06
6.76259354907203e-06
6.75854247451368e-06
6.74561009482119e-06
6.70755137682963e-06
6.60540368331154e-06
6.35825648900107e-06
5.82552339656687e-06
4.81387730815736e-06
3.13858617520556e-06
1.00580274927196e-08
3.91482273526807e-11
3.83603711681242e-11
9.94123592998321e-09
3.11854798154405e-06
4.79498230187875e-06
5.81223806782041e-06
6.35076441353111e-06
6.60197214384929e-06
6.70636925991164e-06
6.74547447779555e-06
6.75883026515315e-06
6.76303386850511e-06
6.76426463031154e-06
6.76460249629062e-06
6.76468993731217e-06
6.76471124164288e-06
6.76471598584788e-06
6.76471679323782e-06
6.76471671013154e-06
6.76471643578398e-06
6.76471613153929e-06
6.76471582877076e-06
6.76471553616652e-06
6.76471525606842e-06
6.76471498958813e-06
6.76471473720981e-06
6.7647144995901e-06
6.76471427693334e-06
6.76471406949043e-06
6.76471387683329e-06
6.7647136984444e-06
6.76471353243443e-06
6.76471337205588e-06
6.76471318538293e-06
6.76471282490545e-06
6.76471162534613e-06
6.7647067020753e-06
6.76468608052539e-06
6.76460246916306e-06
6.76427929884964e-06
6.76309818012844e-06
6.75904690325935e-06
6.74611380208521e-06
6.70805280443802e-06
6.60589868597838e-06
6.3587354081208e-06
5.8259666977105e-06
4.81425084407386e-06
3.13883793324241e-06
1.00587613964869e-08
3.91505941610411e-11
3.83611525481128e-11
9.9414881518428e-09
3.1186436750724e-06
4.79513853701927e-06
5.81243789188654e-06
6.35099230807907e-06
6.60221627374785e-06
6.70662187376221e-06
6.74573112740082e-06
6.75908867860326e-06
6.76329299931355e-06
6.7645240377906e-06
6.76486200904848e-06
6.76494949394211e-06
6.76497082319191e-06
6.76497558791046e-06
6.76497641368853e-06
6.76497634498476e-06
6.76497608340967e-06
6.764975792522e-06
6.76497550297103e-06
6.76497522335911e-06
6.76497495595537e-06
6.76497470184085e-06
6.76497446150188e-06
6.76497423560072e-06
6.76497402435728e-06
6.76497382800935e-06
6.76497364608994e-06
6.76497347802838e-06
6.76497332190056e-06
6.76497317095453e-06
6.76497299329837e-06
6.76497264137564e-06
6.76497144996272e-06
6.76496653507336e-06
6.76494592193195e-06
6.76486231811534e-06
6.76453915115167e-06
6.76335801734419e-06
6.75930665112589e-06
6.74637320269638e-06
6.70831107141584e-06
6.60615370336281e-06
6.35898222386989e-06
5.82619526588572e-06
4.8144435660586e-06
3.13896794612746e-06
1.0059137187443e-08
3.91517931791597e-11
3.83614833626976e-11
9.94159812319699e-09
3.11868699629903e-06
4.79521117749953e-06
5.81253264290879e-06
6.35110175308432e-06
6.60233442932248e-06
6.7067446749989e-06
6.74585617726474e-06
6.75921472684804e-06
6.76341946104163e-06
6.76465066312061e-06
6.76498869935906e-06
6.76507621387106e-06
6.76509756438489e-06
6.76510234918668e-06
6.76510319356098e-06
6.76510313986554e-06
6.76510289191444e-06
6.76510261535418e-06
6.76510233990941e-06
6.76510207400972e-06
6.76510181986632e-06
6.76510157856274e-06
6.76510135060625e-06
6.76510113667012e-06
6.76510093697816e-06
6.76510075174613e-06
6.76510058047701e-06
6.76510042255273e-06
6.7651002760068e-06
6.7651001340736e-06
6.76509996488292e-06
6.76509962083468e-06
6.76509843688449e-06
6.76509353118933e-06
6.76507292820994e-06
6.76498933497872e-06
6.76466617860694e-06
6.76348505176906e-06
6.75943366648034e-06
6.74650009144574e-06
6.70843748186758e-06
6.6062786300051e-06
6.35910326881934e-06
5.82630750336784e-06
4.81453831562701e-06
3.13903198662487e-06
1.00593210497866e-08
3.91523744565845e-11
3.83615623093793e-11
9.94162748156921e-09
3.11870040214605e-06
4.79523609164292e-06
5.81256745260378e-06
6.35114370998392e-06
6.60238087376685e-06
6.70679361148438e-06
6.74590635761141e-06
6.75926547543246e-06
6.76347045395075e-06
6.76470175910048e-06
6.76503984131165e-06
6.76512738083825e-06
6.76514875248357e-06
6.76515355853396e-06
6.76515442294127e-06
6.7651543857841e-06
6.76515415287093e-06
6.76515389201024e-06
6.7651536318049e-06
6.76515338045526e-06
6.76515314016189e-06
6.76515291205205e-06
6.76515269667949e-06
6.7651524947315e-06
6.76515230642885e-06
6.76515213195689e-06
6.76515197079449e-06
6.76515182227053e-06
6.76515168435464e-06
6.7651515502206e-06
6.76515138796442e-06
6.765151049934e-06
6.76514987126773e-06
6.76514497241741e-06
6.76512437668188e-06
6.76504079161567e-06
6.76471764664647e-06
6.76353653885749e-06
6.75948518180344e-06
6.74655163024683e-06
6.7084889849315e-06
6.60632975999955e-06
6.35915312947198e-06
5.8263541155007e-06
4.81457804446013e-06
3.13905919062385e-06
1.00593998281679e-08
3.91526272524375e-11
3.8361436420911e-11
9.94159368118086e-09
3.11869189557115e-06
4.7952272012396e-06
5.8125604832272e-06
6.3511391091141e-06
6.60237815251884e-06
6.70679207866463e-06
6.74590546989599e-06
6.75926490271606e-06
6.76347002617925e-06
6.76470139859776e-06
6.7650395152259e-06
6.7651270763883e-06
6.7651484660432e-06
6.76515329086831e-06
6.76515417353894e-06
6.76515415163735e-06
6.76515393255171e-06
6.76515368663872e-06
6.76515344113873e-06
6.76515320394295e-06
6.76515297726495e-06
6.76515276229748e-06
6.76515255964852e-06
6.76515237001601e-06
6.76515219361104e-06
6.7651520305903e-06
6.76515188040857e-06
6.76515174233639e-06
6.76515161425498e-06
6.7651514892361e-06
6.76515133529466e-06
6.76515100476208e-06
6.7651498329132e-06
6.76514494041622e-06
6.76512435073482e-06
6.7650407738343e-06
6.76471764493222e-06
6.76353657452248e-06
6.75948530365803e-06
6.74655193528103e-06
6.70848964166374e-06
6.60633099528179e-06
6.35915517938022e-06
5.82635708783668e-06
4.81458172087058e-06
3.13906273804579e-06
1.0059413552232e-08
3.91526764468304e-11
3.83610761295251e-11
9.94148885728093e-09
3.11865949672419e-06
4.79518262142313e-06
5.81251044618677e-06
6.35108727265154e-06
6.60232605581571e-06
6.70674016464642e-06
6.74585376289239e-06
6.75921333115941e-06
6.76341852826746e-06
6.7646499393898e-06
6.76498807792533e-06
6.76507565392186e-06
6.76509705564184e-06
6.76510189341087e-06
6.76510278963065e-06
6.76510277910788e-06
6.76510257003206e-06
6.76510233615536e-06
6.76510210307402e-06
6.76510187827135e-06
6.76510166396465e-06
6.76510146141199e-06
6.76510127126758e-06
6.76510109424598e-06
6.76510093055396e-06
6.76510078032712e-06
6.76510064300348e-06
6.76510051779087e-06
6.76510040247375e-06
6.7651002900075e-06
6.76510014833337e-06
6.76509982985465e-06
6.76509866988059e-06
6.76509378743629e-06
6.76507320849673e-06
6.76498964762024e-06
6.76466655146361e-06
6.76348555885679e-06
6.75943447801143e-06
6.74650154948043e-06
6.70844017879051e-06
6.60628340475263e-06
6.35911099693159e-06
5.82631858857988e-06
4.81455188275655e-06
3.13904473583904e-06
1.00593674676168e-08
3.91525338539422e-11
3.83603825666569e-11
9.94128023029053e-09
3.11859060918997e-06
4.79508375036444e-06
5.81239581758318e-06
6.35096541511059e-06
6.60220135817767e-06
6.70661453845783e-06
6.74572790410507e-06
6.75908744522935e-06
6.76329265860051e-06
6.76452408844617e-06
6.76486224160659e-06
6.76494982936483e-06
6.76497124161989e-06
6.76497609067772e-06
6.76497699956949e-06
6.76497699993989e-06
6.76497679976926e-06
6.76497657710266e-06
6.76497635572707e-06
6.764976142707e-06
6.76497594026007e-06
6.76497574970323e-06
6.76497557174591e-06
6.76497540713252e-06
6.76497525608041e-06
6.76497511870807e-06
6.76497499442019e-06
6.76497488233619e-06
6.76497478011364e-06
6.76497468056749e-06
6.76497455158527e-06
6.76497424570256e-06
6.76497309833027e-06
6.7649682271825e-06
6.76494766221459e-06
6.76486412570927e-06
6.76454108548686e-06
6.76336023519907e-06
6.75930951662312e-06
6.74637746026109e-06
6.7083180353427e-06
6.60616528755788e-06
6.35900049923739e-06
5.82622125025739e-06
4.81447519530289e-06
3.13899727911728e-06
1.00592441914737e-08
3.91521868016033e-11
3.83590486306138e-11
9.94087852027845e-09
3.11845633839879e-06
4.79488833326777e-06