/*--------------------------------*- C++ -*----------------------------------*\
  =========                 |
  \\      /  F ield         | OpenFOAM: The Open Source CFD Toolbox
   \\    /   O peration     | Website:  https://openfoam.org
    \\  /    A nd           | Version:  10
     \\/     M anipulation  |
\*---------------------------------------------------------------------------*/
FoamFile
{
    format      ascii;
    class       volScalarField;
    location    "2.8";
    object      omega;
}
// * * * * * * * * * * * * * * * * * * * * * * * * * * * * * * * * * * * * * //

dimensions      [0 0 -1 0 0 0 0];

internalField   nonuniform List<scalar> 
2500
(
128345.036540239
128363.965596264
128356.776572861
128354.017429522
128353.082107824
128352.775100677
128352.678075133
128352.64830941
128352.639036208
128352.636332629
128352.634804983
128352.634002745
128352.633557423
128352.633003161
128352.632497134
128352.631926209
128352.631645245
128352.63128545
128352.630872605
128352.630588738
128352.630326838
128352.630074989
128352.629855846
128352.629753862
128352.629636844
128352.629495408
128352.629451748
128352.629408938
128352.629377612
128352.629413195
128352.629467029
128352.629551525
128352.629698544
128352.629895028
128352.630097141
128352.63031883
128352.630576355
128352.630793389
128352.63128565
128352.631876806
128352.633064473
128352.636298482
128352.646472438
128352.679081384
128352.782524475
128353.094901896
128354.026910437
128356.778859664
128364.07054241
128344.998593817
31862.6411120412
14156.3854526455
14153.0521625353
14151.6211656582
14151.0664699065
14150.8619911906
14150.7910615806
14150.7681998003
14150.761359403
14150.7594575201
14150.7589299671
14150.7587829569
14150.7587434025
14150.7587176194
14150.7586961806
14150.7586744747
14150.75866222
14150.7586475213
14150.758630121
14150.7586160068
14150.758598902
14150.7585771726
14150.7585564441
14150.7585503579
14150.7585465991
14150.7585363945
14150.7585349397
14150.7585332437
14150.7585270849
14150.7585339893
14150.7585365482
14150.7585309873
14150.7585502681
14150.7585777061
14150.7585899829
14150.7585978493
14150.7586085464
14150.7586245447
14150.7586810313
14150.7588612809
14150.7595168293
14150.7618462022
14150.7696920803
14150.7945511481
14150.8683144209
14151.0740610778
14151.6237236395
14153.0501937803
14156.4464157359
31862.771355711
31705.2757433842
3521.50313611852
50.6969003945797
50.6913667350376
50.6892158869016
50.6884204241969
50.6881425436387
50.6880521090751
50.6880248159735
50.6880171732204
50.6880151050151
50.6880145762024
50.68801449338
50.6880144647558
50.6880144484524
50.6880144389931
50.6880144347995
50.6880144275024
50.688014410142
50.6880143943917
50.688014366712
50.6880143222871
50.6880142731481
50.6880142517636
50.6880142469293
50.6880142332643
50.6880142375177
50.688014240364
50.6880142291111
50.6880142462484
50.6880142456894
50.6880142200685
50.68801427267
50.6880143518572
50.6880143560527
50.68801434399
50.6880143610012
50.6880143910943
50.6880145630148
50.6880152201466
50.6880177157426
50.6880267288217
50.6880571494038
50.6881534695638
50.688438917879
50.6892358004457
50.6913702521113
50.6969119621003
3521.52500851754
31705.7619598672
31607.6950215211
3510.99993931313
50.5500619067076
50.5465256541942
50.5452108858585
50.5447432978024
50.544583865041
50.5445325334005
50.5445170787224
50.5445127451693
50.5445115647531
50.544511278569
50.5445112599176
50.5445112585907
50.5445112623944
50.5445112673235
50.544511271234
50.5445112734083
50.5445112709456
50.5445112699313
50.5445112648045
50.5445112463861
50.5445112193953
50.5445112059213
50.5445112079602
50.5445112079169
50.5445112083189
50.5445112138481
50.5445112187133
50.5445112206143
50.5445112177533
50.5445112032258
50.5445112283406
50.5445112697137
50.5445112686544
50.5445112653938
50.5445112658377
50.5445112603588
50.5445113363192
50.5445116659446
50.5445129724962
50.5445178066525
50.5445343663033
50.5445877108985
50.544749532007
50.54521683634
50.5465270390964
50.5500933730366
3511.01950747819
31608.2926585238
31556.8484090577
3505.75472071537
50.4785942802074
50.4768144940182
50.4761747613149
50.4759543616432
50.4758806307465
50.4758570271566
50.4758498995002
50.4758478882016
50.475847334149
50.4758472050231
50.475847205869
50.4758472114776
50.475847217599
50.4758472228429
50.4758472278401
50.4758472317847
50.4758472330816
50.4758472341193
50.4758472340991
50.4758472286197
50.4758472165796
50.4758472108396
50.4758472144697
50.4758472163532
50.4758472170492
50.4758472213892
50.4758472246131
50.4758472243419
50.4758472227958
50.4758472153369
50.4758472262248
50.4758472433707
50.4758472426305
50.4758472416553
50.4758472393407
50.4758472331158
50.4758472560074
50.4758473887727
50.4758479553632
50.4758500812201
50.4758574236607
50.4758813213361
50.4759550600295
50.4761740028011
50.4768117987798
50.4786148429716
3505.76735811697
31557.3219077176
31533.7370047852
3503.4736155237
50.448164288792
50.4474016243195
50.4471338180545
50.4470437757118
50.4470141022724
50.4470046309464
50.4470017555583
50.4470009373934
50.4470007096285
50.4470006583141
50.4470006617961
50.4470006665315
50.4470006706944
50.4470006739621
50.4470006772773
50.4470006800157
50.4470006814949
50.4470006822346
50.4470006832253
50.4470006818302
50.4470006775901
50.4470006764178
50.4470006781374
50.4470006793056
50.4470006802207
50.4470006825187
50.4470006843278
50.4470006842776
50.4470006836642
50.447000680531
50.4470006847325
50.4470006907348
50.4470006904188
50.4470006900448
50.4470006881779
50.4470006855125
50.4470006900421
50.44700073682
50.4470009555686
50.4470017819123
50.447004644268
50.4470140022474
50.4470432049694
50.4471318125659
50.4473978495393
50.4481718989582
3503.48010727509
31534.0255671962
31524.3314988172
3502.58553683687
50.4365178331818
50.4362275815784
50.4361271917443
50.4360940391495
50.4360832434466
50.4360798035276
50.4360787530053
50.4360784512231
50.4360783669241
50.4360783489356
50.4360783510874
50.4360783537523
50.4360783559958
50.4360783577532
50.4360783594902
50.4360783609236
50.4360783618865
50.436078362363
50.4360783631674
50.4360783629704
50.4360783618647
50.436078362159
50.4360783629911
50.4360783635701
50.4360783641588
50.4360783651909
50.4360783660897
50.436078366267
50.4360783661489
50.4360783650732
50.436078366588
50.4360783684737
50.4360783683766
50.4360783682495
50.4360783672654
50.4360783660262
50.436078366516
50.4360783820812
50.4360784595208
50.4360787537559
50.4360797716709
50.4360830993939
50.4360935511867
50.4361257805505
50.4362248025693
50.4365192505221
3502.58834555311
31524.478004319
31520.838514094
3502.2698190686
50.4324349021755
50.4323341440883
50.4322996148785
50.4322883549535
50.4322847231509
50.4322835675428
50.4322832127305
50.4322831098894
50.4322830813751
50.4322830757517
50.4322830767483
50.4322830780413
50.4322830791617
50.4322830800634
50.4322830809101
50.4322830816282
50.4322830822019
50.432283082555
50.4322830830742
50.4322830832313
50.4322830831595
50.4322830836035
50.4322830840664
50.4322830844362
50.4322830848028
50.4322830852902
50.4322830857652
50.432283086005
50.4322830861038
50.4322830858643
50.4322830864424
50.4322830870443
50.4322830870738
50.4322830870914
50.4322830867267
50.4322830862394
50.4322830861762
50.4322830911342
50.4322831168955
50.4322832148243
50.4322835521356
50.4322846511483
50.432288111677
50.4322989040174
50.4323326305893
50.4324346064066
3502.27087964039
31520.903340109
31519.6377306029
3502.16581663111
50.4311059638631
50.431073466817
50.4310623894777
50.4310588069771
50.4310576602023
50.4310572959139
50.4310571836319
50.4310571509058
50.4310571420057
50.4310571404667
50.4310571409607
50.4310571415936
50.4310571421738
50.4310571426682
50.4310571431278
50.4310571435433
50.4310571439234
50.4310571442247
50.4310571445666
50.4310571448196
50.431057145032
50.4310571453764
50.4310571456989
50.4310571459881
50.43105714627
50.4310571465755
50.4310571468831
50.4310571471205
50.4310571472957
50.4310571473573
50.4310571476514
50.4310571479153
50.4310571480208
50.4310571481191
50.431057148069
50.4310571479595
50.43105714795
50.4310571495238
50.4310571577074
50.4310571885745
50.4310572941615
50.4310576362085
50.4310587126078
50.4310620936642
50.4310727868831
50.4311055480109
3502.16617425449
31519.6634622769
31519.2515464448
3502.13373337163
50.4307005491683
50.4306906801079
50.4306873261951
50.4306862467875
50.430685903321
50.4306857944798
50.4306857609044
50.430685751148
50.4306857486194
50.4306857483263
50.4306857486323
50.4306857489957
50.4306857493488
50.4306857496746
50.4306857499881
50.4306857502927
50.4306857505907
50.4306857508625
50.4306857511388
50.4306857514012
50.4306857516607
50.4306857519453
50.4306857522151
50.4306857524737
50.4306857527269
50.4306857529794
50.4306857532293
50.4306857534563
50.4306857536562
50.4306857538165
50.430685754033
50.4306857542256
50.4306857543712
50.4306857545085
50.43068575459
50.4306857546424
50.430685754713
50.4306857552551
50.4306857577902
50.43068576711
50.43068579864
50.430685899984
50.4306862179349
50.4306872202768
50.4306904155155
50.4307003116627
3502.13384275055
31519.2608946246
31519.1345635624
3502.12441046763
50.4305841018702
50.4305812513633
50.4305802845236
50.4305799740936
50.4305798757966
50.4305798447857
50.430579835284
50.4305798326026
50.4305798320157
50.43057983208
50.4305798323192
50.4305798325833
50.4305798328503
50.4305798331129
50.4305798333748
50.4305798336379
50.4305798339021
50.4305798341609
50.4305798344192
50.4305798346755
50.4305798349318
50.4305798351913
50.4305798354438
50.4305798356907
50.4305798359332
50.4305798361704
50.430579836402
50.4305798366229
50.4305798368302
50.43057983702
50.4305798372153
50.4305798373993
50.4305798375646
50.4305798377162
50.4305798378455
50.4305798379579
50.4305798380671
50.4305798383048
50.4305798391108
50.4305798418548
50.4305798509211
50.430579879728
50.4305799696157
50.430580253166
50.4305811612828
50.4305840003585
3502.12444123554
31519.1377188395
31519.1012110171
3502.12187092808
50.4305528507405
50.4305520617405
50.430551794606
50.430551708916
50.430551681927
50.4305516735072
50.4305516710095
50.4305516703954
50.430551670369
50.4305516705302
50.4305516707459
50.4305516709756
50.430551671212
50.430551671452
50.4305516716958
50.4305516719433
50.4305516721941
50.4305516724455
50.4305516726972
50.4305516729485
50.4305516731994
50.4305516734494
50.4305516736954
50.4305516739373
50.4305516741749
50.4305516744067
50.4305516746323
50.4305516748501
50.4305516750586
50.4305516752562
50.4305516754478
50.4305516756304
50.4305516758006
50.4305516759587
50.4305516761034
50.4305516762353
50.4305516763581
50.4305516765082
50.4305516768074
50.4305516776323
50.4305516801833
50.4305516881018
50.4305517125752
50.4305517895995
50.4305520367981
50.4305528162281
3502.12187911623
31519.1022130111
31519.092489363
3502.12125132034
50.4305454496936
50.4305452392084
50.4305451681288
50.4305451453668
50.4305451382792
50.4305451361497
50.4305451356033
50.4305451355659
50.4305451356934
50.4305451358787
50.4305451360857
50.4305451363033
50.4305451365286
50.4305451367599
50.4305451369966
50.4305451372378
50.4305451374826
50.4305451377296
50.4305451379775
50.4305451382255
50.4305451384728
50.4305451387185
50.4305451389612
50.4305451392003
50.4305451394348
50.4305451396639
50.4305451398866
50.4305451401023
50.43054514031
50.4305451405088
50.4305451406995
50.4305451408808
50.4305451410515
50.4305451412115
50.4305451413602
50.4305451414975
50.4305451416239
50.4305451417491
50.4305451419053
50.4305451421921
50.430545142927
50.4305451450648
50.4305451515267
50.4305451717237
50.4305452365244
50.4305454424838
3502.12125360108
31519.0927929839
31519.0906918012
3502.12115123198
50.4305444275797
50.4305443732431
50.4305443549923
50.4305443492008
50.4305443474694
50.4305443470283
50.4305443470046
50.4305443471209
50.430544347288
50.4305443474779
50.4305443476809
50.4305443478933
50.4305443481138
50.430544348341
50.4305443485739
50.4305443488116
50.4305443490529
50.4305443492967
50.4305443495418
50.4305443497871
50.4305443500318
50.4305443502748
50.4305443505149
50.4305443507515
50.4305443509837
50.4305443512105
50.4305443514311
50.4305443516449
50.430544351851
50.4305443520489
50.4305443522382
50.4305443524182
50.4305443525883
50.4305443527482
50.4305443528973
50.4305443530353
50.4305443531622
50.4305443532801
50.4305443533971
50.4305443535384
50.4305443537851
50.4305443543795
50.4305443560594
50.4305443612042
50.4305443776408
50.4305444302646
3502.12115210954
31519.0907819212
31519.0907623553
3502.12118627318
50.4305450438774
50.4305450302838
50.4305450257861
50.4305450244196
50.4305450240827
50.4305450240791
50.4305450241898
50.4305450243443
50.4305450245201
50.4305450247097
50.4305450249099
50.4305450251193
50.4305450253366
50.4305450255609
50.4305450257911
50.430545026026
50.4305450262645
50.4305450265056
50.4305450267481
50.4305450269909
50.4305450272332
50.4305450274736
50.4305450277115
50.4305450279457
50.4305450281756
50.4305450284002
50.4305450286188
50.4305450288306
50.430545029035
50.4305450292314
50.4305450294191
50.4305450295977
50.4305450297666
50.4305450299255
50.4305450300738
50.4305450302112
50.4305450303376
50.430545030453
50.4305450305593
50.4305450306625
50.4305450307823
50.4305450309784
50.4305450314306
50.4305450327235
50.4305450367826
50.430545049838
3502.12118685147
31519.0907904391
31519.0913188489
3502.12125525196
50.4305460660539
50.4305460627759
50.4305460617492
50.4305460615005
50.4305460615145
50.4305460616198
50.4305460617626
50.4305460619251
50.4305460621014
50.4305460622891
50.4305460624869
50.4305460626937
50.4305460629085
50.4305460631302
50.4305460633578
50.43054606359
50.4305460638259
50.4305460640644
50.4305460643044
50.4305460645447
50.4305460647844
50.4305460650224
50.4305460652578
50.4305460654898
50.4305460657173
50.4305460659397
50.4305460661562
50.430546066366
50.4305460665685
50.430546066763
50.430546066949
50.4305460671261
50.4305460672936
50.4305460674511
50.4305460675983
50.4305460677348
50.4305460678603
50.4305460679746
50.4305460680777
50.4305460681711
50.4305460682591
50.4305460683558
50.4305460685031
50.4305460688416
50.4305460698334
50.4305460729977
3502.1212557731
31519.0913296711
31519.0919976804
3502.12133249176
50.4305471855692
50.4305471848319
50.4305471846556
50.4305471846798
50.4305471847782
50.4305471849084
50.4305471850573
50.43054718522
50.4305471853946
50.4305471855801
50.4305471857755
50.4305471859797
50.430547186192
50.430547186411
50.430547186636
50.4305471868656
50.4305471870989
50.4305471873347
50.430547187572
50.4305471878098
50.4305471880469
50.4305471882823
50.4305471885153
50.4305471887448
50.4305471889701
50.4305471891902
50.4305471894044
50.4305471896121
50.4305471898126
50.4305471900053
50.4305471901895
50.4305471903649
50.4305471905308
50.430547190687
50.430547190833
50.4305471909684
50.4305471910929
50.4305471912062
50.4305471913082
50.430547191399
50.4305471914793
50.4305471915522
50.4305471916267
50.4305471917365
50.4305471919911
50.4305471927541
3502.12133300144
31519.0920038606
31519.0927064181
3502.1214116869
50.430548327758
50.4305483276296
50.4305483276549
50.4305483277424
50.4305483278589
50.4305483279931
50.4305483281415
50.4305483283024
50.4305483284748
50.4305483286579
50.4305483288507
50.4305483290524
50.430548329262
50.4305483294784
50.4305483297007
50.4305483299276
50.4305483301582
50.4305483303913
50.4305483306259
50.4305483308609
50.4305483310954
50.4305483313283
50.4305483315587
50.4305483317857
50.4305483320085
50.4305483322263
50.4305483324383
50.4305483326438
50.4305483328422
50.4305483330328
50.4305483332152
50.4305483333889
50.4305483335532
50.430548333708
50.4305483338526
50.4305483339869
50.4305483341104
50.430548334223
50.4305483343243
50.4305483344142
50.4305483344927
50.4305483345603
50.4305483346184
50.4305483346759
50.4305483347591
50.4305483349556
3502.12141219145
31519.0927113679
31519.0934222755
3502.12149133347
50.4305494750932
50.4305494751059
50.4305494751763
50.4305494752764
50.4305494753951
50.4305494755282
50.4305494756746
50.4305494758332
50.4305494760031
50.4305494761836
50.4305494763739
50.4305494765729
50.4305494767798
50.4305494769935
50.430549477213
50.4305494774372
50.4305494776649
50.4305494778953
50.4305494781271
50.4305494783594
50.4305494785911
50.4305494788214
50.4305494790492
50.4305494792736
50.4305494794939
50.4305494797093
50.4305494799189
50.4305494801222
50.4305494803185
50.4305494805071
50.4305494806876
50.4305494808594
50.4305494810222
50.4305494811754
50.4305494813187
50.4305494814517
50.4305494815743
50.430549481686
50.4305494817867
50.4305494818762
50.4305494819542
50.4305494820209
50.4305494820761
50.4305494821226
50.4305494821679
50.4305494822351
3502.12149183291
31519.0934268773
31519.0941397886
3502.12157108207
50.4305506235713
50.4305506236147
50.4305506236934
50.4305506237944
50.4305506239114
50.4305506240423
50.4305506241862
50.4305506243423
50.4305506245096
50.4305506246875
50.4305506248751
50.4305506250715
50.4305506252756
50.4305506254865
50.4305506257032
50.4305506259245
50.4305506261494
50.4305506263769
50.4305506266059
50.4305506268354
50.4305506270643
50.4305506272919
50.430550627517
50.4305506277388
50.4305506279565
50.4305506281694
50.4305506283767
50.4305506285777
50.4305506287717
50.4305506289583
50.4305506291368
50.4305506293069
50.4305506294679
50.4305506296195
50.4305506297615
50.4305506298933
50.4305506300148
50.4305506301258
50.4305506302259
50.430550630315
50.4305506303929
50.4305506304596
50.4305506305147
50.4305506305597
50.4305506305975
50.430550630637
3502.12157157604
31519.094144268
31519.0948576798
3502.1216508534
50.4305517723004
50.430551772349
50.4305517724277
50.4305517725268
50.4305517726414
50.4305517727697
50.4305517729111
50.4305517730646
50.4305517732293
50.4305517734045
50.4305517735894
50.4305517737829
50.4305517739842
50.4305517741923
50.4305517744061
50.4305517746245
50.4305517748465
50.4305517750711
50.4305517752972
50.4305517755238
50.43055177575
50.4305517759747
50.4305517761971
50.4305517764163
50.4305517766314
50.4305517768417
50.4305517770466
50.4305517772452
50.430551777437
50.4305517776215
50.430551777798
50.4305517779662
50.4305517781255
50.4305517782756
50.4305517784161
50.4305517785467
50.4305517786672
50.4305517787773
50.4305517788768
50.4305517789655
50.4305517790433
50.4305517791102
50.4305517791658
50.4305517792112
50.4305517792483
50.4305517792826
3502.12165134149
31519.0948620878
31519.0955756565
3502.12173062984
50.4305529210853
50.4305529211335
50.4305529212104
50.4305529213071
50.4305529214191
50.4305529215449
50.4305529216837
50.4305529218345
50.4305529219965
50.430552922169
50.4305529223511
50.4305529225418
50.4305529227402
50.4305529229454
50.4305529231562
50.4305529233717
50.4305529235908
50.4305529238124
50.4305529240356
50.4305529242593
50.4305529244826
50.4305529247045
50.4305529249241
50.4305529251406
50.4305529253531
50.4305529255609
50.4305529257632
50.4305529259595
50.430552926149
50.4305529263313
50.4305529265058
50.4305529266721
50.4305529268297
50.4305529269782
50.4305529271173
50.4305529272467
50.4305529273661
50.4305529274753
50.4305529275741
50.4305529276624
50.4305529277402
50.4305529278072
50.4305529278633
50.4305529279094
50.430552927947
50.4305529279811
3502.12173111193
31519.0955800084
31519.0962936531
3502.1218104075
50.4305540698839
50.4305540699306
50.4305540700054
50.4305540700997
50.4305540702091
50.4305540703323
50.4305540704685
50.4305540706166
50.4305540707759
50.4305540709457
50.4305540711249
50.4305540713127
50.4305540715083
50.4305540717105
50.4305540719184
50.4305540721308
50.430554072347
50.4305540725656
50.4305540727858
50.4305540730066
50.430554073227
50.430554073446
50.4305540736628
50.4305540738765
50.4305540740864
50.4305540742916
50.4305540744914
50.4305540746853
50.4305540748726
50.4305540750527
50.4305540752252
50.4305540753895
50.4305540755453
50.4305540756922
50.4305540758299
50.430554075958
50.4305540760763
50.4305540761847
50.4305540762829
50.4305540763708
50.4305540764483
50.4305540765154
50.430554076572
50.4305540766187
50.4305540766569
50.4305540766917
3502.12181088341
31519.0962979477
31519.0970116548
3502.12189018551
50.4305552186868
50.4305552187317
50.4305552188044
50.4305552188963
50.4305552190032
50.4305552191238
50.4305552192573
50.4305552194027
50.4305552195593
50.4305552197262
50.4305552199026
50.4305552200876
50.4305552202802
50.4305552204794
50.4305552206843
50.4305552208938
50.4305552211068
50.4305552213225
50.4305552215397
50.4305552217576
50.430555221975
50.4305552221912
50.4305552224052
50.4305552226161
50.4305552228232
50.4305552230259
50.4305552232232
50.4305552234147
50.4305552235996
50.4305552237776
50.430555223948
50.4305552241104
50.4305552242644
50.4305552244097
50.4305552245459
50.4305552246728
50.4305552247901
50.4305552248975
50.430555224995
50.4305552250825
50.4305552251598
50.430555225227
50.4305552252839
50.4305552253311
50.4305552253699
50.4305552254053
3502.12189065519
31519.0970158931
31519.097729658
3502.12196996365
50.4305563674913
50.4305563675346
50.4305563676052
50.4305563676947
50.430556367799
50.4305563679171
50.430556368048
50.4305563681907
50.4305563683445
50.4305563685086
50.4305563686821
50.4305563688641
50.4305563690537
50.43055636925
50.4305563694519
50.4305563696583
50.4305563698684
50.430556370081
50.4305563702953
50.4305563705101
50.4305563707246
50.4305563709379
50.4305563711491
50.4305563713573
50.4305563715618
50.4305563717617
50.4305563719565
50.4305563721456
50.4305563723282
50.430556372504
50.4305563726723
50.4305563728328
50.430556372985
50.4305563731287
50.4305563732635
50.4305563733891
50.4305563735053
50.4305563736119
50.4305563737087
50.4305563737957
50.4305563738728
50.4305563739399
50.4305563739971
50.4305563740447
50.4305563740842
50.43055637412
3502.12197042706
31519.0977338408
31519.0984476615
3502.12204974181
50.4305575162961
50.4305575163377
50.4305575164062
50.4305575164934
50.4305575165952
50.4305575167108
50.430557516839
50.4305575169789
50.43055751713
50.4305575172912
50.4305575174618
50.4305575176409
50.4305575178276
50.4305575180208
50.4305575182197
50.4305575184231
50.4305575186302
50.4305575188398
50.430557519051
50.4305575192629
50.4305575194746
50.4305575196849
50.4305575198933
50.4305575200987
50.4305575203005
50.4305575204978
50.4305575206901
50.4305575208767
50.4305575210571
50.4305575212306
50.4305575213969
50.4305575215554
50.4305575217059
50.430557521848
50.4305575219813
50.4305575221056
50.4305575222207
50.4305575223264
50.4305575224226
50.4305575225092
50.430557522586
50.4305575226531
50.4305575227105
50.4305575227586
50.4305575227985
50.4305575228348
3502.12205019892
31519.0984517854
31519.0991656647
3502.12212951993
50.4305586651004
50.4305586651403
50.4305586652068
50.4305586652916
50.4305586653909
50.4305586655039
50.4305586656295
50.4305586657667
50.430558665915
50.4305586660734
50.4305586662411
50.4305586664173
50.4305586666009
50.4305586667912
50.430558666987
50.4305586671874
50.4305586673915
50.4305586675981
50.4305586678064
50.4305586680153
50.430558668224
50.4305586684315
50.430558668637
50.4305586688397
50.4305586690388
50.4305586692335
50.4305586694233
50.4305586696075
50.4305586697855
50.4305586699569
50.4305586701211
50.4305586702778
50.4305586704265
50.4305586705669
50.4305586706988
50.4305586708219
50.4305586709359
50.4305586710408
50.4305586711363
50.4305586712224
50.430558671299
50.4305586713661
50.4305586714237
50.4305586714721
50.4305586715124
50.4305586715492
3502.12212997072
31519.099169733
31519.099883667
3502.12220929795
50.4305598139031
50.4305598139413
50.4305598140057
50.4305598140882
50.430559814185
50.4305598142954
50.4305598144183
50.4305598145529
50.4305598146983
50.4305598148539
50.4305598150187
50.4305598151919
50.4305598153726
50.4305598155599
50.4305598157528
50.4305598159502
50.4305598161512
50.4305598163549
50.4305598165601
50.4305598167662
50.430559816972
50.4305598171766
50.4305598173793
50.4305598175793
50.4305598177757
50.4305598179678
50.4305598181552
50.4305598183369
50.4305598185127
50.4305598186819
50.4305598188441
50.4305598189989
50.4305598191458
50.4305598192847
50.4305598194151
50.430559819537
50.43055981965
50.4305598197539
50.4305598198488
50.4305598199344
50.4305598200108
50.4305598200779
50.4305598201358
50.4305598201845
50.4305598202251
50.4305598202625
3502.12220974252
31519.0998876788
31519.1006016679
3502.12228907581
50.4305609627034
50.4305609627399
50.4305609628022
50.4305609628824
50.4305609629766
50.4305609630845
50.4305609632047
50.4305609633365
50.4305609634792
50.4305609636319
50.4305609637939
50.4305609639642
50.430560964142
50.4305609643263
50.4305609645162
50.4305609647107
50.4305609649087
50.4305609651094
50.4305609653117
50.4305609655148
50.4305609657178
50.4305609659196
50.4305609661195
50.4305609663168
50.4305609665106
50.4305609667002
50.4305609668851
50.4305609670645
50.430560967238
50.430560967405
50.4305609675652
50.4305609677181
50.4305609678633
50.4305609680006
50.4305609681297
50.4305609682503
50.4305609683623
50.4305609684654
50.4305609685596
50.4305609686448
50.430560968721
50.4305609687881
50.4305609688462
50.4305609688953
50.4305609689364
50.4305609689742
3502.12228951418
31519.1006056249
31519.1013196668
3502.12236885344
50.4305621115005
50.430562111535
50.4305621115953
50.430562111673
50.4305621117648
50.43056211187
50.4305621119876
50.4305621121167
50.4305621122566
50.4305621124065
50.4305621125656
50.4305621127331
50.4305621129079
50.4305621130893
50.4305621132763
50.4305621134678
50.4305621136629
50.4305621138607
50.4305621140602
50.4305621142604
50.4305621144605
50.4305621146595
50.4305621148568
50.4305621150513
50.4305621152425
50.4305621154296
50.430562115612
50.4305621157891
50.4305621159604
50.4305621161254
50.4305621162836
50.4305621164346
50.4305621165782
50.430562116714
50.4305621168416
50.430562116961
50.430562117072
50.4305621171743
50.430562117268
50.4305621173528
50.4305621174288
50.4305621174959
50.4305621175543
50.4305621176039
50.4305621176454
50.4305621176839
3502.12236928574
31519.1013235685
31519.1020376633
3502.1224486308
50.4305632602934
50.4305632603261
50.4305632603842
50.4305632604595
50.4305632605486
50.4305632606513
50.4305632607661
50.4305632608926
50.4305632610297
50.4305632611769
50.4305632613331
50.4305632614977
50.4305632616697
50.4305632618483
50.4305632620323
50.4305632622209
50.4305632624132
50.4305632626081
50.4305632628047
50.4305632630022
50.4305632631995
50.4305632633958
50.4305632635903
50.4305632637823
50.4305632639709
50.4305632641556
50.4305632643356
50.4305632645104
50.4305632646795
50.4305632648424
50.4305632649987
50.430563265148
50.4305632652898
50.4305632654241
50.4305632655505
50.4305632656687
50.4305632657787
50.4305632658803
50.4305632659733
50.4305632660578
50.4305632661337
50.4305632662009
50.4305632662596
50.4305632663097
50.4305632663518
50.430563266391
3502.12244905704
31519.1020415108
31519.1027556568
3502.12252840782
50.4305644090814
50.430564409112
50.4305644091679
50.4305644092407
50.4305644093272
50.4305644094272
50.4305644095394
50.4305644096632
50.4305644097976
50.430564409942
50.4305644100955
50.4305644102573
50.4305644104264
50.4305644106021
50.4305644107833
50.4305644109692
50.4305644111586
50.4305644113507
50.4305644115445
50.4305644117392
50.4305644119338
50.4305644121274
50.4305644123193
50.4305644125088
50.4305644126949
50.4305644128772
50.4305644130549
50.4305644132275
50.4305644133944
50.4305644135553
50.4305644137097
50.4305644138572
50.4305644139975
50.4305644141303
50.4305644142554
50.4305644143725
50.4305644144816
50.4305644145824
50.4305644146749
50.4305644147591
50.4305644148349
50.4305644149022
50.4305644149614
50.430564415012
50.4305644150549
50.4305644150949
3502.12252882814
31519.102759449
31519.103473647
3502.12260818446
50.4305655578639
50.4305655578921
50.4305655579457
50.430565558016
50.4305655580998
50.4305655581972
50.4305655583067
50.4305655584278
50.4305655585596
50.4305655587012
50.4305655588519
50.430565559011
50.4305655591774
50.4305655593504
50.4305655595288
50.4305655597118
50.4305655598985
50.4305655600879
50.430565560279
50.430565560471
50.4305655606629
50.430565560854
50.4305655610434
50.4305655612303
50.430565561414
50.4305655615939
50.4305655617694
50.4305655619398
50.4305655621047
50.4305655622636
50.4305655624162
50.430565562562
50.4305655627007
50.4305655628321
50.4305655629559
50.430565563072
50.4305655631802
50.4305655632804
50.4305655633724
50.4305655634563
50.430565563532
50.4305655635995
50.4305655636593
50.4305655637106
50.4305655637543
50.4305655637954
3502.12260859909
31519.1034773885
31519.1041916334
3502.12268796067
50.4305667066398
50.4305667066656
50.4305667067168
50.4305667067843
50.4305667068654
50.4305667069602
50.4305667070671
50.4305667071855
50.4305667073146
50.4305667074536
50.4305667076017
50.430566707758
50.4305667079218
50.430566708092
50.4305667082678
50.4305667084481
50.4305667086321
50.4305667088188
50.4305667090073
50.4305667091967
50.430566709386
50.4305667095746
50.4305667097615
50.430566709946
50.4305667101274
50.430566710305
50.4305667104783
50.4305667106466
50.4305667108095
50.4305667109666
50.4305667111173
50.4305667112615
50.4305667113987
50.4305667115288
50.4305667116514
50.4305667117665
50.4305667118738
50.4305667119733
50.4305667120649
50.4305667121486
50.4305667122243
50.4305667122921
50.4305667123525
50.4305667124048
50.4305667124493
50.4305667124918
3502.12268836977
31519.1041953257
31519.1049096156
3502.12276773639
50.4305678554087
50.4305678554318
50.4305678554806
50.4305678555453
50.4305678556235
50.4305678557157
50.43056785582
50.4305678559358
50.4305678560622
50.4305678561986
50.4305678563441
50.4305678564979
50.430567856659
50.4305678568266
50.4305678569997
50.4305678571775
50.4305678573589
50.430567857543
50.4305678577289
50.4305678579158
50.4305678581027
50.4305678582888
50.4305678584733
50.4305678586554
50.4305678588346
50.43056785901
50.4305678591812
50.4305678593475
50.4305678595085
50.4305678596637
50.4305678598128
50.4305678599554
50.4305678600912
50.4305678602199
50.4305678603414