/*--------------------------------*- C++ -*----------------------------------*\
  =========                 |
  \\      /  F ield         | OpenFOAM: The Open Source CFD Toolbox
   \\    /   O peration     | Website:  https://openfoam.org
    \\  /    A nd           | Version:  10
     \\/     M anipulation  |
\*---------------------------------------------------------------------------*/
FoamFile
{
    format      ascii;
    class       volScalarField;
    location    "2.8";
    object      p;
}
// * * * * * * * * * * * * * * * * * * * * * * * * * * * * * * * * * * * * * //

dimensions      [1 -1 -2 0 0 0 0];

internalField   nonuniform List<scalar> 
2500
(
100071.555938241
100071.555940101
100071.555940892
100071.555941395
100071.555941601
100071.555941609
100071.555941542
100071.555941429
100071.55594129
100071.555941139
100071.55594098
100071.555940816
100071.555940648
100071.555940476
100071.5559403
100071.555940121
100071.555939938
100071.555939753
100071.555939565
100071.555939375
100071.555939184
100071.555938992
100071.5559388
100071.555938609
100071.555938419
100071.555938232
100071.555938049
100071.55593787
100071.555937696
100071.555937529
100071.555937368
100071.555937216
100071.555937073
100071.555936939
100071.555936817
100071.555936706
100071.555936608
100071.555936524
100071.555936453
100071.555936398
100071.555936356
100071.555936326
100071.555936305
100071.555936279
100071.555936225
100071.555936119
100071.555935834
100071.555935272
100071.555934433
100071.555932549
100071.553695655
100071.553697254
100071.553697883
100071.553698294
100071.553698448
100071.553698423
100071.553698339
100071.553698217
100071.553698076
100071.553697924
100071.553697766
100071.553697603
100071.553697435
100071.553697264
100071.553697088
100071.55369691
100071.553696728
100071.553696543
100071.553696355
100071.553696166
100071.553695975
100071.553695783
100071.553695591
100071.5536954
100071.553695211
100071.553695024
100071.55369484
100071.553694661
100071.553694488
100071.55369432
100071.553694159
100071.553694007
100071.553693863
100071.55369373
100071.553693607
100071.553693496
100071.553693398
100071.553693313
100071.553693242
100071.553693185
100071.553693143
100071.553693114
100071.553693096
100071.553693077
100071.553693041
100071.553692966
100071.553692732
100071.553692265
100071.553691586
100071.553689957
100071.551434835
100071.551435463
100071.551435456
100071.551435519
100071.551435508
100071.55143541
100071.551435296
100071.551435163
100071.551435018
100071.551434866
100071.551434708
100071.551434546
100071.551434379
100071.551434208
100071.551434033
100071.551433855
100071.551433674
100071.551433489
100071.551433302
100071.551433113
100071.551432922
100071.55143273
100071.551432539
100071.551432348
100071.551432159
100071.551431972
100071.551431789
100071.55143161
100071.551431436
100071.551431268
100071.551431107
100071.551430955
100071.551430811
100071.551430677
100071.551430554
100071.551430442
100071.551430343
100071.551430258
100071.551430186
100071.551430129
100071.551430087
100071.551430059
100071.551430044
100071.551430037
100071.551430031
100071.55143003
100071.55142996
100071.551429836
100071.551429807
100071.551429125
100071.549165263
100071.549165158
100071.549164842
100071.549164662
100071.549164542
100071.549164399
100071.549164269
100071.54916413
100071.549163983
100071.54916383
100071.549163673
100071.549163511
100071.549163345
100071.549163175
100071.549163001
100071.549162824
100071.549162643
100071.549162459
100071.549162272
100071.549162084
100071.549161893
100071.549161702
100071.549161511
100071.54916132
100071.549161131
100071.549160944
100071.549160761
100071.549160582
100071.549160408
100071.54916024
100071.549160079
100071.549159927
100071.549159783
100071.549159648
100071.549159525
100071.549159412
100071.549159313
100071.549159226
100071.549159154
100071.549159096
100071.549159054
100071.549159026
100071.549159013
100071.549159012
100071.549159023
100071.549159067
100071.549159107
100071.549159227
100071.549159517
100071.549159582
100071.546890185
100071.546889817
100071.546889452
100071.546889162
100071.546888984
100071.546888813
100071.546888669
100071.546888525
100071.546888376
100071.546888223
100071.546888066
100071.546887905
100071.54688774
100071.546887571
100071.546887398
100071.546887221
100071.546887041
100071.546886857
100071.546886671
100071.546886483
100071.546886293
100071.546886102
100071.546885911
100071.546885721
100071.546885532
100071.546885345
100071.546885162
100071.546884983
100071.546884809
100071.546884641
100071.54688448
100071.546884327
100071.546884183
100071.546884048
100071.546883924
100071.546883811
100071.546883711
100071.546883623
100071.54688355
100071.546883492
100071.546883449
100071.546883421
100071.54688341
100071.546883415
100071.546883439
100071.546883511
100071.546883609
100071.546883842
100071.546884186
100071.546884536
100071.544612422
100071.544612037
100071.544611704
100071.544611383
100071.544611182
100071.544610996
100071.544610843
100071.544610695
100071.544610544
100071.544610391
100071.544610234
100071.544610074
100071.544609909
100071.544609741
100071.544609569
100071.544609393
100071.544609213
100071.544609031
100071.544608845
100071.544608657
100071.544608468
100071.544608277
100071.544608087
100071.544607897
100071.544607708
100071.544607522
100071.544607338
100071.544607159
100071.544606985
100071.544606817
100071.544606656
100071.544606503
100071.544606358
100071.544606223
100071.544606098
100071.544605984
100071.544605883
100071.544605795
100071.544605721
100071.544605662
100071.544605618
100071.544605591
100071.544605582
100071.544605591
100071.544605624
100071.544605711
100071.544605832
100071.544606099
100071.54460641
100071.544606792
100071.542333596
100071.542333277
100071.542332997
100071.542332686
100071.542332481
100071.54233229
100071.542332131
100071.542331979
100071.542331827
100071.542331674
100071.542331518
100071.542331358
100071.542331195
100071.542331027
100071.542330856
100071.542330681
100071.542330502
100071.54233032
100071.542330135
100071.542329948
100071.542329759
100071.542329569
100071.542329379
100071.542329189
100071.542329
100071.542328814
100071.542328631
100071.542328452
100071.542328278
100071.54232811
100071.542327948
100071.542327794
100071.542327649
100071.542327513
100071.542327388
100071.542327273
100071.542327171
100071.542327082
100071.542327007
100071.542326947
100071.542326903
100071.542326876
100071.542326868
100071.54232688
100071.542326918
100071.54232701
100071.542327135
100071.542327393
100071.542327651
100071.542327973
100071.540054413
100071.540054168
100071.540053938
100071.540053654
100071.540053454
100071.540053264
100071.540053102
100071.540052949
100071.540052796
100071.540052643
100071.540052487
100071.540052329
100071.540052166
100071.540052
100071.54005183
100071.540051655
100071.540051478
100071.540051296
100071.540051112
100071.540050925
100071.540050737
100071.540050547
100071.540050357
100071.540050167
100071.540049979
100071.540049793
100071.54004961
100071.540049431
100071.540049257
100071.540049089
100071.540048927
100071.540048773
100071.540048627
100071.54004849
100071.540048364
100071.540048249
100071.540048146
100071.540048056
100071.54004798
100071.540047918
100071.540047873
100071.540047846
100071.540047838
100071.540047851
100071.540047892
100071.540047984
100071.540048103
100071.540048335
100071.540048541
100071.540048791
100071.537775143
100071.537774957
100071.537774767
100071.537774514
100071.537774324
100071.537774138
100071.537773976
100071.537773823
100071.53777367
100071.537773518
100071.537773363
100071.537773205
100071.537773044
100071.537772879
100071.53777271
100071.537772536
100071.537772359
100071.537772179
100071.537771995
100071.537771809
100071.537771621
100071.537771432
100071.537771242
100071.537771053
100071.537770865
100071.537770679
100071.537770496
100071.537770317
100071.537770143
100071.537769974
100071.537769812
100071.537769657
100071.537769511
100071.537769374
100071.537769247
100071.53776913
100071.537769026
100071.537768935
100071.537768858
100071.537768795
100071.537768749
100071.53776872
100071.537768712
100071.537768725
100071.537768765
100071.537768852
100071.537768962
100071.537769163
100071.537769329
100071.537769519
100071.535495874
100071.535495732
100071.535495573
100071.53549535
100071.535495171
100071.535494993
100071.535494833
100071.535494681
100071.53549453
100071.535494378
100071.535494225
100071.535494069
100071.535493909
100071.535493744
100071.535493576
100071.535493404
100071.535493228
100071.535493048
100071.535492865
100071.53549268
100071.535492492
100071.535492303
100071.535492114
100071.535491925
100071.535491737
100071.535491552
100071.535491369
100071.53549119
100071.535491015
100071.535490846
100071.535490684
100071.535490529
100071.535490382
100071.535490244
100071.535490116
100071.535489999
100071.535489893
100071.5354898
100071.535489722
100071.535489658
100071.53548961
100071.53548958
100071.53548957
100071.535489581
100071.535489619
100071.535489698
100071.535489796
100071.535489967
100071.535490102
100071.535490249
100071.533216631
100071.53321652
100071.533216386
100071.53321619
100071.533216023
100071.533215853
100071.533215697
100071.533215548
100071.533215398
100071.533215249
100071.533215097
100071.533214942
100071.533214783
100071.533214621
100071.533214454
100071.533214282
100071.533214107
100071.533213928
100071.533213746
100071.533213561
100071.533213374
100071.533213186
100071.533212997
100071.533212808
100071.533212621
100071.533212435
100071.533212252
100071.533212073
100071.533211899
100071.533211729
100071.533211567
100071.533211411
100071.533211263
100071.533211124
100071.533210995
100071.533210877
100071.53321077
100071.533210676
100071.533210596
100071.53321053
100071.53321048
100071.533210448
100071.533210436
100071.533210444
100071.533210479
100071.533210548
100071.533210634
100071.533210778
100071.533210888
100071.533211003
100071.530937417
100071.530937329
100071.530937214
100071.530937042
100071.530936887
100071.530936727
100071.530936576
100071.530936429
100071.530936283
100071.530936135
100071.530935985
100071.530935832
100071.530935675
100071.530935514
100071.530935348
100071.530935178
100071.530935003
100071.530934825
100071.530934644
100071.53093446
100071.530934273
100071.530934085
100071.530933897
100071.530933709
100071.530933521
100071.530933336
100071.530933153
100071.530932974
100071.530932799
100071.53093263
100071.530932466
100071.53093231
100071.530932162
100071.530932022
100071.530931892
100071.530931772
100071.530931664
100071.530931569
100071.530931486
100071.530931418
100071.530931367
100071.530931332
100071.530931316
100071.530931321
100071.53093135
100071.530931409
100071.530931484
100071.530931603
100071.530931694
100071.530931785
100071.528658229
100071.528658159
100071.528658059
100071.528657908
100071.528657764
100071.528657614
100071.528657469
100071.528657326
100071.528657183
100071.528657038
100071.52865689
100071.528656739
100071.528656583
100071.528656423
100071.528656258
100071.528656089
100071.528655916
100071.528655739
100071.528655558
100071.528655375
100071.528655189
100071.528655002
100071.528654814
100071.528654626
100071.528654439
100071.528654253
100071.528654071
100071.528653891
100071.528653716
100071.528653546
100071.528653383
100071.528653226
100071.528653077
100071.528652936
100071.528652805
100071.528652684
100071.528652575
100071.528652477
100071.528652393
100071.528652323
100071.528652268
100071.528652231
100071.528652212
100071.528652212
100071.528652235
100071.528652284
100071.528652346
100071.528652444
100071.52865252
100071.528652593
100071.526379065
100071.526379008
100071.526378922
100071.526378788
100071.526378655
100071.526378514
100071.526378375
100071.526378237
100071.526378097
100071.526377955
100071.52637781
100071.52637766
100071.526377506
100071.526377348
100071.526377185
100071.526377017
100071.526376845
100071.526376669
100071.526376489
100071.526376306
100071.526376121
100071.526375934
100071.526375747
100071.526375559
100071.526375372
100071.526375187
100071.526375004
100071.526374825
100071.526374649
100071.526374479
100071.526374315
100071.526374157
100071.526374008
100071.526373866
100071.526373734
100071.526373611
100071.5263735
100071.526373401
100071.526373314
100071.526373242
100071.526373185
100071.526373144
100071.526373121
100071.526373116
100071.526373132
100071.526373171
100071.526373222
100071.526373302
100071.526373365
100071.526373424
100071.524099922
100071.524099875
100071.524099799
100071.52409968
100071.524099557
100071.524099426
100071.524099293
100071.52409916
100071.524099024
100071.524098885
100071.524098742
100071.524098595
100071.524098443
100071.524098287
100071.524098125
100071.524097958
100071.524097787
100071.524097612
100071.524097433
100071.524097251
100071.524097066
100071.52409688
100071.524096693
100071.524096506
100071.524096319
100071.524096134
100071.524095951
100071.524095771
100071.524095596
100071.524095426
100071.524095261
100071.524095103
100071.524094952
100071.524094809
100071.524094676
100071.524094552
100071.524094439
100071.524094338
100071.524094249
100071.524094174
100071.524094114
100071.524094069
100071.524094042
100071.524094031
100071.524094041
100071.52409407
100071.524094111
100071.524094174
100071.524094226
100071.524094275
100071.521820796
100071.521820757
100071.52182069
100071.521820585
100071.521820471
100071.521820348
100071.521820223
100071.521820094
100071.521819962
100071.521819827
100071.521819687
100071.521819542
100071.521819392
100071.521819237
100071.521819077
100071.521818911
100071.521818741
100071.521818567
100071.521818389
100071.521818208
100071.521818024
100071.521817838
100071.521817651
100071.521817464
100071.521817278
100071.521817093
100071.52181691
100071.52181673
100071.521816555
100071.521816384
100071.521816219
100071.52181606
100071.521815908
100071.521815764
100071.52181563
100071.521815504
100071.52181539
100071.521815286
100071.521815195
100071.521815117
100071.521815054
100071.521815005
100071.521814973
100071.521814958
100071.52181496
100071.52181498
100071.521815011
100071.521815061
100071.521815103
100071.521815143
100071.519541685
100071.519541653
100071.519541594
100071.519541499
100071.519541395
100071.51954128
100071.519541161
100071.519541037
100071.51954091
100071.519540777
100071.51954064
100071.519540498
100071.51954035
100071.519540197
100071.519540038
100071.519539874
100071.519539706
100071.519539532
100071.519539355
100071.519539175
100071.519538991
100071.519538806
100071.51953862
100071.519538433
100071.519538247
100071.519538062
100071.519537879
100071.5195377
100071.519537524
100071.519537352
100071.519537186
100071.519537027
100071.519536874
100071.519536729
100071.519536593
100071.519536466
100071.51953635
100071.519536244
100071.519536151
100071.51953607
100071.519536003
100071.519535951
100071.519535914
100071.519535892
100071.519535888
100071.519535899
100071.519535921
100071.519535959
100071.519535993
100071.519536025
100071.517262586
100071.51726256
100071.517262507
100071.517262423
100071.517262326
100071.517262219
100071.517262106
100071.517261988
100071.517261865
100071.517261736
100071.517261602
100071.517261462
100071.517261317
100071.517261165
100071.517261008
100071.517260846
100071.517260678
100071.517260506
100071.51726033
100071.51726015
100071.517259967
100071.517259783
100071.517259597
100071.517259411
100071.517259225
100071.51725904
100071.517258857
100071.517258677
100071.517258501
100071.517258329
100071.517258163
100071.517258002
100071.517257849
100071.517257703
100071.517257565
100071.517257437
100071.517257318
100071.51725721
100071.517257114
100071.51725703
100071.51725696
100071.517256904
100071.517256862
100071.517256835
100071.517256824
100071.517256827
100071.51725684
100071.517256867
100071.517256894
100071.51725692
100071.514983498
100071.514983476
100071.51498343
100071.514983354
100071.514983265
100071.514983165
100071.514983058
100071.514982945
100071.514982826
100071.514982701
100071.51498257
100071.514982433
100071.51498229
100071.51498214
100071.514981985
100071.514981824
100071.514981658
100071.514981487
100071.514981311
100071.514981132
100071.51498095
100071.514980766
100071.514980581
100071.514980395
100071.514980209
100071.514980025
100071.514979842
100071.514979662
100071.514979485
100071.514979313
100071.514979146
100071.514978985
100071.51497883
100071.514978683
100071.514978544
100071.514978414
100071.514978293
100071.514978183
100071.514978084
100071.514977997
100071.514977923
100071.514977863
100071.514977816
100071.514977784
100071.514977766
100071.514977761
100071.514977766
100071.514977784
100071.514977804
100071.514977825
100071.512704419
100071.5127044
100071.512704359
100071.512704291
100071.512704209
100071.512704116
100071.512704016
100071.512703908
100071.512703793
100071.512703672
100071.512703544
100071.51270341
100071.512703269
100071.512703121
100071.512702968
100071.512702808
100071.512702643
100071.512702473
100071.512702299
100071.51270212
100071.512701939
100071.512701756
100071.512701571
100071.512701385
100071.5127012
100071.512701015
100071.512700832
100071.512700652
100071.512700475
100071.512700303
100071.512700135
100071.512699973
100071.512699818
100071.512699669
100071.512699529
100071.512699397
100071.512699274
100071.512699161
100071.51269906
100071.51269897
100071.512698892
100071.512698827
100071.512698776
100071.512698737
100071.512698713
100071.512698701
100071.512698699
100071.512698709
100071.512698723
100071.512698739
100071.510425347
100071.510425331
100071.510425295
100071.510425233
100071.510425158
100071.510425072
100071.510424977
100071.510424875
100071.510424764
100071.510424647
100071.510424522
100071.51042439
100071.510424252
100071.510424106
100071.510423954
100071.510423796
100071.510423633
100071.510423464
100071.51042329
100071.510423113
100071.510422933
100071.51042275
100071.510422565
100071.51042238
100071.510422195
100071.51042201
100071.510421827
100071.510421647
100071.51042147
100071.510421297
100071.510421129
100071.510420966
100071.510420809
100071.510420659
100071.510420517
100071.510420384
100071.510420259
100071.510420144
100071.510420039
100071.510419946
100071.510419865
100071.510419795
100071.510419739
100071.510419695
100071.510419665
100071.510419646
100071.510419637
100071.510419639
100071.510419647
100071.51041966
100071.50814628
100071.508146267
100071.508146235
100071.50814618
100071.508146112
100071.508146031
100071.508145942
100071.508145845
100071.508145739
100071.508145625
100071.508145503
100071.508145375
100071.508145238
100071.508145095
100071.508144945
100071.508144788
100071.508144626
100071.508144458
100071.508144286
100071.50814411
100071.50814393
100071.508143748
100071.508143564
100071.508143379
100071.508143194
100071.508143009
100071.508142826
100071.508142646
100071.508142468
100071.508142295
100071.508142126
100071.508141962
100071.508141805
100071.508141654
100071.50814151
100071.508141374
100071.508141248
100071.50814113
100071.508141023
100071.508140926
100071.508140841
100071.508140767
100071.508140706
100071.508140657
100071.50814062
100071.508140594
100071.508140579
100071.508140574
100071.508140578
100071.508140587
100071.505867217
100071.505867207
100071.505867179
100071.50586713
100071.505867068
100071.505866993
100071.50586691
100071.505866817
100071.505866715
100071.505866605
100071.505866487
100071.505866361
100071.505866227
100071.505866086
100071.505865938
100071.505865783
100071.505865622
100071.505865456
100071.505865284
100071.505865109
100071.50586493
100071.505864748
100071.505864565
100071.50586438
100071.505864195
100071.505864011
100071.505863828
100071.505863647
100071.50586347
100071.505863296
100071.505863126
100071.505862961
100071.505862803
100071.50586265
100071.505862505
100071.505862368
100071.505862239
100071.505862119
100071.505862008
100071.505861908
100071.505861819
100071.505861741
100071.505861675
100071.50586162
100071.505861578
100071.505861546
100071.505861524
100071.505861513
100071.505861512
100071.505861518
100071.503588157
100071.50358815
100071.503588127
100071.503588083
100071.503588026
100071.503587958
100071.503587879
100071.503587791
100071.503587694
100071.503587588
100071.503587473
100071.50358735
100071.503587219
100071.50358708
100071.503586933
100071.50358678
100071.50358662
100071.503586455
100071.503586285
100071.50358611
100071.503585932
100071.503585751
100071.503585568
100071.503585384
100071.503585199
100071.503585015
100071.503584832
100071.503584651
100071.503584473
100071.503584298
100071.503584128
100071.503583963
100071.503583803
100071.503583649
100071.503583502
100071.503583363
100071.503583232
100071.503583109
100071.503582996
100071.503582893
100071.5035828
100071.503582717
100071.503582646
100071.503582586
100071.503582538
100071.5035825
100071.503582472
100071.503582455
100071.503582449
100071.503582452
100071.5013091
100071.501309095
100071.501309075
100071.501309038
100071.501308986
100071.501308923
100071.50130885
100071.501308767
100071.501308674
100071.501308572
100071.50130846
100071.50130834
100071.501308211
100071.501308074
100071.50130793
100071.501307778
100071.50130762
100071.501307456
100071.501307287
100071.501307113
100071.501306935
100071.501306755
100071.501306572
100071.501306389
100071.501306204
100071.50130602
100071.501305837
100071.501305656
100071.501305478
100071.501305303
100071.501305132
100071.501304965
100071.501304804
100071.501304649
100071.501304501
100071.50130436
100071.501304226
100071.501304101
100071.501303985
100071.501303878
100071.501303781
100071.501303695
100071.501303619
100071.501303553
100071.501303499
100071.501303455
100071.501303421
100071.501303399
100071.501303389
100071.501303389
100071.499030045
100071.499030041
100071.499030026
100071.499029993
100071.499029947
100071.49902989
100071.499029822
100071.499029743
100071.499029654
100071.499029556
100071.499029448
100071.49902933
100071.499029204
100071.49902907
100071.499028927
100071.499028777
100071.49902862
100071.499028457
100071.499028289
100071.499028116
100071.49902794
100071.49902776
100071.499027578
100071.499027394
100071.49902721
100071.499027026
100071.499026843
100071.499026662
100071.499026483
100071.499026308
100071.499026136
100071.499025969
100071.499025807
100071.49902565
100071.4990255
100071.499025357
100071.499025222
100071.499025094
100071.499024975
100071.499024865
100071.499024764
100071.499024673
100071.499024592
100071.499024521
100071.499024461
100071.499024412
100071.499024372
100071.499024344
100071.49902433
100071.499024328
100071.496750989
100071.496750988
100071.496750976
100071.496750949
100071.496750908
100071.496750856
100071.496750793
100071.496750719
100071.496750635
100071.49675054
100071.496750435
100071.496750321
100071.496750197
100071.496750065
100071.496749924
100071.496749776
100071.496749621
100071.496749459
100071.496749292
100071.49674912
100071.496748944
100071.496748765
100071.496748584
100071.4967484
100071.496748217
100071.496748033
100071.49674785
100071.496747668
100071.496747489
100071.496747313
100071.496747141
100071.496746972
100071.496746809
100071.496746651
100071.4967465
100071.496746355
100071.496746217
100071.496746087
100071.496745964
100071.496745851
100071.496745746
100071.496745651
100071.496745565
100071.49674549
100071.496745424
100071.496745368
100071.496745323
100071.49674529
100071.496745272
100071.496745267
100071.494471934
100071.494471935
100071.494471927
100071.494471905
100071.494471869
100071.494471822
100071.494471765
100071.494471695
100071.494471615
100071.494471524
100071.494471423
100071.494471311
100071.49447119
100071.49447106
100071.494470921
100071.494470775
100071.494470621
100071.494470461
100071.494470295
100071.494470124
100071.494469948
100071.49446977
100071.494469589
100071.494469406
100071.494469223
100071.494469039
100071.494468856
100071.494468674
100071.494468495
100071.494468318
100071.494468145
100071.494467976
100071.494467811
100071.494467652
100071.494467499
100071.494467352
100071.494467212
100071.494467079
100071.494466954
100071.494466837
100071.494466729
100071.494466629
100071.494466539
100071.494466458
100071.494466386
100071.494466325
100071.494466274
100071.494466236
100071.494466214
100071.494466207
100071.492192877
100071.49219288
100071.492192876
100071.492192859
100071.492192829
100071.492192787
100071.492192735
100071.49219267
100071.492192594
100071.492192507
100071.492192409
100071.492192301
100071.492192182
100071.492192054
100071.492191917
100071.492191772
100071.49219162
100071.492191461
100071.492191296
100071.492191126
100071.492190952
100071.492190774
100071.492190593
100071.492190411
100071.492190228
100071.492190044
100071.492189861
100071.492189679
100071.492189499
100071.492189322
100071.492189148
100071.492188978
100071.492188813
100071.492188652
100071.492188497
100071.492188349
100071.492188206
100071.492188071
100071.492187943
100071.492187822
100071.49218771
100071.492187606
100071.492187511
100071.492187425
100071.492187348
100071.492187281
100071.492187225
100071.492187181
100071.492187155
100071.492187145
100071.489913819
100071.489913825
100071.489913824
100071.489913813
100071.489913788
100071.489913751
100071.489913704
100071.489913644
100071.489913572
100071.489913489
100071.489913394
100071.489913288
100071.489913172
100071.489913047
100071.489912912
100071.489912769
100071.489912618
100071.48991246
100071.489912296
100071.489912127
100071.489911954
100071.489911776
100071.489911596
100071.489911414
100071.489911231
100071.489911048
100071.489910865
100071.489910683
100071.489910503
100071.489910325
100071.48991015
100071.489909979
100071.489909813
100071.489909651
100071.489909494
100071.489909344
100071.489909199
100071.489909061
100071.48990893
100071.489908806
100071.48990869
100071.489908582
100071.489908482
100071.48990839
100071.489908308
100071.489908235
100071.489908174
100071.489908124
100071.489908094
100071.489908082
100071.487634758
100071.487634766
100071.48763477
100071.487634764
100071.487634744
100071.487634713
100071.48763467
100071.487634615
100071.487634548
100071.487634468
100071.487634377
100071.487634274
100071.487634161
100071.487634037
100071.487633905
100071.487633763
100071.487633614
100071.487633457
100071.487633295
100071.487633126
100071.487632954
100071.487632777
100071.487632598
100071.487632416
100071.487632233
100071.48763205
100071.487631866
100071.487631684
100071.487631504
100071.487631326
100071.48763115
100071.487630978
100071.487630811
100071.487630648
100071.487630489
100071.487630337
100071.48763019
100071.487630049
100071.487629915
100071.487629788
100071.487629668
100071.487629556
100071.487629451
100071.487629355
100071.487629266
100071.487629188
100071.487629121
100071.487629066
100071.487629032
100071.487629016
100071.485355694
100071.485355705
100071.485355713
100071.485355712
100071.485355698
100071.485355672
100071.485355635
100071.485355584
100071.485355521
100071.485355445
100071.485355357
100071.485355257
100071.485355147
100071.485355026
100071.485354895
100071.485354755
100071.485354607
100071.485354452
100071.48535429
100071.485354123
100071.485353951
100071.485353775
100071.485353596
100071.485353415
100071.485353232
100071.485353049
100071.485352866
100071.485352683
100071.485352503
100071.485352324
100071.485352148
100071.485351975
100071.485351806
100071.485351642
100071.485351482
100071.485351328
100071.485351179
100071.485351036
100071.485350899
100071.485350768
100071.485350644
100071.485350528
100071.485350418
100071.485350316
100071.485350223
100071.485350138
100071.485350065
100071.485350005
100071.485349966
100071.485349948
100071.483076626
100071.48307664
100071.483076652
100071.483076657
100071.483076648
100071.483076628
100071.483076596
100071.48307655
100071.483076491
100071.483076419
100071.483076334
100071.483076238
100071.48307613
100071.483076011
100071.483075882
100071.483075744
100071.483075597
100071.483075443
100071.483075283
100071.483075117
100071.483074945
100071.48307477
100071.483074592
100071.483074411
100071.483074228
100071.483074045
100071.483073862
100071.483073679
100071.483073498
100071.483073319
100071.483073142
100071.483072969
100071.483072799
100071.483072633
100071.483072472
100071.483072315
100071.483072164
100071.483072019
100071.483071879
100071.483071745
100071.483071617
100071.483071496
100071.483071382
100071.483071275
100071.483071176
100071.483071085
100071.483071007
100071.48307094
100071.483070897
100071.483070876
100071.480797553
100071.48079757
100071.480797587
100071.480797599
100071.480797595
100071.480797581
100071.480797554
100071.480797512
100071.480797458
100071.480797389
100071.480797308
100071.480797214
100071.480797109
100071.480796992
100071.480796865
100071.480796729
100071.480796584
100071.480796431
100071.480796272
100071.480796107
100071.480795936
100071.480795761
100071.480795584
100071.480795403
100071.480795221
100071.480795038
100071.480794855
100071.480794672
100071.48079449
100071.480794311
100071.480794133
100071.480793959
100071.480793788
100071.480793621
100071.480793458
100071.4807933
100071.480793147
100071.480792998
100071.480792856
100071.480792719
100071.480792587
100071.480792462
100071.480792343
100071.480792231
100071.480792126
100071.480792029
100071.480791944
100071.480791871
100071.480791823
100071.480791799
100071.478518474
100071.478518495
100071.478518517
100071.478518535
100071.478518537
100071.478518529
100071.478518507
100071.47851847
100071.47851842
100071.478518355
100071.478518278
100071.478518187
100071.478518084
100071.478517969
100071.478517844
100071.47851771
100071.478517566
100071.478517415
100071.478517256
100071.478517092
100071.478516922
100071.478516748
100071.478516571
100071.478516391
100071.478516209
100071.478516026
100071.478515843
100071.47851566
100071.478515478
100071.478515298
100071.47851512
100071.478514945
100071.478514773
100071.478514604
100071.47851444
100071.47851428
100071.478514125