/*--------------------------------*- C++ -*----------------------------------*\
  =========                 |
  \\      /  F ield         | OpenFOAM: The Open Source CFD Toolbox
   \\    /   O peration     | Website:  https://openfoam.org
    \\  /    A nd           | Version:  10
     \\/     M anipulation  |
\*---------------------------------------------------------------------------*/
FoamFile
{
    format      ascii;
    class       volScalarField;
    location    "2.8";
    object      p_rgh;
}
// * * * * * * * * * * * * * * * * * * * * * * * * * * * * * * * * * * * * * //

dimensions      [1 -1 -2 0 0 0 0];

internalField   nonuniform List<scalar> 
2500
(
71.6690976552491
71.6691137000307
71.669124006643
71.6691281613894
71.6691296041099
71.6691300179664
71.669130079259
71.6691300043312
71.669129876871
71.6691297290963
71.6691295718192
71.6691294084885
71.6691292405594
71.6691290688614
71.6691288935108
71.6691287147696
71.6691285325796
71.6691283475229
71.6691281600069
71.6691279703809
71.6691277793434
71.6691275875783
71.6691273958131
71.669127204761
71.669127015397
71.669126828594
71.6691266452108
71.6691264661786
71.6691262924433
71.6691261248634
71.6691259644431
71.6691258120845
71.6691256686463
71.6691255351179
71.6691254124453
71.6691253015888
71.6691252033779
71.6691251187294
71.6691250480508
71.6691249917058
71.6691249487194
71.6691249151918
71.6691248805291
71.6691248115094
71.6691246221162
71.669124102249
71.6691225840332
71.6691183806397
71.6691078892618
71.6690920049441
71.6698252201313
71.6698660998809
71.6698940891074
71.6699062491534
71.6699109579931
71.6699126129533
71.6699131112982
71.6699131774512
71.6699130919878
71.6699129562039
71.6699128022592
71.6699126401218
71.6699124728184
71.6699123015132
71.6699121264828
71.6699119479163
71.6699117660028
71.6699115811498
71.6699113937502
71.6699112042697
71.6699110133777
71.6699108217726
71.6699106301385
71.6699104391737
71.6699102498678
71.669910063094
71.6699098797108
71.669909700664
71.6699095269287
71.6699093592761
71.6699091987539
71.6699090463517
71.6699089027097
71.6699087688758
71.6699086459848
71.6699085348664
71.6699084363354
71.6699083512212
71.6699082798877
71.6699082220584
71.669908174692
71.6699081265397
71.66990804339
71.6699078210222
71.6699071789772
71.6699054139317
71.6699006663112
71.6698884868383
71.6698599316587
71.6698190473835
71.6704069304542
71.6704516570026
71.6704815691046
71.6704946278624
71.6704996691842
71.6705014398322
71.6705019786168
71.6705020580121
71.6705019768124
71.670501842731
71.6705016897176
71.6705015283515
71.6705013616884
71.6705011909653
71.6705010164587
71.6705008383142
71.6705006568372
71.670500472319
71.6705002852104
71.6705000959919
71.6704999053327
71.6704997138731
71.670499522399
71.6704993315943
71.6704991423758
71.6704989556456
71.6704987722769
71.6704985932156
71.670498419393
71.670498251653
71.6704980910145
71.6704979384231
71.6704977945628
71.6704976604378
71.6704975372268
71.6704974256863
71.670497326646
71.6704972409352
71.670497168976
71.6704971104482
71.6704970622959
71.6704970129358
71.6704969267012
71.6704966939869
71.6704960174247
71.6704941440548
71.6704890604451
71.6704759227578
71.670445261916
71.6703993959964
71.6707777857227
71.670811147138
71.6708308940142
71.6708392260334
71.6708422706433
71.6708432536252
71.6708435068867
71.6708434915345
71.670843381653
71.6708432398882
71.670843085376
71.6708429242281
71.6708427582489
71.670842588268
71.6708424144454
71.6708422369702
71.6708420560753
71.6708418720809
71.6708416854235
71.6708414965979
71.6708413062443
71.6708411150466
71.6708409237908
71.6708407332044
71.6708405441168
71.6708403574885
71.6708401742071
71.6708399951458
71.670839821265
71.6708396534523
71.6708394926682
71.6708393398148
71.6708391956927
71.6708390612766
71.6708389376145
71.6708388255211
71.670838725855
71.6708386395039
71.6708385670063
71.6708385085221
71.6708384626108
71.6708384229569
71.6708383700898
71.670838241218
71.6708378624899
71.6708367814717
71.6708336674492
71.6708252030512
71.6708048282744
71.6707698060491
71.6709754530457
71.67099496827
71.6710051100381
71.6710091965797
71.6710105919337
71.6710109628621
71.6710110004351
71.6710109140258
71.6710107824183
71.6710106347891
71.6710104791709
71.6710103183577
71.6710101531644
71.6710099840129
71.6710098109907
71.6710096342576
71.6710094540176
71.6710092706198
71.6710090844863
71.6710088961263
71.6710087061656
71.6710085153172
71.6710083243233
71.6710081339552
71.6710079450568
71.671007758574
71.6710075753508
71.6710073963186
71.6710072223796
71.671007054465
71.6710068935063
71.6710067403619
71.6710065959342
71.6710064611252
71.6710063369246
71.6710062241909
71.6710061238264
71.6710060366895
71.6710059635225
71.67100590482
71.6710058602912
71.6710058274039
71.6710057983
71.6710057445016
71.6710055870208
71.671005121083
71.6710036504664
71.6709994500561
71.6709888898185
71.6709679422929
71.6710670953616
71.6710766345641
71.6710809536889
71.6710825445043
71.6710830149677
71.6710830548109
71.6710829763761
71.6710828512441
71.6710827075294
71.671082556597
71.6710824005568
71.6710822402674
71.6710820759472
71.6710819076688
71.6710817355197
71.6710815595579
71.6710813800601
71.6710811973026
71.6710810117511
71.6710808239004
71.6710806343763
71.6710804439062
71.6710802532034
71.6710800630972
71.671079874417
71.6710796880652
71.6710795049294
71.6710793259117
71.6710791519145
71.6710789838544
71.6710788226483
71.6710786691983
71.6710785243631
71.6710783890885
71.6710782642767
71.6710781508154
71.6710780496505
71.671077961626
71.671077887615
71.671077828345
71.6710777842382
71.6710777548142
71.6710777382687
71.6710777239496
71.6710776834661
71.671077548599
71.6710770026257
71.6710753289663
71.6710707733
71.671060308232
71.6711051401653
71.6711091581965
71.671110701267
71.6711111315381
71.6711111829209
71.6711110761244
71.671110945128
71.6711108019808
71.6711106524308
71.6711104999995
71.6711103440757
71.6711101844994
71.6711100211105
71.671109853778
71.6711096825165
71.6711095074133
71.6711093286576
71.6711091465986
71.6711089616583
71.6711087743606
71.6711085853167
71.6711083952396
71.6711082048714
71.6711080150417
71.6711078265798
71.6711076403735
71.6711074572959
71.6711072782782
71.6711071042082
71.6711069359881
71.67110677452
71.6711066206917
71.6711064754199
71.6711063395778
71.6711062140675
71.6711060998059
71.6711059977242
71.6711059087247
71.6711058337387
71.6711057736393
71.6711057292996
71.6711057012581
71.6711056903878
71.6711056938075
71.671105705318
71.6711057157518
71.6711055877822
71.6711050939484
71.671103428991
71.6710989189742
71.6711196226534
71.6711210826033
71.6711215037358
71.6711214816605
71.6711213718081
71.6711212102236
71.6711210583453
71.6711209078348
71.6711207559856
71.6711206031905
71.6711204477906
71.671120289102
71.6711201267026
71.6711199603888
71.6711197900731
71.6711196158576
71.6711194379168
71.6711192565854
71.6711190722999
71.6711188855697
71.6711186970351
71.6711185073655
71.6711183173611
71.6711181278224
71.6711179395788
71.671117753518
71.6711175704986
71.6711173914664
71.6711172172945
71.6711170488707
71.6711168871116
71.6711167328904
71.6711165870802
71.6711164505978
71.6711163243308
71.6711162091815
71.6711161060957
71.6711160160048
71.6711159398837
71.6711158787512
71.6711158336839
71.6711158057587
71.6711157968966
71.6711158071994
71.6711158389371
71.6711159027473
71.671115934485
71.6711159012921
71.6711154165387
71.6711137312814
71.6711248271895
71.6711252558744
71.6711252823152
71.6711251152592
71.671124954577
71.6711247779167
71.6711246194754
71.671124466855
71.6711243146856
71.6711241623561
71.6711240078293
71.671123850203
71.6711236889241
71.6711235236871
71.6711233544047
71.6711231811205
71.6711230040382
71.6711228234635
71.6711226398329
71.6711224536994
71.6711222656886
71.6711220764701
71.671121886844
71.6711216975964
71.6711215095711
71.6711213236413
71.6711211407091
71.6711209616478
71.671120787345
71.6711206187174
71.6711204566236
71.6711203019513
71.6711201555736
71.6711200183927
71.6711198912817
71.671119775172
71.6711196709657
71.671119579667
71.6711195022654
71.6711194398376
71.6711193936208
71.6711193649535
71.6711193560768
71.6711193680094
71.6711194058589
71.671119483668
71.671119565086
71.6711196795222
71.6711196147517
71.6711190948699
71.6711267022183
71.6711267657374
71.6711266749771
71.671126478439
71.6711263088364
71.6711261330056
71.6711259744334
71.6711258224386
71.6711256712442
71.6711255200062
71.6711253667017
71.6711252103269
71.6711250502849
71.6711248862266
71.671124718021
71.6711245457263
71.6711243695463
71.6711241897719
71.6711240068544
71.6711238213466
71.6711236338742
71.6711234451213
71.6711232558737
71.6711230669171
71.67112287911
71.6711226933257
71.6711225104373
71.6711223313323
71.6711221568985
71.671121988009
71.6711218255659
71.6711216703989
71.67112152341
71.6711213854578
71.6711212574446
71.6711211402726
71.6711210348585
71.6711209422065
71.6711208633496
71.6711207994085
71.6711207516491
71.6711207215703
71.6711207113258
71.6711207221815
71.6711207598128
71.6711208360066
71.6711209256464
71.6711210700159
71.671121132269
71.6711210362409
71.6711274806439
71.6711274345143
71.6711273205874
71.6711271323584
71.671126968271
71.6711267993524
71.6711266437633
71.6711264940095
71.6711263447214
71.6711261951132
71.6711260433804
71.6711258884752
71.6711257298011
71.6711255669798
71.6711253999383
71.6711252286914
71.6711250534281
71.6711248744978
71.6711246923223
71.6711245074548
71.6711243205355
71.6711241322628
71.671123943408
71.6711237547715
71.6711235671974
71.6711233815586
71.6711231987138
71.6711230195506
71.6711228449567
71.6711226757907
71.6711225129402
71.6711223572493
71.671122209591
71.6711220708239
71.6711219418357
71.6711218235141
71.6711217167758
71.6711216226395
71.6711215421383
71.6711214764218
71.6711214267707
71.6711213946837
71.67112138214
71.6711213903473
71.6711214246607
71.6711214932729
71.6711215770192
71.6711217127158
71.6711218016862
71.6711218382843
71.6711279328738
71.671127864407
71.6711277553986
71.6711275853158
71.6711274311092
71.6711272712419
71.671127120353
71.6711269738735
71.6711268271902
71.6711266797065
71.6711265298072
71.6711263765465
71.6711262193858
71.6711260579614
71.6711258921423
71.6711257219868
71.6711255476985
71.6711253696267
71.6711251882225
71.6711250040244
71.6711248176871
71.6711246298946
71.6711244414328
71.6711242531164
71.6711240657751
71.6711238802527
71.6711236974515
71.6711235182302
71.6711233434471
71.6711231739901
71.671123010703
71.6711228544591
71.6711227060732
71.671122566433
71.671122436368
71.671122316824
71.6711222086888
71.6711221129372
71.6711220306315
71.6711219628924
71.6711219110002
71.6711218763812
71.6711218608107
71.6711218652927
71.6711218945857
71.6711219535355
71.6711220270954
71.6711221440491
71.6711222292797
71.6711222965532
71.6711283051991
71.6711282402248
71.6711281425814
71.6711279914598
71.6711278480652
71.6711276978458
71.6711275526322
71.6711274101399
71.6711272665998
71.6711271216045
71.6711269738444
71.6711268224753
71.6711266669445
71.6711265069753
71.6711263424659
71.6711261734599
71.6711260001903
71.6711258230062
71.6711256423878
71.6711254588736
71.6711252731184
71.6711250858352
71.6711248977954
71.6711247097846
71.6711245226616
71.6711243372847
71.6711241545127
71.671123975204
71.6711238002317
71.6711236304545
71.6711234667164
71.6711233098467
71.6711231607042
71.6711230201327
71.6711228889762
71.671122768108
71.6711226584594
71.6711225609761
71.6711224766914
71.6711224067112
71.6711223522725
71.6711223146995
71.67112229552
71.6711222955637
71.6711223188759
71.671122367552
71.6711224300088
71.6711225272302
71.6711226014013
71.6711226678017
71.671128670685
71.6711286150385
71.671128528993
71.6711283951008
71.6711282623291
71.6711281216849
71.6711279826704
71.6711278446455
71.6711277046561
71.671127562513
71.6711274171248
71.6711272677931
71.6711271140375
71.6711269556254
71.6711267924693
71.6711266246712
71.6711264524783
71.6711262762256
71.6711260964221
71.6711259136209
71.6711257284915
71.6711255417031
71.6711253540852
71.6711251664092
71.6711249795044
71.671124794244
71.6711246114719
71.6711244320759
71.6711242568854
71.6711240867589
71.671123922526
71.6711237650306
71.6711236150877
71.6711234735121
71.671123341177
71.6711232189264
71.6711231076624
71.6711230083165
71.6711229218927
71.6711228494823
71.6711227922206
71.6711227513442
71.6711227281485
71.6711227232445
71.6711227399501
71.671122778469
71.6711228299828
71.6711229091743
71.671122971602
71.6711230293149
71.6711290481471
71.671129001712
71.6711289259838
71.6711288071238
71.671128684422
71.6711285529746
71.6711284204503
71.6711282872275
71.6711281510943
71.6711280120653
71.6711278692528
71.6711277221184
71.6711275702546
71.6711274134868
71.6711272517714
71.6711270852247
71.6711269141233
71.6711267388455
71.671126559886
71.671126377827
71.6711261932942
71.6711260070442
71.6711258198338
71.6711256324779
71.6711254458205
71.6711252606765
71.6711250779335
71.6711248984211
71.6711247230123
71.6711245525075
71.6711243877653
71.671124229586
71.671124078799
71.6711239362048
71.6711238026328
71.6711236789124
71.6711235659313
71.6711234646209
71.671123375927
71.6711233008828
71.6711232405796
71.671123196109
71.6711231685767
71.671123158405
71.6711231682275
71.6711231969675
71.671123238033
71.6711233013339
71.6711233531096
71.6711234013201
71.6711294409761
71.6711294024572
71.6711293356639
71.6711292297987
71.6711291164975
71.6711289937521
71.6711288678052
71.6711287395738
71.6711286075297
71.6711284718185
71.6711283317709
71.6711281869502
71.6711280370946
71.6711278820439
71.6711277218274
71.6711275566049
71.6711273866531
71.6711272123648
71.6711270342785
71.6711268529471
71.6711266690691
71.6711264833575
71.6711262965837
71.6711261095479
71.6711259231088
71.6711257380957
71.6711255553528
71.6711253757239
71.6711252000678
71.6711250291701
71.6711248638894
71.6711247049971
71.6711245533224
71.6711244096514
71.6711242747697
71.6711241495213
71.6711240347649
71.6711239313736
71.6711238402786
71.6711237624404
71.6711236988922
71.6711236506089
71.6711236185074
71.6711236028495
71.6711236056726
71.6711236251722
71.6711236564151
71.6711237059208
71.6711237482377
71.6711237879936
71.6711298480077
71.6711298159644
71.6711297568399
71.6711296622234
71.671129557697
71.6711294431443
71.6711293237167
71.671129200593
71.671129072769
71.6711289405212
71.6711288033839
71.6711286610225
71.6711285132624
71.6711283600162
71.6711282013566
71.6711280374875
71.6711278687144
71.6711276954593
71.6711275182606
71.6711273377005
71.6711271544773
71.6711269693187
71.671126782996
71.6711265963095
71.6711264100741
71.6711262251774
71.6711260424345
71.6711258626892
71.6711256867566
71.671125515466
71.6711253496032
71.6711251899833
71.6711250373774
71.6711248925712
71.6711247563508
71.6711246295163
71.6711245128827
71.6711244073231
71.6711243137106
71.671124232962
71.6711241660232
71.6711241137527
71.6711240769073
71.6711240556615
71.6711240515142
71.6711240623263
71.671124084387
71.6711241219018
71.671124155866
71.6711241883604
71.671130267423
71.6711302406911
71.6711301883333
71.6711301035248
71.671130007162
71.6711299002782
71.6711297872389
71.6711296692665
71.671129545779
71.6711294171109
71.6711292829859
71.6711291431857
71.6711289975938
71.6711288462247
71.6711286891805
71.6711285267083
71.6711283591576
71.6711281869648
71.6711280106829
71.6711278309231
71.6711276483693
71.6711274637637
71.671127277863
71.6711270915257
71.6711269055377
71.6711267207575
71.671126538
71.6711263581092
71.6711261819
71.6711260101729
71.6711258437426
71.6711256833514
71.6711255297851
71.6711253838148
71.6711252461973
71.6711251177039
71.6711249991349
71.6711248913198
71.6711247951025
71.6711247113271
71.6711246408522
71.6711245844781
71.6711245428014
71.6711245159095
71.6711245049082
71.6711245075421
71.6711245210317
71.6711245480838
71.671124574641
71.67112460098
71.6711306970392
71.6711306746874
71.6711306282814
71.6711305521167
71.67113046335
71.6711303636985
71.671130256902
71.6711301440664
71.6711300249299
71.6711298999435
71.6711297689035
71.6711296317371
71.6711294884153
71.6711293389817
71.6711291836109
71.6711290225794
71.6711288562801
71.6711286851787
71.6711285098281
71.6711283308687
71.6711281489988
71.6711279649608
71.6711277795403
71.6711275935522
71.671127407797
71.6711272231187
71.6711270403612
71.6711268603249
71.6711266838247
71.6711265116464
71.671126344605
71.6711261834134
71.6711260288721
71.6711258816795
71.6711257426214
71.6711256124254
71.6711254918773
71.6711253817339
71.67112528281
71.6711251959059
71.6711251218221
71.6711250612279
71.6711250146618
71.6711249821383
71.6711249644432
71.6711249594082
71.6711249649234
71.6711249827495
71.6711250026419
71.6711250237131
71.6711311351974
71.6711311165564
71.6711310755491
71.6711310070968
71.6711309254315
71.6711308326048
71.6711307318328
71.6711306240759
71.671130509334
71.6711303880729
71.6711302602198
71.6711301257601
71.6711299847375
71.6711298372975
71.6711296836438
71.6711295241112
71.671129359107
71.6711291891115
71.6711290147359
71.6711288366059
71.6711286554346
71.6711284719786
71.6711282870237
71.6711281013704
71.671127915848
71.6711277312861
71.6711275484995
71.6711273683031
71.6711271915119
71.671127018868
71.6711268511863
71.6711266891798
71.6711265336198
71.6711263851903
71.6711262446479
71.6711261127057
71.6711259900912
71.6711258775613
71.6711257758725
71.6711256857816
71.6711256079871
71.6711255431292
71.6711254916299
71.6711254535039
71.6711254293041
71.6711254170077
71.6711254150723
71.6711254247057
71.6711254386173
71.6711254551192
71.6711315800931
71.6711315646244
71.6711315285065
71.6711314670538
71.6711313920532
71.6711313056876
71.67113121078
71.6711311080726
71.6711309977109
71.6711308802187
71.6711307555815
71.6711306238722
71.6711304852361
71.6711303398333
71.671130187955
71.6711300299212
71.6711298662267
71.6711296973808
71.6711295239948
71.6711293467088
71.6711291662505
71.6711289833911
71.6711287989019
71.6711286135978
71.6711284283083
71.6711282438628
71.6711280610471
71.6711278806906
71.6711277035793
71.6711275304842
71.6711273621477
71.6711271993117
71.671127042704
71.6711268930085
71.6711267509527
71.6711266172206
71.6711264925107
71.6711263775505
71.6711262730241
71.671126179659
71.6711260981101
71.6711260289303
71.6711259725125
71.6711259288277
71.6711258982978
71.6711258791329
71.6711258702126
71.671125872439
71.6711258808937
71.6711258933792
71.6711320304894
71.6711320178583
71.6711319862952
71.6711319312744
71.6711318625748
71.6711317823938
71.6711316931614
71.6711315954017
71.6711314894201
71.6711313757114
71.6711312543339
71.6711311254476
71.6711309892125
71.6711308459053
71.6711306958168
71.6711305393546
71.6711303770135
71.6711302093317
71.6711300369352
71.6711298605078
71.6711296807771
71.6711294985143
71.6711293145054
71.6711291295651
71.6711289445084
71.6711287601647
71.6711285773199
71.6711283967888
71.6711282193573
71.6711280457675
71.6711278767762
71.6711277130962
71.6711275554117
71.671127404421
71.6711272608227
71.671127125257
71.671126998408
71.6711268809595
71.6711267735809
71.671126676898
71.671126591551
71.6711265180347
71.6711264566984
71.6711264075275
71.6711263708421
71.6711263450998
71.6711263295729
71.6711263250618
71.6711263284669
71.6711263374164
71.6711324850185
71.6711324749049
71.6711324475909
71.6711323985801
71.6711323358904
71.6711322616029
71.6711321779003
71.6711320850445
71.6711319834285
71.6711318735033
71.6711317554145
71.6711316293658
71.6711314956046
71.6711313544074
71.6711312061525
71.671131051291
71.6711308903177
71.6711307238147
71.6711305524514
71.6711303769116
71.6711301979085
71.6711300162424
71.6711298327282
71.6711296481517
71.6711294633278
71.671129279086
71.6711290962267
71.671128915521
71.6711287377548
71.6711285636702
71.6711283939949
71.6711282294418
71.6711280706804
71.6711279183655
71.6711277731956
71.6711276357819
71.6711275067646
71.6711273867986
71.6711272764951
71.6711271764798
71.6711270873056
71.6711270094384
71.6711269431835
71.6711268885992
71.6711268459039
71.6711268138461
71.6711267920618
71.6711267812789
71.6711267799838
71.6711267857463
71.6711329427344
71.6711329350073
71.6711329117825
71.6711328684614
71.6711328114907
71.6711327429366
71.6711326646182
71.6711325765937
71.671132479285
71.6711323731724
71.6711322584015
71.6711321352341
71.6711320039467
71.6711318649031
71.6711317185109
71.6711315652647
71.6711314056884
71.6711312403932
71.671131070063
71.6711308953963
71.6711307171499
71.6711305361241
71.6711303530901
71.6711301688774
71.6711299843009
71.671129800161
71.671129617258
71.6711294363777
71.6711292582768
71.6711290836829
71.6711289133236
71.6711287478829
71.6711285880156
71.6711284343764
71.6711282876058
71.6711281483003
71.6711280171003
71.6711278945877
71.6711277813447
71.6711276779533
71.6711275849229
71.6711275027046
71.6711274315603
71.6711273716064
71.6711273230321
71.6711272848625
71.6711272570537
71.6711272403918
71.6711272346583
71.6711272375105
71.6711334025458
71.6711333970452
71.6711333777057
71.6711333398416
71.6711332884297
71.6711332254345
71.6711331523838
71.6711330691178
71.671132976131
71.671132873802
71.6711327623634
71.6711326420918
71.6711325133219
71.6711323764466
71.6711322319461
71.6711320803297
71.6711319221795
71.6711317581212
71.6711315888388
71.6711314150889
71.6711312376137
71.6711310571991
71.6711308746599
71.6711306908255
71.6711305064819
71.6711303224438
71.6711301395117
71.6711299584422
71.6711297800066
71.6711296048888
71.6711294338456
71.6711292675027
71.6711291065149
71.671128951537
71.6711288031511
71.6711286619393
71.6711285285273
71.6711284034391
71.671128287242
71.6711281804601
71.671128083588
71.6711279970041
71.6711279209994
71.6711278557341
71.6711278013827
71.6711277572758
71.6711277236464
71.6711277013528
71.6711276913993
71.6711276915448
71.6711338636815
71.6711338603636
71.6711338448804
71.6711338122986
71.6711337662855
71.6711337087036
71.6711336408625
71.6711335623113
71.6711334736028
71.6711333750864
71.6711332669802
71.6711331496335
71.6711330233957
71.6711328887468
71.6711327461526
71.6711325961951
71.671132439471
71.6711322766641
71.6711321084586
71.6711319356109
71.6711317588924
71.6711315791181
71.6711313970882
71.6711312136031
71.6711310295068
71.6711308455851
71.6711306625948
71.6711304813361
71.6711303025513
71.6711301269243
71.671129955168
71.6711297879228
71.6711296258145
71.6711294694687
71.6711293194676
71.671129176364
71.6711290407111
71.6711289130471
71.6711287938815
71.6711286836944
71.671128582966
71.6711284920311
71.6711284111807
71.6711283406476
71.6711282806064
71.6711282306642
71.6711281913449
71.671128163609
71.6711281495664
71.6711281471362
71.67113432521
71.6711343240313
71.6711343122879
71.6711342849012
71.6711342441995
71.6711341919727
71.6711341292539
71.6711340553738
71.6711339709436
71.6711338762107
71.6711337714514
71.6711336570297
71.6711335333675
71.6711334009306
71.6711332602717
71.6711331119877
71.6711329567042
71.6711327951489
71.6711326280201
71.6711324560893
71.6711322801566
71.6711321010225
71.6711319194874
71.6711317363952
71.6711315525317
71.6711313687119
71.6711311856925
71.6711310042592
71.6711308251251
71.6711306489742
71.6711304765049
71.6711303083575
71.6711301451287
71.671129987415
71.6711298357695
71.6711296907597
71.6711295528658
71.6711294226116
71.6711293004773
71.6711291868705
71.6711290822714
71.671128987
71.6711289013328
71.6711288255756
71.6711287599028
71.6711287041981
71.6711286593054
71.6711286262143
71.67112860817
71.6711286032223
71.671134786433
71.6711347874661
71.6711347795062
71.6711347572855
71.6711347218079
71.671134674878
71.6711346172378
71.6711345480144
71.6711344678333
71.6711343768984
71.6711342755007
71.6711341640184
71.671134042932
71.671133912736
71.6711337740126
71.6711336274311
71.6711334736174
71.671133313328
71.6711331472907
71.6711329762911
71.6711328011297
71.6711326226359
71.6711324416101
71.6711322588817
71.6711320752656
71.6711318915477
71.6711317084992
71.6711315268622
71.6711313473788
71.671131170704
71.6711309975217
71.6711308284575
71.6711306640937
71.6711305050121
71.6711303517513
71.6711302048061
71.6711300646857
71.6711299318413
71.6711298067239
71.6711296897265
71.6711295812711
71.6711294816632
71.671129391194
71.6711293102417
71.6711292389518
71.6711291775282
71.6711291270913
71.6711290887033
71.6711290666717
71.6711290592502
71.6711352464918
71.6711352497659
71.6711352455604
71.6711352285492
71.6711351982813
71.6711351566191
71.6711351040576
71.6711350394762
71.6711349635152
71.6711348763929
71.6711347783421
71.6711346698285
71.6711345513177
71.6711344233627
71.6711342866038
71.6711341417104
71.6711339893809
71.6711338303576
71.6711336654116
71.6711334953579
71.6711333209823
71.6711331431434
71.6711329626269
71.6711327802914
71.6711325969081
71.6711324133066
71.6711322302144
71.6711320483882
71.6711318685411
71.671131691357
71.6711315174616
71.6711313474807
71.6711311819963
71.6711310215469
71.6711308666563
71.6711307177902
71.6711305754288
71.6711304400087
71.6711303119082
71.6711301915202
71.6711300792085
71.6711299752933
71.6711298800219
71.6711297938891
71.6711297170114
71.6711296498834
71.6711295939167
71.6711295501736
71.6711295241694
71.6711295142304
71.6711357047461
71.6711357104214
71.6711357101158
71.6711356983578
71.671135673314
71.6711356369487
71.6711355894367
71.6711355294683
71.6711354577565
71.6711353744176
71.6711352797429
71.6711351741833
71.6711350582482
71.6711349325633
71.6711347977835
71.6711346545926
71.6711345037329
71.6711343459901
71.6711341821501
71.6711340130278
71.6711338394525
71.6711336622539
71.6711334822467
71.6711333002895
71.6711331171537
71.671132933654
71.6711327505327
71.6711325685174
71.6711323883355
71.6711322106275
71.6711320360046
71.6711318651214
71.6711316985165
71.6711315366992
71.6711313801934
71.671131229421
71.6711310848332
71.6711309468228
71.6711308157683
71.6711306919897
71.6711305758363
71.6711304676137
71.6711303675693
71.6711302762706
71.6711301937903
71.6711301209289
71.6711300593888
71.6711300102324
71.6711299801536
71.671129967639
71.6711361603229
71.6711361685157
71.6711361721682
71.6711361658381
71.6711361460329
71.6711361150228
71.6711360726185
71.6711360172631
71.6711359497858
71.6711358702305
71.6711357789318
71.6711356763262
71.6711355629959
71.6711354395666
71.6711353067512
71.6711351652775
71.6711350159021
71.6711348594545
71.6711346967058
71.6711345285294
71.6711343557399
71.6711341791815
71.6711339996982
71.6711338181194
71.6711336352309
71.6711334518332
71.6711332686828
71.6711330864928
71.6711329059326
71.6711327277153
71.6711325524229
71.6711323806376
71.6711322129122
71.6711320497561
71.6711318916205
71.6711317389563
71.6711315921566
71.6711314515851
71.6711313175765
71.6711311904364
71.6711310704704
71.6711309579405
71.6711308531376
71.6711307566875
71.6711306685756
71.6711305899225
71.6711305227655
71.6711304680211
71.6711304337805
71.6711304185446
71.6711366125237
71.6711366234958
71.6711366313393
71.6711366306554
71.6711366161762
71.6711365905794
71.6711365532974
71.6711365025694
71.6711364393414
71.6711363635841
71.6711362756323
71.6711361759808
71.6711360652407
71.6711359440815
71.6711358132452
71.6711356734741
71.6711355255975
71.6711353704159
71.6711352087732
71.671135041528
71.6711348695244
71.6711346936208
71.6711345146614
71.6711343334464
71.6711341508053
71.6711339675094
71.6711337843299
71.6711336019507
71.6711334210704
71.6711332423438
71.6711330663529
71.6711328936799
71.6711327248631
71.6711325603683
71.6711324006465
71.6711322461051
71.6711320971081
71.67113195399
71.6711318170564
71.6711316865694
71.6711315627908
71.6711314459972
71.6711313364358
71.6711312348198
71.6711311410472
71.6711310565152
71.6711309836392
71.6711309231032
71.671130884497
71.6711308663944
71.6711370605044
71.6711370745033
71.6711370867124
71.6711370919656
71.6711370828998
71.6711370628473
71.6711370307457
71.6711369846453
71.6711369256373
71.671136853678
71.6711367690732
71.6711366723757
71.6711365642259
71.6711364453367
71.6711363164504
71.6711361783964
71.6711360319896
71.6711358780885
71.6711357175373
71.6711355512234
71.6711353800201
71.6711352047569
71.6711350263067
71.6711348454846
71.6711346631055
71.6711344799114
71.6711342967028
71.671134114149
71.6711339329486
71.6711337537126
71.6711335770524
71.6711334035062
71.6711332335981
71.671133067779
71.6711329064856
71.6711327500961
71.6711325989309
71.6711324533098
71.6711323134805
71.6711321796756
71.6711320521135
71.6711319310562
71.6711318167654
71.6711317099835
71.6711316105066
71.6711315199645
71.6711314412678
71.67113137462
71.6711313314445
71.6711313101987
71.6711375034938
71.6711375208688
71.6711375378072
71.6711375493469
71.6711375458253
71.6711375314626
71.6711375045707
71.6711374630977
71.6711374083388
71.6711373401486
71.6711372589052
71.6711371651618
71.6711370595876
71.6711369429249
71.6711368160031
71.6711366796517
71.6711365347146
71.6711363820941
71.6711362226488
71.6711360572663
71.6711358868488
71.6711357122258
71.671135534285
71.6711353538412
71.6711351716949
71.6711349886318
71.6711348053941
71.6711346226657
71.6711344411451
71.6711342614144
71.6711340840848
71.6711339096801
71.6711337387096
71.6711335715954
71.6711334087595
71.6711332505365
71.6711330972466
71.6711329491372
71.6711328064412
71.6711326693621
71.6711325380602
71.6711324127682
71.6711322937335
71.6711321818148
71.6711320765899
71.6711319798924
71.6711318952293
71.6711318221205
71.671131774041
71.6711317493609
71.6711379404587
71.6711379616172
71.6711379836488
71.6711380019115
71.6711380040942
71.671137995625
71.6711379740009
71.67113793717
71.6711378866457
71.6711378222099
71.6711377442989
71.6711376534658
71.6711375504528
71.6711374360311
71.6711373110593
71.6711371763813
71.671137032914
71.671136881545
71.6711367231765
71.6711365587253
71.671136389079
71.6711362151109
71.6711360376648
71.6711358575994
71.671135675715
71.6711354927684
71.6711353095016
71.6711351266276
71.6711349447869
71.6711347645905
71.6711345866206
71.6711344113864
71.6711342393683
71.671134070988
71.6711339066387
71.6711337466259
71.6711335912551