/*--------------------------------*- C++ -*----------------------------------*\
  =========                 |
  \\      /  F ield         | OpenFOAM: The Open Source CFD Toolbox
   \\    /   O peration     | Website:  https://openfoam.org
    \\  /    A nd           | Version:  10
     \\/     M anipulation  |
\*---------------------------------------------------------------------------*/
FoamFile
{
    format      ascii;
    class       surfaceScalarField;
    location    "2.8";
    object      phi;
}
// * * * * * * * * * * * * * * * * * * * * * * * * * * * * * * * * * * * * * //

dimensions      [1 0 -1 0 0 0 0];

internalField   nonuniform List<scalar> 
4900
(
-6.27122360494121e-12
6.69995296729825e-12
-7.11219834893756e-12
1.48500245607317e-12
-5.04593700618865e-12
-1.37947983708679e-12
-3.24910634787377e-12
-1.11680514400907e-12
-2.03645164832525e-12
-5.44802662386639e-13
-1.29228140954894e-12
-8.45842925412879e-14
-8.17220522259252e-13
1.79484828960116e-13
-4.92588419832895e-13
3.26285181208009e-13
-2.53310611668673e-13
4.08369989560959e-13
-6.51481863387664e-14
4.56158113186622e-13
8.91730107032254e-14
4.86538437780655e-13
2.19034806454474e-13
5.07400054784616e-13
3.29962892236423e-13
5.2263358819105e-13
4.25454098215451e-13
5.3424965759428e-13
5.07893708562476e-13
5.43373449425872e-13
5.79016904572784e-13
5.50623444849738e-13
6.40157102668966e-13
5.56433111697815e-13
6.92354152427212e-13
5.61079363719954e-13
7.36521277472101e-13
5.64746437351e-13
7.73406574081243e-13
5.67592211113279e-13
8.03735831908891e-13
5.69709924348832e-13
8.28140883894926e-13
5.71184284348495e-13
8.47242415310433e-13
5.72100845158945e-13
8.61635352738608e-13
5.7246858077993e-13
8.71927510399729e-13
5.72346723523173e-13
8.78700575185845e-13
5.71737185019616e-13
8.82591431039619e-13
5.70653070625055e-13
8.84211635027044e-13
5.6908758674648e-13
8.8422953762463e-13
5.67047449069723e-13
8.83311627926994e-13
5.64497510747633e-13
8.82232165088428e-13
5.61388221960006e-13
8.81790019166513e-13
5.57654649060191e-13
8.82912007587122e-13
5.53222859730298e-13
8.8662027924565e-13
5.4795713571753e-13
8.94207627198017e-13
5.41638594411634e-13
9.07194345964309e-13
5.34005811894058e-13
9.27573569433635e-13
5.24640275415063e-13
9.57974082434165e-13
5.12882977223243e-13
1.00217825585323e-12
4.97634091070843e-13
1.06602333144626e-12
4.76803482893389e-13
1.1593550566589e-12
4.46391824975685e-13
1.2999474321629e-12
3.98386881340268e-13
1.52272779750641e-12
3.15675050229014e-13
1.8942993085438e-12
1.66873265487297e-13
2.53423381512793e-12
-9.98608442488915e-14
3.64713778295353e-12
-5.67445719892621e-13
5.35982492101602e-12
-1.15624652767494e-12
7.39418593426234e-12
-1.46246908574638e-12
6.47666572473738e-12
1.48127420538246e-12
6.85823229690798e-12
-6.55824631309229e-12
1.38404132648364e-11
-1.09017808310367e-11
6.63286325987447e-12
-8.82638675937295e-12
-2.62549159009797e-12
-6.2856527907037e-12
-2.84527839470952e-12
-4.419844710526e-12
-1.61696337001565e-12
-3.1646284165849e-12
-5.58145078288255e-13
-2.30284101619229e-12
9.23595627282513e-14
-1.67472727998242e-12
4.68140487521317e-13
-1.18861632731781e-12
6.88211538986087e-13
-7.95834669852951e-13
8.2530094937053e-13
-4.69257849268615e-13
9.17681113490609e-13
-1.9275129076182e-13
9.842100772484e-13
4.41458613241681e-14
1.03449399654287e-12
2.48602628222831e-13
1.07382502692541e-12
4.25810296436018e-13
1.1053275825509e-12
5.79673311308376e-13
1.13088056037657e-12
7.13290073025486e-13
1.15176227801707e-12
8.29130803078767e-13
1.16886595491107e-12
9.29321651553891e-13
1.18278612016146e-12
1.01566722148512e-12
1.19400037032143e-12
1.08982855151827e-12
1.20282620777554e-12
1.15329555773333e-12
1.20951499291091e-12
1.20749437518908e-12
1.21429866413305e-12
1.25375146331232e-12
1.21727352612264e-12
1.29341871237555e-12
1.21855372911143e-12
1.32779910538247e-12
1.21816720074599e-12
1.35826481104584e-12
1.21613314768284e-12
1.38615848664483e-12
1.21244316858229e-12
1.41293541476443e-12
1.20706046544168e-12
1.44007773293665e-12
1.19988556465433e-12
1.46926505050232e-12
1.19073339669292e-12
1.50227953663561e-12
1.17939657987163e-12
1.54116377541699e-12
1.165597257281e-12
1.58822273895632e-12
1.14889709806368e-12
1.64626862043955e-12
1.12862553304961e-12
1.71866475940679e-12
1.10393638404334e-12
1.80968720716918e-12
1.07355871899214e-12
1.92484048733545e-12
1.03558322298144e-12
2.07168356453762e-12
9.86909490314986e-13
2.26108128543651e-12
9.22097690962419e-13
2.50980700551281e-12
8.31231977275771e-13
2.84583951670995e-12
6.95004364724656e-13
3.31936051744502e-12
4.74215192694576e-13
4.02447486733378e-12
9.41781699829966e-14
5.12381402987342e-12
-5.63538258022044e-13
6.84242371200204e-12
-1.64084880982179e-12
9.27708939634706e-12
-2.92752121068949e-12
1.13532028908152e-11
-2.8560094018979e-12
6.89248829286192e-12
6.59371210951349e-12
1.41596806381637e-11
-4.13218274078205e-12
1.85581565090708e-11
-8.4833912539289e-12
1.17475885709168e-11
-7.96838139331396e-12
-2.38828935966301e-12
-6.48071873105997e-12
-3.6104041544202e-12
-5.08486768103626e-12
-2.31391958650715e-12
-3.96345809113723e-12
-9.94892982131983e-13
-3.09704046768684e-12
-9.715598108219e-14
-2.41668854861174e-12
4.59978743469564e-13
-1.86713601145833e-12
8.07106257288834e-13
-1.41337727982446e-12
1.03630070724985e-12
-1.03208956010261e-12
1.19726381535522e-12
-7.07534568925417e-13
1.31640067950927e-12
-4.2858489731158e-13
1.40797730580367e-12
-1.87142864867209e-13
1.48031956834661e-12
2.28900049980962e-14
1.53858374607606e-12
2.06198606812884e-13
1.58604613832982e-12
3.66547636876879e-13
1.62494592447116e-12
5.0699179198997e-13
1.65687854213339e-12
6.30137205084814e-13
1.68294993010887e-12
7.38224605558915e-13
1.70400309151696e-12
8.33279248870982e-13
1.72064595651521e-12
9.17118490483736e-13
1.73333445505178e-12
9.91479410422361e-13
1.7424584384675e-12
1.05797171018164e-12
1.74823082684032e-12
1.11821713396647e-12
1.75082795503426e-12
1.17377494265544e-12
1.75032054517416e-12
1.22626381756485e-12
1.74673748591881e-12
1.27728933336615e-12
1.74005567211358e-12
1.32857990973575e-12
1.73017874520933e-12
1.38192955830342e-12
1.71690806918877e-12
1.43932206997425e-12
1.69992602272785e-12
1.50290007404615e-12
1.6788294181383e-12
1.57512261448871e-12
1.65307603111541e-12
1.65877276002806e-12
1.62186717009073e-12
1.75718501969177e-12
1.58403104070847e-12
1.87435422766679e-12
1.53803167527885e-12
2.01529546858848e-12
1.48163199346671e-12
2.18634175118907e-12
1.41158342855497e-12
2.39589639939224e-12
1.32276073871824e-12
2.65539201562487e-12
1.20664501798878e-12
2.98098572684541e-12
1.04858014841046e-12
3.39651369702868e-12
8.2150140202323e-13
3.9379665464797e-12
4.74238639117665e-13
4.66215055138123e-12
-8.78703697658328e-14
5.64179341226393e-12
-9.96711958893271e-13
6.90672208971271e-12
-2.34684948774765e-12
8.3127655816756e-12
-3.75051171074528e-12
8.86000604980746e-12
-2.79578887422713e-12
4.40913282818412e-12
1.16245687740893e-11
1.89202054396661e-11
-4.49923276047343e-12
2.36016362308966e-11
-6.05270657140726e-12
1.39813087366568e-11
-6.28700103152115e-12
-1.50962163201752e-12
-5.72590104371002e-12
-3.56359183319664e-12
-4.87128528131586e-12
-2.58600833395185e-12
-4.01139680023556e-12
-1.28687964623125e-12
-3.26342211037261e-12
-2.84892895999226e-13
-2.63744778171237e-12
3.89866940960028e-13
-2.11486432425232e-12
8.37066911642131e-13
-1.67596262175173e-12
1.14667553484973e-12
-1.30379021054589e-12
1.37085843873306e-12
-9.85286713492749e-13
1.53987500731469e-12
-7.1052683834899e-13
1.67118553666161e-12
-4.71959154937826e-13
1.77551055849097e-12
-2.6373272507555e-13
1.85975075030716e-12
-8.12643246479293e-14
1.9284420315653e-12
7.91683860665444e-14
1.98472805739157e-12
2.20622911312212e-13
2.0308639191394e-12
3.45711244578821e-13
2.06846054953179e-12
4.56682543158581e-13
2.09872368653121e-12
5.55572662708403e-13
2.12254531028284e-12
6.44197700856953e-13
2.14059793925087e-12
7.2430565413675e-13
2.15341195659795e-12
7.97500480475351e-13
2.1613344609608e-12
8.65399978662526e-13
2.16459723772479e-12
9.29554794425982e-13
2.16331961893736e-12
9.91562953925333e-13
2.15754809658448e-12
1.0530304205086e-12
2.14722561088486e-12
1.11566783001182e-12
2.13221045100802e-12
1.18126160830789e-12
2.11219584952055e-12
1.25178552545776e-12
2.08673130308507e-12
1.32937278488448e-12
2.05521932414505e-12
1.41646608943291e-12
2.01685687547468e-12
1.51583340361604e-12
1.97048571858104e-12
1.63075940438139e-12
1.91446399554412e-12
1.76514670802256e-12
1.84660936053453e-12
1.92384317025589e-12
1.7637883119253e-12
2.11286889519358e-12
1.66155569790838e-12
2.33998351227552e-12
1.5330824963838e-12
2.61529343353974e-12
1.36744627611703e-12
2.95199069533983e-12
1.1468749582439e-12
3.36700554406124e-12
8.40483391536296e-13
3.87993285909258e-12
3.94621799686457e-13
4.50918933681741e-12
-2.83312868467236e-13
5.24769595703665e-12
-1.2970686598954e-12
5.99018058342705e-12
-2.63799214819482e-12
6.49052781386906e-12
-3.77292251713641e-12
6.28190536970048e-12
-2.08106710719913e-12
4.64050822238012e-12
1.3751871559395e-11
2.38486051656365e-11
-4.06219131815243e-12
2.81309544984423e-11
-4.72131183392599e-12
1.5201774187035e-11
-5.22005518276856e-12
-4.99248395848914e-13
-5.02926727521028e-12
-3.27887096593131e-12
-4.46256842854527e-12
-2.70048791324734e-12
-3.79264998880314e-12
-1.51780504104347e-12
-3.16373541726682e-12
-4.81634864165959e-13
-2.6138677797172e-12
2.68397205397956e-13
-2.14298860553818e-12
7.91762361376676e-13
-1.74125938437241e-12
1.167677482553e-12
-1.39719456057245e-12
1.4463791105518e-12
-1.10075379784689e-12
1.65954469342005e-12
-8.43776681769338e-13
1.82659062388463e-12
-6.19780554291566e-13
1.95995126588009e-12
-4.2358229063767e-13
2.06788252966833e-12
-2.5102776996452e-13
2.15594987688965e-12
-9.86976433313553e-14
2.22807758788522e-12
3.62540176784252e-14
2.28709044577328e-12
1.56279696244746e-13
2.33505142918352e-12
2.63494745555495e-13
2.37350225492738e-12
3.5982892710191e-13
2.40358731880941e-12
4.46995377088632e-13
2.42619257392514e-12
5.26649867879803e-13
2.44197443216595e-12
6.00316070056758e-13
2.45140170441786e-12
6.69522710071035e-13
2.45476731929021e-12
7.35733206375735e-13
2.45223781607514e-12
8.00457632464742e-13
2.44387467599417e-12
8.65208204633267e-13
2.42959336883506e-12
9.31609792669274e-13
2.4091959345873e-12
1.00134706439785e-12
2.38228566724068e-12
1.07627739872299e-12
2.34828988674562e-12
1.15841112155286e-12
2.30642539237655e-12
1.25003974037697e-12
2.25565430884467e-12
1.35374796360336e-12
2.19449188665573e-12
1.47256929044312e-12
2.12089146081386e-12
1.6100749957615e-12
2.03210360085833e-12
1.77062935204589e-12
1.92424529277729e-12
1.95953278079931e-12
1.79190660512905e-12
2.18340664383912e-12
1.6269616901288e-12
2.45048719027988e-12
1.41680344290329e-12
2.77074705555399e-12
1.14187491145842e-12
3.15524462611718e-12
7.70097979347451e-13
3.61285572958855e-12
2.50144150470672e-13
4.14197129765024e-12
-4.99307034358232e-13
4.70607661812227e-12
-1.54456737268161e-12
5.17319968567325e-12
-2.77641668743472e-12
5.31965437276462e-12
-3.56498103591074e-12
4.83859005696046e-12
-1.21795808379758e-12
4.11982739263126e-12
1.48395480384809e-11
2.81784222398733e-11
-2.99677486633793e-12
3.1504232287486e-11
-4.00508862653718e-12
1.66454750957672e-11
-4.59192155459952e-12
4.71570210804667e-13
-4.4952417281042e-12
-3.02390632889564e-12
-4.06672543966474e-12
-2.79725693211767e-12
-3.5259808171837e-12
-1.73798034425668e-12
-2.99572301905734e-12
-6.97058298356579e-13
-2.51654727863797e-12
1.00914170486864e-13
-2.096422956534e-12
6.80957430924646e-13
-1.73182648333917e-12
1.10992141279366e-12
-1.41575885942048e-12
1.43431508152227e-12
-1.14106133864505e-12
1.68564375631579e-12
-9.01401456922809e-13
1.88423833717784e-12
-6.91463489691311e-13
2.04359958014852e-12
-5.06828309663898e-13
2.17294448948599e-12
-3.43846998456457e-13
2.27861655221936e-12
-1.99449407619396e-13
2.36516757735728e-12
-7.10384631695941e-14
2.43589315804135e-12
4.36513035381275e-14
2.49324435244539e-12
1.46590414822084e-13
2.53905679497358e-12
2.39583539977401e-13
2.57470470397919e-12
3.24245644970195e-13
2.60125971227833e-12
4.0213320326909e-13
2.61950267854739e-12
4.74692625186305e-13
2.63000204093557e-12
5.43363035355812e-13
2.63312128146475e-12
6.09523947476455e-13
2.62906863694709e-12
6.74606043732665e-13
2.61791418108957e-12
7.40034302245134e-13
2.59955411608977e-12
8.07344691530765e-13
2.57373344105446e-12
8.78121005445475e-13
2.53997875743812e-12
9.54113741228383e-13
2.49759926631295e-12
1.03719345213327e-12
2.44566017906695e-12
1.12949168732337e-12
2.3829064771898e-12
1.23339344101894e-12
2.30756825341646e-12
1.35165844461024e-12
2.21726527275421e-12
1.48748815590952e-12
2.1087769973205e-12
1.64470666540653e-12
1.97763476188522e-12
1.82781970324591e-12
1.81771321939065e-12
2.042245881956e-12
1.61998550963474e-12
2.29431384937239e-12
1.37085113790173e-12
2.59101057018625e-12
1.05002433011871e-12
2.9386995078091e-12
6.25916075012224e-13
3.33955355114395e-12
5.14685734751519e-14
3.78333796789894e-12
-7.41567609672173e-13
4.23017327454253e-12
-1.78757906573233e-12
4.56963774362821e-12
-2.90196808127032e-12
4.6333334804743e-12
-3.39191168989456e-12
4.06409112770487e-12
-3.86326021778861e-13
3.02253743243238e-12
1.61348154117118e-11
3.13400015958766e-11
-2.03041345128121e-12
3.38112518931719e-11
-3.46353802845255e-12
1.83830006979195e-11
-4.06680564215517e-12
1.3326220708798e-12
-4.02078342116264e-12
-2.83761837573412e-12
-3.69252836451678e-12
-2.90838740062464e-12
-3.25710216463185e-12
-1.96491984046859e-12
-2.81182640686905e-12
-9.38341682103121e-13
-2.39552878605021e-12
-1.13892921960762e-13
-2.02099055279941e-12
5.05939774746378e-13
-1.68956244987011e-12
9.75844661027393e-13
-1.39811975667183e-12
1.33764731812927e-12
-1.14216238354738e-12
1.62148174770669e-12
-9.17118316311922e-13
1.84770522420482e-12
-7.1883065038974e-13
2.03029286847436e-12
-5.4363760210544e-13
2.17902957837502e-12
-3.88403486771414e-13
2.30079882894017e-12
-2.50403822779447e-13
2.40061417005795e-12
-1.27294659289508e-13
2.48215146797415e-12
-1.69901125938773e-14
2.54817505149595e-12
8.23436594988683e-14
2.60077103606791e-12
1.72397850150665e-13
2.64151791449377e-12
2.54700672777109e-13
2.67164570112053e-12
3.30725576214548e-13
2.69205379259621e-12
4.01847726106963e-13
2.70339773080538e-12
4.69436558727318e-13
2.70610869586386e-12
5.34807310921727e-13
2.70043094702762e-12
5.99323966079083e-13
2.6864430515209e-12
6.64345810905647e-13
2.66402161876765e-12
7.31332065269602e-13
2.63286445175106e-12
8.01780731647123e-13
2.59243027902081e-12
8.77349307891698e-13
2.54191672862816e-12
9.59784088854412e-13
2.48026875929089e-12
1.05107641290948e-12
2.40602967294059e-12
1.15341383093785e-12
2.31720144528844e-12
1.26929955519246e-12
2.21112771542027e-12
1.40156678391079e-12
2.08422697039528e-12
1.55351490030404e-12
1.93159705811101e-12
1.72887498123442e-12
1.74664045446931e-12
1.93189174676332e-12
1.51981505415935e-12
2.1670923171248e-12
1.23713957113883e-12
2.43876458947043e-12
8.78474580730969e-13
2.74936019895454e-12
4.13902575502322e-13
3.09616794734642e-12
-1.98453125306123e-13
3.46431635226269e-12
-1.01416557216495e-12
3.81560047346462e-12
-2.04233604587541e-12
4.06461635386403e-12
-3.04684212674494e-12
4.08250547914637e-12
-3.28690021431541e-12
3.49791317661811e-12
3.42030483519035e-13
2.04328626387176e-12
1.77281100841703e-11
3.34504709386999e-11
-1.3933746525972e-12
3.5389490151714e-11
-2.94958753946023e-12
2.01300716312151e-11
-3.53869846484039e-12
2.07620624968202e-12
-3.56139634175794e-12
-2.67903723999864e-12
-3.32830515287898e-12
-3.01653090811271e-12
-2.98709245467993e-12
-2.1875028819214e-12
-2.61763869738205e-12
-1.19254617960572e-12
-2.25821518322158e-12
-3.60032848092942e-13
-1.92534673221874e-12
2.8469797464322e-13
-1.62437503266392e-12
7.84565678501313e-13
-1.35548942951093e-12
1.17608151304779e-12
-1.11657424561876e-12
1.48708937122717e-12
-9.0469115494661e-13
1.73722759451808e-12
-7.16785288807654e-13
1.94042031948081e-12
-5.49935091242634e-13
2.10666309734026e-12
-4.01516710718462e-13
2.24315498479217e-12
-2.69147197786702e-13
2.35520395114794e-12
-1.50736393605705e-13
2.44677859278981e-12
-4.43767198087336e-14
2.52088053278855e-12
5.16290422254536e-14
2.57980413751956e-12
1.38864098102385e-13
2.6253022953072e-12
2.18772983602495e-13
2.65873842419067e-12
2.92754819571627e-13
2.68111904793641e-12
3.62120545388574e-13
2.6931767947488e-12
4.28179002278937e-13
2.69540491079493e-12
4.92187780827868e-13
2.68808109565301e-12
5.55451834155791e-13
2.67129221597363e-12
6.19270699273477e-13
2.64489674498511e-12
6.85035696488365e-13
2.60855152580624e-12
7.54170840671964e-13
2.56165462049739e-12
8.28240410387811e-13
2.50330973126669e-12
9.08882945242578e-13
2.43235731160661e-12
9.97947883494211e-13
2.34717136814066e-12
1.09743388947594e-12
2.24557408652891e-12
1.20959248678497e-12
2.12469367383824e-12
1.3369004608402e-12
1.98069137928936e-12
1.48214438138664e-12
1.80838397587343e-12
1.64831054856008e-12
1.60092692774144e-12
1.83853981418228e-12
1.34861140018867e-12
2.05572003187856e-12
1.03759589098844e-12
2.301765340696e-12
6.48601684463363e-13
2.57587674950696e-12
1.54235854419524e-13
2.87155781084262e-12
-4.81710990959139e-13
3.17073860642586e-12
-1.30285002039113e-12
3.43598903413206e-12
-2.29730126148793e-12
3.59845755165416e-12
-3.19389413261192e-12
3.54704943165628e-12
-3.2058567420339e-12
2.97322079251692e-12
9.61812359937648e-13
1.39710397869227e-12
1.93465420193978e-11
3.48585556027261e-11
-1.01831753123048e-12
3.65100046904695e-11
-2.46913073650684e-12
2.16732236292183e-11
-3.02933333929355e-12
2.70337151486522e-12
-3.12297593907429e-12
-2.52992146413607e-12
-2.97597876545542e-12
-3.11482791417711e-12
-2.71745331392378e-12
-2.40148354842095e-12
-2.41532102366283e-12
-1.45251068350843e-12
-2.10757172443485e-12
-6.27126485490602e-13
-1.8134167842491e-12
2.97867616076431e-14
-1.54127424716632e-12
5.49915418031793e-13
-1.29402558297916e-12
9.64114854487954e-13
-1.07159162472028e-12
1.29729378914591e-12
-8.72493722294247e-13
1.56779654424654e-12
-6.9470201500186e-13
1.78906369628141e-12
-5.36002309886067e-13
1.97098692789707e-12
-3.9426296456921e-13
2.12086937877723e-12
-2.67452678573462e-13
2.24417328003914e-12
-1.53729617765382e-13
2.34505852738976e-12
-5.1371746783338e-14
2.42670020243628e-12
4.11818184112645e-14
2.49155118999889e-12
1.2540550510444e-13
2.54150987886591e-12
2.02656257585246e-13
2.57805110876919e-12
2.74259972320206e-13
2.60227303917329e-12
3.41462526370577e-13
2.61497678056921e-12
4.05512220588761e-13
2.61671145082732e-12
4.67608726229178e-13
2.60778561754273e-12
5.29002733277515e-13
2.58828996494004e-12
5.90931368201421e-13
2.55807246603078e-12
6.54722943848278e-13
2.5167488724359e-12
7.21725646626151e-13
2.46366988067643e-12
7.93407791576259e-13
2.3978644769859e-12
8.71305985641429e-13
2.31807443947115e-12
9.57121246401681e-13
2.22255105509684e-12
1.05266796219242e-12
2.10897232519336e-12
1.15994632937e-12
1.97431733526264e-12
1.28108424860202e-12
1.81458709139628e-12
1.41837043677062e-12
1.62446176343105e-12
1.57409660383134e-12
1.39704188411777e-12
1.75038820650392e-12
1.12276196144399e-12
1.94868556220693e-12
7.88339815195824e-13
2.16890892554064e-12
3.75887299921592e-13
2.40768734871168e-12
-1.38905113325514e-13
2.65572791413627e-12
-7.86394685279912e-13
2.89285889397724e-12
-1.59903660856196e-12
3.08212353506132e-12
-2.54687949150593e-12
3.16533499635753e-12
-3.33465508031117e-12
3.03944827820912e-12
-3.12797044319941e-12
2.48644831502672e-12
1.4772031013921e-12
1.01456531818301e-12
2.07785036512219e-11
3.58349293375907e-11
-7.94989701014874e-13
3.73443410564394e-11
-2.05064935722e-12
2.29508394878054e-11
-2.57247221596686e-12
3.23282351074456e-12
-2.71985963287579e-12
-2.38104105985615e-12
-2.64290156495468e-12
-3.19408478638354e-12
-2.4534791742221e-12
-2.59575274119888e-12
-2.20976205853087e-12
-1.70270138663108e-12
-1.94845718139088e-12
-8.96092842696335e-13
-1.69021054228246e-12
-2.37367513660825e-13
-1.44555535877634e-12
2.9472647702883e-13
-1.21939698960309e-12
7.25335381602558e-13
-1.01331265478354e-12
1.07606890993614e-12
-8.2707287155237e-13
1.36356795406695e-12
-6.59561881620902e-13
1.60045322750141e-12
-5.09226313318982e-13
1.79626052895728e-12
-3.74400436838555e-13
1.95820332629818e-12
-2.53400415274783e-13
2.09178087612857e-12
-1.44626664988494e-13
2.20123902907575e-12
-4.65442156390787e-14
2.28987113530245e-12
4.22644031122535e-14
2.36024441328253e-12
1.23162542654761e-13
2.41436969878037e-12
1.97414837246642e-13
2.45381349114452e-12
2.662713282537e-13
2.47974801250371e-12
3.30909556711096e-13
2.49303516008272e-12
3.92514123563723e-13
2.49427465936641e-12
4.52229127031331e-13
2.48379730324694e-12
5.11245189560854e-13
2.46170109807207e-12
5.70734184519544e-13
2.42782900905303e-12
6.31957184154998e-13
2.38175746693533e-12
6.96187134433534e-13
2.32279698953268e-12
7.64796199941688e-13
2.24992255023221e-12
8.39209423485e-13
2.16179356385969e-12
9.20983199753941e-13
2.05657055452272e-12
1.01174674975501e-12
1.93182882900933e-12
1.11325014741889e-12
1.78446172959379e-12
1.22728368773908e-12
1.61039764008219e-12
1.35566818146066e-12
1.40430729680797e-12
1.50005682703816e-12
1.15940347522995e-12
1.66167533311533e-12
8.66517851554658e-13
1.8407405139356e-12
5.13242718080773e-13
2.03558012278195e-12
8.34383097226823e-14
2.24092407737335e-12
-4.43826569665466e-13
2.4456398660313e-12
-1.09314010525327e-12
2.62860219679313e-12
-1.88677196049884e-12
2.75418200308517e-12
-2.77928298365456e-12
2.7724000124773e-12
-3.45901834718552e-12
2.58824712268328e-12
-3.0448117128413e-12
2.0630681970554e-12
1.90704707416375e-12
7.85028439105301e-13
2.19589037103732e-11
3.65501565342489e-11
-6.49595006115405e-13
3.79866599862464e-11
-1.70269575813942e-12
2.39759624526504e-11
-2.18042284141465e-12
3.67672898939658e-12
-2.35908433130178e-12
-2.23793795115636e-12
-2.33436400071285e-12
-3.25572075597116e-12
-2.20017940405624e-12
-2.76813871405046e-12
-2.00589821392378e-12
-1.93623628564362e-12
-1.78566824142685e-12
-1.15652978855218e-12
-1.56037014657114e-12
-5.04007379630102e-13
-1.34174580835466e-12
3.32239103420627e-14
-1.13608870644392e-12
4.74810781556394e-13
-9.46241818924385e-13
8.38943287408046e-13
-7.73001452375054e-13
1.14031467220835e-12
-6.16036558277278e-13
1.39048148052069e-12
-4.74383855273285e-13
1.59842834233677e-12
-3.46812465040658e-13
1.7711233480322e-12
-2.31961982975298e-13
1.91399270158538e-12
-1.28475420126829e-13
2.03128714081623e-12
-3.50043296412151e-14
2.12636158783062e-12
4.9725628806171e-14
2.20185416925477e-12
1.26965399489178e-13
2.25985555431881e-12
1.97885151426523e-13
2.30200594586243e-12
2.63653600205277e-13
2.32953757309864e-12
3.25374322733964e-13
2.34336534205528e-12
3.84169678083714e-13
2.34412588628931e-12
4.41119811659454e-13
2.33217493522671e-12
4.97350906376805e-13
2.30761699249245e-12
5.53974584802277e-13
2.27028584201827e-12
6.12174414087969e-13
2.21973470455645e-12
6.7314433440927e-13
2.15523649301871e-12
7.3815892295033e-13
2.07572912803562e-12
8.08530311337512e-13
1.97980593446258e-12
8.85672566044691e-13
1.86556543160518e-12
9.71028496234947e-13
1.73052461567869e-12
1.06610774396598e-12
1.57154483697735e-12
1.17238024392765e-12
1.38456135084586e-12
1.29123732996339e-12
1.16434293079223e-12
1.42376304651816e-12
9.04351533098835e-13
1.57041997474237e-12
5.96005916999294e-13
1.7304301405447e-12
2.27999306654192e-13
1.90092319208247e-12
-2.13861419708833e-13
2.07536046558948e-12
-7.47063435387754e-13
2.2416334333093e-12
-1.39073343041388e-12
2.37870508246443e-12
-2.15809444456766e-12
2.45342745756533e-12
-2.99090785243285e-12
2.42299270885764e-12
-3.56659599167831e-12
2.20342156290502e-12
-2.96210536914702e-12
1.71146349004032e-12
2.26252133521103e-12
6.34964249374467e-13
2.28967733777735e-11
3.70918599254412e-11
-5.44560510270024e-13
3.84974027796661e-11
-1.41893888927788e-12
2.47976136679643e-11
-1.84975989040682e-12
4.05552646384946e-12
-2.0405389015818e-12
-2.09848802822057e-12
-2.05215613027448e-12
-3.29551902008806e-12
-1.96060662853601e-12
-2.91166816596457e-12
-1.8072640403255e-12
-2.1422730330797e-12
-1.62278280003643e-12
-1.39452843196576e-12
-1.42731822341224e-12
-7.54065945988265e-13
-1.23305980157664e-12
-2.17108951941455e-13
-1.04713693582684e-12
2.30898922187001e-13
-8.73287383621263e-13
6.04785827985968e-13
-7.13100529645985e-13
9.17187541408028e-13
-5.66893379008814e-13
1.17844734064878e-12
-4.34213096461319e-13
1.39685754365693e-12
-3.14221872536524e-13
1.57902370315163e-12
-2.05856107208963e-13
1.73020157012521e-12
-1.07992312450631e-13
1.85458434589042e-12
-1.94575220055227e-14
1.95552921713392e-12
6.08783219827078e-14
2.03571361362145e-12
1.34148753699909e-13
2.09728074839635e-12
2.01428648946764e-13
2.14192221988526e-12
2.63803847597901e-13
2.17091610269937e-12
3.22301941015128e-13
2.18522333616236e-12
3.77978587403087e-13
2.18550799241894e-12
4.31846342066346e-13
2.17215101433333e-12
4.84964645570175e-13
2.14526164362022e-12
5.38377538198528e-13
2.10466636528348e-12
5.93191906207678e-13
2.04990256648487e-12
6.50521434729946e-13
1.98020980609467e-12
7.11541173163224e-13
1.89450789791161e-12
7.77445524722386e-13
1.79134200308921e-12
8.49510088475706e-13
1.66876928455377e-12
9.28996085617543e-13
1.52429247893973e-12
1.01718940215324e-12
1.35478210081662e-12
1.11526111487654e-12
1.15625601947131e-12
1.2242200627269e-12
9.23663228192332e-13
1.34466082928619e-12
6.50822419468628e-13
1.47642184868839e-12
3.29871103318401e-13
1.61796138575231e-12
-4.92553052464636e-14
1.76557435934184e-12
-4.98731958218361e-13
1.91199970368484e-12
-1.03270942790305e-12
2.04486105541766e-12
-1.66531409707867e-12
2.14404511911682e-12
-2.40197272306826e-12
2.17975669448429e-12
-3.17433517092484e-12
2.11556969831279e-12
-3.6526759104455e-12
1.88056924847044e-12
-2.87961013031313e-12
1.42569661629691e-12
2.56156447192255e-12
5.26600237563403e-13
2.36371778000133e-11
3.75160253353086e-11
-4.62063486452198e-13
3.89122507113734e-11
-1.1873939506944e-12
2.54599521064409e-11
-1.57115682760881e-12
4.38049809854708e-12
-1.76053403611291e-12
-1.96564393103372e-12
-1.79566012790333e-12
-3.31615851116725e-12
-1.73604927255479e-12
-3.02715303141759e-12
-1.61597527889998e-12
-2.31873033215087e-12
-1.46216239289618e-12
-1.60547964679307e-12
-1.29338028324407e-12
-9.81036180759687e-13
-1.12167232918256e-12
-4.48448419964958e-13
-9.54537667890963e-13
2.2816362776282e-15
-7.96282313327483e-13
3.82814722351968e-13
-6.49074103163036e-13
7.03732575193117e-13
-5.13739215510393e-13
9.74088240809341e-13
-3.90248977533385e-13
1.20139478676537e-12
-2.78106722851683e-13
1.39180949424972e-12
-1.76518843458863e-13
1.55034607518867e-12
-8.45758278407272e-14
1.68108371695763e-12
-1.2743625583637e-15
1.78733745636286e-12
7.43757351149826e-14
1.87179403470003e-12
1.4339540980329e-13
1.93661920994876e-12
2.06762525381711e-13
1.98354125559098e-12
2.65475210084389e-13
2.01387346914033e-12
3.20484423934759e-13
2.0286117141672e-12
3.72773653880996e-13
2.02844171937212e-12
4.23285666556105e-13
2.01376726706124e-12
4.7301291044318e-13
1.98469884797726e-12
5.22927072688803e-13
1.94106072230264e-12
5.74060079130338e-13
1.882376335906e-12
6.27435688842562e-13
1.80786727911996e-12
6.84134080801198e-13
1.71643889444835e-12
7.45232211051237e-13
1.60661233125314e-12
8.1187328022375e-13
1.47641679688866e-12
8.85145301133141e-13
1.32338191795086e-12
9.66124988191471e-13
1.14442372059788e-12
1.05571633046118e-12
9.35700731886096e-13
1.1545947292512e-12
6.92408674584988e-13
1.26295172994597e-12
4.08792899120001e-13
1.38013871571118e-12
7.77950742632684e-14
1.50406759144847e-12
-3.0934352328669e-13
1.63051396800036e-12
-7.62799840122579e-13
1.75194488854735e-12
-1.29362490193176e-12
1.85626232942395e-12
-1.91149471733452e-12
1.92485783023161e-12
-2.61532030891547e-12
1.93170255799733e-12
-3.32914427815832e-12
1.84600268358222e-12
-3.71857378596971e-12
1.6101869964455e-12
-2.80036767214525e-12
1.19432904056606e-12
2.81375965503465e-12
4.42689616524994e-13
2.42218273887023e-11
3.78521585311196e-11
-3.93926438438005e-13
3.92588953930049e-11
-9.96743890662551e-13
2.60049111876306e-11
-1.33474802837651e-12
4.66678939590001e-12
-1.51410910318751e-12
-1.83558042015634e-12
-1.56294821040441e-12
-3.31581282619451e-12
-1.52657251310453e-12
-3.112049196253e-12
-1.43309364803824e-12
-2.46119506105791e-12
-1.30527789892894e-12
-1.78303309184952e-12
-1.16010927669784e-12
-1.17699316764396e-12
-1.00906183807703e-12
-6.51705542358003e-13
-8.59643779273858e-13
-2.01144478892555e-13
-7.16449177596075e-13
1.83457353183504e-13
-5.82026934121455e-13
5.10711391212093e-13
-4.57579415496676e-13
7.88369086663327e-13
-3.43420817384838e-13
1.02312550216126e-12
-2.39335191321683e-13
1.22062629805406e-12
-1.44767541701416e-13
1.38559936455318e-12
-5.89999979239684e-14
1.52196309843332e-12
1.88086197250999e-14
1.6329589871684e-12
8.95177221399761e-14
1.72125173365613e-12
1.54035468207241e-13
1.78901191684258e-12
2.13241632189286e-13
1.83798828094682e-12
2.68048644461694e-13
1.86951628387041e-12
3.19330823610159e-13
1.88461737062542e-12
3.67995827185062e-13
1.88399796012153e-12
4.14915522422963e-13
1.86807896808841e-12
4.6101236606917e-13
1.83697092239111e-12
5.07179819516065e-13
1.79050392419422e-12
5.54375626581703e-13
1.72818315633906e-12
6.03533441598539e-13
1.64922802533443e-12
6.55640145780799e-13
1.55253223280758e-12
7.11659539166852e-13
1.43661251810224e-12
7.7260146263224e-13
1.29949037973225e-12
8.39398753132071e-13
1.13874489854679e-12
9.12934899175243e-13
9.51374870375384e-13
9.93885339666518e-13
7.33716036980649e-13
1.08264470205874e-12
4.81262970207892e-13
1.17908098561919e-12
1.88732920769594e-13
1.28218887068952e-12
-1.50091612370369e-13
1.38952851313501e-12
-5.42660207237395e-13
1.49663187751783e-12
-9.97247500138946e-13
1.59603510707722e-12
-1.52209945017325e-12
1.67631529345114e-12
-2.12304104072099e-12
1.72071273392411e-12
-2.79368543888045e-12
1.70700578897014e-12
-3.45262720826163e-12
1.60929441505045e-12
-3.76241635699461e-12
1.38221428329387e-12
-2.72180628466259e-12
1.0060230349342e-12
3.03219223705797e-12
3.74939313125903e-13