/*--------------------------------*- C++ -*----------------------------------*\
  =========                 |
  \\      /  F ield         | OpenFOAM: The Open Source CFD Toolbox
   \\    /   O peration     | Website:  https://openfoam.org
    \\  /    A nd           | Version:  10
     \\/     M anipulation  |
\*---------------------------------------------------------------------------*/
FoamFile
{
    format      ascii;
    class       volScalarField;
    location    "2.8";
    object      rho;
}
// * * * * * * * * * * * * * * * * * * * * * * * * * * * * * * * * * * * * * //

dimensions      [1 -3 0 0 0 0 0];

internalField   nonuniform List<scalar> 
2500
(
1.14208994886957
1.14223311185826
1.14232915403668
1.14236600790189
1.14237849332329
1.14238258553312
1.14238387644854
1.14238426710269
1.14238438339887
1.14238441627115
1.14238443101347
1.14238443806779
1.14238444180696
1.14238444619954
1.14238445026798
1.14238445473937
1.14238445708257
1.14238445996254
1.14238446323433
1.14238446557045
1.14238446779424
1.14238447005605
1.14238447204635
1.14238447287408
1.14238447376447
1.14238447499613
1.14238447535364
1.14238447571237
1.14238447607082
1.14238447569027
1.14238447522432
1.14238447468724
1.14238447336765
1.14238447156871
1.14238446988819
1.14238446815476
1.14238446617074
1.14238446438225
1.14238446039995
1.14238445482784
1.1423844416756
1.14238440166105
1.14238426953441
1.14238383676463
1.14238246175937
1.14237829167658
1.14236584492924
1.14232908644882
1.14223166747666
1.14209037425705
1.14930836622206
1.14969711795421
1.14996789163532
1.15008417516515
1.15012925634738
1.15014587561432
1.15015164062057
1.15015349878922
1.15015405476685
1.15015420934926
1.15015425222803
1.15015426417682
1.15015426739177
1.15015426948734
1.1501542712299
1.15015427299411
1.15015427399016
1.15015427518486
1.15015427659912
1.15015427774632
1.15015427913657
1.1501542809027
1.15015428258746
1.15015428308217
1.15015428338768
1.15015428421707
1.15015428433534
1.1501542844732
1.15015428497374
1.1501542844126
1.1501542842046
1.15015428465658
1.15015428308946
1.15015428085936
1.15015427986152
1.15015427922212
1.15015427835269
1.15015427705238
1.15015427246123
1.15015425781078
1.15015420452871
1.1501540152005
1.15015337749895
1.15015135699468
1.15014536167858
1.15012863937454
1.15008396728133
1.1499680516012
1.14969216691729
1.1493036682585
1.15501282172704
1.15544093860263
1.15573140653515
1.15585757050621
1.15590661593052
1.15592475578565
1.15593109275126
1.15593315509376
1.15593377750904
1.15593395180105
1.15593399896621
1.15593401102572
1.15593401291448
1.15593401356725
1.15593401393905
1.15593401415477
1.1559340142504
1.15593401441681
1.15593401481271
1.15593401517189
1.15593401580313
1.15593401681623
1.15593401793684
1.15593401842451
1.15593401853476
1.15593401884639
1.15593401874939
1.15593401868448
1.1559340189411
1.15593401855028
1.15593401856303
1.15593401914731
1.15593401794775
1.15593401614189
1.15593401604621
1.1559340163213
1.15593401593336
1.15593401524709
1.15593401132646
1.15593399634066
1.15593393942889
1.15593373388679
1.15593304014986
1.15593084358818
1.15592433404638
1.15590616182627
1.15585749031039
1.15573114283177
1.15543376209098
1.15499510929129
1.15857863014263
1.15889745349437
1.15908859039845
1.15916968063933
1.15919983264711
1.15921055637347
1.15921421287089
1.15921539013704
1.15921574458301
1.15921584397111
1.15921587104343
1.15921587760694
1.1592158780347
1.15921587806513
1.15921587797789
1.15921587786484
1.15921587777516
1.15921587772529
1.15921587778177
1.15921587780504
1.15921587792262
1.15921587834504
1.15921587896406
1.15921587927308
1.15921587922632
1.15921587922731
1.15921587921809
1.15921587909128
1.1592158789797
1.1592158789361
1.15921587900172
1.1592158793349
1.1592158787589
1.15921587781003
1.15921587783432
1.1592158779091
1.15921587789892
1.15921587802458
1.15921587628246
1.15921586872265
1.15921583875747
1.15921572788827
1.15921534810026
1.15921412466812
1.1592104133961
1.15919969617926
1.15916964887975
1.15908786889112
1.15889099454517
1.15855672419952
1.16044541347447
1.160631365579
1.16072962877601
1.16077055549818
1.16078526705049
1.16079033553696
1.16079203112129
1.16079257393246
1.1607927378471
1.16079278410092
1.16079279684246
1.16079279981197
1.16079279979252
1.16079279966354
1.16079279952276
1.16079279940217
1.16079279928725
1.16079279919653
1.16079279916671
1.16079279914285
1.16079279914331
1.16079279926932
1.16079279954621
1.16079279967821
1.16079279959473
1.16079279955141
1.16079279953541
1.1607927994356
1.16079279936146
1.1607927993677
1.16079279940325
1.16079279957478
1.1607927993244
1.16079279893009
1.16079279894711
1.16079279896954
1.16079279902277
1.16079279916592
1.16079279863949
1.16079279558628
1.1607927825564
1.16079273366809
1.16079256481406
1.16079201523983
1.16079031947624
1.1607852844938
1.16077061747819
1.16072915594589
1.16062718179748
1.16042800168809
1.16129591600396
1.16138705051463
1.16142977303571
1.16144733154609
1.1614534972655
1.16145557033036
1.16145625351017
1.1614564715713
1.16145653777222
1.16145655660908
1.16145656185298
1.16145656303441
1.16145656295424
1.16145656284521
1.16145656274937
1.16145656267414
1.16145656259781
1.16145656253477
1.16145656250071
1.16145656248368
1.16145656246087
1.16145656249299
1.16145656259061
1.1614565626176
1.16145656257801
1.16145656255111
1.16145656253005
1.16145656247714
1.16145656243549
1.16145656243664
1.16145656245077
1.1614565625229
1.16145656242617
1.16145656228798
1.16145656229525
1.16145656230386
1.16145656234684
1.16145656240821
1.16145656230393
1.16145656122694
1.16145655619063
1.16145653716547
1.16145647126459
1.16145625581307
1.16145558347071
1.16145354343823
1.16144741845263
1.16142959783266
1.16138489852981
1.16128528918597
1.16164239680622
1.16168151957923
1.16169796245237
1.16170464781947
1.16170696011709
1.16170772372896
1.16170797238925
1.16170805162185
1.16170807581881
1.16170808276985
1.16170808471153
1.16170808512586
1.1617080850763
1.16170808501492
1.16170808496324
1.16170808492277
1.16170808488276
1.16170808484974
1.16170808482756
1.16170808481659
1.16170808479806
1.1617080848026
1.16170808482806
1.16170808482128
1.16170808480212
1.16170808478878
1.16170808477522
1.16170808475145
1.16170808473075
1.16170808472667
1.16170808472939
1.16170808475416
1.16170808471927
1.16170808467584
1.16170808467807
1.161708084681
1.16170808470367
1.16170808473221
1.16170808472093
1.16170808436241
1.16170808257872
1.16170807580153
1.16170805235561
1.16170797570726
1.16170773496833
1.16170699262144
1.16170471182877
1.16169792980695
1.16168058802992
1.16163699823934
1.16177112431911
1.16178624123568
1.16179201170143
1.16179433283018
1.16179512826963
1.16179538766151
1.16179547132639
1.16179549794784
1.16179550612156
1.16179550849068
1.16179550914756
1.1617955092771
1.16179550925415
1.16179550922436
1.16179550919855
1.16179550917778
1.16179550915827
1.16179550914173
1.16179550912851
1.16179550912038
1.16179550910842
1.1617955091048
1.16179550910645
1.16179550909622
1.16179550908556
1.16179550907704
1.1617955090686
1.16179550905737
1.16179550904643
1.1617955090409
1.16179550903862
1.16179550904414
1.16179550903083
1.16179550901696
1.16179550901628
1.16179550901587
1.16179550902427
1.1617955090355
1.16179550903696
1.16179550892274
1.16179550832928
1.16179550607333
1.16179549830277
1.1617954729851
1.1617953932658
1.16179514464554
1.1617943676962
1.16179201851494
1.16178588941889
1.16176873501601
1.16181538357102
1.16182074234364
1.16182262673328
1.16182337539479
1.1618236305929
1.16182371312604
1.16182373954528
1.16182374793771
1.16182375052445
1.16182375127839
1.16182375148342
1.16182375151888
1.1618237515075
1.16182375149292
1.16182375147955
1.16182375146816
1.16182375145757
1.161823751448
1.16182375143925
1.1618237514323
1.16182375142443
1.1618237514186
1.1618237514137
1.16182375140577
1.16182375139834
1.16182375139168
1.16182375138518
1.16182375137815
1.16182375137106
1.16182375136559
1.16182375136155
1.16182375136013
1.16182375135336
1.16182375134728
1.16182375134485
1.16182375134259
1.16182375134374
1.16182375134626
1.16182375134648
1.16182375131022
1.16182375112169
1.16182375041058
1.16182374797808
1.16182374009805
1.16182371530011
1.16182363740781
1.161823391059
1.16182263631361
1.16182062370441
1.16181443510101
1.16182961851232
1.16183138585391
1.16183196667821
1.16183219404352
1.16183227131163
1.16183229617924
1.16183230409209
1.1618323065996
1.16183230737311
1.16183230759788
1.16183230765614
1.16183230766289
1.16183230765584
1.16183230764747
1.16183230763934
1.16183230763183
1.16183230762461
1.16183230761759
1.16183230761072
1.16183230760446
1.16183230759809
1.16183230759205
1.16183230758607
1.16183230757951
1.1618323075733
1.16183230756734
1.16183230756151
1.16183230755569
1.16183230754993
1.1618323075447
1.1618323075401
1.16183230753641
1.16183230753142
1.16183230752698
1.16183230752363
1.16183230752047
1.16183230751859
1.16183230751738
1.16183230751575
1.16183230750326
1.16183230744486
1.16183230723015
1.16183230650375
1.16183230416897
1.16183229684395
1.1618322737518
1.16183220013925
1.16183197214991
1.1618313495675
1.1618292739296
1.16183393062875
1.1618344787316
1.16183464941916
1.16183471508998
1.16183473736432
1.1618347445161
1.1618347467807
1.16183474749514
1.16183474771404
1.16183474777582
1.16183474778934
1.16183474778786
1.16183474778235
1.16183474777626
1.16183474777011
1.16183474776406
1.16183474775803
1.16183474775197
1.16183474774588
1.16183474773992
1.16183474773397
1.16183474772806
1.16183474772215
1.16183474771618
1.16183474771036
1.16183474770467
1.16183474769908
1.16183474769362
1.16183474768828
1.16183474768319
1.16183474767842
1.16183474767405
1.16183474766955
1.16183474766531
1.1618347476615
1.16183474765801
1.16183474765503
1.16183474765244
1.16183474764992
1.16183474764445
1.16183474762588
1.16183474756266
1.16183474735379
1.16183474669013
1.16183474461927
1.16183473808675
1.16183471716529
1.16183465175782
1.16183446852431
1.16183381432135
1.16183516004574
1.16183532122787
1.16183536939234
1.16183538756958
1.16183539372391
1.16183539569806
1.16183539631984
1.16183539651382
1.16183539657136
1.16183539658551
1.16183539658612
1.16183539658241
1.16183539657744
1.16183539657215
1.1618353965667
1.16183539656117
1.16183539655555
1.16183539654985
1.16183539654407
1.16183539653828
1.16183539653248
1.16183539652669
1.16183539652091
1.16183539651515
1.16183539650949
1.16183539650391
1.16183539649844
1.1618353964931
1.1618353964879
1.16183539648288
1.16183539647808
1.16183539647353
1.16183539646911
1.16183539646491
1.16183539646099
1.16183539645734
1.16183539645401
1.16183539645097
1.16183539644814
1.16183539644468
1.16183539643779
1.16183539641879
1.16183539636002
1.16183539617759
1.16183539561376
1.16183539383925
1.16183538814421
1.16183537018745
1.16183531851144
1.16183512311091
1.16183548153737
1.16183552678391
1.16183553990007
1.1618355447493
1.16183554638686
1.16183554691126
1.16183554707454
1.1618355471236
1.16183554713619
1.16183554713705
1.16183554713411
1.16183554712985
1.16183554712508
1.16183554712006
1.16183554711487
1.16183554710954
1.16183554710409
1.16183554709853
1.16183554709289
1.16183554708721
1.16183554708149
1.16183554707578
1.16183554707008
1.16183554706442
1.16183554705883
1.16183554705332
1.16183554704792
1.16183554704264
1.16183554703751
1.16183554703254
1.16183554702776
1.16183554702317
1.16183554701878
1.16183554701461
1.16183554701067
1.16183554700699
1.16183554700356
1.1618355470004
1.16183554699749
1.1618355469946
1.161835546991
1.16183554698439
1.16183554696746
1.16183554691821
1.16183554676934
1.16183554630404
1.16183554481114
1.16183554006618
1.16183552602727
1.16183547034548
1.16183554779788
1.16183555998842
1.16183556344787
1.1618355646997
1.16183556512017
1.16183556525359
1.16183556529348
1.16183556530364
1.16183556530419
1.16183556530151
1.16183556529766
1.16183556529328
1.16183556528861
1.16183556528371
1.16183556527863
1.1618355652734
1.16183556526803
1.16183556526256
1.161835565257
1.16183556525138
1.16183556524574
1.16183556524008
1.16183556523445
1.16183556522885
1.16183556522332
1.16183556521786
1.16183556521252
1.16183556520729
1.16183556520221
1.16183556519728
1.16183556519253
1.16183556518798
1.16183556518361
1.16183556517947
1.16183556517555
1.16183556517187
1.16183556516843
1.16183556516525
1.16183556516233
1.16183556515961
1.16183556515692
1.16183556515366
1.16183556514798
1.16183556513428
1.16183556509558
1.16183556497705
1.16183556459838
1.16183556338602
1.16183555969728
1.16183554447591
1.16183554519717
1.16183554836343
1.1618355492494
1.16183554956258
1.1618355496662
1.16183554969768
1.16183554970544
1.16183554970552
1.16183554970297
1.16183554969941
1.16183554969536
1.161835549691
1.16183554968638
1.16183554968156
1.16183554967655
1.16183554967138
1.16183554966608
1.16183554966067
1.16183554965517
1.16183554964962
1.16183554964403
1.16183554963844
1.16183554963286
1.16183554962732
1.16183554962184
1.16183554961644
1.16183554961114
1.16183554960597
1.16183554960094
1.16183554959605
1.16183554959135
1.16183554958682
1.1618355495825
1.16183554957838
1.16183554957449
1.16183554957083
1.16183554956741
1.16183554956425
1.16183554956134
1.16183554955868
1.16183554955623
1.16183554955385
1.16183554955109
1.16183554954657
1.16183554953616
1.16183554950637
1.16183554941285
1.16183554911208
1.16183554817158
1.16183554416193
1.16183552468407
1.16183552547958
1.16183552570016
1.16183552577568
1.16183552579934
1.16183552580507
1.16183552580474
1.16183552580232
1.16183552579903
1.16183552579528
1.16183552579122
1.1618355257869
1.16183552578234
1.16183552577757
1.16183552577263
1.16183552576752
1.16183552576228
1.16183552575693
1.16183552575149
1.161835525746
1.16183552574047
1.16183552573493
1.16183552572941
1.16183552572393
1.1618355257185
1.16183552571316
1.16183552570792
1.16183552570279
1.16183552569781
1.16183552569297
1.16183552568831
1.16183552568383
1.16183552567954
1.16183552567546
1.1618355256716
1.16183552566797
1.16183552566458
1.16183552566144
1.16183552565855
1.16183552565591
1.16183552565354
1.16183552565139
1.16183552564936
1.16183552564713
1.16183552564374
1.16183552563594
1.16183552561309
1.16183552554019
1.16183552530669
1.16183552428509
1.16183549966144
1.16183549985513
1.1618354999084
1.16183549992539
1.16183549992945
1.16183549992889
1.16183549992662
1.16183549992362
1.16183549992019
1.16183549991645
1.16183549991242
1.16183549990815
1.16183549990365
1.16183549989894
1.16183549989405
1.16183549988901
1.16183549988382
1.16183549987853
1.16183549987316
1.16183549986773
1.16183549986226
1.16183549985678
1.16183549985132
1.16183549984589
1.16183549984053
1.16183549983524
1.16183549983005
1.16183549982498
1.16183549982004
1.16183549981526
1.16183549981064
1.1618354998062
1.16183549980196
1.16183549979792
1.16183549979409
1.1618354997905
1.16183549978713
1.16183549978401
1.16183549978114
1.16183549977853
1.16183549977618
1.16183549977409
1.16183549977224
1.16183549977056
1.16183549976885
1.16183549976632
1.16183549976045
1.16183549974287
1.16183549968605
1.16183549943357
1.16183547353643
1.16183547358199
1.16183547359428
1.16183547359724
1.16183547359666
1.16183547359464
1.16183547359196
1.16183547358887
1.16183547358545
1.16183547358174
1.16183547357777
1.16183547357355
1.16183547356911
1.16183547356446
1.16183547355963
1.16183547355465
1.16183547354953
1.1618354735443
1.16183547353899
1.16183547353361
1.16183547352821
1.16183547352279
1.16183547351739
1.16183547351203
1.16183547350672
1.16183547350149
1.16183547349636
1.16183547349134
1.16183547348646
1.16183547348172
1.16183547347715
1.16183547347276
1.16183547346856
1.16183547346456
1.16183547346077
1.1618354734572
1.16183547345387
1.16183547345078
1.16183547344793
1.16183547344534
1.16183547344301
1.16183547344093
1.16183547343913
1.16183547343757
1.16183547343623
1.1618354734349
1.16183547343299
1.16183547342846
1.16183547341461
1.16183547335399
1.16183544714898
1.16183544715909
1.1618354471616
1.1618354471613
1.16183544715968
1.16183544715738
1.16183544715464
1.16183544715158
1.1618354471482
1.16183544714455
1.16183544714064
1.16183544713648
1.16183544713209
1.16183544712751
1.16183544712274
1.16183544711782
1.16183544711276
1.1618354471076
1.16183544710235
1.16183544709704
1.1618354470917
1.16183544708635
1.16183544708101
1.16183544707571
1.16183544707046
1.16183544706529
1.16183544706021
1.16183544705525
1.16183544705042
1.16183544704574
1.16183544704122
1.16183544703687
1.16183544703271
1.16183544702875
1.161835447025
1.16183544702148
1.16183544701817
1.16183544701511
1.16183544701228
1.16183544700971
1.16183544700739
1.16183544700533
1.16183544700353
1.16183544700199
1.16183544700072
1.16183544699965
1.16183544699861
1.16183544699706
1.16183544699339
1.16183544697929
1.1618354207005
1.16183542070234
1.16183542070258
1.16183542070158
1.16183542069977
1.16183542069745
1.16183542069475
1.16183542069173
1.16183542068842
1.16183542068482
1.16183542068097
1.16183542067687
1.16183542067255
1.16183542066802
1.16183542066332
1.16183542065846
1.16183542065347
1.16183542064837
1.16183542064319
1.16183542063795
1.16183542063267
1.16183542062739
1.16183542062211
1.16183542061687
1.16183542061168
1.16183542060657
1.16183542060156
1.16183542059665
1.16183542059188
1.16183542058725
1.16183542058278
1.16183542057848
1.16183542057437
1.16183542057045
1.16183542056674
1.16183542056324
1.16183542055997
1.16183542055694
1.16183542055414
1.16183542055158
1.16183542054928
1.16183542054722
1.16183542054543
1.16183542054389
1.16183542054262
1.16183542054158
1.16183542054071
1.1618354205398
1.16183542053848
1.16183542053536
1.16183539423809
1.16183539423805
1.16183539423779
1.16183539423667
1.16183539423486
1.16183539423258
1.16183539422994
1.16183539422698
1.16183539422372
1.16183539422019
1.16183539421639
1.16183539421235
1.1618353942081
1.16183539420364
1.161835394199
1.16183539419421
1.16183539418928
1.16183539418425
1.16183539417913
1.16183539417396
1.16183539416875
1.16183539416353
1.16183539415832
1.16183539415314
1.16183539414802
1.16183539414297
1.16183539413801
1.16183539413317
1.16183539412845
1.16183539412387
1.16183539411945
1.1618353941152
1.16183539411114
1.16183539410726
1.16183539410359
1.16183539410013
1.1618353940969
1.16183539409389
1.16183539409111
1.16183539408858
1.16183539408628
1.16183539408424
1.16183539408245
1.16183539408091
1.16183539407963
1.16183539407858
1.16183539407772
1.16183539407693
1.16183539407613
1.16183539407553
1.16183536777252
1.16183536777207
1.16183536777171
1.1618353677706
1.16183536776883
1.1618353677666
1.16183536776402
1.16183536776113
1.16183536775793
1.16183536775445
1.16183536775072
1.16183536774675
1.16183536774255
1.16183536773816
1.16183536773359
1.16183536772886
1.161835367724
1.16183536771904
1.16183536771399
1.16183536770889
1.16183536770374
1.16183536769859
1.16183536769345
1.16183536768833
1.16183536768327
1.16183536767829
1.16183536767339
1.1618353676686
1.16183536766394
1.16183536765942
1.16183536765505
1.16183536765085
1.16183536764683
1.161835367643
1.16183536763937
1.16183536763595
1.16183536763275
1.16183536762977
1.16183536762701
1.1618353676245
1.16183536762222
1.16183536762019
1.1618353676184
1.16183536761685
1.16183536761556
1.1618353676145
1.16183536761363
1.16183536761285
1.16183536761215
1.16183536761212
1.16183534130622
1.16183534130569
1.16183534130532
1.16183534130424
1.16183534130252
1.16183534130035
1.16183534129783
1.16183534129499
1.16183534129185
1.16183534128844
1.16183534128477
1.16183534128086
1.16183534127673
1.1618353412724
1.1618353412679
1.16183534126324
1.16183534125845
1.16183534125356
1.16183534124858
1.16183534124354
1.16183534123847
1.16183534123338
1.1618353412283
1.16183534122326
1.16183534121826
1.16183534121334
1.1618353412085
1.16183534120378
1.16183534119917
1.1618353411947
1.16183534119039
1.16183534118624
1.16183534118227
1.16183534117848
1.16183534117489
1.16183534117151
1.16183534116834
1.16183534116538
1.16183534116266
1.16183534116016
1.1618353411579
1.16183534115587
1.16183534115409
1.16183534115254
1.16183534115124
1.16183534115016
1.16183534114928
1.16183534114848
1.1618353411478
1.16183534114789
1.16183531483973
1.16183531483919
1.16183531483883
1.1618353148378
1.16183531483612
1.161835314834
1.16183531483154
1.16183531482876
1.16183531482569
1.16183531482234
1.16183531481873
1.16183531481488
1.16183531481082
1.16183531480656
1.16183531480212
1.16183531479753
1.16183531479281
1.16183531478799
1.16183531478308
1.16183531477811
1.1618353147731
1.16183531476809
1.16183531476308
1.1618353147581
1.16183531475317
1.16183531474831
1.16183531474353
1.16183531473887
1.16183531473432
1.16183531472991
1.16183531472565
1.16183531472155
1.16183531471762
1.16183531471388
1.16183531471033
1.16183531470698
1.16183531470385
1.16183531470092
1.16183531469822
1.16183531469575
1.1618353146935
1.16183531469148
1.1618353146897
1.16183531468816
1.16183531468685
1.16183531468576
1.16183531468486
1.16183531468405
1.16183531468337
1.16183531468348
1.16183528837319
1.16183528837264
1.1618352883723
1.16183528837131
1.16183528836968
1.16183528836762
1.16183528836521
1.16183528836249
1.16183528835948
1.16183528835619
1.16183528835265
1.16183528834887
1.16183528834487
1.16183528834068
1.16183528833631
1.16183528833179
1.16183528832714
1.16183528832238
1.16183528831754
1.16183528831264
1.16183528830771
1.16183528830276
1.16183528829781
1.1618352882929
1.16183528828804
1.16183528828324
1.16183528827853
1.16183528827392
1.16183528826943
1.16183528826508
1.16183528826087
1.16183528825682
1.16183528825294
1.16183528824925
1.16183528824574
1.16183528824243
1.16183528823932
1.16183528823643
1.16183528823375
1.1618352882313
1.16183528822907
1.16183528822706
1.16183528822529
1.16183528822374
1.16183528822242
1.16183528822132
1.16183528822042
1.16183528821959
1.16183528821891
1.16183528821902
1.16183526190664
1.1618352619061
1.16183526190577
1.16183526190481
1.16183526190324
1.16183526190123
1.16183526189888
1.16183526189622
1.16183526189327
1.16183526189004
1.16183526188656
1.16183526188285
1.16183526187892
1.16183526187479
1.16183526187049
1.16183526186604
1.16183526186146
1.16183526185677
1.161835261852
1.16183526184717
1.1618352618423
1.16183526183742
1.16183526183255
1.1618352618277
1.1618352618229
1.16183526181817
1.16183526181352
1.16183526180897
1.16183526180454
1.16183526180024
1.16183526179609
1.16183526179209
1.16183526178826
1.16183526178461
1.16183526178114
1.16183526177787
1.16183526177479
1.16183526177193
1.16183526176928
1.16183526176684
1.16183526176463
1.16183526176263
1.16183526176086
1.16183526175932
1.16183526175799
1.16183526175689
1.16183526175597
1.16183526175513
1.16183526175445
1.16183526175456
1.1618352354401
1.16183523543956
1.16183523543925
1.16183523543833
1.1618352354368
1.16183523543485
1.16183523543256
1.16183523542996
1.16183523542706
1.1618352354239
1.16183523542049
1.16183523541684
1.16183523541297
1.16183523540892
1.16183523540468
1.1618352354003
1.16183523539579
1.16183523539117
1.16183523538647
1.16183523538171
1.16183523537691
1.1618352353721
1.16183523536729
1.16183523536251
1.16183523535778
1.16183523535311
1.16183523534852
1.16183523534403
1.16183523533966
1.16183523533542
1.16183523533132
1.16183523532737
1.16183523532358
1.16183523531998
1.16183523531655
1.16183523531331
1.16183523531028
1.16183523530744
1.16183523530481
1.1618352353024
1.1618352353002
1.16183523529821
1.16183523529645
1.1618352352949
1.16183523529358
1.16183523529246
1.16183523529153
1.16183523529068
1.16183523529
1.16183523529011
1.1618352089736
1.16183520897306
1.16183520897277
1.16183520897189
1.16183520897041
1.16183520896851
1.16183520896628
1.16183520896373
1.1618352089609
1.1618352089578
1.16183520895445
1.16183520895087
1.16183520894707
1.16183520894308
1.16183520893892
1.1618352089346
1.16183520893016
1.16183520892561
1.16183520892098
1.16183520891629
1.16183520891156
1.16183520890681
1.16183520890207
1.16183520889736
1.16183520889269
1.16183520888808
1.16183520888355
1.16183520887913
1.16183520887481
1.16183520887062
1.16183520886657
1.16183520886268
1.16183520885894
1.16183520885538
1.16183520885199
1.16183520884879
1.16183520884578
1.16183520884298
1.16183520884037
1.16183520883798
1.16183520883579
1.16183520883382
1.16183520883206
1.16183520883052
1.16183520882918
1.16183520882806
1.16183520882712
1.16183520882626
1.16183520882558
1.16183520882569
1.16183518250715
1.16183518250662
1.16183518250635
1.16183518250551
1.16183518250407
1.16183518250222
1.16183518250005
1.16183518249757
1.1618351824948
1.16183518249176
1.16183518248847
1.16183518248496
1.16183518248122
1.1618351824773
1.1618351824732
1.16183518246896
1.16183518246458
1.1618351824601
1.16183518245554
1.16183518245092
1.16183518244626
1.16183518244158
1.1618351824369
1.16183518243225
1.16183518242765
1.1618351824231
1.16183518241864
1.16183518241427
1.16183518241001
1.16183518240588
1.16183518240188
1.16183518239803
1.16183518239434
1.16183518239082
1.16183518238747
1.16183518238431
1.16183518238134
1.16183518237856
1.16183518237598
1.1618351823736
1.16183518237143
1.16183518236947
1.16183518236771
1.16183518236617
1.16183518236483
1.1618351823637
1.16183518236275
1.16183518236188
1.16183518236119
1.1618351823613
1.16183515604077
1.16183515604025
1.16183515604
1.1618351560392
1.16183515603781
1.16183515603602
1.16183515603391
1.16183515603149
1.16183515602878
1.1618351560258
1.16183515602258
1.16183515601913
1.16183515601546
1.1618351560116
1.16183515600757
1.16183515600339
1.16183515599909
1.16183515599468
1.16183515599018
1.16183515598562
1.16183515598103
1.16183515597642
1.16183515597181
1.16183515596722
1.16183515596268
1.16183515595819
1.16183515595379
1.16183515594948
1.16183515594528
1.1618351559412
1.16183515593725
1.16183515593345
1.1618351559298
1.16183515592632
1.16183515592302
1.16183515591989
1.16183515591695
1.1618351559142
1.16183515591164
1.16183515590928
1.16183515590713
1.16183515590517
1.16183515590342
1.16183515590187
1.16183515590053
1.16183515589939
1.16183515589843
1.16183515589754
1.16183515589685
1.16183515589696
1.16183512957449
1.16183512957397
1.16183512957375
1.16183512957299
1.16183512957166
1.16183512956992
1.16183512956787
1.1618351295655
1.16183512956286
1.16183512955994
1.16183512955678
1.16183512955339
1.16183512954979
1.161835129546
1.16183512954204
1.16183512953793
1.16183512953369
1.16183512952934
1.16183512952491
1.16183512952042
1.16183512951589
1.16183512951134
1.1618351295068
1.16183512950227
1.16183512949779
1.16183512949337
1.16183512948902
1.16183512948477
1.16183512948062
1.16183512947659
1.1618351294727
1.16183512946894
1.16183512946534
1.16183512946191
1.16183512945864
1.16183512945554
1.16183512945263
1.16183512944991
1.16183512944737
1.16183512944503
1.16183512944289
1.16183512944094
1.1618351294392
1.16183512943765
1.1618351294363
1.16183512943514
1.16183512943417
1.16183512943327
1.16183512943257
1.16183512943268
1.16183510310831
1.16183510310781
1.16183510310761
1.1618351031069
1.16183510310562
1.16183510310394
1.16183510310195
1.16183510309964
1.16183510309706
1.16183510309421
1.16183510309111
1.16183510308778
1.16183510308425
1.16183510308052
1.16183510307662
1.16183510307257
1.1618351030684
1.16183510306412
1.16183510305975
1.16183510305533
1.16183510305086
1.16183510304638
1.16183510304189
1.16183510303743
1.16183510303301
1.16183510302865
1.16183510302436
1.16183510302016
1.16183510301607
1.16183510301209
1.16183510300824
1.16183510300454
1.16183510300098
1.16183510299758
1.16183510299435
1.16183510299129
1.16183510298841
1.16183510298571
1.1618351029832
1.16183510298087
1.16183510297874
1.1618351029768
1.16183510297506
1.16183510297351
1.16183510297214
1.16183510297098
1.16183510296999
1.16183510296907
1.16183510296836
1.16183510296846
1.16183507664226
1.16183507664178
1.1618350766416
1.16183507664095
1.16183507663971
1.1618350766381
1.16183507663617
1.16183507663392
1.1618350766314
1.16183507662861
1.16183507662557
1.16183507662231
1.16183507661884
1.16183507661517
1.16183507661134
1.16183507660735
1.16183507660324
1.16183507659903
1.16183507659473
1.16183507659036
1.16183507658596
1.16183507658154
1.16183507657711
1.16183507657271
1.16183507656835
1.16183507656404
1.16183507655981
1.16183507655567
1.16183507655162
1.1618350765477
1.1618350765439
1.16183507654024
1.16183507653672
1.16183507653336
1.16183507653017
1.16183507652714
1.16183507652429
1.16183507652161
1.16183507651912
1.16183507651681
1.16183507651469
1.16183507651276
1.16183507651102
1.16183507650946
1.16183507650808
1.1618350765069
1.1618350765059
1.16183507650495
1.16183507650422
1.16183507650432
1.16183505017635
1.16183505017589
1.16183505017574
1.16183505017515
1.16183505017397
1.16183505017241
1.16183505017055
1.16183505016836
1.1618350501659
1.16183505016317
1.1618350501602
1.16183505015699
1.16183505015358
1.16183505014998
1.16183505014621
1.16183505014229
1.16183505013824
1.16183505013408
1.16183505012984
1.16183505012554
1.1618350501212
1.16183505011684
1.16183505011247
1.16183505010813
1.16183505010382
1.16183505009957
1.1618350500954
1.1618350500913
1.16183505008731
1.16183505008343
1.16183505007968
1.16183505007606
1.16183505007259
1.16183505006927
1.16183505006611
1.16183505006311
1.16183505006028
1.16183505005763
1.16183505005516
1.16183505005287
1.16183505005076
1.16183505004883
1.16183505004708
1.16183505004552
1.16183505004413
1.16183505004293
1.1618350500419
1.16183505004092
1.16183505004018
1.16183505004026
1.1618350237106
1.16183502371016
1.16183502371005
1.16183502370952
1.16183502370839
1.1618350237069
1.1618350237051
1.16183502370298
1.16183502370057
1.16183502369791
1.16183502369499
1.16183502369185
1.1618350236885
1.16183502368496
1.16183502368124
1.16183502367738
1.16183502367339
1.1618350236693
1.16183502366512
1.16183502366088
1.16183502365659
1.16183502365229
1.16183502364798
1.1618350236437
1.16183502363945
1.16183502363525
1.16183502363112
1.16183502362708
1.16183502362314
1.16183502361931
1.1618350236156
1.16183502361202
1.16183502360859
1.1618350236053
1.16183502360217
1.16183502359921
1.16183502359641