/*--------------------------------*- C++ -*----------------------------------*\
  =========                 |
  \\      /  F ield         | OpenFOAM: The Open Source CFD Toolbox
   \\    /   O peration     | Website:  https://openfoam.org
    \\  /    A nd           | Version:  10
     \\/     M anipulation  |
\*---------------------------------------------------------------------------*/
FoamFile
{
    format      ascii;
    class       volScalarField;
    location    "2.8";
    object      T;
}
// * * * * * * * * * * * * * * * * * * * * * * * * * * * * * * * * * * * * * //

dimensions      [0 0 0 1 0 0 0];

internalField   nonuniform List<scalar> 
2500
(
305.186800011213
305.148549108572
305.122893518407
305.113049951262
305.109715273153
305.108622317648
305.108277538507
305.108173201677
305.108142140308
305.108133359694
305.108129421143
305.108127535825
305.108126535847
305.108125361299
305.108124273267
305.108123077572
305.108122450238
305.108121679511
305.108120804117
305.108120178604
305.108119583085
305.108118977413
305.108118444262
305.108118221621
305.108117982265
305.108117651787
305.108117554806
305.108117457535
305.108117360383
305.108117460644
305.108117583766
305.10811772594
305.108118077162
305.108118556473
305.108119004219
305.108119466163
305.108119995106
305.1081204719
305.108121534689
305.10812302216
305.108126534208
305.108137220711
305.108172508588
305.108288092357
305.108655329185
305.109769082524
305.113093431663
305.12291152324
305.148934928192
305.186686291313
303.270018087833
303.167472176363
303.096087774542
303.065442120465
303.053562978971
303.049183944403
303.047664943652
303.047175344101
303.047028851927
303.046988120888
303.046976821867
303.046973672315
303.046972823922
303.046972270405
303.046971809849
303.046971343543
303.046971079599
303.046970763285
303.046970389098
303.046970085262
303.046969717377
303.046969250452
303.046968804976
303.04696867307
303.046968591034
303.046968370987
303.04696833834
303.046968300566
303.046968167274
303.04696831376
303.046968367249
303.046968246897
303.046968658603
303.046969245057
303.046969506892
303.04696967435
303.046969902488
303.046970244225
303.046971453121
303.04697531255
303.04698935086
303.047039235203
303.047207258861
303.047739630216
303.049319314424
303.053725501777
303.065496853745
303.096045564529
303.168777689133
303.271257704261
301.77220077413
301.660387383012
301.58457161076
301.55165310228
301.538858185375
301.53412615424
301.53247310393
301.531935127983
301.531772766423
301.531727300318
301.531714995872
301.531711848853
301.531711354864
301.531711183227
301.531711084832
301.531711027107
301.531711000669
301.53171095574
301.531710850924
301.531710755671
301.531710589445
301.531710323605
301.531710029728
301.531709900968
301.53170987068
301.531709787884
301.53170981171
301.531709827201
301.531709758859
301.531709859449
301.531709854816
301.531709701149
301.531710012865
301.531710482796
301.53171050668
301.531710433913
301.531710534171
301.53171071232
301.531711734241
301.531715642649
301.531730487746
301.531784103972
301.531965068741
301.532538055489
301.534236123579
301.538976600226
301.551673977441
301.584640375701
301.662260977075
301.776828555573
300.843416371812
300.760651579686
300.71105531815
300.690018939142
300.682197674686
300.679416096784
300.678467666028
300.678162304661
300.678070367247
300.678044586841
300.67803756366
300.678035859992
300.678035747749
300.678035738506
300.678035759732
300.678035787608
300.678035809387
300.678035820809
300.678035804625
300.678035797041
300.678035764986
300.67803565386
300.678035491746
300.678035410051
300.678035420658
300.678035418902
300.678035419824
300.678035451282
300.678035478829
300.678035488788
300.678035470467
300.678035382797
300.678035531007
300.678035775994
300.678035768623
300.678035748222
300.678035749927
300.67803571647
300.678036167547
300.678038127696
300.678045899434
300.678074656181
300.678173165359
300.678490500049
300.679453137433
300.682233026605
300.69002713071
300.711242456894
300.762327787775
300.849104658838
300.359449272015
300.311326780549
300.28590350238
300.27531595015
300.271510322207
300.270199212888
300.269760603407
300.269620190026
300.269577788208
300.269565822377
300.269562525298
300.269561755939
300.269561759688
300.269561791709
300.269561826729
300.269561856485
300.269561884737
300.269561906697
300.269561912884
300.269561917515
300.269561915845
300.269561881698
300.269561808528
300.269561772848
300.269561792927
300.269561802639
300.269561805317
300.269561829706
300.269561847495
300.269561844537
300.269561834043
300.269561788427
300.269561852009
300.269561952877
300.269561947408
300.269561940606
300.269561925904
300.269561888011
300.269562023397
300.26956281247
300.269566182347
300.269578828028
300.269622506083
300.269764667621
300.270203322365
300.271505763988
300.275299870055
300.28602577844
300.312409283047
300.363956005064
300.139467092904
300.115915026684
300.104875435791
300.100338513934
300.09874539343
300.098209750772
300.098033229263
300.097976885558
300.097959779532
300.09795491139
300.097953555327
300.097953248856
300.097953268292
300.097953295125
300.097953318501
300.097953336508
300.097953354761
300.097953369552
300.097953376832
300.097953379697
300.097953384047
300.097953374204
300.097953347441
300.09795333894
300.09795334766
300.097953353123
300.09795335711
300.097953369358
300.097953378737
300.097953377098
300.097953372158
300.097953352279
300.097953376089
300.097953410671
300.097953407729
300.097953404506
300.097953392471
300.097953375755
300.097953401911
300.097953679467
300.097954980113
300.097959895285
300.097976922321
300.098032590461
300.098206310663
300.098733417413
300.100316012062
300.104920659917
300.116471078273
300.142213594912
300.04993824844
300.039833252848
300.035586436599
300.033859793598
300.033262596098
300.03306537785
300.033001155768
300.032980691549
300.03297444124
300.032972644944
300.032972142331
300.032972034114
300.032972045643
300.032972060166
300.032972072131
300.032972081161
300.032972090033
300.03297209707
300.032972101285
300.032972102593
300.032972105842
300.032972103133
300.032972095024
300.032972095255
300.032972098702
300.032972100667
300.032972102719
300.032972107443
300.032972111412
300.032972111133
300.032972109145
300.032972101511
300.032972109343
300.032972119441
300.032972117805
300.032972116054
300.032972109274
300.032972101045
300.032972103173
300.032972195054
300.032972655088
300.032974404868
300.032980459746
300.033000255246
300.033062430371
300.033254155602
300.03384321554
300.035594821182
300.040073807041
300.051332646847
300.016685036433
300.012781282193
300.011291158161
300.010691769885
300.010486362555
300.010419378916
300.010397773269
300.010390897901
300.010388786215
300.010388173376
300.010388002619
300.010387967965
300.010387972629
300.010387978998
300.010387984291
300.010387988238
300.010387991822
300.010387994613
300.010387996521
300.010387997103
300.010387998664
300.01038799807
300.01038799612
300.01038799725
300.010387998509
300.010387999237
300.010387999975
300.010388001466
300.010388002921
300.010388003021
300.010388002328
300.010387999675
300.01038800194
300.010388004406
300.010388003527
300.010388002642
300.01038799955
300.010387995797
300.010387994639
300.010388023423
300.010388176038
300.010388758041
300.010390764165
300.010397301574
300.010417887239
300.0104820884
300.010682720282
300.01128935206
300.012872086377
300.017302006181
300.005249094227
300.003865351937
300.003378767525
300.003185449026
300.00311955166
300.003098239318
300.003091416545
300.00308924856
300.003088579634
300.003088383897
300.003088329826
300.003088319476
300.003088321158
300.003088323609
300.003088325696
300.00308832723
300.003088328521
300.00308832952
300.003088330287
300.00308833057
300.003088331086
300.003088331072
300.003088330821
300.003088331367
300.0030883318
300.003088332057
300.0030883323
300.003088332716
300.003088333183
300.003088333276
300.003088333045
300.00308833219
300.003088332772
300.003088333232
300.003088332812
300.003088332411
300.003088331195
300.003088329694
300.003088328858
300.003088337515
300.003088385568
300.00308856864
300.003089196292
300.003091230686
300.003097633702
300.003117746776
300.003181358363
300.003376247322
300.003895940133
300.005493962621
300.0015665433
300.001110189911
300.000960212584
300.000901502998
300.000881550597
300.000875128614
300.000873084548
300.000872436165
300.00087223545
300.00087217636
300.000872160198
300.000872157268
300.000872157839
300.000872158696
300.000872159442
300.000872159983
300.000872160415
300.000872160765
300.000872161054
300.000872161172
300.000872161309
300.000872161361
300.000872161401
300.000872161601
300.00087216173
300.000872161815
300.000872161896
300.000872162006
300.000872162138
300.000872162177
300.000872162101
300.00087216184
300.000872161968
300.00087216201
300.000872161834
300.000872161671
300.000872161243
300.000872160709
300.000872160354
300.000872162878
300.000872177332
300.000872232228
300.000872419334
300.000873021842
300.000874913017
300.000880875631
300.000899883384
300.0009587536
300.001119513168
300.001655473172
300.000446261563
300.000304734128
300.000260660064
300.000243702355
300.000237950145
300.000236102662
300.000235517064
300.000235331682
300.000235274183
300.000235257188
300.000235252584
300.000235251788
300.000235251972
300.000235252248
300.000235252493
300.000235252669
300.000235252805
300.000235252919
300.000235253019
300.00023525307
300.000235253111
300.000235253138
300.00023525317
300.000235253232
300.000235253268
300.000235253294
300.000235253322
300.00023525335
300.000235253384
300.000235253395
300.000235253371
300.000235253294
300.000235253303
300.000235253302
300.000235253249
300.000235253177
300.000235253039
300.000235252867
300.000235252746
300.000235253463
300.000235257635
300.000235273415
300.000235326891
300.000235497892
300.000236032365
300.000237719026
300.000243121176
300.000260010379
300.000307323681
300.000476247428
300.000121976907
300.000080357462
300.00006792046
300.000063226255
300.000061636461
300.000061125931
300.000060964542
300.000060913558
300.000060897732
300.000060893043
300.000060891783
300.000060891573
300.000060891628
300.000060891711
300.000060891785
300.000060891838
300.000060891878
300.000060891913
300.000060891944
300.000060891964
300.000060891977
300.000060891987
300.000060891998
300.000060892015
300.000060892024
300.000060892032
300.000060892041
300.000060892049
300.000060892056
300.000060892059
300.000060892052
300.00006089203
300.000060892025
300.000060892023
300.000060892006
300.00006089198
300.000060891939
300.000060891888
300.000060891853
300.000060892052
300.000060893213
300.000060897579
300.000060912298
300.000060959036
300.000061104366
300.000061562427
300.000063032897
300.000067669666
300.000081013108
300.000131468062
300.000032130097
300.000020446691
300.000017059623
300.000015806924
300.000015383444
300.000015247283
300.000015204297
300.000015190745
300.000015186537
300.000015185289
300.000015184954
300.000015184899
300.000015184913
300.000015184935
300.000015184956
300.00001518497
300.000015184981
300.00001518499
300.000015184999
300.000015185005
300.000015185009
300.000015185012
300.000015185015
300.000015185018
300.000015185021
300.000015185023
300.000015185026
300.000015185028
300.000015185029
300.000015185029
300.000015185027
300.000015185022
300.00001518502
300.000015185019
300.000015185013
300.000015185005
300.000015184994
300.000015184981
300.000015184973
300.000015185028
300.000015185341
300.000015186509
300.000015190423
300.00001520277
300.000015240944
300.00001536093
300.000015746332
300.000016971599
300.000020596649
300.000034974461
300.000008187068
300.000005039157
300.000004145594
300.000003821832
300.000003712642
300.000003677461
300.000003666355
300.000003662858
300.000003661772
300.000003661449
300.000003661361
300.000003661344
300.000003661347
300.000003661351
300.000003661356
300.000003661359
300.000003661361
300.000003661362
300.000003661364
300.000003661365
300.000003661366
300.000003661366
300.000003661367
300.000003661367
300.000003661368
300.000003661368
300.000003661369
300.000003661369
300.000003661369
300.000003661369
300.000003661369
300.000003661368
300.000003661367
300.000003661367
300.000003661366
300.000003661364
300.000003661362
300.00000366136
300.000003661359
300.000003661375
300.000003661458
300.000003661762
300.000003662772
300.000003665934
300.000003675651
300.000003706074
300.000003803746
300.00000411681
300.000005069294
300.000008999701
300.000002024823
300.000001207111
300.000000978072
300.000000896718
300.000000869366
300.00000086053
300.000000857737
300.000000856857
300.000000856583
300.0000008565
300.000000856476
300.00000085647
300.000000856468
300.000000856468
300.000000856468
300.000000856468
300.000000856467
300.000000856467
300.000000856466
300.000000856466
300.000000856466
300.000000856465
300.000000856465
300.000000856465
300.000000856464
300.000000856464
300.000000856464
300.000000856464
300.000000856464
300.000000856464
300.000000856465
300.000000856464
300.000000856465
300.000000856465
300.000000856465
300.000000856466
300.000000856466
300.000000856466
300.000000856468
300.000000856473
300.000000856496
300.000000856574
300.000000856829
300.000000857617
300.000000860021
300.000000867512
300.000000891533
300.000000969176
300.000001212012
300.000002247392
300.000000487745
300.000000282208
300.000000224999
300.000000205041
300.000000198358
300.000000196193
300.000000195506
300.000000195288
300.000000195218
300.000000195196
300.000000195188
300.000000195184
300.000000195182
300.000000195181
300.000000195179
300.000000195178
300.000000195177
300.000000195176
300.000000195175
300.000000195174
300.000000195173
300.000000195173
300.000000195172
300.000000195171
300.000000195171
300.000000195171
300.000000195171
300.000000195171
300.000000195171
300.000000195171
300.000000195171
300.000000195171
300.000000195172
300.000000195172
300.000000195173
300.000000195174
300.000000195175
300.000000195176
300.000000195178
300.000000195181
300.000000195188
300.000000195209
300.000000195273
300.000000195466
300.000000196048
300.000000197845
300.000000203602
300.000000222375
300.000000282639
300.000000546449
300.000000115058
300.000000064931
300.000000050937
300.000000046119
300.000000044515
300.000000043994
300.000000043827
300.000000043772
300.000000043753
300.000000043745
300.000000043741
300.000000043738
300.000000043736
300.000000043734
300.000000043732
300.00000004373
300.000000043729
300.000000043728
300.000000043726
300.000000043725
300.000000043725
300.000000043724
300.000000043723
300.000000043723
300.000000043722
300.000000043722
300.000000043722
300.000000043722
300.000000043722
300.000000043722
300.000000043722
300.000000043722
300.000000043723
300.000000043724
300.000000043724
300.000000043725
300.000000043727
300.000000043728
300.00000004373
300.000000043732
300.000000043736
300.000000043743
300.00000004376
300.000000043809
300.000000043948
300.000000044371
300.000000045727
300.000000050191
300.000000064821
300.00000013002
300.000000026992
300.000000015124
300.000000011723
300.000000010548
300.000000010162
300.000000010036
300.000000009994
300.000000009979
300.000000009972
300.000000009967
300.000000009964
300.000000009961
300.000000009959
300.000000009957
300.000000009955
300.000000009954
300.000000009952
300.000000009951
300.000000009949
300.000000009948
300.000000009948
300.000000009947
300.000000009946
300.000000009946
300.000000009945
300.000000009945
300.000000009945
300.000000009944
300.000000009944
300.000000009945
300.000000009945
300.000000009945
300.000000009946
300.000000009947
300.000000009947
300.000000009949
300.00000000995
300.000000009951
300.000000009953
300.000000009955
300.000000009958
300.000000009962
300.000000009968
300.000000009982
300.000000010016
300.000000010117
300.000000010439
300.000000011514
300.000000015037
300.000000030683
300.000000006665
300.000000003958
300.000000003091
300.000000002775
300.000000002674
300.000000002642
300.000000002629
300.000000002623
300.000000002619
300.000000002615
300.000000002612
300.00000000261
300.000000002607
300.000000002605
300.000000002603
300.000000002602
300.0000000026
300.000000002599
300.000000002598
300.000000002596
300.000000002596
300.000000002595
300.000000002594
300.000000002593
300.000000002593
300.000000002593
300.000000002592
300.000000002592
300.000000002592
300.000000002593
300.000000002593
300.000000002593
300.000000002594
300.000000002595
300.000000002595
300.000000002597
300.000000002598
300.000000002599
300.000000002601
300.000000002603
300.000000002606
300.000000002609
300.000000002612
300.000000002618
300.000000002628
300.000000002655
300.00000000274
300.000000003031
300.000000003915
300.000000007543
300.000000002073
300.000000001505
300.000000001232
300.000000001113
300.000000001078
300.000000001067
300.000000001062
300.000000001058
300.000000001054
300.000000001051
300.000000001048
300.000000001046
300.000000001043
300.000000001041
300.000000001039
300.000000001037
300.000000001036
300.000000001034
300.000000001033
300.000000001032
300.000000001031
300.00000000103
300.00000000103
300.000000001029
300.000000001028
300.000000001028
300.000000001028
300.000000001028
300.000000001028
300.000000001028
300.000000001028
300.000000001029
300.000000001029
300.00000000103
300.000000001031
300.000000001032
300.000000001033
300.000000001035
300.000000001037
300.000000001039
300.000000001041
300.000000001044
300.000000001047
300.000000001051
300.000000001055
300.000000001065
300.000000001097
300.00000000121
300.000000001482
300.000000002268
300.000000001056
300.000000000975
300.000000000838
300.000000000765
300.000000000745
300.000000000739
300.000000000735
300.000000000732
300.000000000728
300.000000000725
300.000000000722
300.00000000072
300.000000000717
300.000000000715
300.000000000713
300.000000000712
300.00000000071
300.000000000709
300.000000000707
300.000000000706
300.000000000705
300.000000000704
300.000000000704
300.000000000703
300.000000000703
300.000000000702
300.000000000702
300.000000000702
300.000000000702
300.000000000702
300.000000000702
300.000000000703
300.000000000703
300.000000000704
300.000000000705
300.000000000706
300.000000000708
300.000000000709
300.000000000711
300.000000000713
300.000000000715
300.000000000718
300.000000000721
300.000000000724
300.000000000727
300.000000000733
300.000000000754
300.000000000827
300.000000000959
300.000000001089
300.000000000834
300.000000000863
300.000000000757
300.000000000693
300.000000000677
300.000000000672
300.000000000669
300.000000000665
300.000000000662
300.000000000659
300.000000000656
300.000000000654
300.000000000651
300.000000000649
300.000000000647
300.000000000645
300.000000000644
300.000000000642
300.000000000641
300.00000000064
300.000000000639
300.000000000638
300.000000000637
300.000000000637
300.000000000636
300.000000000636
300.000000000636
300.000000000636
300.000000000636
300.000000000636
300.000000000636
300.000000000637
300.000000000637
300.000000000638
300.000000000639
300.00000000064
300.000000000641
300.000000000643
300.000000000645
300.000000000647
300.000000000649
300.000000000652
300.000000000654
300.000000000657
300.000000000661
300.000000000665
300.000000000683
300.000000000748
300.000000000848
300.00000000083
300.000000000787
300.000000000839
300.00000000074
300.000000000679
300.000000000663
300.000000000659
300.000000000656
300.000000000652
300.000000000649
300.000000000646
300.000000000643
300.000000000641
300.000000000638
300.000000000636
300.000000000634
300.000000000632
300.000000000631
300.000000000629
300.000000000628
300.000000000627
300.000000000626
300.000000000625
300.000000000624
300.000000000624
300.000000000623
300.000000000623
300.000000000623
300.000000000623
300.000000000623
300.000000000623
300.000000000623
300.000000000624
300.000000000624
300.000000000625
300.000000000626
300.000000000627
300.000000000628
300.00000000063
300.000000000632
300.000000000634
300.000000000636
300.000000000639
300.000000000641
300.000000000644
300.000000000647
300.000000000652
300.000000000669
300.000000000731
300.000000000825
300.000000000774
300.000000000776
300.000000000834
300.000000000736
300.000000000676
300.000000000661
300.000000000656
300.000000000653
300.00000000065
300.000000000647
300.000000000644
300.000000000641
300.000000000638
300.000000000636
300.000000000634
300.000000000632
300.00000000063
300.000000000628
300.000000000627
300.000000000626
300.000000000625
300.000000000624
300.000000000623
300.000000000622
300.000000000621
300.000000000621
300.000000000621
300.00000000062
300.00000000062
300.00000000062
300.00000000062
300.000000000621
300.000000000621
300.000000000622
300.000000000622
300.000000000623
300.000000000625
300.000000000626
300.000000000628
300.000000000629
300.000000000631
300.000000000634
300.000000000636
300.000000000639
300.000000000642
300.000000000645
300.000000000649
300.000000000666
300.000000000728
300.00000000082
300.000000000762
300.000000000774
300.000000000833
300.000000000736
300.000000000675
300.00000000066
300.000000000656
300.000000000653
300.000000000649
300.000000000646
300.000000000643
300.000000000641
300.000000000638
300.000000000636
300.000000000633
300.000000000631
300.00000000063
300.000000000628
300.000000000627
300.000000000625
300.000000000624
300.000000000623
300.000000000622
300.000000000622
300.000000000621
300.00000000062
300.00000000062
300.00000000062
300.00000000062
300.00000000062
300.00000000062
300.00000000062
300.000000000621
300.000000000621
300.000000000622
300.000000000623
300.000000000624
300.000000000626
300.000000000627
300.000000000629
300.000000000631
300.000000000633
300.000000000636
300.000000000638
300.000000000641
300.000000000644
300.000000000649
300.000000000665
300.000000000727
300.000000000819
300.000000000759
300.000000000774
300.000000000833
300.000000000735
300.000000000675
300.00000000066
300.000000000656
300.000000000653
300.000000000649
300.000000000646
300.000000000643
300.00000000064
300.000000000638
300.000000000635
300.000000000633
300.000000000631
300.000000000629
300.000000000628
300.000000000626
300.000000000625
300.000000000624
300.000000000623
300.000000000622
300.000000000621
300.000000000621
300.00000000062
300.00000000062
300.00000000062
300.00000000062
300.00000000062
300.00000000062
300.00000000062
300.000000000621
300.000000000621
300.000000000622
300.000000000623
300.000000000624
300.000000000626
300.000000000627
300.000000000629
300.000000000631
300.000000000633
300.000000000636
300.000000000638
300.000000000641
300.000000000644
300.000000000649
300.000000000665
300.000000000727
300.000000000819
300.000000000759
300.000000000774
300.000000000833
300.000000000735
300.000000000675
300.00000000066
300.000000000656
300.000000000652
300.000000000649
300.000000000646
300.000000000643
300.00000000064
300.000000000638
300.000000000635
300.000000000633
300.000000000631
300.000000000629
300.000000000628
300.000000000626
300.000000000625
300.000000000624
300.000000000623
300.000000000622
300.000000000621
300.000000000621
300.00000000062
300.00000000062
300.00000000062
300.00000000062
300.00000000062
300.00000000062
300.00000000062
300.000000000621
300.000000000621
300.000000000622
300.000000000623
300.000000000624
300.000000000625
300.000000000627
300.000000000629
300.000000000631
300.000000000633
300.000000000636
300.000000000638
300.000000000641
300.000000000644
300.000000000649
300.000000000665
300.000000000727
300.000000000819
300.000000000759
300.000000000774
300.000000000833
300.000000000735
300.000000000675
300.00000000066
300.000000000655
300.000000000652
300.000000000649
300.000000000646
300.000000000643
300.00000000064
300.000000000637
300.000000000635
300.000000000633
300.000000000631
300.000000000629
300.000000000627
300.000000000626
300.000000000625
300.000000000624
300.000000000623
300.000000000622
300.000000000621
300.00000000062
300.00000000062
300.00000000062
300.000000000619
300.000000000619
300.000000000619
300.000000000619
300.00000000062
300.00000000062
300.000000000621
300.000000000622
300.000000000623
300.000000000624
300.000000000625
300.000000000627
300.000000000629
300.000000000631
300.000000000633
300.000000000635
300.000000000638
300.000000000641
300.000000000644
300.000000000649
300.000000000665
300.000000000728
300.000000000819
300.00000000076
300.000000000774
300.000000000833
300.000000000736
300.000000000675
300.000000000659
300.000000000655
300.000000000652
300.000000000648
300.000000000645
300.000000000642
300.000000000639
300.000000000637
300.000000000634
300.000000000632
300.00000000063
300.000000000628
300.000000000627
300.000000000625
300.000000000624
300.000000000623
300.000000000622
300.000000000621
300.000000000621
300.00000000062
300.00000000062
300.000000000619
300.000000000619
300.000000000619
300.000000000619
300.000000000619
300.000000000619
300.00000000062
300.000000000621
300.000000000621
300.000000000622
300.000000000623
300.000000000625
300.000000000626
300.000000000628
300.00000000063
300.000000000633
300.000000000635
300.000000000638
300.000000000641
300.000000000644
300.000000000649
300.000000000666
300.000000000728
300.00000000082
300.00000000076
300.000000000775
300.000000000834
300.000000000736
300.000000000675
300.000000000659
300.000000000655
300.000000000651
300.000000000648
300.000000000644
300.000000000641
300.000000000639
300.000000000636
300.000000000634
300.000000000631
300.00000000063
300.000000000628
300.000000000626
300.000000000625
300.000000000624
300.000000000623
300.000000000622
300.000000000621
300.00000000062
300.00000000062
300.000000000619
300.000000000619
300.000000000619
300.000000000619
300.000000000619
300.000000000619
300.000000000619
300.000000000619
300.00000000062
300.000000000621
300.000000000622
300.000000000623
300.000000000624
300.000000000626
300.000000000628
300.00000000063
300.000000000632
300.000000000635
300.000000000637
300.00000000064
300.000000000644
300.000000000648
300.000000000666
300.000000000728
300.000000000821
300.000000000761
300.000000000776
300.000000000834
300.000000000736
300.000000000675
300.000000000659
300.000000000654
300.00000000065
300.000000000647
300.000000000644
300.000000000641
300.000000000638
300.000000000635
300.000000000633
300.000000000631
300.000000000629
300.000000000627
300.000000000626
300.000000000624
300.000000000623
300.000000000622
300.000000000621
300.00000000062
300.00000000062
300.000000000619
300.000000000619
300.000000000618
300.000000000618
300.000000000618
300.000000000618
300.000000000618
300.000000000618
300.000000000619
300.000000000619
300.00000000062
300.000000000621
300.000000000622
300.000000000624
300.000000000625
300.000000000627
300.000000000629
300.000000000631
300.000000000634
300.000000000637
300.00000000064
300.000000000643
300.000000000648
300.000000000666
300.000000000729
300.000000000822
300.000000000762
300.000000000777
300.000000000835
300.000000000736
300.000000000675
300.000000000658
300.000000000653
300.00000000065
300.000000000646
300.000000000643
300.00000000064
300.000000000637
300.000000000634
300.000000000632
300.00000000063
300.000000000628
300.000000000626
300.000000000625
300.000000000623
300.000000000622
300.000000000621
300.00000000062
300.000000000619
300.000000000619
300.000000000618
300.000000000618
300.000000000617
300.000000000617
300.000000000617
300.000000000617
300.000000000617
300.000000000618
300.000000000618
300.000000000619
300.00000000062
300.00000000062
300.000000000622
300.000000000623
300.000000000624
300.000000000626
300.000000000628
300.000000000631
300.000000000633
300.000000000636
300.00000000064
300.000000000643
300.000000000648
300.000000000666
300.000000000729
300.000000000823
300.000000000764
300.000000000778
300.000000000836
300.000000000737
300.000000000675
300.000000000658
300.000000000653
300.000000000649
300.000000000645
300.000000000642
300.000000000638
300.000000000636
300.000000000633
300.000000000631
300.000000000629
300.000000000627
300.000000000625
300.000000000624
300.000000000622
300.000000000621
300.00000000062
300.000000000619
300.000000000619
300.000000000618
300.000000000617
300.000000000617
300.000000000617
300.000000000617
300.000000000616
300.000000000617
300.000000000617
300.000000000617
300.000000000617
300.000000000618
300.000000000619
300.00000000062
300.000000000621
300.000000000622
300.000000000624
300.000000000625
300.000000000627
300.00000000063
300.000000000633
300.000000000636
300.000000000639
300.000000000643
300.000000000648
300.000000000666
300.00000000073
300.000000000825
300.000000000765
300.00000000078
300.000000000838
300.000000000737
300.000000000675
300.000000000658
300.000000000652
300.000000000648
300.000000000644
300.00000000064
300.000000000637
300.000000000634
300.000000000632
300.000000000629
300.000000000627
300.000000000626
300.000000000624
300.000000000622
300.000000000621
300.00000000062
300.000000000619
300.000000000618
300.000000000618
300.000000000617
300.000000000617
300.000000000616
300.000000000616
300.000000000616
300.000000000616
300.000000000616
300.000000000616
300.000000000616
300.000000000616
300.000000000617
300.000000000618
300.000000000619
300.00000000062
300.000000000621
300.000000000623
300.000000000624
300.000000000626
300.000000000629
300.000000000632
300.000000000635
300.000000000638
300.000000000642
300.000000000648
300.000000000667
300.000000000731
300.000000000827
300.000000000767
300.000000000782
300.000000000839
300.000000000738
300.000000000674
300.000000000657
300.000000000651
300.000000000646
300.000000000642
300.000000000639
300.000000000636
300.000000000633
300.00000000063
300.000000000628
300.000000000626
300.000000000624
300.000000000623
300.000000000621
300.00000000062
300.000000000619
300.000000000618
300.000000000617
300.000000000617
300.000000000616
300.000000000615
300.000000000615
300.000000000615
300.000000000615
300.000000000615
300.000000000615
300.000000000615
300.000000000615
300.000000000616
300.000000000616
300.000000000617
300.000000000618
300.000000000619