/*--------------------------------*- C++ -*----------------------------------*\
  =========                 |
  \\      /  F ield         | OpenFOAM: The Open Source CFD Toolbox
   \\    /   O peration     | Website:  https://openfoam.org
    \\  /    A nd           | Version:  10
     \\/     M anipulation  |
\*---------------------------------------------------------------------------*/
FoamFile
{
    format      ascii;
    class       volVectorField;
    location    "2.8";
    object      U;
}
// * * * * * * * * * * * * * * * * * * * * * * * * * * * * * * * * * * * * * //

dimensions      [0 1 -1 0 0 0 0];

internalField   nonuniform List<vector> 
2500
(
(-1.69155139882099e-06 -1.39638808146303e-05 9.27302050984917e-25)
(-3.91243248721722e-06 -1.64597046394127e-05 1.08208094282377e-23)
(-2.61576992490548e-06 -1.69482632817029e-05 1.05423495317905e-24)
(-1.7036425187398e-06 -1.688020834349e-05 2.42530507712168e-25)
(-1.07879228082557e-06 -1.6753682049299e-05 2.49175804741642e-24)
(-6.60909289162202e-07 -1.66622160333053e-05 8.32103693892772e-25)
(-4.11274713493058e-07 -1.66175716605058e-05 2.66059532303671e-25)
(-2.42600153693659e-07 -1.65975607342275e-05 3.74183352303329e-25)
(-1.18244787220743e-07 -1.65890804226388e-05 1.41749247401044e-24)
(-2.26123260540865e-08 -1.65856811781414e-05 1.19706001125934e-23)
(5.55165752432702e-08 -1.65841777486361e-05 6.03511280497596e-25)
(1.20944600830631e-07 -1.65834464129309e-05 1.23859199678645e-23)
(1.76659973815316e-07 -1.65830570108529e-05 1.16889547022106e-23)
(2.24509980852058e-07 -1.65828331358731e-05 5.591316262067e-25)
(2.65718463271076e-07 -1.65827119721944e-05 1.05546660532287e-23)
(3.01171716947458e-07 -1.65826547357109e-05 1.03599137678054e-24)
(3.31548638991124e-07 -1.65826463427853e-05 1.01414483409689e-23)
(3.57384368846556e-07 -1.65826771654023e-05 1.16552767948085e-23)
(3.79128710585221e-07 -1.65827365347412e-05 1.66950171030751e-24)
(3.97164718095637e-07 -1.65828246171845e-05 1.1282086259851e-23)
(4.11847664358361e-07 -1.65829266437319e-05 1.27968435275953e-24)
(4.23495220158605e-07 -1.65830570836634e-05 1.21890759416805e-24)
(4.32414151004522e-07 -1.65831977386537e-05 1.13008762027425e-23)
(4.38894595218882e-07 -1.65833511450794e-05 5.50131044966067e-25)
(4.43212368319568e-07 -1.658351069453e-05 1.12768097733703e-24)
(4.4566666345383e-07 -1.65836822248663e-05 9.16409922822753e-24)
(4.4654538097976e-07 -1.65838592215436e-05 9.20308568114345e-25)
(4.46129762857574e-07 -1.65840513702289e-05 -5.09720749999218e-25)
(4.44733441669634e-07 -1.6584243192874e-05 7.68078268353333e-24)
(4.42665788781869e-07 -1.65844433457739e-05 6.51336964680133e-25)
(4.40244617293605e-07 -1.65846509790341e-05 -7.40130613625693e-25)
(4.37850445849862e-07 -1.65848721943484e-05 -6.30196756069849e-26)
(4.35872385323002e-07 -1.65850990652219e-05 -8.01905056968319e-25)
(4.34740664817907e-07 -1.65853359396474e-05 -7.35893132509215e-25)
(4.34985986748623e-07 -1.65856007632858e-05 6.54265134819435e-25)
(4.37230474979372e-07 -1.65858945564109e-05 8.62478198875654e-24)
(4.42246991358501e-07 -1.65862397012513e-05 -8.48583152209357e-24)
(4.51030680810631e-07 -1.65866650889403e-05 -6.58696623234325e-25)
(4.64921712531102e-07 -1.65872461658724e-05 -4.65666442112584e-25)
(4.85878142520642e-07 -1.65881718882491e-05 -2.27157133911849e-24)
(5.17043715207769e-07 -1.65899070543577e-05 -9.52431198288944e-24)
(5.63418722107628e-07 -1.65936314390694e-05 -8.53266778503995e-24)
(6.36289189131888e-07 -1.66025417310647e-05 -1.06389442092304e-24)
(7.52379204075085e-07 -1.66230208926235e-05 -8.68505785433617e-24)
(9.47575872349418e-07 -1.66672422162662e-05 -1.01712942011925e-23)
(1.31302064373004e-06 -1.67570670425114e-05 -8.871334306551e-25)
(1.88432090132357e-06 -1.68816262307769e-05 -7.52854652525833e-24)
(2.75833531978378e-06 -1.69541439369164e-05 -1.32572507221762e-23)
(4.04274232274655e-06 -1.64525961838352e-05 -1.27452681752399e-24)
(1.75198295767521e-06 -1.38969912879192e-05 -9.71258042703976e-24)
(-5.45896543157724e-07 -1.40982865300325e-05 1.6932956143877e-24)
(-5.89115093267245e-06 -1.70249006825667e-05 6.20815975020232e-24)
(-4.39830270679445e-06 -1.79927426294448e-05 2.07282665328443e-24)
(-3.07772700874306e-06 -1.76056553905091e-05 1.27799350193799e-24)
(-2.1751564889537e-06 -1.7157883464432e-05 1.25577707979896e-23)
(-1.52354142490875e-06 -1.68596034915898e-05 1.77717634016048e-24)
(-1.10251533771346e-06 -1.67016262282645e-05 8.48099860704805e-25)
(-7.96098523907684e-07 -1.66228430787394e-05 1.05342029403423e-24)
(-5.56158080773216e-07 -1.65831190295353e-05 1.74053659782234e-24)
(-3.63958620363941e-07 -1.65615690418539e-05 2.50254576396353e-24)
(-2.04040336773898e-07 -1.65484608892348e-05 1.9971023303076e-24)
(-6.8997035711369e-08 -1.6539599695811e-05 3.80157333031578e-24)
(4.64091143280908e-08 -1.65331554587464e-05 2.82433540585004e-24)
(1.45764740341172e-07 -1.65282394054288e-05 8.63398238035922e-25)
(2.31642527569574e-07 -1.65243940782046e-05 1.91788675282513e-24)
(3.05984798308416e-07 -1.6521338093498e-05 1.20448978664522e-24)
(3.70305811596495e-07 -1.65189070491737e-05 4.38548993085434e-24)
(4.25838952395504e-07 -1.65169667928492e-05 4.4932265189087e-24)
(4.73602866806755e-07 -1.65154502653574e-05 2.44244309544179e-24)
(5.14479740911344e-07 -1.65142881860455e-05 4.98670873905794e-24)
(5.49259861492192e-07 -1.65134387128753e-05 2.29873012218291e-24)
(5.78656601637809e-07 -1.65128655047179e-05 9.12739891207233e-25)
(6.03351080994156e-07 -1.65125390405654e-05 2.99708309133067e-24)
(6.23967684489703e-07 -1.6512446613141e-05 9.53411948266125e-25)
(6.41105722319984e-07 -1.65125634020895e-05 1.22138482286343e-24)
(6.55393286678595e-07 -1.65128884268333e-05 4.27369448074908e-24)
(6.67439578482003e-07 -1.65134231152878e-05 8.25564896417978e-25)
(6.77849245376119e-07 -1.65141739686864e-05 -7.51747124227995e-25)
(6.87272338732492e-07 -1.65151240190914e-05 1.52358950862922e-24)
(6.96365675343442e-07 -1.65162979190482e-05 -2.44519618462886e-25)
(7.05822249953925e-07 -1.65177148802132e-05 -1.12890670077898e-24)
(7.16439860722848e-07 -1.65194039383257e-05 -2.287539361866e-24)
(7.29069473635335e-07 -1.65214023698767e-05 -5.76952204504089e-25)
(7.44649561697296e-07 -1.65237583089145e-05 -4.88423463617654e-25)
(7.64322810970638e-07 -1.65265628650059e-05 -4.15047097353519e-25)
(7.89433849238878e-07 -1.65299247425816e-05 2.55152930986994e-24)
(8.21640436382251e-07 -1.65340260880977e-05 -2.95216114519341e-24)
(8.63031015140585e-07 -1.65391345685542e-05 -9.18909852803182e-25)
(9.1631669423475e-07 -1.65457114319311e-05 1.28813102105154e-25)
(9.85235717814278e-07 -1.6554693288204e-05 -1.38240346808705e-23)
(1.07521070935274e-06 -1.65679846408292e-05 -3.42713002150407e-24)
(1.19394154164693e-06 -1.65899134957857e-05 -1.91985292928119e-24)
(1.35716127270346e-06 -1.6630431449708e-05 -9.71883828886423e-24)
(1.5857903987271e-06 -1.67105945435461e-05 -2.33273298162473e-24)
(1.92707097193793e-06 -1.68696632971815e-05 -3.15441207278929e-24)
(2.50315392752688e-06 -1.71690034845251e-05 -1.07501220345685e-23)
(3.32667834089909e-06 -1.76215352119091e-05 -9.42034025606955e-25)
(4.60290163606836e-06 -1.80285617424915e-05 -2.55157553513786e-24)
(6.12587682930025e-06 -1.70343569024716e-05 -9.05189847403513e-24)
(6.76928419003088e-07 -1.39762887735965e-05 -2.65204611937394e-24)
(4.04195466382236e-07 5.57022981175718e-06 1.90368857939252e-24)
(-4.0118347968464e-06 5.84020153520532e-06 -1.58771811671455e-24)
(-3.53682072560469e-06 3.89702225385593e-06 2.34203618958834e-24)
(-2.92035250200771e-06 3.86102634169095e-06 6.87688969519229e-25)
(-2.37262710526311e-06 4.14016017668289e-06 -3.50920328971654e-24)
(-1.84511224636628e-06 4.38206678975163e-06 -5.15666037175114e-25)
(-1.44791901465583e-06 4.5382383503249e-06 8.60619324301887e-25)
(-1.12814723711593e-06 4.63382078797228e-06 1.07009219973941e-24)
(-8.63655138228573e-07 4.69319673208819e-06 -2.21069726331788e-25)
(-6.45659604767481e-07 4.73215372080383e-06 -5.24476674565654e-24)
(-4.61944723002394e-07 4.75928501735123e-06 1.04812384044287e-23)
(-3.05829616609473e-07 4.77917969678907e-06 3.52616133763332e-24)
(-1.71958944566979e-07 4.79432875161488e-06 -5.91260671067802e-24)
(-5.640483602389e-08 4.80619539640302e-06 6.45685530970282e-24)
(4.38054676300686e-08 4.81567040606824e-06 -5.70066647319277e-24)
(1.30966737268844e-07 4.82331093195944e-06 1.54439519525974e-24)
(2.06899201168708e-07 4.82950543527467e-06 4.08062378969184e-24)
(2.73089334278058e-07 4.83452788624053e-06 -3.06702992783284e-24)
(3.30774076607038e-07 4.83855653396485e-06 2.50301300042189e-24)
(3.81029558770581e-07 4.84174948190895e-06 -3.48728034063499e-24)
(4.24813056323961e-07 4.84419988436157e-06 2.07417984832805e-24)
(4.62981186725016e-07 4.84598980698603e-06 -6.56978768505732e-24)
(4.963309934266e-07 4.84718577665514e-06 3.17915421337561e-24)
(5.25621631926446e-07 4.84781707734582e-06 1.22732504481011e-24)
(5.51572822124793e-07 4.84792799186305e-06 -3.78537165222789e-24)
(5.74903185417689e-07 4.84751955696558e-06 4.0176856649546e-24)
(5.9632929234553e-07 4.84659882117809e-06 -4.89597184705421e-24)
(6.16573228218449e-07 4.84517108075044e-06 9.73204710980321e-25)
(6.36380559554672e-07 4.84321794336348e-06 1.68350834749753e-24)
(6.56529615815243e-07 4.84070733901038e-06 -7.39642718080907e-24)
(6.77853270475939e-07 4.83758051785308e-06 4.78277319913139e-24)
(7.0126992986846e-07 4.83378882917057e-06 -1.03870979460022e-23)
(7.27793098343641e-07 4.82922549724617e-06 6.88523652903708e-24)
(7.58561748232108e-07 4.82376029723947e-06 7.06817363338806e-24)
(7.94916288680353e-07 4.81720462667639e-06 -5.96309998764488e-24)
(8.38435337958655e-07 4.80929220844884e-06 1.99097925832747e-24)
(8.91063164351658e-07 4.79965793824325e-06 -2.37340451072324e-24)
(9.55222218772171e-07 4.78774104909531e-06 -7.14079436833548e-25)
(1.0339792823837e-06 4.7726570091959e-06 8.50869513663963e-24)
(1.13139026771606e-06 4.75295151108515e-06 -1.15206117410276e-23)
(1.25294141120813e-06 4.72608577357472e-06 -2.95991259727713e-24)
(1.4054835695901e-06 4.68742674610474e-06 -1.59759254348542e-24)
(1.6012897468411e-06 4.62810577849025e-06 -4.95657310110535e-24)
(1.85103050735206e-06 4.53158144418503e-06 -1.70409382628571e-24)
(2.17531953020564e-06 4.37261559870266e-06 -2.27727575530688e-24)
(2.63470957342254e-06 4.12250852494026e-06 -9.57650453364605e-24)
(3.11324753412321e-06 3.82150323331437e-06 -1.35419172569105e-24)
(3.6947293972122e-06 3.81020206780489e-06 -1.89112041499433e-24)
(4.23099523686091e-06 5.78843149756683e-06 -9.79928758740257e-24)
(-2.73405009704125e-07 5.61801330308755e-06 -1.6174652917192e-24)
(-1.02210239649076e-06 1.17736601550417e-05 2.3334080304345e-24)
(-2.24489775523005e-06 1.15124935638764e-05 8.25748431469828e-24)
(-2.51641984672278e-06 7.8461609142723e-06 2.7381128643052e-24)
(-2.44134620829297e-06 7.07668273965421e-06 7.13060608827157e-25)
(-2.21804747141546e-06 7.05935810381325e-06 -2.01970360820892e-25)
(-1.84125948024448e-06 7.20557365231831e-06 1.36623566378347e-24)
(-1.50875616644724e-06 7.35037421680583e-06 9.07057538645423e-25)
(-1.21783246973139e-06 7.46021674303795e-06 1.13949442165159e-24)
(-9.68080952080162e-07 7.53817024493298e-06 2.451336792161e-24)
(-7.58521437471874e-07 7.59404800737048e-06 4.30583900284046e-24)
(-5.80298225206117e-07 7.63502436962928e-06 2.74182783856298e-24)
(-4.2802141414429e-07 7.66593887490222e-06 5.50654256044986e-24)
(-2.9695336855395e-07 7.68984763782825e-06 4.25301918472655e-24)
(-1.83475398480169e-07 7.70872274702425e-06 1.74402927745355e-24)
(-8.47646667376361e-08 7.72385243334445e-06 4.41458681218477e-24)
(1.40759230647194e-09 7.73608695934919e-06 2.40504258505111e-24)
(7.68226009377739e-08 7.74602002963981e-06 5.65047635622207e-24)
(1.42955108531071e-07 7.75406403065123e-06 5.67536775786532e-24)
(2.01044685970729e-07 7.76053570577631e-06 3.21786725507423e-24)
(2.52166664248598e-07 7.76564868812998e-06 5.59486287819166e-24)
(2.97264669893467e-07 7.76958161091404e-06 2.64190322167919e-24)
(3.37199013353852e-07 7.77244188240571e-06 1.77496197716757e-24)
(3.72768987329137e-07 7.77434726260975e-06 5.16845138792981e-24)
(4.04725253830694e-07 7.77535518467292e-06 1.59246557322545e-24)
(4.33783272931581e-07 7.775510012433e-06 1.82642636782219e-24)
(4.60651094805755e-07 7.77483041703046e-06 5.18670677393342e-24)
(4.86042464103899e-07 7.77333674231608e-06 1.36442451727489e-24)
(5.1066570983012e-07 7.77101478912786e-06 -3.04873398654738e-25)
(5.35254824745103e-07 7.76783804390325e-06 3.68525469294854e-24)
(5.60580755211054e-07 7.7637574251412e-06 5.44880652605115e-25)
(5.87478630062189e-07 7.75868430427975e-06 -1.20181110256353e-24)
(6.16849450701115e-07 7.75251528208871e-06 -2.03721463137332e-24)
(6.49690640511858e-07 7.74510013441239e-06 -8.11533964479742e-25)
(6.87143527533875e-07 7.73622643655109e-06 -6.76412833906987e-25)
(7.30522477518377e-07 7.72559071719169e-06 2.54596436529842e-25)
(7.81377998535842e-07 7.71278048304239e-06 3.68568378017258e-24)
(8.41602045809669e-07 7.69723492459848e-06 -2.9977486767556e-24)
(9.1350000322066e-07 7.6781193881583e-06 -1.1146824343875e-24)
(9.99974986784314e-07 7.65416987849941e-06 7.48437654321583e-25)
(1.10474329224361e-06 7.62342602720222e-06 -3.00899899334048e-25)
(1.23259733200887e-06 7.58281270131213e-06 -4.37387092724805e-24)
(1.38895881368993e-06 7.52747840913733e-06 -3.64932469145041e-24)
(1.58236693124662e-06 7.45002263551537e-06 1.94979888541437e-24)
(1.81489144825148e-06 7.33987886526753e-06 -3.2849112413783e-24)
(2.08431684651266e-06 7.19249948184406e-06 -3.71122441428908e-24)
(2.40146812655304e-06 7.0360530923454e-06 8.43918733466339e-25)
(2.56532327442797e-06 7.01995603979636e-06 -3.46821598700976e-24)
(2.61590709068071e-06 7.71534107367726e-06 -3.55450933681843e-24)
(2.37957680756786e-06 1.1443665578409e-05 1.75814605391893e-24)
(1.08023483227446e-06 1.17473625291793e-05 -2.15650724689507e-24)
(-1.33278850820712e-06 1.20059561069923e-05 1.48107296750273e-24)
(-1.44733583734676e-06 1.00619712494921e-05 7.23326504396474e-24)
(-2.06733374562852e-06 5.84415892689031e-06 1.72154901175712e-24)
(-2.11976872430346e-06 4.8395306088634e-06 2.91846328052309e-25)
(-2.01970755294795e-06 4.75008304978505e-06 -1.18155944257293e-24)
(-1.72884903016526e-06 4.89707144300674e-06 1.6278218597179e-24)
(-1.45137158883372e-06 5.06684294876988e-06 5.4516660220164e-25)
(-1.19682499692672e-06 5.20206364013672e-06 6.90008715000932e-25)
(-9.72612515320488e-07 5.30069730936611e-06 2.54664117144704e-24)
(-7.81533880831117e-07 5.37291132158149e-06 3.69025425387738e-24)
(-6.17367900559235e-07 5.42669834371672e-06 1.29961896770043e-25)
(-4.7609605017373e-07 5.46773520133376e-06 3.06774831141713e-24)
(-3.53872319360926e-07 5.49971606724889e-06 3.7681742470798e-24)
(-2.47634062591936e-07 5.52507212840266e-06 8.94623781637714e-26)
(-1.54898781876496e-07 5.54544047440393e-06 3.94551678206031e-24)
(-7.36680680828882e-08 5.56192310349752e-06 1.52157333295978e-24)
(-2.31821243348815e-09 5.57529532371832e-06 3.3149740478603e-24)
(6.05218421372122e-08 5.58611775369058e-06 4.33701536410476e-24)
(1.16002946829631e-07 5.59479212164404e-06 1.96005967493465e-24)
(1.65137411603559e-07 5.60162536902791e-06 4.42664076587779e-24)
(2.08818843797645e-07 5.60683651541785e-06 1.61940198630744e-24)
(2.47856028889473e-07 5.61060829109917e-06 2.32797990969833e-24)
(2.83005553915449e-07 5.61306487568346e-06 2.90605001804577e-24)
(3.14973532871198e-07 5.61430183428933e-06 9.71159747979844e-25)
(3.44443183175564e-07 5.61436700639488e-06 2.03165465169079e-24)
(3.72083989855984e-07 5.61330792623418e-06 3.111718753554e-24)
(3.98558639405876e-07 5.61114057100024e-06 1.58530225066932e-24)
(4.24540473630987e-07 5.6078362721459e-06 -1.02481144427754e-24)
(4.50725523551699e-07 5.60336321752346e-06 2.02395058184603e-24)
(4.7784033074408e-07 5.59764890895029e-06 1.43818463902313e-24)
(5.06670218131159e-07 5.59058588782029e-06 -1.37885305838612e-24)
(5.38059376006464e-07 5.58201961498595e-06 2.87178964358924e-25)
(5.72949940994125e-07 5.57174969693672e-06 -1.65436976277942e-24)
(6.12409956160993e-07 5.55949397258246e-06 -1.56548807361337e-24)
(6.57656374527474e-07 5.54484194714033e-06 1.23516246458518e-24)
(7.10118926257026e-07 5.52726928751965e-06 2.06559415387599e-24)
(7.7151427399999e-07 5.50600818081811e-06 -1.67819651621627e-24)
(8.43904219155035e-07 5.48000055241448e-06 -7.10389585519457e-25)
(9.29822308131713e-07 5.44765785497959e-06 -6.5034507187449e-25)
(1.03239699077818e-06 5.40652527575448e-06 3.92112582344901e-24)
(1.15548416856113e-06 5.35291498111146e-06 -2.00952084195214e-24)
(1.30303468163439e-06 5.28110624847749e-06 -1.86462010074624e-24)
(1.48071315254291e-06 5.18292235564906e-06 4.52202034121477e-24)
(1.68621018495042e-06 5.04762568300151e-06 -1.66369503972294e-24)
(1.90865876282432e-06 4.87566929274048e-06 -1.75015565673658e-24)
(2.14620026438762e-06 4.71802265863626e-06 4.73626638227072e-24)
(2.19203461467053e-06 4.76559023531389e-06 -1.77812259085164e-24)
(2.12782378024744e-06 5.68087601218132e-06 -1.89383308914989e-24)
(1.51352882950745e-06 9.97937485873418e-06 6.11919590343403e-24)
(1.33665812761719e-06 1.19746522966862e-05 -1.41484856219085e-24)
(-8.97595598609555e-07 1.0438393085574e-05 7.76365796055983e-25)
(-1.18038005181283e-06 7.41390682394935e-06 5.79395076112258e-24)
(-1.89380135137737e-06 3.32338085496355e-06 8.89751974402119e-25)
(-1.91030014949256e-06 2.32248992428904e-06 2.05356658331887e-25)
(-1.83874109920318e-06 2.24878556411887e-06 1.09737407616438e-24)
(-1.5987509223398e-06 2.41813728197116e-06 2.07279336615883e-24)
(-1.36486541159186e-06 2.61300954960981e-06 3.11639974625876e-25)
(-1.14402601453284e-06 2.76949257224746e-06 3.52214606460673e-25)
(-9.44902243294777e-07 2.88512961007e-06 2.36845607438575e-24)
(-7.72229353364402e-07 2.97097352206071e-06 2.74250392112449e-24)
(-6.2197446693081e-07 3.03570210149684e-06 -1.28591226489882e-24)
(-4.91447063954432e-07 3.08556137249237e-06 1.20805947439405e-24)
(-3.77737762211694e-07 3.12468000303677e-06 2.82067283055056e-24)
(-2.78378244449801e-07 3.15584101110156e-06 -1.13196436436359e-24)
(-1.91283153126344e-07 3.18093434123862e-06 2.89257417765141e-24)
(-1.14716270089981e-07 3.20125614668126e-06 7.03260908081577e-25)
(-4.72287737282285e-08 3.21774523149003e-06 1.52053011347857e-24)
(1.2415772905443e-08 3.23106605612872e-06 3.16439951772104e-24)
(6.52824665603587e-08 3.24171291470349e-06 9.59104670695342e-25)
(1.12309536970545e-07 3.25006511088085e-06 3.1337363509247e-24)
(1.54329331966877e-07 3.25639935976258e-06 8.02491066579574e-25)
(1.9210401651924e-07 3.26092919332026e-06 2.21518927531504e-24)
(2.26343396648402e-07 3.26381947717131e-06 1.24782945029038e-24)
(2.57715312522267e-07 3.26517922557057e-06 4.81787106315772e-25)
(2.86865868529122e-07 3.26508577387695e-06 2.17708837938689e-24)
(3.14431063335664e-07 3.26358246049453e-06 1.4976800553946e-24)
(3.41028105512912e-07 3.2606830713164e-06 1.84359719517158e-24)
(3.67294065684271e-07 3.25637000213014e-06 -1.61659184020846e-24)
(3.93891566945904e-07 3.25059730149608e-06 8.63776204227663e-25)
(4.21502781836021e-07 3.24326451686722e-06 1.75601956076664e-24)
(4.50867853856846e-07 3.23424439288232e-06 -1.64152843350131e-24)
(4.82775847193199e-07 3.22334425457237e-06 1.35779510527646e-24)
(5.18104832101068e-07 3.21032266208534e-06 -1.94661451340376e-24)
(5.57842366553425e-07 3.19482113623029e-06 -1.95288228185606e-24)
(6.03110467540616e-07 3.17635747878576e-06 1.71422675912889e-24)
(6.55202651361409e-07 3.15429339751093e-06 9.14567736064031e-25)
(7.15641804818412e-07 3.12771361655555e-06 -7.16631912356066e-25)
(7.86219346043263e-07 3.09537787118029e-06 -3.70211320670016e-25)
(8.6905996473798e-07 3.05544191214148e-06 -1.49166080767756e-24)
(9.66674822252438e-07 3.00512861729157e-06 2.77404447555654e-24)
(1.08194758218545e-06 2.94032385875511e-06 -6.59821044065467e-25)
(1.2174584549152e-06 2.85476729328096e-06 -6.81322115008712e-25)
(1.37657656843635e-06 2.73966161294739e-06 2.85348090670447e-24)
(1.55474067434112e-06 2.58354762141848e-06 -6.32429901305398e-25)
(1.73965600017315e-06 2.38692140852056e-06 -6.3771108308622e-25)
(1.93162995664186e-06 2.20575010152021e-06 3.12222620568484e-24)
(1.95355871751433e-06 2.22705173597848e-06 -6.37933382503052e-25)
(1.9349129164716e-06 3.12747824444492e-06 -6.77337607555306e-25)
(1.21432178617081e-06 7.30067835127255e-06 4.8301333036605e-24)
(8.85426267171848e-07 1.03972782573488e-05 -6.67102848518978e-25)
(-4.40555907738077e-07 9.09049973422972e-06 3.06489392946081e-25)
(-1.05434472579419e-06 5.69567753394437e-06 3.04497752210644e-24)
(-1.73155208531216e-06 1.74495005641332e-06 3.4943025665262e-25)
(-1.71909082016623e-06 7.47595682396395e-07 7.79523018112888e-26)
(-1.66384123512006e-06 6.85123915602277e-07 3.61528600190698e-25)
(-1.46773554777589e-06 8.66071243931334e-07 6.61083383037531e-25)
(-1.27210326797179e-06 1.07537111450437e-06 1.15006399625533e-25)
(-1.08178855134172e-06 1.2456438945222e-06 1.22604198732416e-25)
(-9.05434861626822e-07 1.37360046894911e-06 7.46292714612483e-25)
(-7.49302638542752e-07 1.47012171246777e-06 1.29451595981385e-24)
(-6.11346176577017e-07 1.5438986448669e-06 -3.52626854702453e-25)
(-4.90120384961463e-07 1.60132339640534e-06 9.1507329774248e-25)
(-3.83618668081009e-07 1.64673318421556e-06 1.45289971266614e-24)
(-2.89967238487805e-07 1.68308855368768e-06 -2.54164695019733e-25)
(-2.07478499650342e-07 1.71246410229695e-06 1.60328613135992e-24)
(-1.34672895702814e-07 1.73629674968779e-06 2.98298032832794e-25)
(-7.02845936914864e-08 1.75563972785009e-06 1.06218289033152e-24)
(-1.32028141776815e-08 1.77125309801427e-06 1.54699975972962e-24)
(3.75469635358132e-08 1.78371633456842e-06 3.88174644050558e-25)
(8.28354069600309e-08 1.79345626729786e-06 1.49136424206585e-24)
(1.23439592613527e-07 1.80080079479066e-06 3.0214650309554e-25)
(1.60077840565924e-07 1.80600656050991e-06 6.97844112823875e-25)
(1.93423646210915e-07 1.80925745204085e-06 9.35558646116639e-25)
(2.24109516963281e-07 1.81068646342432e-06 2.01481107549345e-25)
(2.52752435311312e-07 1.8103907222911e-06 7.23556141334327e-25)
(2.79952572860211e-07 1.80841451644565e-06 1.01825346657924e-24)
(3.06303573815116e-07 1.80477521531141e-06 5.86205555651451e-25)
(3.32416763673871e-07 1.799457483949e-06 -4.36716396821475e-25)
(3.58915221834573e-07 1.79240142662387e-06 8.25255429215499e-25)
(3.86449606064076e-07 1.7834915630291e-06 5.42230611498993e-25)
(4.15720084430249e-07 1.77256808611025e-06 -4.75721010688894e-25)
(4.47470435121962e-07 1.75941541104916e-06 4.16542192492752e-25)
(4.82523016366435e-07 1.74374590029446e-06 -5.76129681266725e-25)
(5.21790027889393e-07 1.72514432050389e-06 -6.06087315182883e-25)
(5.66300518798396e-07 1.70307539438548e-06 5.184479260845e-25)
(6.17216107887866e-07 1.67679180036661e-06 8.97516926104529e-25)
(6.75872349423795e-07 1.64528404299348e-06 -6.78808258986487e-25)
(7.43795496883276e-07 1.60716883804875e-06 -1.52323741802819e-25)
(8.22716329696179e-07 1.56044892827918e-06 -4.49439391358691e-25)
(9.14534457084018e-07 1.5021653138242e-06 8.58937197915498e-25)
(1.02121457553134e-06 1.42803601388868e-06 -9.35079998792428e-25)
(1.14408001063266e-06 1.33172515810582e-06 -9.72437018385603e-25)
(1.28450808449244e-06 1.20449556186169e-06 7.91065430877058e-25)
(1.43631886994843e-06 1.0351961973469e-06 -9.86710001925791e-25)
(1.58765141361499e-06 8.24713508401079e-07 -9.72959670246412e-25)
(1.74035069733561e-06 6.30557036693756e-07 9.22213361428042e-25)
(1.75058074857963e-06 6.29519068886277e-07 -7.90661826766898e-25)
(1.76422753523455e-06 1.51448833880524e-06 -9.50757322267887e-25)
(1.0788632792077e-06 5.54173332169023e-06 1.38992081415623e-24)
(4.29624341259621e-07 9.01461186033832e-06 -9.62237049425834e-25)
(-1.80562612367693e-07 8.40734552007316e-06 9.67123338996338e-26)
(-9.28773271761979e-07 5.01342689687525e-06 7.51657722450987e-25)
(-1.52123621910854e-06 1.04903955579562e-06 1.11689504922245e-25)
(-1.5204116304674e-06 6.53477780782968e-09 1.89798252268201e-26)
(-1.48917958542318e-06 -7.22467358177466e-08 -5.90860582578655e-26)
(-1.3363189351491e-06 1.0362770045767e-07 1.9764194256646e-25)
(-1.17556781544689e-06 3.15923665425675e-07 4.13924857118185e-26)
(-1.01313906839927e-06 4.92846703224865e-07 4.60748191771019e-26)
(-8.57660115222438e-07 6.28728801961905e-07 2.4346865334533e-25)
(-7.16722614739915e-07 7.33141218653879e-07 3.61804884757965e-25)
(-5.90037430758272e-07 8.14173003324291e-07 -1.03889703372063e-25)
(-4.77271783423801e-07 8.77972962155727e-07 2.31011857008358e-25)
(-3.77267111700155e-07 9.28857109538237e-07 4.13163152007305e-25)
(-2.88704990744471e-07 9.69843379118258e-07 -7.04123981609164e-26)
(-2.10278092766775e-07 1.00309177408704e-06 3.87212084394156e-25)
(-1.40773795818694e-07 1.03014024476725e-06 9.90664100358472e-26)
(-7.90973552922832e-08 1.05211767647826e-06 2.88758856798016e-25)
(-2.42651705202983e-08 1.06986405471431e-06 4.26315207768208e-25)
(2.46069783585816e-08 1.08401127020274e-06 1.26792496231349e-25)
(6.83169829693365e-08 1.09504631518147e-06 4.0493863046728e-25)
(1.07596731187772e-07 1.10332820006268e-06 9.64634744317569e-26)
(1.43120071142367e-07 1.10915220567869e-06 2.10463518077953e-25)
(1.75521237261001e-07 1.11272326433583e-06 2.47023756750999e-25)
(2.05411172373797e-07 1.11419659175102e-06 6.47672586814946e-26)
(2.33373431153949e-07 1.11367928879512e-06 2.18895132519935e-25)
(2.59983626565745e-07 1.11122795657924e-06 2.68973285620961e-25)
(2.85811282508106e-07 1.1068634195383e-06 1.70383072031109e-25)
(3.11438689715995e-07 1.1005617008863e-06 -1.17048605056589e-25)
(3.37463077311772e-07 1.09224788725252e-06 2.19204463032708e-25)
(3.64500939341137e-07 1.08180459081559e-06 1.5534837185183e-25)
(3.93219242016707e-07 1.06904557242159e-06 -1.28089398077149e-25)
(4.24320934316075e-07 1.05373350797553e-06 1.18599448889557e-25)
(4.58570917138084e-07 1.03553425134818e-06 -1.675767527069e-25)
(4.96815816810643e-07 1.01399699737216e-06 -1.76569676000671e-25)
(5.39988523178393e-07 9.88521246359733e-07 1.46922479815842e-25)
(5.8912449131329e-07 9.58301386071196e-07 1.69847206890228e-25)
(6.45378985892178e-07 9.22249727742875e-07 -1.57417442384176e-25)
(7.10016940850107e-07 8.78906780168904e-07 -4.51954633503871e-26)
(7.8439013751428e-07 8.26197161920605e-07 -1.14147835211223e-25)
(8.69833213657963e-07 7.61115453063522e-07 4.70966144531383e-25)
(9.6747984239358e-07 6.79448540822769e-07 -1.73511623273455e-25)
(1.07754520651536e-06 5.75147814874037e-07 -1.896621257799e-25)
(1.19969911005092e-06 4.40156406379905e-07 4.54570922000951e-25)
(1.32645788096588e-06 2.64727060744835e-07 -2.02170273834476e-25)
(1.44666576762341e-06 5.16785086140719e-08 -1.8675355281756e-25)
(1.55996784251948e-06 -1.38918831123945e-07 5.09006914651894e-25)
(1.55037762874364e-06 -1.33310999885598e-07 -1.80711546102096e-25)
(1.55012866197516e-06 7.8522233688382e-07 -2.39268794838609e-25)
(9.51476282020727e-07 4.81975961534957e-06 7.40675676536095e-25)
(1.73688639847469e-07 8.28483447243339e-06 -2.58198067792027e-25)
(-7.22823525560088e-08 8.19679724492098e-06 4.97462031455883e-26)
(-7.92416548860805e-07 4.92150560993888e-06 3.9997890160112e-25)
(-1.29421359719426e-06 8.44192004435624e-07 5.82137781023996e-26)
(-1.32419362174444e-06 -2.7057786287967e-07 2.5089897011842e-26)
(-1.31895764603115e-06 -3.85690113567551e-07 1.25876167826847e-25)
(-1.20608728812213e-06 -2.26361755525138e-07 1.67795256538537e-25)
(-1.07646487989951e-06 -1.9256908752143e-08 3.04333201112749e-26)
(-9.39291715206471e-07 1.58885855915421e-07 3.47874511873505e-26)
(-8.03092855894388e-07 2.99101808076778e-07 1.96321799766774e-25)
(-6.76441239407322e-07 4.0897729581567e-07 2.14926497089079e-25)
(-5.60499375300883e-07 4.95618645240667e-07 -1.10066191138482e-25)
(-4.55879016566646e-07 5.64672668342848e-07 5.16132630312928e-26)
(-3.62153096677858e-07 6.20245708278263e-07 2.01490053231372e-25)
(-2.78525461679421e-07 6.65316637409164e-07 -1.01924944951656e-25)
(-2.04048918731954e-07 7.02047222934059e-07 1.90265308197757e-25)
(-1.37757247157626e-07 7.32029975768748e-07 4.40097486736168e-26)
(-7.87362728095735e-08 7.56434711464696e-07 8.40997199221381e-26)
(-2.61285164220186e-08 7.76160759582565e-07 2.01370370039959e-25)
(2.08608392422493e-08 7.9188108659821e-07 6.04927931586321e-26)
(6.29611256509941e-08 8.04120469905398e-07 2.15359628787482e-25)
(1.00847705482777e-07 8.13286647210743e-07 5.02997106978045e-26)
(1.35156278371431e-07 8.19683000840292e-07 1.58278242009028e-25)
(1.66485436326717e-07 8.23551571441722e-07 6.71980443306307e-26)
(1.9541381658101e-07 8.25059509481016e-07 2.93440957780072e-26)
(2.22500513729797e-07 8.24321764538579e-07 1.47601178299662e-25)
(2.48291668575485e-07 8.21410567454229e-07 8.19820665527967e-26)
(2.73334707418345e-07 8.16338514391507e-07 1.2119990878192e-25)
(2.98185577632554e-07 8.09081475458561e-07 -1.27256068935232e-25)
(3.2341342320985e-07 7.99557064911057e-07 4.74821180868447e-26)
(3.49609819221069e-07 7.8763763062263e-07 1.14638964991582e-25)
(3.77400432465348e-07 7.73120153914554e-07 -9.11197313096816e-26)
(4.07444064044154e-07 7.55746253979003e-07 9.36090868226991e-26)
(4.40457609179938e-07 7.35146086239251e-07 -1.40142909567155e-25)
(4.77212680858674e-07 7.10836138312776e-07 -1.30199555243723e-25)
(5.18550688674238e-07 6.82175178680498e-07 1.07618328354585e-25)
(5.6538586820913e-07 6.48315704949077e-07 4.75619606628743e-26)
(6.1869369335404e-07 6.08120217126203e-07 -3.42916604321327e-26)
(6.79493401426262e-07 5.60101725915718e-07 -1.75705330754022e-26)
(7.48781293732611e-07 5.02175853413831e-07 -1.01993054998649e-25)
(8.27380532925925e-07 4.31416114137365e-07 1.96286655379571e-25)
(9.15700860490033e-07 3.43833916297931e-07 -2.41839446108201e-26)
(1.0130336018748e-06 2.33907534334327e-07 -2.92075838163574e-26)
(1.11769807430538e-06 9.46448242118708e-08 1.89351988774476e-25)
(1.22127571586155e-06 -8.17382707878404e-08 -3.25237799508556e-26)
(1.3134452594131e-06 -2.89465991760206e-07 -2.64629662723831e-26)
(1.38978172514619e-06 -4.6513851610268e-07 2.0152505267356e-25)
(1.35766126249694e-06 -4.30681830595493e-07 -2.47843114405625e-26)