/*--------------------------------*- C++ -*----------------------------------*\
  =========                 |
  \\      /  F ield         | OpenFOAM: The Open Source CFD Toolbox
   \\    /   O peration     | Website:  https://openfoam.org
    \\  /    A nd           | Version:  10
     \\/     M anipulation  |
\*---------------------------------------------------------------------------*/
FoamFile
{
    format      ascii;
    class       volScalarField;
    location    "2.8";
    object      wallHeatFlux;
}
// * * * * * * * * * * * * * * * * * * * * * * * * * * * * * * * * * * * * * //

dimensions      [1 0 -3 0 0 0 0];

internalField   uniform 0;

boundaryField
{
    back
    {
        type            calculated;
        value           uniform 0;
    }
    bottom
    {
        type            calculated;
        value           nonuniform List<scalar> 
50
(
220.824434196245
230.801597260057
237.49203129343
240.057441821399
240.92537489457
241.209003039219
241.298142633567
241.324365343317
241.331404399396
241.3332405802
241.333477191974
241.333457724225
241.333409976473
241.333295967673
241.333204000584
241.333075434842
241.333041980608
241.332973933263
241.332888998399
241.332848661509
241.332825751342
241.332829520045
241.3328374425
241.332820519005
241.332788731032
241.332782782837
241.332776197782
241.33277145699
241.332788040272
241.332774761274
241.33277761921
241.332822715204
241.33282066971
241.332810552875
241.332835668977
241.332886190909
241.332951050555
241.332981386482
241.33306570744
241.333001896784
241.332464559264
241.330123308172
241.32145283589
241.291722007023
241.196957109081
240.907052563704
240.041032520131
237.482161687093
230.695051091188
220.84882671703
)
;
    }
    left
    {
        type            calculated;
        value           uniform 0;
    }
    front
    {
        type            calculated;
        value           uniform 0;
    }
    right
    {
        type            calculated;
        value           uniform 0;
    }
    top
    {
        type            calculated;
        value           uniform 0;
    }
}


// ************************************************************************* //
