/*--------------------------------*- C++ -*----------------------------------*\
  =========                 |
  \\      /  F ield         | OpenFOAM: The Open Source CFD Toolbox
   \\    /   O peration     | Website:  https://openfoam.org
    \\  /    A nd           | Version:  10
     \\/     M anipulation  |
\*---------------------------------------------------------------------------*/
FoamFile
{
    format      ascii;
    class       volScalarField;
    location    "4.4";
    object      alphat;
}
// * * * * * * * * * * * * * * * * * * * * * * * * * * * * * * * * * * * * * //

dimensions      [1 -1 -1 0 0 0 0];

internalField   nonuniform List<scalar> 
2500
(
1.50299675957378e-14
2.91833446173179e-13
1.22665340833856e-12
2.06380251295573e-12
2.70313079877913e-12
3.13705653565647e-12
3.40115416417713e-12
3.54638204257545e-12
3.61908011939355e-12
3.65244743817691e-12
3.66658569804159e-12
3.67215041377803e-12
3.67419603849452e-12
3.67490137733876e-12
3.6751299020063e-12
3.67519914785834e-12
3.67521821442318e-12
3.6752223672101e-12
3.67522243880211e-12
3.67522160082174e-12
3.67522066852967e-12
3.67521982931087e-12
3.67521912128913e-12
3.67521854578618e-12
3.6752181077364e-12
3.67521781201226e-12
3.67521767428253e-12
3.67521769623683e-12
3.67521778194927e-12
3.67521791238683e-12
3.67521810216171e-12
3.67521800355998e-12
3.67521619202555e-12
3.67520792367801e-12
3.67517844240786e-12
3.6750820547307e-12
3.67478557977307e-12
3.67392185304544e-12
3.67153928478459e-12
3.66533573988075e-12
3.65015642555074e-12
3.61543546490138e-12
3.54163528663999e-12
3.39683516874473e-12
3.13645442605276e-12
2.71056532410287e-12
2.0817521781685e-12
1.25074861803062e-12
3.03525383625249e-13
1.60787832216287e-14
1.48153212417513e-12
7.55167137872682e-11
3.24295130991609e-10
5.46618372564086e-10
7.17376168975681e-10
8.34198448146089e-10
9.05971555887882e-10
9.45852164072633e-10
9.66036162577852e-10
9.75405454183117e-10
9.79420702711222e-10
9.81018976818608e-10
9.81613062039586e-10
9.81820153041475e-10
9.81887991958505e-10
9.81908796489478e-10
9.81914627685804e-10
9.81915958389899e-10
9.81916035015226e-10
9.81915823533477e-10
9.81915575912963e-10
9.81915351039093e-10
9.8191516118047e-10
9.81915007280984e-10
9.81914890150065e-10
9.81914811568173e-10
9.81914776529354e-10
9.81914783792709e-10
9.81914806433633e-10
9.81914843139233e-10
9.81914891008175e-10
9.81914844149093e-10
9.81914267201684e-10
9.81911745850255e-10
9.81902911787382e-10
9.81874330416508e-10
9.81787229693204e-10
9.81535791824919e-10
9.8084867710632e-10
9.79076776560261e-10
9.74783828978224e-10
9.65062639394416e-10
9.4460836031229e-10
9.04875611890701e-10
8.34113027197898e-10
7.19398344171937e-10
5.51335008887678e-10
3.30531273015529e-10
7.84531677665575e-11
1.57968209678504e-12
5.23407135219081e-12
1.35150129826383e-09
4.54322379470414e-07
7.6259795897286e-07
9.97506267355865e-07
1.15793229393625e-06
1.25671227702652e-06
1.31188064435725e-06
1.33999991023608e-06
1.35316096312833e-06
1.35885178233379e-06
1.36113813566987e-06
1.36199605820052e-06
1.36229800809672e-06
1.36239791539122e-06
1.36242890384447e-06
1.36243773694516e-06
1.36243983965682e-06
1.36244003491579e-06
1.36243977995355e-06
1.36243945771195e-06
1.36243916062467e-06
1.36243890870385e-06
1.36243870425256e-06
1.36243854813979e-06
1.36243844288269e-06
1.36243839565671e-06
1.3624384035143e-06
1.36243843152419e-06
1.36243847668301e-06
1.36243853123055e-06
1.36243843574936e-06
1.36243754456163e-06
1.36243380132197e-06
1.36242085634714e-06
1.36237929284742e-06
1.3622534321772e-06
1.36189232474345e-06
1.36091163888627e-06
1.35839882701126e-06
1.35235049195642e-06
1.33874357512843e-06
1.31029210914813e-06
1.2553289351692e-06
1.15784001685186e-06
1.00007204525309e-06
7.68550608052463e-07
4.62195802070046e-07
1.39826932862072e-09
5.51928412005313e-12
9.2177590105242e-12
2.39686560639157e-09
8.04995349156235e-07
1.34219562760013e-06
1.74757192088165e-06
2.02279700756011e-06
2.1917940154814e-06
2.28613529028616e-06
2.33427687913042e-06
2.35686008262168e-06
2.36665425067645e-06
2.37060300832729e-06
2.37209054553085e-06
2.37261635166978e-06
2.37279116732123e-06
2.37284570782213e-06
2.37286139757677e-06
2.37286521523748e-06
2.37286563508118e-06
2.37286524043952e-06
2.37286471645989e-06
2.37286422772712e-06
2.3728638114438e-06
2.3728634727321e-06
2.37286321266311e-06
2.37286303482071e-06
2.37286294738822e-06
2.37286295238508e-06
2.3728630047655e-06
2.37286306995092e-06
2.37286315481275e-06
2.37286298258796e-06
2.37286145537717e-06
2.37285513597788e-06
2.37283325825074e-06
2.37276289870783e-06
2.37254942680095e-06
2.37193579709807e-06
2.37026650605694e-06
2.36598316385959e-06
2.35566111475158e-06
2.33241716126456e-06
2.28377011332641e-06
2.18968134944718e-06
2.02247276408362e-06
1.75097211563866e-06
1.3503560611327e-06
8.1584549465395e-07
2.46092762694507e-09
9.6037087240772e-12
1.30223884184076e-11
3.38842315307114e-09
1.13164695590846e-06
1.8759327027844e-06
2.43324723851379e-06
2.80990223965812e-06
3.04069776394331e-06
3.16950513616237e-06
3.23530349433226e-06
3.26622993568964e-06
3.27967747462779e-06
3.28511598893684e-06
3.28717193984758e-06
3.28790152639283e-06
3.2881451849707e-06
3.28822163143317e-06
3.28824382338342e-06
3.28824934663663e-06
3.28825005650206e-06
3.28824957993933e-06
3.28824891161563e-06
3.28824827907224e-06
3.28824773709774e-06
3.28824729435736e-06
3.28824695213033e-06
3.28824671425857e-06
3.28824658811451e-06
3.28824658515451e-06
3.28824664012973e-06
3.2882467234093e-06
3.28824682764975e-06
3.28824656599546e-06
3.28824445975002e-06
3.28823594701441e-06
3.28820644977647e-06
3.28811145287799e-06
3.28782267804872e-06
3.28699094746672e-06
3.28472419521854e-06
3.27889843113867e-06
3.26484031699269e-06
3.2331468830671e-06
3.1667468458372e-06
3.03817318696115e-06
2.80930625150606e-06
2.43671188359098e-06
1.88459916664281e-06
1.14328925202142e-06
3.45845887722863e-09
1.34529920053907e-11
1.64924586412727e-11
4.293287769784e-09
1.42615602347366e-06
2.35257458310599e-06
3.04197382142235e-06
3.50625235222409e-06
3.79031452566719e-06
3.9488503572011e-06
4.02992147775996e-06
4.0680962706285e-06
4.08473537692279e-06
4.09148379525234e-06
4.09404320829831e-06
4.09495477840202e-06
4.09526050383219e-06
4.09535694300145e-06
4.09538518487335e-06
4.09539237140577e-06
4.09539343119222e-06
4.09539294337454e-06
4.09539219020418e-06
4.09539146370041e-06
4.09539083654089e-06
4.09539032126448e-06
4.09538991970146e-06
4.09538963558826e-06
4.09538947569197e-06
4.09538945195036e-06
4.09538949984706e-06
4.09538959040712e-06
4.09538968768628e-06
4.09538930392248e-06
4.09538669073734e-06
4.09537631549352e-06
4.09534038783625e-06
4.09522459702713e-06
4.09487206971465e-06
4.09385498830779e-06
4.09107861044505e-06
4.08393286260727e-06
4.06666866619915e-06
4.02770816124988e-06
3.94601127001266e-06
3.78767141572438e-06
3.505466177003e-06
3.04512092961227e-06
2.36076331445832e-06
1.43730037353959e-06
4.36256359052091e-09
1.69331156881421e-11
1.95484253519435e-11
5.09216396686795e-09
1.68399604299026e-06
2.76666902485026e-06
3.5683841072908e-06
4.10685225382554e-06
4.43597109745961e-06
4.61968989538967e-06
4.71374025304067e-06
4.75810289983011e-06
4.77748180840116e-06
4.78536194595683e-06
4.78835947710267e-06
4.78943069476392e-06
4.78979138382154e-06
4.78990574472365e-06
4.7899395130989e-06
4.78994829175182e-06
4.78994974995029e-06
4.78994931272055e-06
4.78994852919464e-06
4.78994775520227e-06
4.78994708042393e-06
4.78994652192074e-06
4.78994608239094e-06
4.7899457650591e-06
4.78994557558468e-06
4.78994552338724e-06
4.78994555657076e-06
4.78994564062084e-06
4.78994570168227e-06
4.78994518180573e-06
4.78994211650967e-06
4.78993016708386e-06
4.78988888246828e-06
4.78975580453316e-06
4.7893501656274e-06
4.78817817688871e-06
4.78497449896714e-06
4.77671880828011e-06
4.75675228098033e-06
4.71165518384911e-06
4.61702274213462e-06
4.43348116060936e-06
4.10605322438378e-06
3.57114208059045e-06
2.77396279698164e-06
1.69401622745704e-06
5.15711091302451e-09
1.99789954114519e-11
2.2157409809253e-11
5.77664625921183e-09
1.9036888634668e-06
3.11738714423474e-06
4.01267482412537e-06
4.61278862650487e-06
4.97934949213683e-06
5.18403892715622e-06
5.28893605086179e-06
5.33849422225311e-06
5.36018647672813e-06
5.36902828856067e-06
5.37240076450287e-06
5.37360970112386e-06
5.37401824585587e-06
5.37414839941304e-06
5.37418713076198e-06
5.37419740504881e-06
5.37419928903642e-06
5.37419895083731e-06
5.37419818180258e-06
5.37419739923956e-06
5.37419670861059e-06
5.37419613180284e-06
5.37419567248255e-06
5.37419533324814e-06
5.37419511831686e-06
5.3741950322224e-06
5.3741950454114e-06
5.37419511273119e-06
5.37419511373326e-06
5.37419445070367e-06
5.37419098189999e-06
5.37417770979224e-06
5.37413202268941e-06
5.37398479280365e-06
5.37353561948287e-06
5.37223631132147e-06
5.36868041769761e-06
5.35950745380353e-06
5.3373029792404e-06
5.28711580997975e-06
5.18174188385874e-06
4.97725605218026e-06
4.61221331197236e-06
4.01519381635007e-06
3.12378323633126e-06
1.9124422125108e-06
5.83598110866632e-09
2.25683994784506e-11
2.43210529940504e-11
6.34678835411397e-09
2.08609709885249e-06
3.40727846151337e-06
4.37898748479311e-06
5.02938453958838e-06
5.42651633678125e-06
5.6483731352518e-06
5.76218435049455e-06
5.81603312000452e-06
5.83964665762484e-06
5.8492922686218e-06
5.85298035633151e-06
5.85430613467459e-06
5.85475565350914e-06
5.85489948923715e-06
5.8549426017307e-06
5.85495425200419e-06
5.85495656786022e-06
5.85495636226474e-06
5.85495564180324e-06
5.85495488047278e-06
5.85495419880612e-06
5.85495362324319e-06
5.85495315857139e-06
5.85495280682533e-06
5.85495257097602e-06
5.8549524522657e-06
5.85495243828031e-06
5.85495246577975e-06
5.85495240016399e-06
5.85495159217301e-06
5.8549477684944e-06
5.85493339929615e-06
5.85488414654118e-06
5.85472551663626e-06
5.85424125537516e-06
5.85283909376707e-06
5.84899792912142e-06
5.83908029704191e-06
5.81505557507398e-06
5.76072271520174e-06
5.64659247237504e-06
5.42502393835117e-06
5.02928751169678e-06
4.38154653133756e-06
3.41303784705274e-06
2.09376028458341e-06
6.40078878982129e-09
2.4710570836855e-11
2.60660283742684e-11
6.80891979869331e-09
2.23377631018281e-06
3.64123275660181e-06
4.67412163108532e-06
5.36477027402655e-06
5.78641691842857e-06
6.02208323005981e-06
6.14309503945928e-06
6.20042717688427e-06
6.2256095516778e-06
6.23591573374829e-06
6.23986503043954e-06
6.24128826951979e-06
6.24177227636902e-06
6.24192776225256e-06
6.24197467264398e-06
6.24198755804744e-06
6.24199029377632e-06
6.24199024412597e-06
6.24198959568942e-06
6.24198887647458e-06
6.24198822146476e-06
6.24198766138206e-06
6.24198720211481e-06
6.24198684540792e-06
6.24198659328468e-06
6.24198644557138e-06
6.24198639157194e-06
6.24198637064545e-06
6.24198623078215e-06
6.24198528179359e-06
6.24198115696637e-06
6.24196589049243e-06
6.24191379550677e-06
6.24174613924036e-06
6.24123409856346e-06
6.23975034896217e-06
6.23568236539283e-06
6.22517138510854e-06
6.19969383089171e-06
6.14204810997784e-06
6.0209155467633e-06
5.78568133275822e-06
5.36538585615332e-06
4.67704400920036e-06
3.64674493316536e-06
2.24070012949886e-06
6.85878752258796e-09
2.64370485075785e-11
2.74357320507701e-11
7.17367262288455e-09
2.3504076042236e-06
3.82562532877565e-06
4.90651060919594e-06
5.62876640286323e-06
6.06970967049927e-06
6.31628476270158e-06
6.443010169718e-06
6.50312083454565e-06
6.52956199481774e-06
6.54040164661412e-06
6.54456339155754e-06
6.5460665190773e-06
6.54657905015897e-06
6.54674428132584e-06
6.54679442322209e-06
6.5468083922914e-06
6.54681152212717e-06
6.54681163774576e-06
6.54681107430003e-06
6.54681040981261e-06
6.54680979249993e-06
6.54680925707881e-06
6.54680881056942e-06
6.54680845460503e-06
6.54680819047897e-06
6.54680801712351e-06
6.54680792265477e-06
6.54680785371639e-06
6.54680763387847e-06
6.54680655933576e-06
6.54680217286545e-06
6.54678618384707e-06
6.54673186201562e-06
6.54655718888064e-06
6.54602356744996e-06
6.54447633234728e-06
6.54023148112805e-06
6.52925691488416e-06
6.50264248422001e-06
6.44240156189713e-06
6.31578017931803e-06
6.0698313741307e-06
5.63027925378095e-06
4.91009680195952e-06
3.83130033927584e-06
2.35699939892231e-06
7.22100255512247e-09
2.77937028514052e-11
2.8482856102409e-11
7.45418135171062e-09
2.44029352895302e-06
3.96758433722322e-06
5.08535928771064e-06
5.83195160750368e-06
6.28779736694573e-06
6.54283060614402e-06
6.67400719906075e-06
6.73629428462988e-06
6.76372742048955e-06
6.77499024540557e-06
6.77932172139036e-06
6.78088917490652e-06
6.78142487899548e-06
6.78159811561866e-06
6.78165095598725e-06
6.78166585518835e-06
6.78166934251551e-06
6.78166962102003e-06
6.78166914672752e-06
6.78166854276412e-06
6.78166796877106e-06
6.78166746312385e-06
6.78166703396283e-06
6.78166668294313e-06
6.78166641080856e-06
6.7816662158776e-06
6.78166608589442e-06
6.78166596894387e-06
6.78166567572548e-06
6.78166448864122e-06
6.78165988076684e-06
6.78164332004561e-06
6.78158728536188e-06
6.78140726204542e-06
6.78085720470863e-06
6.77926155344067e-06
6.7748815549071e-06
6.76355210816086e-06
6.73606611842457e-06
6.67383364701628e-06
6.54299778197302e-06
6.28882031307837e-06
5.83447936467236e-06
5.08984232715271e-06
3.97377768473191e-06
2.44693269947657e-06
7.50056395062982e-09
2.88338382599738e-11
2.92630741491065e-11
7.66450661418243e-09
2.50792283630002e-06
4.07436999066249e-06
5.21991888497831e-06
5.98488056317258e-06
6.45201454548261e-06
6.71348245687494e-06
6.84806246190349e-06
6.91202308267906e-06
6.94022372739932e-06
6.95181617049289e-06
6.95628081119139e-06
6.9578991302746e-06
6.95845332138993e-06
6.95863301450198e-06
6.95868806537125e-06
6.95870374484599e-06
6.95870754706084e-06
6.95870797923376e-06
6.95870759080177e-06
6.95870704782416e-06
6.95870651855309e-06
6.95870604458305e-06
6.95870563512177e-06
6.95870529194114e-06
6.95870501538478e-06
6.95870480327978e-06
6.95870464305517e-06
6.95870448253192e-06
6.95870412531216e-06
6.95870284091556e-06
6.9586980512118e-06
6.95868104687333e-06
6.95862372001876e-06
6.95843969852607e-06
6.95787737772343e-06
6.95624556031169e-06
6.95176442711925e-06
6.94016895528329e-06
6.91202872508802e-06
6.84829984740041e-06
6.7142955659937e-06
6.45393054072062e-06
5.98846900432334e-06
5.22544245567006e-06
4.08134054442597e-06
2.51491003292401e-06
7.71127441210837e-09
2.96124868068271e-11
2.98301111713735e-11
7.81837354129495e-09
2.55762388796374e-06
4.15288604101641e-06
5.31891869551102e-06
6.0974714369209e-06
6.57299076019826e-06
6.83926107320289e-06
6.97639467061436e-06
7.0416183331212e-06
7.07040192669194e-06
7.08224644304271e-06
7.08681366826877e-06
7.08847148295984e-06
7.08904015606422e-06
7.08922496117255e-06
7.08928178810617e-06
7.08929810619681e-06
7.08930218053711e-06
7.08930275530085e-06
7.08930244162289e-06
7.08930195624766e-06
7.08930147011998e-06
7.0893010274483e-06
7.08930063840351e-06
7.08930030493271e-06
7.0893000271073e-06
7.08929980234228e-06
7.08929961772196e-06
7.08929942040696e-06
7.0892990096483e-06
7.08929764455124e-06
7.0892927099826e-06
7.08927536866778e-06
7.08921708658224e-06
7.08903013836584e-06
7.08845885705449e-06
7.08680058871769e-06
7.082245363329e-06
7.0704546775461e-06
7.04183371130084e-06
6.97700422853831e-06
6.84066824669266e-06
6.57574848731547e-06
6.1021003474682e-06
5.32553488010466e-06
4.16078253352258e-06
2.56515994140745e-06
7.86648038494468e-09
3.01820769729963e-11
3.02324037457522e-11
7.92828479113028e-09
2.59332122312367e-06
4.20934114083729e-06
5.39017449859082e-06
6.17858468942253e-06
6.66021277538685e-06
6.92999926664899e-06
7.06901297194241e-06
7.1351722283644e-06
7.16439047273442e-06
7.17642425269747e-06
7.1810690751984e-06
7.18275700429308e-06
7.18333681743657e-06
7.18352559635345e-06
7.18358382337533e-06
7.18360065346878e-06
7.18360495436488e-06
7.18360564917037e-06
7.18360540757414e-06
7.1836049744269e-06
7.18360452800152e-06
7.18360411476541e-06
7.18360374573038e-06
7.18360342304605e-06
7.18360314661254e-06
7.1836029135107e-06
7.18360271047791e-06
7.18360248399757e-06
7.18360203046577e-06
7.18360060118817e-06
7.18359555475341e-06
7.18357796326971e-06
7.18351898976526e-06
7.18332994378424e-06
7.1827522526769e-06
7.18107504666168e-06
7.17646668858119e-06
7.16453578702943e-06
7.13556906734186e-06
7.06994724640275e-06
6.93193160222245e-06
6.6637296688381e-06
6.18418114123743e-06
5.39785578535289e-06
4.21820992974026e-06
2.60150875792236e-06
7.97828990358557e-09
3.05895569313886e-11
3.05112575280229e-11
8.00500847851453e-09
2.61839504947739e-06
4.24905852623582e-06
5.44037202328843e-06
6.23579210486967e-06
6.72178526229372e-06
6.99409769611265e-06
7.13446991521407e-06
7.2013094689513e-06
7.23084589051339e-06
7.24301920759696e-06
7.24772167272308e-06
7.24943215283319e-06
7.25002038222691e-06
7.25021219466545e-06
7.25027150509938e-06
7.25028873914972e-06
7.25029322243327e-06
7.25029401913525e-06
7.25029384059419e-06
7.25029345316809e-06
7.25029304209282e-06
7.25029265566675e-06
7.250292305608e-06
7.25029199426425e-06
7.25029172144157e-06
7.25029148396157e-06
7.25029126824817e-06
7.25029102019585e-06
7.25029053426569e-06
7.25028905619006e-06
7.25028392625136e-06
7.25026615365691e-06
7.25020669059975e-06
7.25001617288226e-06
7.24943399336678e-06
7.24774351505071e-06
7.24309785974191e-06
7.23106837468905e-06
7.20185823688736e-06
7.13567803041831e-06
6.99647784940936e-06
6.72596019915405e-06
6.24224736449218e-06
5.44903142820887e-06
4.25886428394683e-06
2.62725449509098e-06
8.05712888255312e-09
3.08748769216734e-11
3.07002669314848e-11
8.05738728591811e-09
2.63562985201602e-06
4.27641390289637e-06
5.4750020799919e-06
6.27531117609705e-06
6.76436453504906e-06
7.03845780533905e-06
7.17979363040555e-06
7.24711886859872e-06
7.27688401760014e-06
7.28915837567516e-06
7.29390290172009e-06
7.2956299713703e-06
7.29622444740179e-06
7.29641853476881e-06
7.29647866861341e-06
7.2964962164098e-06
7.29650084492707e-06
7.29650172467328e-06
7.29650159887806e-06
7.29650125056793e-06
7.29650087026633e-06
7.29650050775913e-06
7.29650017533912e-06
7.29649987553598e-06
7.29649960810755e-06
7.29649936969007e-06
7.29649914644154e-06
7.29649888378559e-06
7.29649837485656e-06
7.29649686153768e-06
7.29649167161958e-06
7.2964737715453e-06
7.29641396987238e-06
7.29622244196275e-06
7.29563718612646e-06
7.29393760201482e-06
7.28926631555544e-06
7.27716897182178e-06
7.24779104869188e-06
7.18122553836994e-06
7.0412073352304e-06
6.76908954504779e-06
6.2824978201166e-06
5.48451575682729e-06
4.28706555417922e-06
2.64512209948935e-06
8.11158385320096e-09
3.10705809716577e-11
3.08256420342469e-11
8.09238585108225e-09
2.6472301884925e-06
4.29486999400889e-06
5.49841030852578e-06
6.3020648042564e-06
6.79322375027322e-06
7.06854959037751e-06
7.21055657453966e-06
7.27822236927996e-06
7.30814903728824e-06
7.32049527848903e-06
7.3252699616709e-06
7.32700902421185e-06
7.32760805675652e-06
7.32780382093401e-06
7.32786456986744e-06
7.32788235681217e-06
7.32788709813487e-06
7.3278880445453e-06
7.3278879632403e-06
7.32788764806547e-06
7.32788729425711e-06
7.32788695290706e-06
7.32788663677466e-06
7.32788634854332e-06
7.32788608795631e-06
7.32788585151902e-06
7.32788562518319e-06
7.32788535401026e-06
7.32788483023147e-06
7.32788329313898e-06
7.3278780621946e-06
7.32786007538517e-06
7.32780004549515e-06
7.32760783986519e-06
7.32702052094942e-06
7.32531482154059e-06
7.32062628965935e-06
7.30848320813662e-06
7.27899202654764e-06
7.21216611760268e-06
7.07159455491819e-06
6.798393516978e-06
6.30985155349786e-06
5.50863842048309e-06
4.30624602861911e-06
2.65727985440802e-06
8.14845577617167e-09
3.12021797261664e-11
3.09070839601032e-11
8.11528834685635e-09
2.65487981486859e-06
4.30707334671101e-06
5.51392082037783e-06
6.31982196091779e-06
6.81240323863229e-06
7.08856685070239e-06
7.23103301550007e-06
7.29893342104388e-06
7.32897217010443e-06
7.3413686719401e-06
7.34616460871141e-06
7.34791219436145e-06
7.34851449477586e-06
7.34871147442977e-06
7.34877267539858e-06
7.34879064140613e-06
7.34879546896348e-06
7.34879646870088e-06
7.34879642466055e-06
7.34879613738647e-06
7.34879580631082e-06
7.34879548365989e-06
7.34879518256729e-06
7.34879490584234e-06
7.34879465323205e-06
7.34879442115567e-06
7.34879419541176e-06
7.34879392079695e-06
7.34879338893408e-06
7.34879183741699e-06
7.34878658029094e-06
7.34876853704632e-06
7.34870835803368e-06
7.34851570900986e-06
7.34792703777261e-06
7.34621732033225e-06
7.34151743082512e-06
7.32934416468944e-06
7.29977810942562e-06
7.23277981297122e-06
7.09184149978182e-06
6.81792182013997e-06
6.32808486915379e-06
5.52472416284098e-06
4.31904286391759e-06
2.66539526603794e-06
8.17294650309189e-09
3.12889940101077e-11
3.09589056154691e-11
8.12996921927093e-09
2.65982269493932e-06
4.31498228227878e-06
5.52399666847064e-06
6.33137871737361e-06
6.82490338535966e-06
7.10162628829229e-06
7.24440109717936e-06
7.31246033134265e-06
7.34257552642282e-06
7.3550065762685e-06
7.3598172408963e-06
7.36157078327625e-06
7.36217538898824e-06
7.36237323565334e-06
7.36243476384421e-06
7.36245286217009e-06
7.3624577550987e-06
7.36245879725489e-06
7.3624587841674e-06
7.36245852040449e-06
7.36245820894164e-06
7.36245790295525e-06
7.36245761587145e-06
7.36245735059167e-06
7.36245710688051e-06
7.36245688110489e-06
7.36245665895449e-06
7.36245638503787e-06
7.36245585057832e-06
7.36245429209326e-06
7.36244902021101e-06
7.36243094273477e-06
7.3623706703551e-06
7.36217774006885e-06
7.36158820523108e-06
7.35987591016099e-06
7.35516870898059e-06
7.34297595642522e-06
7.31336145544297e-06
7.24625141457773e-06
7.10507500830846e-06
6.83068817852222e-06
6.34000839104415e-06
5.53524814052098e-06
4.32742022901504e-06
2.67071105848979e-06
8.18891010326668e-09
3.13452048099176e-11
3.09911783556565e-11
8.13917946323757e-09
2.66294937302046e-06
4.32000183371134e-06
5.53040817956016e-06
6.33874775536712e-06
6.83288648693283e-06
7.10997596503856e-06
7.25295453052226e-06
7.3211194079552e-06
7.3512858470856e-06
7.36374024229184e-06
7.36856094231414e-06
7.37031857929956e-06
7.37092478504848e-06
7.37112324057693e-06
7.3711850023066e-06
7.37120319737646e-06
7.37120813964085e-06
7.37120921545318e-06
7.37120922803447e-06
7.37120898418825e-06
7.37120868981075e-06
7.37120839884343e-06
7.37120812493018e-06
7.37120787103759e-06
7.37120763695e-06
7.3712074190121e-06
7.37120720284054e-06
7.37120693291235e-06
7.37120640020053e-06
7.37120484057039e-06
7.3711995626008e-06
7.37118146701207e-06
7.37112114019157e-06
7.37092803946166e-06
7.37033797219814e-06
7.36862407275823e-06
7.36391229176231e-06
7.35170727670582e-06
7.32206218045826e-06
7.25488136881818e-06
7.11355382290799e-06
6.83886986438983e-06
6.34765302810501e-06
5.54199939194084e-06
4.33279847943985e-06
2.67412634092952e-06
8.19911843077344e-09
3.1380920777367e-11
3.10107682425271e-11
8.14481107486665e-09
2.66487759815682e-06
4.32310929520269e-06
5.53438939322371e-06
6.34333450103266e-06
6.83786448052482e-06
7.11518932014049e-06
7.25829974908472e-06
7.32653355724996e-06
7.35673371335691e-06
7.36920360111907e-06
7.37403101979307e-06
7.37579142354626e-06
7.37639872159213e-06
7.37659759809545e-06
7.37665952426223e-06
7.37667778946228e-06
7.37668276893194e-06
7.3766838715292e-06
7.37668390550514e-06
7.37668367870049e-06
7.3766833994228e-06
7.37668312220306e-06
7.37668286083639e-06
7.37668261832328e-06
7.37668239447004e-06
7.3766821856254e-06
7.37668197735606e-06
7.37668171405367e-06
7.37668118654148e-06
7.37667963033403e-06
7.37667435289667e-06
7.3766562510067e-06
7.37659589711869e-06
7.37640270185531e-06
7.37581232604825e-06
7.37409747590374e-06
7.36938294346089e-06
7.35717049061667e-06
7.32750670493563e-06
7.26028242588063e-06
7.11886164749622e-06
6.84399374729074e-06
6.35244341606613e-06
5.54623341510782e-06
4.33617496294452e-06
2.67627281804067e-06
8.20550785370539e-09
3.14031455140652e-11
3.10221942686283e-11
8.14811981061585e-09
2.66602098378907e-06
4.32496113576757e-06
5.536771363536e-06
6.34608735870444e-06
6.84085923925563e-06
7.11833098738309e-06
7.2615245234674e-06
7.32980220812976e-06
7.36002403795384e-06
7.37250398334558e-06
7.37733580758034e-06
7.37909804445229e-06
7.37970607452228e-06
7.37990523723525e-06
7.37996727758624e-06
7.37998559323408e-06
7.37999060079341e-06
7.37999172484521e-06
7.3799917767641e-06
7.37999156469114e-06
7.37999129893433e-06
7.37999103446347e-06
7.37999078516641e-06
7.37999055403931e-06
7.37999034091305e-06
7.37999014217227e-06
7.37998994334421e-06
7.3799896887677e-06
7.37998916919e-06
7.37998761999299e-06
7.37998234821361e-06
7.37996424890867e-06
7.37990388783919e-06
7.37971065161414e-06
7.37912012217925e-06
7.37740476772059e-06
7.3726887209207e-06
7.36047207256939e-06
7.33079755733681e-06
7.26354799388497e-06
7.12207243360749e-06
6.84709558690531e-06
6.35534643514344e-06
5.54880287072909e-06
4.33822760742609e-06
2.67758026281156e-06
8.20938916702775e-09
3.14165857380049e-11
3.10282881587643e-11
8.14989879113915e-09
2.66664307864484e-06
4.3259773260833e-06
5.5380874679681e-06
6.3476165749637e-06
6.84252956350883e-06
7.12008829646958e-06
7.26333177720467e-06
7.33163622898282e-06
7.36187146689248e-06
7.37435772018272e-06
7.37919234507454e-06
7.38095576313491e-06
7.38156427176254e-06
7.38176362496501e-06
7.38182574333454e-06
7.38184409498124e-06
7.3818491238265e-06
7.38185026530025e-06
7.38185033243178e-06
7.38185013327984e-06
7.38184987983005e-06
7.38184962735478e-06
7.38184938979083e-06
7.38184917010683e-06
7.38184896816318e-06
7.38184878039265e-06
7.38184859229185e-06
7.38184834816332e-06
7.38184783874709e-06
7.38184629946502e-06
7.38184103747887e-06
7.38182294788076e-06
7.3817625952611e-06
7.38156935905348e-06
7.3809787913198e-06
7.37926325713921e-06
7.37454657818285e-06
7.36232801008227e-06
7.33264828121126e-06
7.26538590495309e-06
7.12388172246738e-06
6.84884663021117e-06
6.35698926842147e-06
5.55026151829272e-06
4.33939735171458e-06
2.67832867186718e-06
8.21161343048959e-09
3.14242817112779e-11
3.10306639183945e-11
8.1506032141574e-09
2.66689656462418e-06
4.32640257952167e-06
5.53864990351559e-06
6.34828073145838e-06
6.84326377277225e-06
7.12086730874967e-06
7.26413742292571e-06
7.33245664402366e-06
7.36269949495969e-06
7.37518943090034e-06
7.38002573584772e-06
7.38178988256775e-06
7.38239869638207e-06
7.38259817701508e-06
7.3826603517268e-06
7.38267873243795e-06
7.38268378055844e-06
7.38268493892041e-06
7.38268502124342e-06
7.38268483522428e-06
7.3826845942793e-06
7.38268435391994e-06
7.38268412812086e-06
7.38268391987373e-06
7.38268372906385e-06
7.38268355211992e-06
7.38268337451352e-06
7.38268314052685e-06
7.38268264092497e-06
7.38268111131452e-06
7.38267585947913e-06
7.38265778215328e-06
7.38259744767769e-06
7.38240424278196e-06
7.38181373022539e-06
7.38009827989326e-06
7.37538167261507e-06
7.36316296013548e-06
7.33348222796933e-06
7.26621637672272e-06
7.12470284198734e-06
6.84964635597436e-06
6.35774593779233e-06
5.55094048157593e-06
4.33994870160922e-06
2.67868662537432e-06
8.21269329287228e-09
3.14280600340355e-11
3.1029996866382e-11
8.15042628686828e-09
2.66684805072183e-06
4.32634577181644e-06
5.53859942538413e-06
6.34824314021439e-06
6.84324006772455e-06
7.12085538399451e-06
7.26413406597837e-06
7.33245881571841e-06
7.36270488615447e-06
7.37519654531064e-06
7.38003370712021e-06
7.38179825726762e-06
7.38240725647577e-06
7.38260682473956e-06
7.38266904530056e-06
7.38268745444842e-06
7.38269252397868e-06
7.38269370184981e-06
7.38269380196959e-06
7.38269363117398e-06
7.38269340422523e-06
7.38269317689157e-06
7.3826929632129e-06
7.38269276626944e-06
7.38269258594839e-06
7.38269241862275e-06
7.38269224974511e-06
7.38269202356643e-06
7.38269153089359e-06
7.3826900076572e-06
7.38268476280794e-06
7.38266669649714e-06
7.3826063861472e-06
7.38241324092014e-06
7.38182287510355e-06
7.38010776773955e-06
7.37539191018053e-06
7.36317471688482e-06
7.33349681482628e-06
7.26623576365975e-06
7.12472954601461e-06
6.84968288707771e-06
6.35779365135002e-06
5.55099785199569e-06
4.34000918359855e-06
2.67873635232692e-06
8.21288204373659e-09
3.14288343335005e-11
3.10261767035338e-11
8.14934121725932e-09
2.66649076989846e-06
4.32579916019205e-06
5.53792937180229e-06
6.34749907368237e-06
6.84245578543555e-06
7.12005163288479e-06
7.2633221252302e-06
7.33164400812152e-06
7.36188940943467e-06
7.37438109427201e-06
7.3792184151468e-06
7.38098309787238e-06
7.3815921833925e-06
7.38179180561565e-06
7.38185406195872e-06
7.38187249739313e-06
7.38187758846408e-06
7.38187878666774e-06
7.38187890560516e-06
7.3818787508268e-06
7.38187853838563e-06
7.38187832433364e-06
7.38187812279703e-06
7.38187793693804e-06
7.38187776665458e-06
7.381877608269e-06
7.38187744720562e-06
7.38187722768661e-06
7.38187674060677e-06
7.38187522244111e-06
7.38186998406147e-06
7.38185193137941e-06
7.38179165771972e-06
7.38159861353893e-06
7.38100851417824e-06
7.37929407088631e-06
7.37457977339028e-06
7.36236602864366e-06
7.33269528314739e-06
7.26544813813983e-06
7.12396715763257e-06
6.84896318684386e-06
6.3571411619498e-06
5.55044380509424e-06
4.33958922765535e-06
2.6784860329109e-06
8.21220968266808e-09
3.14267222820218e-11
3.10183313405516e-11
8.14710418140625e-09
2.66574448332799e-06
4.32463795413056e-06
5.53648505565866e-06
6.34587523372551e-06
6.84072704875405e-06
7.1182667458859e-06
7.26150980446559e-06
7.32981947829372e-06
7.36005996767739e-06
7.37254987924044e-06
7.37738664137039e-06
7.37915118528936e-06
7.37976025911858e-06
7.37995990112128e-06
7.38002218150361e-06
7.38004063901664e-06
7.38004574983318e-06
7.38004696740284e-06
7.38004710443236e-06
7.38004696517651e-06
7.38004676681034e-06
7.38004656568495e-06
7.38004637599927e-06
7.3800462009864e-06
7.38004604056757e-06
7.38004589103791e-06
7.38004573779416e-06
7.38004552504849e-06
7.38004504388023e-06
7.38004353164061e-06
7.38003830220826e-06
7.38002027052779e-06
7.37996005525839e-06
7.37976717399869e-06
7.37917751038541e-06
7.37746417319426e-06
7.37275253262574e-06
7.36054481293125e-06
7.33088693000036e-06
7.26366555653792e-06
7.12223289143494e-06
6.84731345986535e-06
6.35562926299209e-06
5.54914117405514e-06
4.33858270612079e-06
2.67787062531763e-06
8.21049075360752e-09
3.14211176815672e-11
3.10046289830934e-11
8.14320572931015e-09
2.66444251059835e-06