/*--------------------------------*- C++ -*----------------------------------*\
  =========                 |
  \\      /  F ield         | OpenFOAM: The Open Source CFD Toolbox
   \\    /   O peration     | Website:  https://openfoam.org
    \\  /    A nd           | Version:  10
     \\/     M anipulation  |
\*---------------------------------------------------------------------------*/
FoamFile
{
    format      ascii;
    class       volScalarField;
    location    "4.4";
    object      h;
}
// * * * * * * * * * * * * * * * * * * * * * * * * * * * * * * * * * * * * * //

dimensions      [0 2 -2 0 0 0 0];

internalField   nonuniform List<scalar> 
2500
(
6768.46652619923
6752.28375284187
6733.31017678636
6722.65696393818
6717.51007955355
6715.14777974257
6714.10476750713
6713.66435753019
6713.4875324143
6713.42089454704
6713.39569227222
6713.38649096102
6713.38309807835
6713.38117536954
6713.37984427806
6713.37856842547
6713.37790013433
6713.37711136552
6713.37622865294
6713.37560222008
6713.37504988453
6713.3745499504
6713.37412828543
6713.37388033211
6713.37362214307
6713.37337455328
6713.37327959198
6713.3732135385
6713.37319412587
6713.37327162909
6713.37340972297
6713.3736675526
6713.37404081475
6713.37451851955
6713.37502672157
6713.37565106366
6713.37656878599
6713.37807036687
6713.38216017092
6713.39225764689
6713.41946589392
6713.49183500598
6713.67694474867
6714.12798975321
6715.17901069733
6717.5281395527
6722.64019392153
6733.31203845164
6752.51530578007
6768.32609090792
5433.0813951915
5373.36681242415
5320.1143258158
5289.53065420533
5273.80384007878
5266.0896201446
5262.45958393717
5260.83745607105
5260.1544311048
5259.88439306261
5259.7833302922
5259.74757215691
5259.73554605711
5259.73134748755
5259.72968318159
5259.72876369041
5259.72830950988
5259.72786517431
5259.72738080014
5259.72699956738
5259.72663336336
5259.72626005048
5259.7259298633
5259.72573745045
5259.72557494421
5259.72540415835
5259.72533218527
5259.72527398243
5259.72519752932
5259.72522905117
5259.72528767038
5259.72536556511
5259.7256851142
5259.72612459634
5259.72650802561
5259.72716305643
5259.72888481509
5259.73371667318
5259.7480526761
5259.78863609346
5259.89953484503
5260.18782604843
5260.89702946399
5262.54588738788
5266.18006611691
5273.83841565261
5289.4659592513
5320.15703774648
5374.22318278063
5433.04568282163
4198.88939100709
4114.32695443479
4046.93565397399
4008.89018798342
3989.41032797104
3979.86792199489
3975.37251506314
3973.35679741439
3972.50385145252
3972.16449727377
3972.0371868425
3971.99216218769
3971.97717013469
3971.97230243613
3971.97069092199
3971.97007329505
3971.96983813395
3971.96965234973
3971.96944632665
3971.96926755541
3971.9690686443
3971.96883096442
3971.96860275474
3971.96847050083
3971.96838174859
3971.96827882983
3971.96823843861
3971.96819912546
3971.96811111336
3971.96810322867
3971.96809707834
3971.96807127419
3971.96832978096
3971.96869805108
3971.96893850341
3971.96948925801
3971.97136517466
3971.97716380136
3971.99465660798
3972.0449380446
3972.18276607264
3972.54089241695
3973.4203722958
3975.46171113881
3979.95720420092
3989.44138215239
4008.84890332274
4047.16022415878
4115.89207604466
4200.74802061247
3245.1104379141
3162.74837580143
3104.63489395804
3073.01186338015
3057.43079945701
3050.06899143646
3046.70101104366
3045.22280627471
3044.60653174916
3044.36375916131
3044.27333835956
3044.24156517686
3044.23110045896
3044.2277999465
3044.22678751821
3044.2264856724
3044.22642147357
3044.22638292767
3044.22632978919
3044.2262721054
3044.22618710021
3044.22605808855
3044.22591711277
3044.22583259272
3044.22579105508
3044.22573974846
3044.22572176973
3044.22570304826
3044.22564769617
3044.22563586184
3044.22561705754
3044.22554836171
3044.22569757026
3044.22592632545
3044.22602991794
3044.2263262136
3044.22748977748
3044.23131247767
3044.24311522735
3044.27762781615
3044.37358217801
3044.62651526012
3045.25766870804
3046.75116538753
3050.12174577102
3057.45963935767
3073.04831919345
3105.04694512415
3164.64650539605
3248.73601289614
2607.85191537753
2544.25207507843
2503.73827692754
2482.49130059529
2472.4068834276
2467.80577938937
2465.75829301176
2464.87641586061
2464.51289052814
2464.37051031941
2464.31759902859
2464.29903112552
2464.29294878031
2464.29105913573
2464.29052382589
2464.29042207328
2464.29043483849
2464.29044226009
2464.29044530528
2464.2904456109
2464.29042287538
2464.29036629434
2464.29028858383
2464.29023998508
2464.29022738806
2464.29021184853
2464.29020738183
2464.29020062888
2464.29017434991
2464.29016532929
2464.29014451079
2464.29007662722
2464.29014649036
2464.29024137217
2464.29025454733
2464.29040653828
2464.29102838439
2464.29312125948
2464.29972757228
2464.31928860102
2464.37419186592
2464.52036241925
2464.88949837392
2465.777023999
2467.82482048882
2472.41873911347
2482.5421925302
2504.14170498211
2545.97105894413
2611.95614781946
2230.94924312833
2189.46897118342
2165.29086760181
2153.04311567336
2147.42343206242
2144.93965386245
2143.86186768306
2143.40516358815
2143.21848869701
2143.14557348101
2143.11844885299
2143.10891275042
2143.10579617218
2143.10484045471
2143.10460606265
2143.10459103688
2143.10461181017
2143.10463375009
2143.10464677705
2143.10464903197
2143.10465011193
2143.10463670671
2143.10459685322
2143.10457331589
2143.10457625375
2143.10457665154
2143.10457723991
2143.10457501518
2143.1045644965
2143.10455854513
2143.10454187645
2143.10449394167
2143.10452082342
2143.1045529245
2143.10454413994
2143.1046107024
2143.10489807876
2143.10590875019
2143.10917257759
2143.1189280706
2143.14646585272
2143.22022311478
2143.40802718921
2143.86528778876
2144.94083679835
2147.42064907043
2153.0729087344
2165.57410577514
2190.72393657048
2234.4241576437
2030.06630408015
2006.36859090203
1993.59530313861
1987.3297984909
1984.53998104874
1983.34148492919
1982.83314762671
1982.62080727131
1982.5345689445
1982.50090454349
1982.48834244868
1982.48390952642
1982.48246139664
1982.48202809454
1982.48193733851
1982.48194185755
1982.48195968777
1982.48197834641
1982.48199099937
1982.48199320524
1982.48199737919
1982.48199726864
1982.48197940664
1982.48197038269
1982.48197624845
1982.48197981665
1982.48198161445
1982.48198111828
1982.4819768787
1982.48197341959
1982.48196289169
1982.48193490008
1982.4819429203
1982.48195084309
1982.48194022813
1982.48196783926
1982.48208813229
1982.48252989607
1982.48399789199
1982.4884180026
1982.50092745541
1982.53452143982
1982.62048528865
1982.83180034764
1983.33714015955
1984.53135599592
1987.33786966323
1993.75335607189
2007.14382486244
2032.48316422851
1932.2145277443
1920.06674652377
1913.95600085971
1911.04725430888
1909.7860260712
1909.25770688937
1909.03821151422
1908.94769324552
1908.91111401476
1908.89682332098
1908.89146760458
1908.88956869857
1908.88894821993
1908.88876791649
1908.88873614953
1908.88874259665
1908.88875393819
1908.88876534447
1908.8887735965
1908.888776921
1908.88877906521
1908.88877961194
1908.88877400969
1908.88877172194
1908.8887759907
1908.88877860473
1908.88877979543
1908.88877996821
1908.88877837614
1908.88877627269
1908.88877068016
1908.88875646734
1908.88875776228
1908.88875830301
1908.88875151826
1908.88876142905
1908.88880701245
1908.88898664982
1908.8895996099
1908.89145497983
1908.89670618801
1908.91080492772
1908.9469588803
1909.03644715661
1909.25348299158
1909.77782512349
1911.04453644067
1914.02945487277
1920.48534404811
1933.66434021309
1888.15510301638
1882.47057948688
1879.77926950396
1878.53389949357
1878.00651902799
1877.7904911049
1877.70241394118
1877.66651392144
1877.65206540022
1877.64641132568
1877.64428192968
1877.64352306013
1877.64327489979
1877.64320545737
1877.64319558475
1877.64319951089
1877.64320553794
1877.64321143838
1877.64321588097
1877.64321815461
1877.64321914281
1877.64321926942
1877.64321833805
1877.64321881961
1877.64322072251
1877.64322204516
1877.64322261865
1877.64322282446
1877.64322220713
1877.64322106708
1877.64321843377
1877.64321219939
1877.64321165311
1877.6432110838
1877.64320796708
1877.64321058952
1877.64322639639
1877.64329502222
1877.64353557216
1877.6442666938
1877.64633190011
1877.65186210454
1877.66603888786
1877.7012884318
1877.78779381348
1878.00092831213
1878.52879141271
1879.80823476847
1882.6727345356
1888.92805552456
1869.64533252865
1867.18529408982
1866.08034086786
1865.58256618669
1865.37620219945
1865.29333209943
1865.26011938271
1865.24672772808
1865.24135698704
1865.23925088164
1865.23845367796
1865.23816813901
1865.23807467922
1865.23804948108
1865.23804677782
1865.23804883744
1865.23805167903
1865.23805440675
1865.23805652079
1865.23805776126
1865.23805832572
1865.23805846257
1865.23805853803
1865.23805910254
1865.23805991584
1865.23806048297
1865.23806071458
1865.23806082033
1865.23806057447
1865.23806002448
1865.23805889071
1865.23805640311
1865.23805582251
1865.23805528226
1865.23805412935
1865.23805440544
1865.23805923002
1865.23808435727
1865.23817395376
1865.23844702758
1865.23921562704
1865.24126443273
1865.24650411799
1865.25956376066
1865.2919250346
1865.37305280437
1865.57854692598
1866.08996302864
1867.27408895136
1870.01914094161
1862.33360198239
1861.33898971715
1860.91196565379
1860.7244422828
1860.64818684569
1860.61810026509
1860.60622879613
1860.60149027855
1860.59959600565
1860.598851535
1860.59856835627
1860.59846645641
1860.59843313549
1860.59842454791
1860.59842387839
1860.59842473732
1860.59842595654
1860.59842711282
1860.59842802967
1860.59842862062
1860.59842897559
1860.5984291389
1860.59842924056
1860.59842950483
1860.59842982914
1860.59843004926
1860.59843013273
1860.5984301712
1860.59843007159
1860.59842983133
1860.59842937703
1860.59842844708
1860.59842810364
1860.59842778105
1860.5984273167
1860.59842723069
1860.59842865633
1860.59843737639
1860.59846927327
1860.59856663403
1860.59883937978
1860.59956207733
1860.60140285504
1860.60599345603
1860.61745658718
1860.64663338887
1860.72205642306
1860.91450923763
1861.37491400217
1862.50004115165
1859.60007025287
1859.22130371554
1859.06476851483
1858.99767567931
1858.97087229553
1858.9604618068
1858.95641173435
1858.95481038465
1858.95417220523
1858.95392086582
1858.95382482809
1858.95379012604
1858.95377880137
1858.95377598541
1858.95377584026
1858.95377620116
1858.95377668653
1858.95377714259
1858.95377751104
1858.95377776385
1858.95377793571
1858.95377803055
1858.95377809376
1858.95377820644
1858.95377832749
1858.95377840711
1858.95377843463
1858.95377844457
1858.95377840487
1858.95377830875
1858.95377813734
1858.9537778082
1858.95377764477
1858.95377748741
1858.95377729266
1858.95377720533
1858.9537776053
1858.95378052631
1858.95379144086
1858.95382475798
1858.95391758538
1858.95416184327
1858.95478067228
1858.95632229398
1858.96019428428
1858.97017956588
1858.99647227641
1859.06517434717
1859.2348207641
1859.66907590179
1858.6275196055
1858.49074845975
1858.4359878142
1858.41304903167
1858.4040342748
1858.40058161479
1858.39925539668
1858.39873564711
1858.39852914498
1858.39844766593
1858.39841640531
1858.39840506811
1858.39840137574
1858.39840048403
1858.3984004624
1858.39840060443
1858.39840078509
1858.39840095371
1858.3984010921
1858.39840119116
1858.39840126236
1858.39840130608
1858.39840133706
1858.39840138098
1858.39840142344
1858.39840145061
1858.39840145901
1858.39840146041
1858.39840144538
1858.39840140959
1858.39840134817
1858.39840123706
1858.3984011689
1858.39840110142
1858.39840102244
1858.39840097444
1858.39840108359
1858.39840203441
1858.39840563869
1858.39841662848
1858.3984470676
1858.39852656176
1858.39872670035
1858.39922407192
1858.40047835442
1858.40374918873
1858.41250704882
1858.43591588492
1858.49551400136
1858.65439781748
1858.29666456048
1858.24957405192
1858.2312023637
1858.22367023331
1858.22075502398
1858.21965237446
1858.21923362383
1858.21907085524
1858.21900638176
1858.21898090342
1858.21897109264
1858.2189675224
1858.21896636072
1858.21896608624
1858.21896608611
1858.21896613748
1858.21896620022
1858.21896625856
1858.21896630709
1858.21896634284
1858.2189663692
1858.2189663865
1858.2189663993
1858.21896641496
1858.21896642889
1858.21896643757
1858.21896643995
1858.21896643974
1858.21896643442
1858.21896642192
1858.21896640104
1858.21896636519
1858.21896633958
1858.21896631363
1858.21896628389
1858.21896626331
1858.21896629368
1858.21896659597
1858.218967749
1858.2189712556
1858.21898090701
1858.21900591729
1858.21906845269
1858.21922330972
1858.21961478095
1858.22064516153
1858.22344628159
1858.23109754339
1858.25115742573
1858.30657103715
1858.18860295003
1858.17307124204
1858.16713675896
1858.16475166329
1858.16384158289
1858.16350118497
1858.16337320985
1858.16332383815
1858.16330433982
1858.16329662451
1858.16329364329
1858.16329255419
1858.16329219885
1858.16329211516
1858.16329211565
1858.16329213207
1858.16329215184
1858.16329217024
1858.16329218571
1858.16329219728
1858.16329220587
1858.16329221171
1858.16329221611
1858.16329222107
1858.1632922252
1858.16329222754
1858.16329222819
1858.1632922281
1858.16329222634
1858.16329222233
1858.16329221574
1858.16329220487
1858.16329219633
1858.16329218759
1858.1632921777
1858.16329217071
1858.16329218047
1858.16329227547
1858.16329263457
1858.16329372064
1858.16329668888
1858.16330431982
1858.16332326195
1858.16336995966
1858.16348812358
1858.16380150827
1858.16466529581
1858.16707421838
1858.17356920253
1858.19207834979
1858.154597298
1858.14967031632
1858.14781851358
1858.14708769349
1858.14681249968
1858.14671059614
1858.14667262179
1858.1466580697
1858.14665233811
1858.14665006676
1858.14664918529
1858.14664886108
1858.14664875378
1858.14664872718
1858.14664872595
1858.14664872973
1858.14664873464
1858.14664873927
1858.14664874319
1858.14664874604
1858.14664874811
1858.14664874948
1858.14664875046
1858.14664875166
1858.14664875259
1858.14664875302
1858.14664875316
1858.14664875314
1858.14664875267
1858.14664875164
1858.14664874991
1858.14664874708
1858.14664874488
1858.14664874272
1858.14664874034
1858.14664873896
1858.14664874361
1858.1466487742
1858.14664888405
1858.14664921236
1858.14665010101
1858.1466523657
1858.1466579438
1858.14667162297
1858.14670622436
1858.14679854735
1858.14705623973
1858.14778929924
1858.14981901704
1858.15576356848
1858.14425490471
1858.14274655723
1858.14218683349
1858.14196953012
1858.14188869859
1858.14185903468
1858.14184806391
1858.14184388338
1858.14184223959
1858.14184158601
1858.14184133008
1858.14184123414
1858.1418412009
1858.141841191
1858.14184118859
1858.14184118805
1858.14184118803
1858.14184118811
1858.14184118817
1858.14184118807
1858.14184118789
1858.14184118763
1858.14184118738
1858.14184118728
1858.1418411872
1858.1418411871
1858.14184118703
1858.14184118702
1858.14184118702
1858.14184118698
1858.14184118686
1858.14184118658
1858.1418411866
1858.1418411868
1858.14184118711
1858.141841188
1858.14184119103
1858.14184120185
1858.14184123614
1858.14184133443
1858.14184159528
1858.14184225182
1858.14184385375
1858.1418477568
1858.14185761244
1858.14188403034
1858.14195861948
1858.14217486115
1858.14278880243
1858.14463084151
1858.14120656526
1858.14075962306
1858.14059536903
1858.14053251436
1858.14050939331
1858.14050097554
1858.14049788112
1858.14049670604
1858.14049624311
1858.14049605704
1858.14049598223
1858.14049595244
1858.14049594052
1858.14049593538
1858.14049593262
1858.14049593065
1858.14049592905
1858.14049592767
1858.14049592648
1858.14049592541
1858.14049592446
1858.14049592364
1858.14049592296
1858.14049592244
1858.14049592206
1858.14049592179
1858.14049592166
1858.14049592167
1858.14049592182
1858.14049592211
1858.14049592251
1858.14049592303
1858.1404959238
1858.1404959248
1858.14049592603
1858.14049592767
1858.1404959302
1858.14049593522
1858.14049594721
1858.14049597766
1858.1404960543
1858.14049624213
1858.14049669328
1858.14049778191
1858.14050052014
1858.14050788189
1858.14052888468
1858.14059087465
1858.14077104639
1858.14132337907
1858.14033374841
1858.14020525381
1858.14015837056
1858.14014064394
1858.1401341863
1858.14013185081
1858.14013099504
1858.14013066921
1858.14013053897
1858.14013048462
1858.14013046091
1858.14013044979
1858.14013044385
1858.14013044005
1858.14013043715
1858.14013043472
1858.14013043261
1858.14013043077
1858.14013042917
1858.14013042777
1858.14013042657
1858.14013042556
1858.14013042473
1858.14013042408
1858.14013042359
1858.14013042327
1858.14013042313
1858.14013042316
1858.14013042336
1858.14013042375
1858.14013042433
1858.1401304251
1858.14013042612
1858.14013042739
1858.14013042893
1858.14013043083
1858.14013043322
1858.14013043658
1858.14013044215
1858.14013045314
1858.14013047714
1858.14013053187
1858.14013065844
1858.14013095764
1858.14013170309
1858.1401337076
1858.1401394779
1858.14015678994
1858.14020818814
1858.14036884276
1858.14009045549
1858.14005455352
1858.1400415242
1858.14003663596
1858.14003486757
1858.14003423056
1858.14003399606
1858.14003390475
1858.14003386613
1858.14003384806
1858.14003383844
1858.14003383247
1858.14003382817
1858.14003382472
1858.14003382176
1858.14003381918
1858.1400338169
1858.1400338149
1858.14003381316
1858.14003381165
1858.14003381036
1858.14003380927
1858.14003380839
1858.14003380769
1858.14003380717
1858.14003380684
1858.14003380669
1858.14003380672
1858.14003380695
1858.14003380738
1858.14003380801
1858.14003380887
1858.14003380998
1858.14003381135
1858.140033813
1858.14003381498
1858.14003381735
1858.14003382025
1858.14003382402
1858.14003382955
1858.14003383888
1858.14003385671
1858.1400338939
1858.14003397695
1858.14003417821
1858.14003471528
1858.14003627028
1858.14004099516
1858.14005526373
1858.14010067319
1858.14002430811
1858.14001456314
1858.14001104247
1858.14000971717
1858.1400092374
1858.14000906393
1858.14000899813
1858.14000897024
1858.14000895636
1858.14000894809
1858.14000894229
1858.14000893772
1858.14000893386
1858.14000893049
1858.14000892751
1858.14000892486
1858.14000892252
1858.14000892046
1858.14000891866
1858.14000891711
1858.14000891578
1858.14000891466
1858.14000891375
1858.14000891303
1858.1400089125
1858.14000891216
1858.14000891201
1858.14000891205
1858.14000891229
1858.14000891274
1858.1400089134
1858.14000891429
1858.14000891543
1858.14000891684
1858.14000891855
1858.14000892056
1858.14000892293
1858.1400089257
1858.14000892899
1858.14000893302
1858.14000893833
1858.14000894614
1858.14000895923
1858.14000898439
1858.14000904042
1858.14000918509
1858.14000960221
1858.14001087087
1858.14001472012
1858.14002719393
1858.14000673618
1858.14000418622
1858.14000327085
1858.1400029118
1858.14000277845
1858.14000272886
1858.14000270798
1858.14000269696
1858.14000268967
1858.14000268401
1858.14000267925
1858.14000267505
1858.14000267131
1858.14000266796
1858.14000266496
1858.14000266228
1858.14000265991
1858.14000265782
1858.140002656
1858.14000265442
1858.14000265307
1858.14000265194
1858.14000265101
1858.14000265029
1858.14000264975
1858.14000264941
1858.14000264926
1858.1400026493
1858.14000264955
1858.14000265001
1858.14000265068
1858.14000265159
1858.14000265275
1858.14000265418
1858.14000265591
1858.14000265794
1858.14000266032
1858.14000266306
1858.14000266621
1858.14000266982
1858.14000267405
1858.14000267917
1858.14000268586
1858.14000269581
1858.14000271386
1858.14000275588
1858.14000287282
1858.14000321487
1858.14000421321
1858.14000752437
1858.1400021682
1858.1400015491
1858.14000133121
1858.14000122863
1858.14000118656
1858.14000116948
1858.14000116037
1858.14000115379
1858.14000114824
1858.1400011433
1858.14000113881
1858.14000113473
1858.14000113102
1858.14000112766
1858.14000112465
1858.14000112196
1858.14000111958
1858.14000111748
1858.14000111564
1858.14000111405
1858.14000111269
1858.14000111155
1858.14000111062
1858.14000110988
1858.14000110935
1858.140001109
1858.14000110886
1858.1400011089
1858.14000110915
1858.14000110961
1858.1400011103
1858.14000111122
1858.14000111239
1858.14000111384
1858.14000111557
1858.14000111762
1858.14000112
1858.14000112274
1858.14000112584
1858.14000112934
1858.14000113326
1858.14000113766
1858.14000114266
1858.14000114865
1858.14000115693
1858.14000117262
1858.14000121202
1858.14000131109
1858.14000154756
1858.14000237253
1858.14000100455
1858.14000089186
1858.14000085668
1858.14000082083
1858.14000080237
1858.14000079368
1858.14000078763
1858.14000078221
1858.14000077714
1858.1400007724
1858.140000768
1858.14000076394
1858.14000076025
1858.1400007569
1858.14000075388
1858.14000075119
1858.14000074879
1858.14000074669
1858.14000074484
1858.14000074324
1858.14000074188
1858.14000074074
1858.1400007398
1858.14000073907
1858.14000073853
1858.14000073819
1858.14000073804
1858.14000073809
1858.14000073834
1858.14000073881
1858.1400007395
1858.14000074043
1858.14000074161
1858.14000074306
1858.1400007448
1858.14000074686
1858.14000074924
1858.14000075198
1858.14000075507
1858.14000075853
1858.14000076236
1858.14000076655
1858.1400007711
1858.14000077605
1858.14000078185
1858.14000079089
1858.14000081064
1858.14000084732
1858.14000088465
1858.14000105049
1858.14000071383
1858.14000073115
1858.14000074283
1858.14000072398
1858.14000071151
1858.14000070495
1858.14000069968
1858.14000069456
1858.14000068962
1858.14000068494
1858.14000068056
1858.14000067653
1858.14000067283
1858.14000066949
1858.14000066647
1858.14000066378
1858.14000066139
1858.14000065928
1858.14000065743
1858.14000065584
1858.14000065447
1858.14000065333
1858.14000065239
1858.14000065166
1858.14000065113
1858.14000065079
1858.14000065064
1858.14000065069
1858.14000065095
1858.14000065142
1858.14000065212
1858.14000065305
1858.14000065423
1858.14000065569
1858.14000065743
1858.14000065949
1858.14000066187
1858.1400006646
1858.14000066769
1858.14000067114
1858.14000067494
1858.14000067907
1858.1400006835
1858.14000068818
1858.14000069335
1858.14000070075
1858.14000071563
1858.14000073664
1858.14000072302
1858.14000071787
1858.14000064274
1858.14000069277
1858.14000071616
1858.1400007015
1858.14000069047
1858.1400006844
1858.14000067931
1858.14000067426
1858.14000066934
1858.14000066466
1858.1400006603
1858.14000065627
1858.14000065259
1858.14000064924
1858.14000064624
1858.14000064355
1858.14000064116
1858.14000063906
1858.14000063722
1858.14000063563
1858.14000063427
1858.14000063313
1858.1400006322
1858.14000063147
1858.14000063094
1858.1400006306
1858.14000063046
1858.14000063052
1858.14000063078
1858.14000063125
1858.14000063194
1858.14000063288
1858.14000063406
1858.14000063551
1858.14000063726
1858.14000063931
1858.1400006417
1858.14000064442
1858.14000064751
1858.14000065095
1858.14000065474
1858.14000065886
1858.14000066327
1858.14000066791
1858.14000067295
1858.14000067999
1858.14000069374
1858.14000071095
1858.14000068465
1858.14000063602
1858.14000062605
1858.14000068416
1858.14000071028
1858.14000069652
1858.14000068574
1858.14000067971
1858.1400006746
1858.14000066953
1858.14000066459
1858.14000065991
1858.14000065554
1858.14000065152
1858.14000064784
1858.14000064451
1858.14000064151
1858.14000063884
1858.14000063646
1858.14000063437
1858.14000063254
1858.14000063096
1858.14000062961
1858.14000062848
1858.14000062756
1858.14000062684
1858.14000062631
1858.14000062598
1858.14000062584
1858.1400006259
1858.14000062616
1858.14000062663
1858.14000062733
1858.14000062826
1858.14000062944
1858.14000063089
1858.14000063263
1858.14000063468
1858.14000063705
1858.14000063978
1858.14000064286
1858.1400006463
1858.1400006501
1858.14000065424
1858.14000065866
1858.14000066333
1858.1400006684
1858.14000067543
1858.14000068902
1858.14000070546
1858.14000067621
1858.14000061672
1858.14000062276
1858.14000068283
1858.14000070938
1858.14000069562
1858.14000068474
1858.1400006786
1858.1400006734
1858.14000066825
1858.14000066327
1858.14000065856
1858.14000065419
1858.14000065016
1858.14000064649
1858.14000064317
1858.1400006402
1858.14000063754
1858.14000063518
1858.14000063311
1858.14000063129
1858.14000062973
1858.14000062839
1858.14000062727
1858.14000062636
1858.14000062565
1858.14000062513
1858.14000062481
1858.14000062467
1858.14000062473
1858.14000062499
1858.14000062546
1858.14000062616
1858.14000062708
1858.14000062826
1858.1400006297
1858.14000063143
1858.14000063347
1858.14000063584
1858.14000063856
1858.14000064164
1858.14000064509
1858.1400006489
1858.14000065306
1858.14000065754
1858.14000066228
1858.14000066745
1858.1400006746
1858.14000068832
1858.14000070481
1858.14000067509
1858.14000061293
1858.1400006229
1858.14000068343
1858.14000070976
1858.1400006957
1858.14000068457
1858.14000067824
1858.14000067288
1858.14000066763
1858.14000066258
1858.14000065783
1858.14000065344
1858.14000064941
1858.14000064576
1858.14000064246
1858.1400006395
1858.14000063687
1858.14000063454
1858.14000063248
1858.14000063069
1858.14000062915
1858.14000062783
1858.14000062673
1858.14000062583
1858.14000062513
1858.14000062462
1858.1400006243
1858.14000062417
1858.14000062424
1858.1400006245
1858.14000062497
1858.14000062565
1858.14000062657
1858.14000062774
1858.14000062917
1858.14000063089
1858.14000063292
1858.14000063527
1858.14000063798
1858.14000064106
1858.14000064452
1858.14000064835
1858.14000065256
1858.14000065711
1858.14000066196
1858.14000066728
1858.14000067464
1858.14000068862
1858.14000070542
1858.14000067592
1858.14000061311
1858.1400006241
1858.14000068473
1858.14000071057
1858.14000069606
1858.14000068457
1858.14000067797
1858.14000067242
1858.14000066703
1858.14000066189
1858.14000065709
1858.14000065268
1858.14000064865
1858.14000064501
1858.14000064173
1858.1400006388
1858.1400006362
1858.1400006339
1858.14000063188
1858.14000063012
1858.1400006286
1858.1400006273
1858.14000062622
1858.14000062534
1858.14000062465
1858.14000062416
1858.14000062385
1858.14000062372
1858.14000062379
1858.14000062405
1858.14000062451
1858.14000062519
1858.1400006261
1858.14000062725
1858.14000062867
1858.14000063037
1858.14000063238
1858.14000063472
1858.14000063742
1858.14000064049
1858.14000064396
1858.14000064783
1858.14000065209
1858.14000065674
1858.14000066173
1858.14000066725
1858.14000067488
1858.14000068922
1858.1400007065
1858.14000067748
1858.14000061451
1858.14000062585
1858.14000068647
1858.14000071166
1858.14000069654
1858.1400006846
1858.14000067767
1858.14000067187
1858.14000066631
1858.14000066105
1858.14000065619
1858.14000065175
1858.14000064773
1858.1400006441
1858.14000064085
1858.14000063796
1858.1400006354
1858.14000063313
1858.14000063115
1858.14000062942
1858.14000062793
1858.14000062667
1858.14000062561
1858.14000062475
1858.14000062408
1858.1400006236
1858.14000062329
1858.14000062318
1858.14000062324
1858.1400006235
1858.14000062396
1858.14000062463
1858.14000062552
1858.14000062666
1858.14000062806
1858.14000062974
1858.14000063173
1858.14000063405
1858.14000063673
1858.1400006398
1858.14000064327
1858.14000064717
1858.14000065151
1858.14000065627
1858.14000066144
1858.14000066721
1858.14000067518
1858.14000068998
1858.14000070787
1858.14000067952
1858.14000061651
1858.14000062806
1858.14000068864
1858.140000713
1858.14000069712
1858.14000068461
1858.14000067726
1858.14000067117
1858.14000066541
1858.14000066003
1858.1400006551
1858.14000065063
1858.14000064661
1858.14000064301
1858.1400006398
1858.14000063695
1858.14000063443
1858.14000063221
1858.14000063027
1858.14000062859
1858.14000062713
1858.1400006259
1858.14000062487
1858.14000062404
1858.14000062339
1858.14000062292
1858.14000062262
1858.14000062251
1858.14000062258
1858.14000062284
1858.14000062329
1858.14000062394
1858.14000062482
1858.14000062594
1858.14000062731
1858.14000062897
1858.14000063093
1858.14000063322
1858.14000063588
1858.14000063894
1858.14000064242
1858.14000064636
1858.14000065077
1858.14000065566
1858.14000066104
1858.14000066711
1858.14000067549
1858.14000069087
1858.14000070953
1858.14000068201
1858.14000061902
1858.14000063078
1858.14000069129
1858.1400007146
1858.14000069778
1858.14000068459
1858.14000067675
1858.14000067031
1858.14000066432
1858.1400006588
1858.1400006538
1858.14000064931
1858.1400006453
1858.14000064173
1858.14000063857
1858.14000063577
1858.1400006333
1858.14000063113
1858.14000062924
1858.1400006276
1858.14000062619
1858.140000625
1858.140000624
1858.14000062319
1858.14000062256
1858.14000062211
1858.14000062183
1858.14000062173
1858.14000062179
1858.14000062205
1858.14000062249
1858.14000062313
1858.14000062399
1858.14000062508
1858.14000062643
1858.14000062805
1858.14000062998
1858.14000063224
1858.14000063487
1858.14000063791
1858.1400006414
1858.14000064537
1858.14000064986
1858.1400006549
1858.14000066051
1858.14000066693
1858.14000067581
1858.14000069187
1858.14000071148
1858.140000685
1858.14000062206
1858.14000063411
1858.14000069448
1858.14000071649
1858.14000069853
1858.1400006845
1858.14000067609
1858.14000066926
1858.14000066302
1858.14000065736
1858.14000065229
1858.14000064778
1858.14000064379
1858.14000064026
1858.14000063715
1858.14000063441
1858.14000063201
1858.1400006299
1858.14000062807
1858.14000062648
1858.14000062512
1858.14000062396
1858.140000623
1858.14000062222
1858.14000062162
1858.14000062119
1858.14000062092
1858.14000062082
1858.14000062089
1858.14000062114
1858.14000062157
1858.14000062219
1858.14000062303
1858.14000062409
1858.1400006254
1858.14000062699
1858.14000062888
1858.1400006311
1858.1400006337
1858.14000063672
1858.1400006402
1858.1400006442
1858.14000064877
1858.14000065396
1858.14000065982
1858.14000066664
1858.1400006761
1858.14000069299
1858.14000071376
1858.14000068857
1858.14000062573
1858.14000063817
1858.14000069833
1858.14000071871
1858.14000069935
1858.14000068434
1858.14000067527
1858.140000668
1858.14000066149
1858.14000065568
1858.14000065055
1858.14000064604
1858.14000064208
1858.14000063861
1858.14000063556
1858.14000063289
1858.14000063056
1858.14000062852
1858.14000062675
1858.14000062522
1858.14000062391
1858.1400006228
1858.14000062188
1858.14000062113
1858.14000062056
1858.14000062014
1858.14000061989
1858.1400006198
1858.14000061987
1858.14000062011
1858.14000062053
1858.14000062114
1858.14000062195
1858.14000062298
1858.14000062425
1858.14000062579
1858.14000062763
1858.14000062981