/*--------------------------------*- C++ -*----------------------------------*\
  =========                 |
  \\      /  F ield         | OpenFOAM: The Open Source CFD Toolbox
   \\    /   O peration     | Website:  https://openfoam.org
    \\  /    A nd           | Version:  10
     \\/     M anipulation  |
\*---------------------------------------------------------------------------*/
FoamFile
{
    format      ascii;
    class       volScalarField;
    location    "4.4";
    object      k;
}
// * * * * * * * * * * * * * * * * * * * * * * * * * * * * * * * * * * * * * //

dimensions      [0 2 -2 0 0 0 0];

internalField   nonuniform List<scalar> 
2500
(
1.68485470905015e-09
3.27162600346436e-08
1.37500923447593e-07
2.31327199796641e-07
3.02979648263727e-07
3.51611568878873e-07
3.81210330752461e-07
3.97486900086143e-07
4.05634680597623e-07
4.09374415885935e-07
4.10959005737912e-07
4.11582689877987e-07
4.1181195987629e-07
4.11891010798052e-07
4.11916620742984e-07
4.11924378390726e-07
4.1192651359559e-07
4.11926976846826e-07
4.11926982391159e-07
4.11926886742501e-07
4.11926780732539e-07
4.11926685313059e-07
4.11926604813465e-07
4.11926539643846e-07
4.11926489833204e-07
4.11926456011189e-07
4.11926440325378e-07
4.11926442614404e-07
4.11926452191177e-07
4.11926467035735e-07
4.11926488705352e-07
4.11926478413494e-07
4.11926276395147e-07
4.11925350962074e-07
4.1192204805468e-07
4.11911246443257e-07
4.1187801932635e-07
4.1178121460216e-07
4.11514180973836e-07
4.10818897234812e-07
4.09117627567629e-07
4.05226185731202e-07
3.9695489569847e-07
3.80726289835263e-07
3.51544138427323e-07
3.03812970496463e-07
2.33339114101665e-07
1.40201859594574e-07
3.40270378149316e-08
1.80242514716715e-09
4.11407535659155e-08
9.31647454744558e-07
3.9994216919587e-06
6.7399058603816e-06
8.84446822833848e-06
1.02842392209025e-05
1.11688127079443e-05
1.16603364986193e-05
1.19091086919738e-05
1.2024590211581e-05
1.20740813294003e-05
1.20937816600144e-05
1.21011044540782e-05
1.21036570917306e-05
1.21044932623785e-05
1.21047496629069e-05
1.21048215125176e-05
1.21048378818599e-05
1.21048387880217e-05
1.21048361506592e-05
1.21048330689801e-05
1.21048302671514e-05
1.21048279004084e-05
1.21048259879076e-05
1.21048245310566e-05
1.21048235487706e-05
1.21048231111242e-05
1.21048231960626e-05
1.21048234691208e-05
1.21048239241436e-05
1.21048245189369e-05
1.21048239474751e-05
1.21048168604026e-05
1.21047858126848e-05
1.2104676938834e-05
1.2104324646213e-05
1.21032510249844e-05
1.21001517395315e-05
1.20916822820883e-05
1.20698419049442e-05
1.20169281436191e-05
1.18971098929922e-05
1.16450076093104e-05
1.11553082353456e-05
1.02831922316755e-05
8.86940146316886e-06
6.79805997469058e-06
4.07633105596258e-06
9.67879838403868e-07
4.38662757124316e-08
1.44170933006019e-07
4.13399657594144e-06
2.00026449869617e-05
3.35668083585227e-05
4.39009872503213e-05
5.09582500735311e-05
5.53037179861683e-05
5.77307269133136e-05
5.89678141126571e-05
5.9546844034579e-05
5.97972225442044e-05
5.9897817345332e-05
5.99355648923079e-05
5.99488504800094e-05
5.99532463317624e-05
5.99546097557602e-05
5.99549983695499e-05
5.99550908275099e-05
5.99550993387212e-05
5.99550880484121e-05
5.99550737894692e-05
5.99550606221376e-05
5.99550494461277e-05
5.99550403969644e-05
5.99550334921585e-05
5.99550288196897e-05
5.99550267256259e-05
5.99550270559743e-05
5.99550282538898e-05
5.99550302381156e-05
5.99550326361797e-05
5.99550284243561e-05
5.99549893092742e-05
5.99548247310809e-05
5.99542551737653e-05
5.99524263614336e-05
5.99468885184147e-05
5.99310000308892e-05
5.98878511863607e-05
5.9777292985498e-05
5.95111858231505e-05
5.89125424242691e-05
5.76608458679974e-05
5.5242874203101e-05
5.09542191339529e-05
4.40139180408528e-05
3.38288132733249e-05
2.03493216332663e-05
4.27709557373913e-06
1.52028894611705e-07
2.52307966788012e-07
7.28568559729171e-06
3.52221444005666e-05
5.87147823752925e-05
7.64402253853904e-05
8.84744896077992e-05
9.58640625934993e-05
9.99893572088308e-05
0.000102094523756808
0.000103082082349175
0.000103510388383966
0.000103683073469608
0.000103748126712543
0.00010377112163199
0.000103778766849702
0.000103781152080676
0.00010378183825963
0.000103782005206419
0.000103782023532875
0.000103782006233066
0.000103781983257655
0.000103781961793639
0.000103781943490133
0.00010378192861811
0.000103781917215171
0.000103781909401869
0.000103781905565687
0.000103781905771571
0.000103781908024729
0.000103781910867791
0.000103781914566651
0.000103781906987073
0.000103781840293979
0.00010378156405951
0.000103780607264573
0.000103777530152685
0.000103768194330342
0.000103741358630027
0.000103668356935541
0.000103481039990571
0.000103029649740528
0.000102013198555913
9.98859338114974e-05
9.5771691170259e-05
8.84603384809952e-05
7.65889672928246e-05
5.9071777422731e-05
3.5696983990173e-05
7.48050697455194e-06
2.62878457023443e-07
3.54948870382766e-07
1.02576384318065e-05
4.9318137784682e-05
8.17432398042073e-05
0.000106020981732052
0.000122428789749925
0.000132482864719291
0.000138094180956569
0.000140960651946905
0.000142307968237669
0.000142893820550461
0.000143130756150764
0.000143220327068166
0.000143252112971707
0.000143262728538043
0.000143266059173278
0.000143267026077093
0.000143267266729618
0.000143267297661258
0.000143267276898258
0.000143267247758467
0.000143267220145482
0.000143267196458479
0.000143267177122677
0.000143267162200347
0.000143267151821922
0.000143267146321913
0.00014326714618679
0.000143267148557333
0.00014326715217745
0.000143267156699615
0.000143267145235264
0.000143267053533776
0.000143266682728667
0.000143265397562453
0.000143261258742759
0.000143248677567997
0.000143212441496453
0.000143113686573582
0.000142859879641574
0.000142247426737688
0.000140866696387677
0.00013797401521902
0.000132372885611529
0.000122402837705561
0.000106171950926523
8.2120906216255e-05
4.98256520986655e-05
1.04697739747381e-05
3.66695718397272e-07
4.48410870319767e-07
1.29663812296124e-05
6.20138504112069e-05
0.000102289201206716
0.000132259134113294
0.000152442555250792
0.000164791647579646
0.000171683795963612
0.000175208300569037
0.000176867934879339
0.000177591318552263
0.000177884707095731
0.000177995978559402
0.0001780356096005
0.000178048901293432
0.000178053094144386
0.000178054322036034
0.000178054634509871
0.000178054680601759
0.000178054659396023
0.000178054626652208
0.000178054595050664
0.000178054567737061
0.000178054545307037
0.000178054527852163
0.000178054515500625
0.000178054508549859
0.000178054507515333
0.000178054509585609
0.000178054513516132
0.000178054517726113
0.000178054500984946
0.000178054387403953
0.000178053936359485
0.000178052374329063
0.000178047340191758
0.000178032013764913
0.000177987795493228
0.000177867091263019
0.000177556428351787
0.000176805868217601
0.000175112074557305
0.000171560364503675
0.000164676736732874
0.000152408375640966
0.000132395961850681
0.000102645264948691
6.24985599723577e-05
1.31757143618884e-05
4.60402431353541e-07
5.30791529477422e-07
1.53604450259826e-05
7.31422261878585e-05
0.000120161754979042
0.000154978913794554
0.000178363769500535
0.000192657005640802
0.000200635745547652
0.000204720288651396
0.000206646936240232
0.000207488555239709
0.000207830787658619
0.00020796097001606
0.000208007492964778
0.000208023157755311
0.000208028124516053
0.000208029591119367
0.000208029972407051
0.000208030035755262
0.000208030016769611
0.000208029982746849
0.000208029949132217
0.000208029919801996
0.000208029895533857
0.000208029876453337
0.000208029862676758
0.00020802985445064
0.000208029852183354
0.000208029853619028
0.000208029857264925
0.000208029859902643
0.000208029837285799
0.000208029704169735
0.000208029185211094
0.000208027392184136
0.000208021612577796
0.000208003995633098
0.000207953096155721
0.000207813960763119
0.000207455417855753
0.00020658827818785
0.000204629732914766
0.000200519909155338
0.000192548864411948
0.000178329061903475
0.000155098686793879
0.00012047854398439
7.35775173127175e-05
1.55564366353651e-05
5.4249134462764e-07
6.01241929271306e-07
1.74152023255181e-05
8.26406264261671e-05
0.000135325608326807
0.000174188540429666
0.000200238528226501
0.000216150411866948
0.00022503571558808
0.000229589174909303
0.000231740439990442
0.000232682077882977
0.000233065892031498
0.000233212287974665
0.000233264766818029
0.000233282501420107
0.000233288151308531
0.000233289832628244
0.000233290278646221
0.000233290360442096
0.000233290345766718
0.000233290312387228
0.000233290278418006
0.000233290248430053
0.000233290223388125
0.000233290203456391
0.00023329018873493
0.000233290179407168
0.000233290175670536
0.000233290176240984
0.000233290179160406
0.000233290179195601
0.000233290150392267
0.000233289999816166
0.000233289423684071
0.000233287440427577
0.000233281049293305
0.000233261551053704
0.000233205149242416
0.000233050791250469
0.000232652601947482
0.000231688728764607
0.000229510159011642
0.000224936001367142
0.000216059534444648
0.000200213548549221
0.000174297879355474
0.00013560325990293
8.30206566464495e-05
1.75941315336882e-05
6.124000370524e-07
6.59759540340901e-07
1.91292713133154e-05
9.05385770214657e-05
0.000147877869046224
0.000190049941193964
0.000218277140287415
0.000235512668792673
0.000245141271471815
0.000250080692060688
0.000252417736859646
0.000253442568522845
0.000253861189906182
0.000254021253696277
0.000254078792791523
0.000254098302039171
0.000254104544563724
0.00025410641567065
0.000254106921306771
0.000254107021823679
0.000254107012905111
0.00025410698163902
0.000254106948597746
0.000254106919012115
0.000254106894033794
0.000254106873870572
0.000254106858607373
0.000254106848372853
0.000254106843221569
0.000254106842613977
0.000254106843805941
0.000254106840954138
0.000254106805876916
0.000254106639927442
0.000254106016298922
0.000254103878708361
0.000254096994123527
0.000254075977053998
0.000254015122899487
0.000253848415508308
0.000253417988275146
0.000252375310969733
0.000250017256284671
0.000245063989351438
0.000235447896443375
0.0002182729253459
0.000190160997869997
0.000148127824718617
9.08711839675079e-05
1.92920549473099e-05
6.70329467042188e-07
7.07008826312813e-07
2.05200582882379e-05
9.69391838983328e-05
0.000158018045050857
0.000202841894543409
0.000232813703518616
0.000251111750755821
0.000261338882076008
0.000266590392649991
0.000269078417631783
0.000270171249546003
0.000270618503887108
0.000270789890378393
0.000270851654290453
0.00027087265861248
0.000270879406199411
0.000270881441963787
0.000270882001153918
0.000270882119880011
0.000270882117728115
0.000270882089589624
0.000270882058378811
0.00027088202995417
0.000270882005649928
0.000270881985721185
0.000270881970242774
0.000270881959302336
0.000270881952892709
0.00027088195054931
0.000270881949640605
0.000270881943569359
0.000270881902382248
0.000270881723377454
0.000270881060861403
0.000270878800106349
0.000270871524369318
0.00027084930347475
0.000270784913603079
0.00027060837648023
0.000270152234539558
0.000269046592745715
0.000266544959157163
0.000261288208033764
0.000251079827808115
0.000232840415633214
0.000202968712153833
0.000158257251957771
9.72396630804964e-05
2.06703569533581e-05
7.17074068324608e-07
7.44124267485575e-07
2.16184768575275e-05
0.000101997137467653
0.000166014756838825
0.000212920159042103
0.000244262714144102
0.00026339761419282
0.000274097835819328
0.00027959713468098
0.000282205660855137
0.000283353085582119
0.00028382347663368
0.000284004077241268
0.00028406930607567
0.000284091547576507
0.00028409871785456
0.000284100893786061
0.00028410149998243
0.000284101635805256
0.000284101640824248
0.00028410161637451
0.000284101587539659
0.000284101560751852
0.000284101537518061
0.000284101518142733
0.000284101502696434
0.000284101491235226
0.000284101483712944
0.000284101479613706
0.000284101476622086
0.000284101467081692
0.000284101420450106
0.000284101230097115
0.000284100536246693
0.000284098178927454
0.000284090598913538
0.000284067442190385
0.000284000299289915
0.000283816092248615
0.000283339846520043
0.000282184902632623
0.000279570723839855
0.000274075939066263
0.000263402895176002
0.000244328363923289
0.000213075781249732
0.00016626102388569
0.000102283193495319
2.17611148520846e-05
7.53834145401977e-07
7.72510856080558e-07
2.24634992119353e-05
0.000105896489502169
0.00017217316729617
0.000220678928340355
0.000253077249637021
0.000272858646337132
0.000283925797739361
0.000289618198017965
0.000292321142395004
0.000293511601721488
0.000294000351359223
0.000294188315514016
0.000294256335073334
0.00029427958192484
0.000294287099520411
0.000294289392526991
0.000294290039078516
0.000294290190412192
0.00029429020249895
0.000294290181917959
0.000294290155709749
0.000294290130802032
0.000294290108860267
0.00029429009023762
0.000294290075005817
0.000294290063197114
0.000294290054738605
0.000294290049098387
0.00029429004402359
0.000294290031299491
0.000294289979785799
0.000294289779827396
0.00029428906117581
0.000294286629553565
0.000294278817451197
0.000294254947742575
0.000294185704544274
0.000293995634755924
0.000293503994065287
0.000292311241141919
0.000289610666730458
0.000283933052284531
0.000272903036884954
0.000253186941097757
0.00022087346862393
0.000172441926001718
0.000106184596468046
2.26032772172443e-05
7.82030538006711e-07
7.93666810800248e-07
2.30972125772302e-05
0.000108830812711034
0.000176806448523709
0.000226517293846456
0.000259712640746258
0.000279983819778183
0.000291330164022122
0.000297170234724607
0.000299945792291064
0.000301169553293342
0.000301672604908296
0.000301866347048308
0.000301936573664324
0.000301960622672078
0.00030196842041785
0.000301970809339719
0.000301971489748158
0.000301971654745336
0.000301971673500171
0.00030197165664497
0.000301971633083233
0.000301971610116255
0.00030197158954907
0.000301971571781214
0.000301971556889549
0.000301971544888976
0.000301971535685226
0.000301971528732763
0.000301971521767279
0.000301971506266119
0.000301971450530191
0.000301971242682258
0.000301970504782789
0.00030196801709614
0.000301960031522273
0.000301935629729466
0.000301864817357237
0.000301670359529487
0.000301167176482886
0.000299946037155216
0.000297180536028035
0.000291365448719492
0.000280066963946754
0.000259868360235692
0.00022675698763072
0.000177108933644746
0.000109134020673022
2.32381494266298e-05
8.0314364917139e-07
8.09044127276193e-07
2.35608583742216e-05
0.000110987434159756
0.000180213418078012
0.000230813099753853
0.000264598192468422
0.000285233229449533
0.000296787960309742
0.000302738837070782
0.00030556920093525
0.000306818257492197
0.000307332247199937
0.000307530440752022
0.000307602381190488
0.000307627058612903
0.000307635078183321
0.000307637544174076
0.000307638252294093
0.000307638429099722
0.000307638454042107
0.000307638440430772
0.000307638419368655
0.000307638398273868
0.000307638379064839
0.000307638362182919
0.000307638347712594
0.000307638335656957
0.00030763832590384
0.000307638317892762
0.000307638309330767
0.000307638291506401
0.000307638232268715
0.000307638018134732
0.000307637265613192
0.000307634736477492
0.000307626623908411
0.000307601833304449
0.000307529873181011
0.000307332200359499
0.000306820546615854
0.000305578547229794
0.000302765288692612
0.000296849024248622
0.00028535290029797
0.000264799062789859
0.000231100207215518
0.000180556084074232
0.000111314459199388
2.37058297653183e-05
8.18590101482306e-07
8.19954445835383e-07
2.38920675490134e-05
0.000112536468157465
0.000182663209454146
0.000233905149177048
0.000268117993322398
0.000289018112186799
0.000300725423105352
0.000306757884792827
0.000309628847617716
0.000310896765336317
0.000311418967925257
0.000311620528727292
0.00031169377594915
0.000311718936782524
0.00031172712879261
0.000311729655538928
0.000311730385876857
0.00031173057251369
0.000311730602665198
0.000311730592181799
0.000311730573386086
0.00031173055401416
0.000311730536082465
0.00031173052006885
0.000311730506066593
0.000311730494071358
0.00031173048395647
0.000311730475146399
0.000311730465318803
0.000311730445638344
0.000311730383615631
0.000311730164627353
0.000311729401250081
0.000311726842111306
0.00031171863851296
0.000311693569765642
0.000311620787869721
0.000311420809432008
0.000310903071224285
0.000309646068351079
0.0003067984273923
0.000300809276293042
0.00028917072682512
0.000268360849809735
0.000234238476467076
0.000183048068032112
0.000112891763959499
2.4042759179895e-05
8.29641069660105e-07
8.27517287792425e-07
2.41232734878769e-05
0.000113624530630212
0.000184386721331049
0.000236083441113061
0.000270600475645441
0.000291690014374805
0.000303506937177589
0.000309598350831875
0.000312498834795424
0.000313780559647353
0.000314308817378758
0.000314512879554014
0.000314587105366319
0.000314612631418908
0.000314620955067269
0.000314623528827757
0.000314624276695208
0.000314624471246655
0.000314624505819911
0.00031462449807276
0.000314624481261093
0.000314624463423168
0.000314624446654879
0.000314624431464726
0.000314624417954586
0.00031462440611604
0.000314624395811163
0.000314624386450822
0.00031462437568712
0.000314624354600753
0.000314624290460482
0.0003146240678486
0.000314623296612139
0.00031462071622954
0.000314612448766138
0.000314587185247205
0.000314513827408046
0.000314312230479882
0.000313790214300416
0.000312522648442747
0.000309650776672192
0.000303610223287054
0.000291871184619358
0.000270880599859696
0.000236459213588267
0.000184812239450429
0.00011400898381202
2.42803395255808e-05
8.37379271794336e-07
8.32643525615898e-07
2.42811181950095e-05
0.000114372431065961
0.00018557380249718
0.000237586205917119
0.000272315398460844
0.000293537734125673
0.00030543193601694
0.000311565165177665
0.00031448672532716
0.00031577837576204
0.000316311018147093
0.000316516905547261
0.000316591851259129
0.000316617648383185
0.000316626070751541
0.000316628680243729
0.000316629441726099
0.000316629642579915
0.000316629680756843
0.000316629675298574
0.000316629660184326
0.00031662964368181
0.000316629627951466
0.000316629613526736
0.000316629600517393
0.000316629588912925
0.000316629578567362
0.000316629568880033
0.00031662955748261
0.000316629535398214
0.000316629469728573
0.0003166292445139
0.000316628467745479
0.00031662587266871
0.000316617561368189
0.000316592164352812
0.000316518411369121
0.000316315702181334
0.00031579074128552
0.000314515894411195
0.000311627302443698
0.000305551251123398
0.000293742774646112
0.000272627260908316
0.000237999049305856
0.000186036027964918
0.000114784344526173
2.4444440780266e-05
8.42687075225888e-07
8.36043933106516e-07
2.43865879494086e-05
0.000114875828490607
0.00018637470619693
0.000238602008227301
0.0002734763747734
0.000294790082602632
0.000306737771964502
0.000312900126117223
0.000315836464732699
0.000317135124288293
0.000317670886041528
0.000317878082109967
0.000317953548252791
0.000317979543106426
0.000317988038239813
0.0003179906744237
0.000317991446283866
0.000317991652032842
0.000317991693102639
0.000317991689575004
0.000317991675898646
0.000317991660545789
0.000317991645733547
0.000317991632015608
0.000317991619508413
0.000317991608200821
0.000317991597941183
0.000317991588119878
0.000317991576352858
0.000317991553624056
0.000317991486922762
0.000317991259927754
0.000317990479395455
0.000317987874415171
0.000317979533704856
0.000317954047161777
0.000317880028803725
0.000317676571248111
0.000317149625554107
0.000315869863812916
0.000312969971811784
0.000306869907380855
0.000295014423226196
0.000273814278635503
0.000239045854352222
0.000186868366106145
0.000115311930991389
2.4555555941106e-05
8.46256277563267e-07
8.38252810231932e-07
2.44556061630703e-05
0.000115207786845283
0.000186904275371708
0.000239275092943029
0.000274246953542028
0.000295622383991251
0.000307606428756451
0.000313788709194304
0.000316735228808644
0.000318038752147101
0.000318576694970045
0.000318784813341154
0.000318860649345228
0.000318886786008295
0.000318895333887309
0.000318897989687253
0.000318898769317827
0.000318898978808933
0.000318899022192834
0.000318899020282282
0.000318899007816662
0.000318898993450278
0.000318898979449472
0.000318898966384173
0.000318898954376289
0.000318898943414838
0.000318898933344434
0.000318898923548809
0.000318898911632425
0.00031889888855281
0.000318898821225558
0.00031889859309439
0.000318897810113063
0.000318895198661529
0.000318886838709896
0.000318861293482092
0.000318787100759458
0.00031858315033397
0.000318054894764136
0.000316771883844901
0.000313864511009377
0.000307748531276373
0.00029586186134786
0.000274605520209046
0.000239743901059772
0.000187423689320782
0.000115664101991122
2.46293603311598e-05
8.48610862146327e-07
8.39658338774502e-07
2.44998483979754e-05
0.000115422286949468
0.000187247489879281
0.000239712342391207
0.000274748468181667
0.00029616483775794
0.000308173153337683
0.000314368827580239
0.000317322239652008
0.000318629080403394
0.000319168522452059
0.000319377279943863
0.00031945337444202
0.000319479611144018
0.000319488196647125
0.000319490866646893
0.000319491652019412
0.000319491864347288
0.000319491909571935
0.000319491909004565
0.000319491897559198
0.000319491884043897
0.000319491870766237
0.000319491858308838
0.000319491846797606
0.000319491836222324
0.000319491826425334
0.000319491816785641
0.000319491804899548
0.000319491781707245
0.000319491714077611
0.000319491485306087
0.00031949070083925
0.000319488085335958
0.000319479713178638
0.000319454130473973
0.000319379825892458
0.00031917555816972
0.000318646456968231
0.000317361343702482
0.00031444912161779
0.000308322809625052
0.000296415867307969
0.00027512295055169
0.00024020059699168
0.000187787231225366
0.000115894784548462
2.4677468102905e-05
8.50135432089107e-07
8.40533668473899e-07
2.45276047900218e-05
0.000115557973541129
0.00018746532046436
0.000239990579075056
0.00027506825807969
0.000296511275752694
0.000308535499308927
0.000314740015795605
0.000317698012362789
0.000319007076895305
0.000319547532034108
0.000319756725018631
0.000319832997204539
0.000319859303340892
0.000319867915265841
0.000319870595400076
0.000319871384970801
0.000319871599439591
0.000319871646124731
0.000319871646671242
0.000319871636090146
0.000319871623316251
0.000319871610690331
0.000319871598804457
0.000319871587787361
0.000319871577629683
0.000319871568172801
0.000319871558792551
0.000319871547079529
0.000319871523963061
0.000319871456283728
0.00031987122724803
0.000319870441995166
0.000319867824129306
0.000319859444575246
0.000319833838764945
0.000319759464558857
0.000319554998086979
0.000319025364733524
0.000317738923736106
0.000314823630440416
0.00030869075950538
0.000296770922826103
0.000275454700014155
0.000240493576638159
0.000188020627481644
0.000116042995070452
2.47082322506261e-05
8.51104148421237e-07
8.4106501787248e-07
2.45445768979401e-05
0.000115641653616197
0.000187600176460538
0.000240163353705229
0.000275267311206641
0.00029672730795531
0.000308761745508914
0.000314971984457755
0.000317932972390342
0.000319243500121651
0.000319784627580381
0.000319994112128517
0.000320070504381037
0.000320096857918514
0.000320105488111937
0.000320108175381989
0.000320108967996022
0.000320109184079325
0.000320109231926784
0.000320109233401702
0.000320109223560111
0.000320109211441459
0.000320109199412102
0.000320109188070676
0.000320109177547381
0.000320109167833812
0.000320109158771522
0.00032010914973418
0.000320109138308675
0.000320109115417837
0.000320109047887022
0.000320108818874404
0.000320108033348059
0.000320105414307488
0.00032009703065079
0.000320071411450155
0.000319996995985107
0.000319792410105615
0.000319262453967236
0.000317975201888275
0.000315058022202997
0.000308921105190418
0.000296993285868035
0.000275662590161691
0.000240677321892167
0.000188167157641669
0.000116136146153911
2.47274880486421e-05
8.51706959916811e-07
8.41374949529586e-07
2.45545489680588e-05
0.000115691275800564
0.000187680545137216
0.000240266729616456
0.000275386783275779
0.000296857278234447
0.000308898091392234
0.000315111937036308
0.000318074829112746
0.000319386297428961
0.000319927861360505
0.000320137537096317
0.00032021400890001
0.000320240394204669
0.000320249036818469
0.000320251729043627
0.000320252523846855
0.000320252741149103
0.000320252789927567
0.000320252792181106
0.000320252782978784
0.000320252771446858
0.000320252759970727
0.000320252749153048
0.000320252739123838
0.000320252729875756
0.000320252721251912
0.000320252712624265
0.00032025270157741
0.00032025267903088
0.000320252611804272
0.000320252383037165
0.000320251597622955
0.000320248978270623
0.000320240592836018
0.000320214966967575
0.000320140529614557
0.000319935878010623
0.000319405739785186
0.000318118022041542
0.000315199745013679
0.000309060450475809
0.000297127902905712
0.000275788578463127
0.000240788833702054
0.000188256240176934
0.000116192887663689
2.47391856029291e-05
8.52071520543643e-07
8.41540264583236e-07
2.45599110861699e-05
0.000115718276714114
0.000187724650999511
0.000240323852568833
0.000275453155759946
0.000296929775041109
0.000308974363431443
0.000315190376693603
0.000318154430456974
0.000319466480673278
0.000320008318359081
0.000320218115638212
0.00032029463870274
0.000320321044775474
0.000320329695655899
0.000320332391266764
0.000320333187632179
0.000320333405858125
0.000320333455392603
0.000320333458306281
0.000320333449664654
0.000320333438666778
0.000320333427711184
0.000320333417402651
0.000320333407870003
0.000320333399107179
0.000320333390959378
0.00032033338279723
0.000320333372203755
0.000320333350098171
0.000320333283301811
0.000320333054959663
0.000320332269966638
0.00032032965098086
0.000320321265546626
0.000320295638015048
0.000320221192859651
0.00032001651381413
0.000319486292257527
0.000318198348210751
0.000315279515041578
0.000309138978170816
0.00029720390250659
0.000275859881346105
0.000240852142299822
0.000188307009499671
0.000116225369971565
2.47458896000057e-05
8.52280287318814e-07
8.41604737591167e-07
2.45620350004684e-05
0.000115729281944199
0.000187743113314308
0.000240348270261904
0.000275481989207478
0.000296961649388739
0.000309008182543038
0.000315225351839612
0.000318190046648794
0.000319502427290158
0.00032004442480829
0.00032025429500254
0.000320330849690538
0.000320357269007963
0.000320365925418586
0.000320368623474518
0.000320369421101204
0.000320369640163593
0.000320369690430925
0.000320369694003823
0.000320369685932081
0.000320369675476838
0.000320369665047001
0.000320369655248994
0.000320369646212636
0.000320369637932951
0.00032036963025496
0.000320369622548206
0.000320369612394827
0.000320369590715127
0.000320369524338455
0.00032036929643678
0.000320368511976267
0.000320365893777723
0.000320357509701875
0.000320331884563522
0.000320257443043315
0.000320052767098925
0.000319522539252878
0.000318234551609698
0.000315315567511335
0.00030917462452239
0.000297238619937927
0.000275892729384122
0.000240881616707516
0.000188330943763732
0.000116240908565824
2.47491449181353e-05
8.52382800728673e-07
8.41586684340658e-07
2.45615029449237e-05
0.000115727181968535
0.000187740656712136
0.000240346090726613
0.000275480370496003
0.000296960634243751
0.000309007679149618
0.000315225220527234
0.000318190155385466
0.000319502675795979
0.000320044748117283
0.000320254655504397
0.000320331227702498
0.000320357655066232
0.000320366315279954
0.000320369015325616
0.000320369814186333
0.000320370034177793
0.000320370085291712
0.000320370089636888
0.000320370082225756
0.000320370072377868
0.000320370062513268
0.000320370053241213
0.000320370044695367
0.000320370036870833
0.000320370029610218
0.000320370022282238
0.000320370012467677
0.000320369991088654
0.000320369924988573
0.000320369697390045
0.000320368913407485
0.000320366296255744
0.000320357914768818
0.00032033229599704
0.000320257869356453
0.000320053225936607
0.000319523063990998
0.000318235199100931
0.000315316423167823
0.000309175797422352
0.000297240218737536
0.000275894812470965
0.000240884117256339
0.000188333576944172
0.000116243071749886
2.47497148508838e-05
8.52403839890169e-07
8.41483113316257e-07
2.45582341807888e-05
0.000115711683131344
0.000187716945194303
0.000240317024873376
0.000275448094470468
0.000296926614044373
0.000308972814654602
0.00031519000092821
0.000318154811515344
0.000319467302949223
0.000320009376409639
0.000320219290708898
0.000320295868663673
0.000320322299774085
0.000320330962329743
0.000320333663928272
0.000320334463929712
0.000320334684855925
0.000320334736852161
0.000320334742013915
0.000320334735297838
0.000320334726079492
0.000320334716791237
0.000320334708046075
0.000320334699981228
0.000320334692592264
0.000320334685719592
0.000320334678730702
0.000320334669205129
0.000320334648068806
0.000320334582188759
0.000320334354870962
0.000320333571479778
0.000320330955920078
0.000320322578817644
0.000320296971607481
0.00032022257378074
0.000320017998050105
0.000319487985729247
0.000318200431337695
0.000315282258725818
0.00030914272785972
0.000297209001072385
0.00027586651043024
0.000240860085507563
0.000188315361644001
0.000116232214498943
2.47476898023355e-05
8.5234659626716e-07
8.41270371947806e-07
2.45514939384394e-05
0.000115679303487341
0.000187666563505117
0.000240254360090659
0.00027537764089811
0.000296851609483883
0.000308895374014183
0.000315111370089746
0.000318075651002751
0.000319387929344483
0.000319929925878796
0.000320139815941016
0.00032021638787579
0.000320242818480071
0.000320251481894442
0.00032025418453626
0.000320254985495822
0.00032025520727889
0.000320255260115502
0.000320255266062348
0.000320255260019856
0.000320255251412282
0.000320255242684965
0.000320255234454062
0.00032025522685987
0.000320255219898972
0.000320255213410592
0.000320255206761025
0.000320255197529372
0.000320255176649572
0.000320255111026676
0.000320254884097129
0.000320254101617263
0.000320251488591272
0.000320243118558372
0.000320217530256189
0.000320143180425019
0.000319938719981758
0.000319408969092358
0.000318121972809901
0.000315204918414723
0.000309067483903596
0.000297137425130484
0.000275800914527896
0.000240803569138447
0.000188271692477606
0.000116205514338468
2.47425108958481e-05
8.52194628717714e-07
8.40898778812232e-07
2.45397469775342e-05
0.000115622809979821
0.000187578182190776