/*--------------------------------*- C++ -*----------------------------------*\
  =========                 |
  \\      /  F ield         | OpenFOAM: The Open Source CFD Toolbox
   \\    /   O peration     | Website:  https://openfoam.org
    \\  /    A nd           | Version:  10
     \\/     M anipulation  |
\*---------------------------------------------------------------------------*/
FoamFile
{
    format      ascii;
    class       volScalarField;
    location    "4.4";
    object      nut;
}
// * * * * * * * * * * * * * * * * * * * * * * * * * * * * * * * * * * * * * //

dimensions      [0 2 -1 0 0 0 0];

internalField   nonuniform List<scalar> 
2500
(
1.31455096350619e-14
2.55229868219902e-13
1.07273238538831e-12
1.80477284849805e-12
2.36381874426228e-12
2.74325453692879e-12
2.97418924446041e-12
3.10118143627837e-12
3.16475141879291e-12
3.19392920712398e-12
3.20629232471494e-12
3.21115836440331e-12
3.21294715120252e-12
3.21356392348975e-12
3.21376374580288e-12
3.2138242853235e-12
3.21384095131018e-12
3.21384457449091e-12
3.21384462783315e-12
3.21384388847846e-12
3.21384306742948e-12
3.21384232831961e-12
3.21384170475819e-12
3.21384119890285e-12
3.21384081313766e-12
3.21384055194209e-12
3.21384043050874e-12
3.21384044901644e-12
3.21384052376772e-12
3.21384063864663e-12
3.21384080604969e-12
3.21384072253491e-12
3.21383914233604e-12
3.2138319169917e-12
3.2138061420596e-12
3.21372186119476e-12
3.2134626145619e-12
3.2127073335851e-12
3.21062390958672e-12
3.20519924708408e-12
3.19192578712416e-12
3.16156434804467e-12
3.09703069916658e-12
2.97041266080724e-12
2.74272829138841e-12
2.37032018638445e-12
1.82046953582395e-12
1.09380412398358e-12
2.65455530414959e-13
1.40628182655766e-14
1.29012706901162e-12
6.57475284039569e-11
2.8229351541611e-10
4.75774450967206e-10
6.243691333177e-10
7.26027152316551e-10
7.88483980968314e-10
8.23188437711662e-10
8.40752970889884e-10
8.48906426552442e-10
8.52400660170718e-10
8.53791555598208e-10
8.54308560754724e-10
8.54488782541086e-10
8.54547818823645e-10
8.54565922655868e-10
8.54570996336705e-10
8.54572153217741e-10
8.54572218548082e-10
8.54572033424952e-10
8.54571816892005e-10
8.54571620135765e-10
8.54571453974608e-10
8.54571319495443e-10
8.54571217100216e-10
8.54571148231385e-10
8.54571117535655e-10
8.54571123694559e-10
8.54571143185519e-10
8.54571175219897e-10
8.54571217045814e-10
8.54571176482924e-10
8.54570675256062e-10
8.5456848212952e-10
8.5456079482424e-10
8.54535921983383e-10
8.5446012210378e-10
8.54241306533527e-10
8.53643343259758e-10
8.52101352298392e-10
8.48365461265335e-10
8.39905793942656e-10
8.22106098554678e-10
7.87530383485318e-10
7.25953023473037e-10
6.26129206771097e-10
4.798796905499e-10
2.87722013611412e-10
6.83043012358893e-11
1.37559649338174e-12
4.53941098109758e-12
1.1718050751751e-09
3.93828024834153e-07
6.60972943859049e-07
8.6452150059728e-07
1.00352841640914e-06
1.08912049893324e-06
1.13692420820967e-06
1.16129013798203e-06
1.17269464881894e-06
1.17762600940903e-06
1.17960726398407e-06
1.18035070966686e-06
1.18061237046842e-06
1.18069894715444e-06
1.18072580036746e-06
1.18073345450983e-06
1.18073527606734e-06
1.18073544448473e-06
1.18073522283163e-06
1.18073494279363e-06
1.18073468440433e-06
1.18073446519461e-06
1.18073428749692e-06
1.18073415186022e-06
1.18073406024158e-06
1.18073401915789e-06
1.18073402581559e-06
1.18073404974841e-06
1.18073408885481e-06
1.18073413610449e-06
1.1807340532578e-06
1.18073328193188e-06
1.1807300393508e-06
1.18071882174531e-06
1.18068280359015e-06
1.18057373588384e-06
1.18026081083194e-06
1.17941098411303e-06
1.17723349340872e-06
1.17199233792566e-06
1.16020149630651e-06
1.13554776288756e-06
1.08792195566269e-06
1.00344873923968e-06
8.66745304832334e-07
6.66132242866841e-07
4.00653374629587e-07
1.2123610575608e-09
4.78679991314752e-12
7.969278179998e-12
2.07166314275912e-09
6.95641400762267e-07
1.15974491315066e-06
1.50993880733426e-06
1.74769652578263e-06
1.89368884981908e-06
1.97518914783327e-06
2.01677870351285e-06
2.0362886038156e-06
2.044749993807e-06
2.0481614397575e-06
2.04944657618256e-06
2.04990084153281e-06
2.05005187247242e-06
2.05009899250915e-06
2.05011254776164e-06
2.05011584589749e-06
2.0501162082774e-06
2.05011586692479e-06
2.05011541364116e-06
2.05011499051197e-06
2.05011462989679e-06
2.05011433668476e-06
2.05011411170997e-06
2.05011395771132e-06
2.05011388205114e-06
2.05011388624326e-06
2.05011393112567e-06
2.05011398736624e-06
2.05011406055959e-06
2.05011391129621e-06
2.05011259282426e-06
2.05010713452064e-06
2.05008823323376e-06
2.05002744577504e-06
2.04984301750472e-06
2.04931287760374e-06
2.04787071795116e-06
2.04417021496985e-06
2.03525278130524e-06
2.01517206954681e-06
1.97314589522921e-06
1.89186384049442e-06
1.74741668421101e-06
1.51287679121791e-06
1.16679620272689e-06
7.0501857708767e-07
2.12704668356767e-09
8.30305315701624e-12
1.12348958729393e-11
2.92270241477614e-09
9.75977157547609e-07
1.61776482808407e-06
2.0983110561515e-06
2.42308261749225e-06
2.6220883520185e-06
2.73315497633382e-06
2.78989142436309e-06
2.81655881940518e-06
2.82815450199105e-06
2.83284410561395e-06
2.834616950425e-06
2.83524607482263e-06
2.83545618315493e-06
2.83552210404635e-06
2.83554124088568e-06
2.83554600380832e-06
2.8355466159759e-06
2.83554620502879e-06
2.83554562850462e-06
2.8355450825169e-06
2.83554461443069e-06
2.83554423219009e-06
2.83554393696291e-06
2.83554373169639e-06
2.83554362287959e-06
2.83554362026616e-06
2.83554366742836e-06
2.83554373916016e-06
2.83554382885618e-06
2.83554360258918e-06
2.83554178697508e-06
2.83553444710674e-06
2.83550901096923e-06
2.83542709401329e-06
2.83517808153866e-06
2.83446087749699e-06
2.83250625792313e-06
2.82748272763097e-06
2.8153605478455e-06
2.78803178806469e-06
2.73077654205477e-06
2.61991149329275e-06
2.42256882771554e-06
2.10129887583141e-06
1.62523887784992e-06
9.86019252204659e-07
2.98312908080907e-09
1.16065512019332e-11
1.42109004756155e-11
3.69884793776575e-09
1.22859489838462e-06
2.02659717341901e-06
2.62042305859537e-06
3.02033790872205e-06
3.26502162095618e-06
3.40158110458488e-06
3.47141446934212e-06
3.50429776867242e-06
3.51863054052968e-06
3.52444358188286e-06
3.52664824851379e-06
3.52743347260592e-06
3.52769682469685e-06
3.52777989815342e-06
3.52780422622028e-06
3.5278104170287e-06
3.52781133009491e-06
3.52781090991404e-06
3.52781026114205e-06
3.52780963517145e-06
3.52780909446754e-06
3.52780865033161e-06
3.52780830445909e-06
3.52780805972917e-06
3.52780792200303e-06
3.52780790152883e-06
3.52780794266744e-06
3.52780802060997e-06
3.52780810421492e-06
3.52780777307898e-06
3.52780552237301e-06
3.52779658541586e-06
3.5277656368854e-06
3.5276658943482e-06
3.52736222729009e-06
3.52648611539238e-06
3.52409455489938e-06
3.51793925261373e-06
3.50306802675784e-06
3.46950791651394e-06
3.39913551747534e-06
3.2627448519776e-06
3.01966069762678e-06
2.62313402258013e-06
2.03365145882199e-06
1.23819661773834e-06
3.75854760703884e-09
1.45907653111529e-11
1.68328910294851e-11
4.38445052342187e-09
1.44989135143907e-06
2.38200447982208e-06
3.07222446523053e-06
3.53580820515986e-06
3.81915773569325e-06
3.97732798179922e-06
4.05829959767527e-06
4.09649320731577e-06
4.11317732563653e-06
4.11996167667804e-06
4.1225423840165e-06
4.12346464389885e-06
4.12377517822829e-06
4.12387363741516e-06
4.12390271057609e-06
4.12391026882459e-06
4.12391152443915e-06
4.12391114804017e-06
4.12391047352409e-06
4.12390980715728e-06
4.12390922596598e-06
4.1239087450027e-06
4.12390836667328e-06
4.12390809351878e-06
4.12390793041891e-06
4.12390788547626e-06
4.12390791399109e-06
4.12390798631006e-06
4.12390803874008e-06
4.12390759077197e-06
4.12390495181513e-06
4.12389466405733e-06
4.12385911988787e-06
4.12374454670056e-06
4.1233953131692e-06
4.12238629445856e-06
4.1196281051434e-06
4.11252042111365e-06
4.09533039114811e-06
4.05650445464107e-06
3.97503168862027e-06
3.81701400288182e-06
3.53512022723334e-06
3.07459887313989e-06
2.38828422446988e-06
1.4585193210142e-06
4.44038250433685e-09
1.72037871348814e-11
1.90732611419502e-11
4.97237911639075e-09
1.63861008560727e-06
2.68328129212923e-06
3.45388292469955e-06
3.97041989222175e-06
4.28593102257267e-06
4.46211430264334e-06
4.55240299416959e-06
4.59505951586981e-06
4.61373084124844e-06
4.62134131973863e-06
4.62424413762105e-06
4.6252847158437e-06
4.62563636644982e-06
4.62574839502058e-06
4.62578173284867e-06
4.62579057652548e-06
4.62579219828167e-06
4.62579190723561e-06
4.62579124533365e-06
4.62579057176278e-06
4.62578997722884e-06
4.62578948071626e-06
4.62578908543046e-06
4.62578879348197e-06
4.62578860850426e-06
4.6257885344059e-06
4.62578854573761e-06
4.62578860365389e-06
4.62578860443409e-06
4.6257880335227e-06
4.62578504780514e-06
4.62577362397274e-06
4.6257342991213e-06
4.62560757251722e-06
4.6252209514489e-06
4.62410258675689e-06
4.62104189369561e-06
4.61314637847334e-06
4.59403416279447e-06
4.55083623404458e-06
4.46013713279162e-06
4.28412908768738e-06
3.96992463943803e-06
3.45605103640432e-06
2.68878668434542e-06
1.64614497756298e-06
5.02345990943085e-09
1.94271375200588e-11
2.09326810668291e-11
5.46246045880088e-09
1.79541533592464e-06
2.93248800591378e-06
3.76878671598554e-06
4.32854949227145e-06
4.67034037346613e-06
4.86128121948756e-06
4.95923278304606e-06
5.00557771505006e-06
5.02590070646262e-06
5.03420220344665e-06
5.03737635754658e-06
5.03851738951758e-06
5.03890426841909e-06
5.03902806092553e-06
5.03906516586376e-06
5.03907519279288e-06
5.03907718601719e-06
5.0390770091142e-06
5.03907638906946e-06
5.03907573383635e-06
5.03907514714824e-06
5.03907465180201e-06
5.03907425191807e-06
5.03907394921401e-06
5.039073746244e-06
5.03907364408354e-06
5.03907363204083e-06
5.03907365569319e-06
5.03907359918065e-06
5.03907290368136e-06
5.03906961282088e-06
5.03905724594245e-06
5.0390148564356e-06
5.03887833141569e-06
5.038461551499e-06
5.03725478014913e-06
5.03394888003271e-06
5.02541326723578e-06
5.00473638832828e-06
4.95797482117533e-06
4.85974868165071e-06
4.66905592094621e-06
4.32846594640668e-06
3.77098909604759e-06
2.93744479469325e-06
1.80201088827746e-06
5.50894045542374e-09
2.12679864313161e-11
2.24331716618894e-11
5.85990383666275e-09
1.92242921905487e-06
3.13370709913805e-06
4.02262615039186e-06
4.61700849131853e-06
4.97988389761924e-06
5.18270190300748e-06
5.28684652264547e-06
5.33618744612841e-06
5.35785978910432e-06
5.36672945020419e-06
5.37012827684156e-06
5.37135313885711e-06
5.3717696828986e-06
5.37190349659444e-06
5.37194386848826e-06
5.37195495792781e-06
5.37195731238315e-06
5.3719572696807e-06
5.37195671164114e-06
5.37195609268098e-06
5.37195552897553e-06
5.3719550469745e-06
5.3719546517412e-06
5.37195434476849e-06
5.37195412779602e-06
5.37195400067803e-06
5.37195395420526e-06
5.37195393618999e-06
5.3719538158052e-06
5.37195299904984e-06
5.3719494491504e-06
5.37193631057096e-06
5.37189147677042e-06
5.37174718909693e-06
5.3713065187377e-06
5.37002958039987e-06
5.36652860986284e-06
5.357482695908e-06
5.33555631626693e-06
5.28594551678378e-06
5.18169697223046e-06
4.9792508316592e-06
4.61753824986831e-06
4.02514115523109e-06
3.1384509306595e-06
1.9283880476884e-06
5.90282281941121e-09
2.27525104560837e-11
2.36114055319952e-11
6.17369837435152e-09
2.02276961942048e-06
3.29234548960623e-06
4.22255777750758e-06
4.84413280070937e-06
5.2236096584725e-06
5.43581280891402e-06
5.54487302332992e-06
5.59660441998745e-06
5.61935975298866e-06
5.62868838647018e-06
5.63226999546851e-06
5.63356359116097e-06
5.6340046768703e-06
5.63414687530713e-06
5.63419002759492e-06
5.63420204944312e-06
5.63420474301145e-06
5.63420484252974e-06
5.63420435763889e-06
5.63420378578764e-06
5.63420325453388e-06
5.63420279375917e-06
5.63420240950316e-06
5.63420210316836e-06
5.6342018758672e-06
5.63420172668246e-06
5.63420164538509e-06
5.63420158605642e-06
5.63420139685896e-06
5.63420047209101e-06
5.63419669707943e-06
5.63418293688191e-06
5.63413618735279e-06
5.63398586315405e-06
5.63352662705215e-06
5.63219507225765e-06
5.62854194174087e-06
5.61909720042121e-06
5.59619275023606e-06
5.54434925320955e-06
5.43537856156946e-06
5.2237143930294e-06
4.8454347544091e-06
4.22564404411248e-06
3.29722939592262e-06
2.02844255989828e-06
6.21443149074965e-09
2.39194912149515e-11
2.45123468656316e-11
6.41506064398682e-09
2.10011295757663e-06
3.41449638034311e-06
4.37645122579309e-06
5.01896708484642e-06
5.4112670544341e-06
5.63074816942504e-06
5.74363849554554e-06
5.79724264362932e-06
5.82085154874408e-06
5.83054431476983e-06
5.83427197493066e-06
5.83562092253396e-06
5.83608194850376e-06
5.83623103563996e-06
5.83627650998035e-06
5.83628933222031e-06
5.83629233342058e-06
5.83629257311166e-06
5.83629216494538e-06
5.83629164518303e-06
5.8362911512124e-06
5.83629071606095e-06
5.83629034673343e-06
5.83629004465324e-06
5.8362898104603e-06
5.83628964270813e-06
5.83628953084876e-06
5.83628943020397e-06
5.83628917786172e-06
5.83628815625686e-06
5.8362841907292e-06
5.83626993860311e-06
5.83622171525551e-06
5.83606678751734e-06
5.83559340918171e-06
5.83422019465425e-06
5.83045077607536e-06
5.8207006754033e-06
5.79704628428226e-06
5.74348913691625e-06
5.63089204023083e-06
5.41214739856542e-06
5.0211424638076e-06
4.38030931167493e-06
3.41982635118899e-06
2.10582662068598e-06
6.45497774966393e-09
2.48144078050341e-11
2.51837218313621e-11
6.5960505020603e-09
2.15831018353705e-06
3.50638921007664e-06
4.49224462926686e-06
5.15056801668839e-06
5.55258192108722e-06
5.77760031235729e-06
5.89341940580159e-06
5.94846369822779e-06
5.97273307712475e-06
5.98270949424091e-06
5.9865517488644e-06
5.98794446878409e-06
5.98842140378953e-06
5.98857604708277e-06
5.98862342368408e-06
5.98863691739617e-06
5.98864018957796e-06
5.98864056151227e-06
5.98864022723618e-06
5.98863975995806e-06
5.9886393044754e-06
5.9886388965848e-06
5.98863854421005e-06
5.98863824887578e-06
5.98863801087759e-06
5.98863782834572e-06
5.98863769046143e-06
5.98863755231952e-06
5.98863724490053e-06
5.98863613955508e-06
5.98863201755476e-06
5.98861738368087e-06
5.98856804838546e-06
5.98840968011314e-06
5.98792574873643e-06
5.98652141220998e-06
5.98266496420769e-06
5.97268594056601e-06
5.94846855419476e-06
5.89362369905259e-06
5.77830007129293e-06
5.5542308196853e-06
5.15365621540686e-06
4.49699819148886e-06
3.51238803915244e-06
2.16432334162465e-06
6.63629882832709e-09
2.54844276859513e-11
2.56716847436038e-11
6.72846266779403e-09
2.20108130013268e-06
3.57395769604534e-06
4.57744085313556e-06
5.24746031136645e-06
5.65669039208061e-06
5.88584158905566e-06
6.00385823054828e-06
6.05998946135138e-06
6.08476051029053e-06
6.09495385511436e-06
6.09888439143425e-06
6.10031110033567e-06
6.10080049821213e-06
6.10095954077927e-06
6.10100844582527e-06
6.10102248911788e-06
6.10102599548618e-06
6.10102649013219e-06
6.10102622018849e-06
6.10102580248254e-06
6.10102538412887e-06
6.10102500317322e-06
6.10102466836852e-06
6.10102438139032e-06
6.10102414230006e-06
6.10102394887313e-06
6.10102378999429e-06
6.10102362019011e-06
6.10102326669677e-06
6.10102209190296e-06
6.10101784523571e-06
6.1010029213705e-06
6.10095276403625e-06
6.1007918771281e-06
6.10030023464791e-06
6.09887313534934e-06
6.09495292605038e-06
6.08480590761035e-06
6.06017481512039e-06
6.00438281387374e-06
5.88705259721251e-06
5.65906368131137e-06
5.25144393334738e-06
4.58313471445644e-06
3.58075338445249e-06
2.20756679809204e-06
6.76986327106291e-09
2.5974586081909e-11
2.60178875260226e-11
6.82305029636575e-09
2.23180186606323e-06
3.62254211121139e-06
4.63876255111042e-06
5.31726519267569e-06
5.73175238853578e-06
5.96392955935033e-06
6.08356419588656e-06
6.14050058631592e-06
6.16564569011236e-06
6.17600191284002e-06
6.17999922844279e-06
6.18145185345186e-06
6.18195083832203e-06
6.18211330070641e-06
6.18216341065398e-06
6.18217789457108e-06
6.18218159591118e-06
6.18218219386408e-06
6.18218198595332e-06
6.18218161319442e-06
6.1821812290083e-06
6.18218087338464e-06
6.18218055580012e-06
6.18218027810465e-06
6.18218004021225e-06
6.18217983961073e-06
6.1821796648863e-06
6.18217946998275e-06
6.18217907967936e-06
6.18217784965273e-06
6.18217350671498e-06
6.1821583675582e-06
6.18210761520014e-06
6.18194492299051e-06
6.18144776434484e-06
6.18000436758322e-06
6.17603843312196e-06
6.16577074714908e-06
6.14084210449078e-06
6.08436822888424e-06
5.96559251972832e-06
5.73477901301348e-06
5.32208147656253e-06
4.64537303519261e-06
3.63017455444695e-06
2.23884802534172e-06
6.8660845084091e-09
2.63252524545109e-11
2.62578656269623e-11
6.88907801789481e-09
2.25338020753948e-06
3.65672260279899e-06
4.68196218155273e-06
5.36649748807586e-06
5.78474123484624e-06
6.01909221472503e-06
6.13989597913991e-06
6.19741782895067e-06
6.22283675397929e-06
6.23331306146845e-06
6.23735998395686e-06
6.23883201623269e-06
6.23933824407756e-06
6.23950331709287e-06
6.23955435941853e-06
6.23956919097854e-06
6.23957304928016e-06
6.23957373492455e-06
6.23957358127868e-06
6.23957324786711e-06
6.23957289410307e-06
6.23957256155194e-06
6.23957226029825e-06
6.23957199236239e-06
6.23957175757744e-06
6.23957155320809e-06
6.23957136757079e-06
6.23957115410253e-06
6.23957073591734e-06
6.23956946389552e-06
6.23956504909487e-06
6.23954975407552e-06
6.23949858041217e-06
6.23933462163745e-06
6.2388336003019e-06
6.23737878149731e-06
6.23338074931571e-06
6.22302822309796e-06
6.19789009656124e-06
6.14093567834964e-06
6.02114056518042e-06
5.78833416876618e-06
5.3720528584854e-06
4.68941443034733e-06
3.66516139798984e-06
2.2610046105065e-06
6.93393263105818e-09
2.65707951196074e-11
2.64205260551038e-11
6.93415500696357e-09
2.26821241829326e-06
3.68026455076873e-06
4.71176469876804e-06
5.40050747715413e-06
5.82138482432163e-06
6.05726838667426e-06
6.17890142739923e-06
6.2368412557182e-06
6.2624570228444e-06
6.27302028587925e-06
6.27710340585378e-06
6.27858971503123e-06
6.27910131871076e-06
6.27926834952134e-06
6.27932010047111e-06
6.27933520203966e-06
6.27933918532875e-06
6.27933994244058e-06
6.27933983418747e-06
6.27933953443888e-06
6.27933920715847e-06
6.27933889519175e-06
6.27933860911784e-06
6.27933835111373e-06
6.27933812097101e-06
6.27933791579482e-06
6.2793377236728e-06
6.2793374976367e-06
6.27933705965878e-06
6.27933575730677e-06
6.27933129088809e-06
6.27931588616003e-06
6.279264421085e-06
6.27909959294191e-06
6.27859592413361e-06
6.27713326890775e-06
6.27311317863253e-06
6.2627022534325e-06
6.23741973133496e-06
6.18013372176114e-06
6.05963462115144e-06
5.82545114900155e-06
5.40669227411327e-06
4.71995213071696e-06
3.68943131885188e-06
2.27638140814762e-06
6.98079635538977e-09
2.67392168604797e-11
2.65284236994437e-11
6.96427474373449e-09
2.27819566093238e-06
3.69614785488527e-06
4.73190981192434e-06
5.42353164069849e-06
5.84622105547318e-06
6.08316536683044e-06
6.20537600662652e-06
6.26360891761174e-06
6.28936368781887e-06
6.29998881337761e-06
6.30409788653814e-06
6.30559451677643e-06
6.30611004178219e-06
6.3062785156521e-06
6.30633079594571e-06
6.30634610332456e-06
6.30635018369354e-06
6.30635099817626e-06
6.30635092821118e-06
6.30635065697862e-06
6.30635035249812e-06
6.30635005873909e-06
6.30634978668217e-06
6.30634953863664e-06
6.30634931438157e-06
6.30634911090948e-06
6.30634891613049e-06
6.30634868276468e-06
6.30634823200706e-06
6.30634690919554e-06
6.3063424074697e-06
6.30632692809742e-06
6.30627526661872e-06
6.30610985522921e-06
6.30560441093374e-06
6.30413649288077e-06
6.30010156119071e-06
6.28965127404117e-06
6.26427128170215e-06
6.2067611730613e-06
6.0857858512217e-06
5.85067013606382e-06
5.43023288592868e-06
4.74071208406495e-06
3.70593802460171e-06
2.28684436305655e-06
7.01252829640132e-09
2.68524705355894e-11
2.65985128225252e-11
6.98398468580769e-09
2.28477894738085e-06
3.70665009078896e-06
4.74525819826996e-06
5.43881349558161e-06
5.86272697247903e-06
6.1003922721643e-06
6.2229980836204e-06
6.28143290098297e-06
6.30728412825168e-06
6.31795250814118e-06
6.32207987214443e-06
6.32358383736854e-06
6.32410217470097e-06
6.32427169460858e-06
6.32432436392307e-06
6.32433982540292e-06
6.32434397998511e-06
6.32434484036076e-06
6.32434480246543e-06
6.32434455524407e-06
6.32434427032717e-06
6.32434399266046e-06
6.32434373354665e-06
6.32434349540342e-06
6.32434327801301e-06
6.32434307829384e-06
6.3243428840242e-06
6.32434264769626e-06
6.32434218998147e-06
6.32434085475613e-06
6.32433633049831e-06
6.32432080255776e-06
6.32426901274359e-06
6.32410321976751e-06
6.32359661165865e-06
6.3221252356721e-06
6.31808052956748e-06
6.30760426543503e-06
6.28215983656257e-06
6.22450137067783e-06
6.10321042220561e-06
5.86747624178904e-06
5.44592452148597e-06
4.75455551168699e-06
3.71695100949296e-06
2.29382850263694e-06
7.03360506465618e-09
2.69271830877101e-11
2.66431109172527e-11
6.99661914175915e-09
2.28903282145105e-06
3.7134565724071e-06
4.75392953955413e-06
5.44875931630766e-06
5.87348468064791e-06
6.11163130916468e-06
6.23450274125056e-06
6.2930742472037e-06
6.31899126419331e-06
6.32968937620228e-06
6.33382941503283e-06
6.33533850662869e-06
6.3358588279026e-06
6.33602909396032e-06
6.33608204488192e-06
6.33609762023466e-06
6.3361018310751e-06
6.33610272795614e-06
6.33610271669862e-06
6.3361024897108e-06
6.33610222167252e-06
6.33610195834717e-06
6.3361017112892e-06
6.33610148299556e-06
6.33610127326364e-06
6.33610107896682e-06
6.33610088778967e-06
6.33610065206253e-06
6.33610019211298e-06
6.33609885089094e-06
6.33609431393385e-06
6.33607875653332e-06
6.33602688636665e-06
6.33586085133349e-06
6.33535350000205e-06
6.33387990568456e-06
6.32982890709215e-06
6.3193358727891e-06
6.29384975115252e-06
6.23609511717708e-06
6.11459926402254e-06
5.87846305075338e-06
5.45618597924442e-06
4.76361251172204e-06
3.72416061993909e-06
2.2984033038275e-06
7.04734343206244e-09
2.69755584676631e-11
2.66708853106772e-11
7.00454559968067e-09
2.29172368013244e-06
3.71777646274319e-06
4.75944736848517e-06
5.45510120487578e-06
5.88035503954258e-06
6.11881714660725e-06
6.24186393360208e-06
6.30052635706401e-06
6.32648747506843e-06
6.33720567824495e-06
6.34135435359013e-06
6.34286696902139e-06
6.34338866729246e-06
6.34355945733934e-06
6.34361260924462e-06
6.34362826785512e-06
6.34363252115375e-06
6.34363344699906e-06
6.34363345783192e-06
6.34363324798423e-06
6.34363299464946e-06
6.34363274424937e-06
6.34363250852585e-06
6.3436322900319e-06
6.34363208858191e-06
6.34363190103013e-06
6.34363171499827e-06
6.34363148270349e-06
6.34363102425796e-06
6.34362968205039e-06
6.34362513985441e-06
6.34360956686595e-06
6.3435576498465e-06
6.34339146812638e-06
6.34288365857992e-06
6.34140868351465e-06
6.33735374345919e-06
6.32685015585809e-06
6.30133770347888e-06
6.24352216314401e-06
6.12189623705535e-06
5.88550431061619e-06
5.46276504744521e-06
4.76942272005503e-06
3.72878920545144e-06
2.3013425344909e-06
7.05612883785763e-09
2.70062960956621e-11
2.66877448960943e-11
7.00939230176884e-09
2.29338315522924e-06
3.72045081645849e-06
4.76287369358615e-06
5.45904866426447e-06
5.88463921503327e-06
6.12330387871282e-06
6.24646414968234e-06
6.30518589599574e-06
6.331176031288e-06
6.3419075675409e-06
6.34606202502557e-06
6.34757702156059e-06
6.34809965986989e-06
6.34827081220987e-06
6.3483241056302e-06
6.34833982459473e-06
6.34834410991208e-06
6.34834505880833e-06
6.34834508805325e-06
6.34834489287138e-06
6.34834465253135e-06
6.3483444139623e-06
6.34834418903623e-06
6.34834398033533e-06
6.3483437876929e-06
6.34834360796667e-06
6.34834342873536e-06
6.34834320214265e-06
6.34834274817183e-06
6.34834140890972e-06
6.34833686717162e-06
6.34832128875993e-06
6.34826934844507e-06
6.34810308536602e-06
6.34759501027661e-06
6.34611921700513e-06
6.342061908973e-06
6.33155192020205e-06
6.30602338318946e-06
6.24817043365287e-06
6.12646426929637e-06
5.88991403798614e-06
5.46688776076324e-06
4.77306661224374e-06
3.73169507870102e-06
2.30318983659567e-06
7.06162771053311e-09
2.70254232298764e-11
2.66975786968766e-11
7.01223994638749e-09
2.29436720064747e-06
3.72204458791501e-06
4.76492371636545e-06
5.46141788710594e-06
5.88721662666995e-06
6.12600772467388e-06
6.24923952012695e-06
6.3079990277189e-06
6.33400781591889e-06
6.34474800797265e-06
6.34890625696013e-06
6.35042283110437e-06
6.35094609940255e-06
6.35111749805725e-06
6.35117088974518e-06
6.35118665212513e-06
6.35119096161635e-06
6.35119192897622e-06
6.35119197366269e-06
6.35119179115876e-06
6.35119156245465e-06
6.35119133485714e-06
6.35119112031805e-06
6.35119092141583e-06
6.35119073800492e-06
6.35119056697394e-06
6.35119039586769e-06
6.35119017678437e-06
6.35118972964187e-06
6.35118839641283e-06
6.3511838595438e-06
6.35116828335638e-06
6.35111633685994e-06
6.35095003852562e-06
6.35044183121311e-06
6.34896560389723e-06
6.34490699252296e-06
6.33439339287573e-06
6.30885562147181e-06
6.25098091096496e-06
6.12922759875445e-06
5.89258360312931e-06
5.4693862120978e-06
4.77527798437496e-06
3.73346166147545e-06
2.30431507088777e-06
7.06496811435118e-09
2.70369904490416e-11
2.67028236830089e-11
7.01377108980539e-09
2.29490262531413e-06
3.72291920211716e-06
4.76605645924103e-06
5.4627340490533e-06
5.88865423530511e-06
6.12752019755623e-06
6.25079497798771e-06
6.30957752259335e-06
6.33559785033177e-06
6.34634347118287e-06
6.35050413049949e-06
6.35202172120431e-06
6.35254540135915e-06
6.35271696395217e-06
6.35277042278366e-06
6.35278621614437e-06
6.35279054395418e-06
6.35279152630723e-06
6.35279158408555e-06
6.35279141270131e-06
6.35279119458849e-06
6.35279097731424e-06
6.35279077287252e-06
6.3527905838181e-06
6.35279041003082e-06
6.35279024844072e-06
6.35279008656624e-06
6.35278987647433e-06
6.35278943807667e-06
6.35278811338031e-06
6.35278358493914e-06
6.35276801710497e-06
6.35271607787919e-06
6.35254977955605e-06
6.35204153927215e-06
6.35056515725463e-06
6.34650600175653e-06
6.33599074974111e-06
6.31044849091863e-06
6.25256275244244e-06
6.130784805298e-06
5.89409067838616e-06
5.47080015258745e-06
4.77653339954719e-06
3.73446842388587e-06
2.30495920128755e-06
7.06688246772603e-09
2.70436141893738e-11
2.67048688607838e-11
7.01437747328886e-09
2.2951208266404e-06
3.72328525838128e-06
4.76654059765772e-06
5.46330574399198e-06
5.88928622708664e-06
6.128190752081e-06
6.25148845595632e-06
6.31028371232012e-06
6.33631059239206e-06
6.34705938276246e-06
6.35122148802303e-06
6.35273970584398e-06
6.35326364865313e-06
6.35343532091617e-06
6.35348882823665e-06
6.35350464661037e-06
6.35350899100836e-06
6.35350998789529e-06
6.35351005874724e-06
6.35350989866494e-06
6.35350969131361e-06
6.35350948446619e-06
6.35350929014918e-06
6.35350911093719e-06
6.35350894673151e-06
6.35350879445866e-06
6.35350864161554e-06
6.3535084402516e-06
6.35350801030007e-06
6.35350669392697e-06
6.35350217422135e-06
6.35348661694824e-06
6.35343469333595e-06
6.35326842195588e-06
6.35276022914558e-06
6.35128391925409e-06
6.34722482534948e-06
6.33670944884252e-06
6.31116632600635e-06
6.25327759565007e-06
6.13149159722197e-06
5.89477905353454e-06
5.47145146392971e-06
4.77711782151745e-06
3.73494299853216e-06
2.30526730719071e-06
7.06781195407543e-09
2.70468664152772e-11
2.67042954067288e-11
7.01422537013377e-09
2.29507912804599e-06
3.7232364547055e-06
4.76649726495374e-06
5.4632735175656e-06
5.88926596077071e-06
6.12818062928135e-06
6.2514857093875e-06
6.31028572501851e-06
6.33631537637249e-06
6.34706564998024e-06
6.35122849274779e-06
6.35274705779125e-06
6.35327116016144e-06
6.353442907843e-06
6.35349645462231e-06
6.35351229746881e-06
6.35351666029197e-06
6.35351767396833e-06
6.35351776013602e-06
6.35351761315494e-06
6.35351741784861e-06
6.35351722221096e-06
6.35351703832464e-06
6.35351686884047e-06
6.35351671366134e-06
6.35351656966588e-06
6.35351642433461e-06
6.35351622969013e-06
6.35351580570163e-06
6.35351449481394e-06
6.3535099811204e-06
6.35349443332639e-06
6.35344253047533e-06
6.35327631044206e-06
6.35276824390403e-06
6.35129222913593e-06
6.34723378034428e-06
6.33671971100159e-06
6.31117902316327e-06
6.25329442241875e-06
6.1315147182761e-06
5.89481062634031e-06
5.47149265066944e-06
4.77716730309896e-06
3.73499513417836e-06
2.30531015452666e-06
7.06797455334051e-09
2.70475333905128e-11
2.67010083975889e-11
7.01329172318317e-09
2.29477170582462e-06
3.72276612765784e-06
4.76592072799732e-06
5.46263330122111e-06
5.88859114460424e-06
6.12748906376489e-06
6.25078709870839e-06
6.30958464847971e-06
6.33561372458191e-06
6.34636402053553e-06
6.35052700028871e-06
6.35204567946292e-06
6.35256985612467e-06
6.35274165024725e-06
6.3527952278216e-06
6.35281109329046e-06
6.35281547465145e-06
6.35281650582583e-06
6.35281660818782e-06
6.35281647499102e-06
6.35281629216977e-06
6.35281610796218e-06
6.35281593452518e-06
6.35281577458017e-06
6.35281562803927e-06
6.35281549173751e-06
6.35281535313109e-06
6.35281516421782e-06
6.35281474504257e-06
6.35281343851862e-06
6.35280893039266e-06
6.3527933943271e-06
6.3527415230503e-06
6.35257538997325e-06
6.35206755273454e-06
6.35059210943069e-06
6.34653500313081e-06
6.33602390135671e-06
6.31048937184661e-06
6.25261673737051e-06
6.13085874943771e-06
5.89419138936624e-06
5.47093124543756e-06
4.77669060128683e-06
3.73463380678935e-06
2.30509478311336e-06
7.06739608299469e-09
2.70457163832583e-11
2.66942573164603e-11
7.01136669844644e-09
2.29412950673115e-06
3.72176688296688e-06
4.76467786361533e-06
5.46123595520297e-06
5.88710353456918e-06
6.12595313642334e-06
6.24922756478154e-06
6.30801460881903e-06
6.3340394583263e-06
6.34478822845161e-06
6.34895072744583e-06
6.35046928719807e-06
6.35099345381051e-06
6.3511652649591e-06
6.35121886322266e-06
6.35123474769255e-06
6.35123914604652e-06
6.35124019388713e-06
6.35124031181902e-06
6.35124019198073e-06
6.35124002127228e-06
6.35123984818918e-06
6.35123968495096e-06
6.35123953433999e-06
6.35123939628848e-06
6.351239267608e-06
6.35123913573105e-06
6.35123895264682e-06
6.35123853855897e-06
6.35123723713488e-06
6.35123273670876e-06
6.35121721871668e-06
6.35116539768913e-06
6.35099940481752e-06
6.35049194256979e-06
6.34901745113842e-06
6.34496263128777e-06
6.33445671441108e-06
6.30893325379391e-06
6.25108279689272e-06
6.12936638623854e-06
5.89277177490466e-06
5.46963023560199e-06
4.77556967080729e-06
3.73376768327944e-06
2.30456521820129e-06
7.06591694021151e-09
2.70408937016317e-11
2.66824657278645e-11
7.0080118651251e-09
2.29300908621427e-06