/*--------------------------------*- C++ -*----------------------------------*\
  =========                 |
  \\      /  F ield         | OpenFOAM: The Open Source CFD Toolbox
   \\    /   O peration     | Website:  https://openfoam.org
    \\  /    A nd           | Version:  10
     \\/     M anipulation  |
\*---------------------------------------------------------------------------*/
FoamFile
{
    format      ascii;
    class       volScalarField;
    location    "4.4";
    object      omega;
}
// * * * * * * * * * * * * * * * * * * * * * * * * * * * * * * * * * * * * * //

dimensions      [0 0 -1 0 0 0 0];

internalField   nonuniform List<scalar> 
2500
(
128169.599796746
128183.508704615
128178.216040174
128175.243764972
128173.807318836
128173.147677546
128172.856338071
128172.732957912
128172.683070426
128172.664244666
128172.656800546
128172.653968272
128172.652862391
128172.652109799
128172.651546318
128172.650966592
128172.650680694
128172.65032553
128172.649923307
128172.649648369
128172.649407555
128172.649194162
128172.649014914
128172.648911362
128172.64879745
128172.648690448
128172.648652681
128172.648626807
128172.64862547
128172.648662879
128172.648729193
128172.648857529
128172.649019307
128172.649224187
128172.649452557
128172.649729595
128172.650106434
128172.650616963
128172.651971189
128172.654978798
128172.662791209
128172.683242023
128172.7351961
128172.861252146
128173.155004489
128173.810543242
128175.236942954
128178.214472228
128183.570942149
128169.554148274
31888.9158704606
14170.075702625
14167.600293841
14166.1786308197
14165.4475796101
14165.0889888737
14164.920248891
14164.8448452863
14164.8130953004
14164.8005427583
14164.7958449282
14164.7941827452
14164.793623732
14164.7934285768
14164.7933512268
14164.7933084987
14164.7932874008
14164.7932667608
14164.7932442594
14164.7932265528
14164.7932095446
14164.7931922058
14164.7931768712
14164.7931679413
14164.7931604009
14164.793152475
14164.7931491426
14164.7931464498
14164.7931429074
14164.7931443847
14164.7931471204
14164.7931507517
14164.7931656156
14164.793186054
14164.7932038862
14164.7932343426
14164.7933143852
14164.7935389982
14164.7942054049
14164.7960919061
14164.8012469719
14164.8146480157
14164.8476149041
14164.9242610506
14165.0931936059
14165.4491872496
14166.1756239373
14167.6022797058
14170.1155109001
31888.9121362846
31759.832631669
3527.8875843098
50.7903037001622
50.7839370285643
50.7806771954093
50.7790803332423
50.7783280549183
50.7779907371514
50.7778480019864
50.7777912132121
50.7777699086424
50.7777623740886
50.7777598653067
50.7777590507748
50.777758781147
50.7777586778413
50.77775863854
50.7777586075021
50.7777585730777
50.7777585432137
50.7777585099792
50.7777584702565
50.7777584321179
50.7777584100361
50.7777583952328
50.7777583780576
50.7777583713447
50.7777583648106
50.7777583501253
50.7777583488471
50.7777583478572
50.7777583435763
50.7777583868712
50.7777584485321
50.7777584888013
50.7777585809957
50.7777588949455
50.7777598653345
50.7777627926699
50.7777712069768
50.7777942716594
50.7778542018921
50.7780013773907
50.7783429827471
50.7790952755207
50.7806823936208
50.7839301213456
50.7903412821112
3527.90577284327
31760.0270264356
31660.0777497361
3516.82927929507
50.6326166929843
50.627324775914
50.6247173819864
50.6234854293023
50.6229218187867
50.6226744504526
50.622571320779
50.6225306943327
50.622515563013
50.6225102460106
50.6225084948499
50.6225079425767
50.6225077732019
50.6225077227399
50.6225077120477
50.622507705649
50.6225076968085
50.6225076872075
50.6225076730341
50.6225076514961
50.6225076279553
50.6225076138611
50.6225076069586
50.6225075984202
50.6225075954575
50.6225075923691
50.6225075831491
50.6225075812097
50.622507578102
50.6225075666434
50.6225075916477
50.6225076299615
50.622507647328
50.62250769694
50.6225078916819
50.6225085314118
50.6225105065514
50.6225162820395
50.6225323394244
50.6225746662193
50.6226802858357
50.6229302132178
50.6234942588617
50.6247222096442
50.6273308780709
50.632685648699
3516.85133774543
31660.4569490568
31593.4276914579
3509.64175481825
50.5320615377991
50.528505988733
50.5268184243875
50.5260484583193
50.5257058242544
50.5255582476354
50.5254974139668
50.5254735875611
50.5254647332251
50.5254616260443
50.5254606082464
50.525460292073
50.5254602025409
50.5254601855631
50.5254601877501
50.5254601890434
50.5254601896046
50.5254601897075
50.5254601859543
50.5254601765368
50.5254601635827
50.5254601554995
50.5254601534398
50.5254601508865
50.5254601501848
50.525460149099
50.525460144744
50.5254601432752
50.5254601398304
50.5254601285075
50.5254601402337
50.5254601561445
50.52546015838
50.5254601838434
50.525460287932
50.5254606381862
50.525461743734
50.5254650171711
50.5254742049097
50.525498665659
50.5255604382779
50.5257089601757
50.5260516461719
50.5268204098355
50.528514506677
50.5321290504819
3509.66173139868
31593.8569534931
31554.0082128642
3505.51886635399
50.4754256205554
50.4733760356267
50.4724356166323
50.4720199718621
50.4718396110913
50.4717631845393
50.4717319456934
50.4717197438232
50.4717152047256
50.4717136089608
50.4717130874657
50.4717129275792
50.4717128884036
50.4717128859388
50.4717128894656
50.4717128931882
50.4717128954196
50.4717128958484
50.4717128960803
50.4717128938877
50.4717128872685
50.4717128833789
50.4717128839186
50.4717128840321
50.4717128841761
50.4717128838479
50.47171288213
50.4717128811747
50.4717128784241
50.4717128704393
50.4717128749726
50.4717128803773
50.4717128789378
50.4717128901052
50.4717129382221
50.4717131073758
50.4717136535791
50.4717152861202
50.4717198944144
50.4717322372485
50.4717636651038
50.4718401848251
50.4720201712553
50.4724351523815
50.473381022798
50.4754730202026
3505.53345053114
31554.3716546257
31532.998612518
3503.39111912124
50.4466945852613
50.4456460921591
50.4451792336486
50.4449786728381
50.4448936057967
50.444858071999
50.4448436405895
50.4448380071005
50.4448359049532
50.4448351631744
50.444834920884
50.4448348484204
50.4448348332813
50.444834834087
50.4448348371211
50.4448348402944
50.4448348424628
50.4448348428831
50.4448348436325
50.4448348436644
50.4448348407251
50.4448348392639
50.4448348402933
50.4448348409371
50.4448348412832
50.444834841244
50.4448348405767
50.4448348400382
50.444834838315
50.4448348336674
50.4448348350441
50.4448348364025
50.4448348346565
50.4448348393054
50.4448348594617
50.4448349334119
50.4448351790934
50.4448359187906
50.4448380121862
50.444843633944
50.4448580194687
50.4448933817309
50.4449779471967
50.4451777917576
50.4456474442997
50.44672103593
3503.4001282933
31533.2513925213
31522.7650267378
3502.38827689372
50.433368592102
50.4328818315667
50.4326707729441
50.4325823620766
50.4325456309378
50.4325304833114
50.4325243620448
50.4325219706268
50.4325210744229
50.4325207566964
50.4325206529085
50.4325206227827
50.432520617515
50.4325206186431
50.4325206205911
50.4325206225505
50.4325206239822
50.4325206245893
50.4325206249987
50.4325206251403
50.4325206242523
50.432520623918
50.4325206246799
50.4325206251637
50.4325206254079
50.4325206254804
50.4325206252558
50.432520624944
50.4325206240464
50.4325206217044
50.4325206219555
50.4325206220783
50.4325206209731
50.4325206226596
50.4325206303134
50.4325206603979
50.4325207629939
50.4325210734969
50.4325219522693
50.4325243116174
50.4325303617634
50.4325453370685
50.4325816566541
50.4326694020161
50.43288137822
50.4333808856596
3502.3931415592
31522.9166633576
31518.1575754472
3501.95144799541
50.4276504772298
50.4274420723996
50.4273538186323
50.4273176677649
50.4273029286484
50.4272969210483
50.4272945032201
50.4272935570878
50.4272932007894
50.4272930738414
50.4272930323588
50.4272930207849
50.4272930191808
50.4272930198869
50.4272930209453
50.4272930219829
50.4272930227769
50.4272930232078
50.4272930234234
50.4272930234944
50.4272930233876
50.4272930235164
50.4272930238821
50.4272930241495
50.4272930242901
50.4272930243678
50.4272930243061
50.4272930241551
50.4272930237526
50.4272930227454
50.4272930226881
50.4272930226249
50.4272930221332
50.4272930225997
50.4272930252703
50.4272930367773
50.4272930770521
50.4272931994183
50.427293545032
50.4272944704875
50.4272968428889
50.4273027416773
50.4273172178013
50.427352884501
50.4274412190565
50.427655325863
3501.95379736156
31518.238419372
31516.2223589594
3501.7738959901
50.4253591952745
50.4252758958619
50.4252413622005
50.4252274944656
50.4252219365739
50.4252196956099
50.4252187968931
50.4252184444923
50.4252183111286
50.4252182633898
50.4252182477955
50.4252182436255
50.4252182432211
50.4252182436145
50.4252182441395
50.4252182446459
50.4252182450498
50.4252182453075
50.4252182454517
50.425218245524
50.4252182455854
50.4252182457277
50.4252182459106
50.4252182460512
50.4252182461343
50.4252182461949
50.425218246195
50.4252182461426
50.4252182459906
50.4252182456101
50.4252182455468
50.4252182454882
50.4252182453248
50.4252182453984
50.4252182462307
50.425218250458
50.4252182654713
50.4252183111853
50.4252184398188
50.4252187826827
50.4252196595148
50.4252218449598
50.4252272604032
50.4252408365988
50.4252752247158
50.4253608069495
3501.77492798605
31516.2614564527
31515.4583439444
3501.70603529012
50.4244954484114
50.4244640676156
50.4244513068053
50.4244462720618
50.424444285495
50.4244434925801
50.4244431756293
50.4244430510902
50.4244430037457
50.424442986738
50.4244429812076
50.4244429798171
50.4244429797528
50.424442979945
50.4244429801982
50.4244429804412
50.4244429806443
50.4244429807929
50.4244429809017
50.424442980978
50.4244429810433
50.424442981135
50.4244429812357
50.4244429813178
50.4244429813758
50.4244429814247
50.4244429814489
50.4244429814479
50.4244429814094
50.4244429812893
50.4244429812653
50.4244429812428
50.4244429811943
50.424442981207
50.4244429814701
50.4244429829514
50.4244429883084
50.4244430046172
50.424443050272
50.424443171219
50.4244434792641
50.4244442474669
50.4244461657361
50.4244510482626
50.4244636697977
50.4244958755197
3501.7064528713
31515.4757527105
31515.1731621293
3501.68150522342
50.4241874800705
50.424176252566
50.4241717672436
50.4241700251686
50.424169347463
50.4241690795334
50.4241689727822
50.4241689307658
50.4241689147384
50.4241689089758
50.4241689071262
50.4241689067015
50.4241689067246
50.4241689068332
50.4241689069631
50.4241689070885
50.4241689071995
50.424168907291
50.4241689073688
50.4241689074331
50.4241689074915
50.4241689075574
50.4241689076237
50.4241689076818
50.42416890773
50.4241689077737
50.4241689078076
50.4241689078304
50.4241689078388
50.4241689078189
50.4241689078247
50.4241689078294
50.4241689078258
50.4241689078378
50.4241689079289
50.4241689084394
50.4241689102846
50.4241689158757
50.4241689314216
50.4241689723041
50.4241690758631
50.4241693338382
50.4241699817779
50.4241716527259
50.4241760526127
50.4241875494273
3501.68166240715
31515.1803803297
31515.0721610921
3501.67309513712
50.4240834061588
50.4240795675518
50.4240780590401
50.4240774813111
50.424077259424
50.4240771724928
50.42407713798
50.4240771243886
50.4240771192011
50.4240771173484
50.4240771167759
50.4240771166729
50.4240771167163
50.4240771167878
50.4240771168664
50.4240771169433
50.4240771170152
50.4240771170805
50.4240771171409
50.4240771171962
50.4240771172488
50.4240771173027
50.4240771173553
50.4240771174043
50.4240771174488
50.4240771174907
50.4240771175283
50.4240771175607
50.4240771175871
50.4240771176033
50.4240771176247
50.4240771176442
50.4240771176595
50.4240771176778
50.4240771177199
50.4240771179002
50.4240771185217
50.4240771203759
50.4240771254812
50.4240771387911
50.4240771722846
50.4240772555114
50.4240774653953
50.4240780127256
50.4240794782696
50.4240833955522
3501.67315061787
31515.074973182
31515.0382749138
3501.67037219308
50.424050285224
50.4240490248168
50.4240485370215
50.4240483525486
50.4240482825188
50.4240482553251
50.4240482445794
50.4240482403591
50.4240482387609
50.4240482382077
50.4240482380583
50.4240482380583
50.4240482381049
50.4240482381608
50.4240482382192
50.4240482382771
50.4240482383335
50.4240482383877
50.4240482384401
50.4240482384905
50.4240482385395
50.4240482385882
50.4240482386355
50.4240482386809
50.4240482387239
50.4240482387651
50.4240482388038
50.4240482388398
50.4240482388725
50.4240482389009
50.424048238929
50.4240482389551
50.4240482389783
50.4240482390008
50.4240482390294
50.4240482391008
50.4240482393118
50.4240482399134
50.4240482415396
50.4240482457318
50.4240482561984
50.4240482821083
50.4240483476076
50.4240485200153
50.4240489887409
50.4240502690992
3501.67039069259
31515.0393119237
31515.0276906717
3501.66956291372
50.424040712885
50.4240403137956
50.4240401615418
50.4240401046235
50.4240400832512
50.4240400750325
50.4240400718124
50.4240400705641
50.4240400701084
50.4240400699701
50.4240400699552
50.4240400699867
50.4240400700329
50.4240400700825
50.4240400701332
50.4240400701839
50.4240400702342
50.4240400702839
50.4240400703327
50.4240400703806
50.4240400704277
50.424040070474
50.4240400705192
50.424040070563
50.4240400706052
50.4240400706459
50.4240400706848
50.4240400707217
50.4240400707564
50.4240400707886
50.4240400708192
50.4240400708477
50.4240400708739
50.4240400708983
50.424040070923
50.4240400709595
50.4240400710373
50.4240400712336
50.4240400717413
50.4240400730252
50.4240400761971
50.424040084008
50.4240401037728
50.424040156199
50.4240403007284
50.4240407038204
3501.66956879851
31515.028055047
31515.0248519327
3501.66937073657
50.4240386287413
50.4240385064792
50.4240384604658
50.4240384434548
50.4240384371416
50.4240384347483
50.424038433831
50.4240384334931
50.4240384333882
50.4240384333774
50.4240384334036
50.4240384334441
50.4240384334896
50.4240384335365
50.4240384335841
50.4240384336319
50.4240384336797
50.4240384337273
50.4240384337745
50.4240384338211
50.424038433867
50.4240384339122
50.4240384339563
50.4240384339992
50.4240384340408
50.424038434081
50.4240384341196
50.4240384341565
50.4240384341916
50.4240384342247
50.4240384342559
50.4240384342852
50.4240384343122
50.4240384343372
50.4240384343609
50.4240384343862
50.4240384344221
50.4240384344914
50.424038434651
50.424038435037
50.424038435973
50.4240384382596
50.4240384440425
50.4240384594784
50.4240385025854
50.4240386252376
3501.66937256144
31515.0249747855
31515.024488131
3501.66937004225
50.4240388349613
50.4240387986285
50.424038785137
50.4240387802119
50.4240387784155
50.4240387777563
50.4240387775221
50.424038777454
50.4240387774532
50.4240387774799
50.424038777518
50.4240387775607
50.4240387776054
50.424038777651
50.4240387776973
50.4240387777437
50.4240387777903
50.4240387778368
50.424038777883
50.4240387779287
50.4240387779738
50.4240387780181
50.4240387780615
50.4240387781037
50.4240387781448
50.4240387781845
50.4240387782226
50.4240387782592
50.4240387782941
50.4240387783272
50.4240387783584
50.4240387783876
50.4240387784148
50.4240387784398
50.4240387784629
50.4240387784847
50.4240387785076
50.4240387785383
50.4240387785929
50.4240387787101
50.4240387789813
50.424038779633
50.4240387812766
50.4240387856865
50.4240387981556
50.4240388343261
3501.66937062887
31515.0245283126
31515.0248872136
3501.66942671933
50.424039717288
50.4240397067976
50.4240397029605
50.4240397015881
50.4240397011078
50.42403970095
50.4240397009121
50.4240397009214
50.4240397009501
50.4240397009873
50.4240397010282
50.4240397010711
50.4240397011151
50.4240397011599
50.4240397012052
50.4240397012508
50.4240397012965
50.4240397013422
50.4240397013876
50.4240397014327
50.4240397014771
50.4240397015207
50.4240397015634
50.4240397016051
50.4240397016455
50.4240397016847
50.4240397017224
50.4240397017585
50.424039701793
50.4240397018257
50.4240397018566
50.4240397018856
50.4240397019125
50.4240397019374
50.42403970196
50.4240397019807
50.4240397019998
50.4240397020191
50.4240397020429
50.424039702082
50.4240397021613
50.4240397023432
50.4240397027973
50.4240397040208
50.4240397075255
50.4240397178866
3501.66942694654
31515.0249002848
31515.0255138343
3501.66950004446
50.424040792809
50.4240407898674
50.4240407888161
50.424040788459
50.4240407883514
50.4240407883341
50.4240407883508
50.424040788381
50.4240407884175
50.424040788457
50.4240407884982
50.4240407885407
50.424040788584
50.4240407886281
50.4240407886726
50.4240407887175
50.4240407887625
50.4240407888074
50.4240407888522
50.4240407888965
50.4240407889402
50.4240407889832
50.4240407890253
50.4240407890663
50.4240407891062
50.4240407891448
50.4240407891819
50.4240407892176
50.4240407892516
50.4240407892839
50.4240407893144
50.4240407893431
50.4240407893697
50.4240407893942
50.4240407894166
50.4240407894367
50.4240407894546
50.4240407894707
50.4240407894859
50.4240407895031
50.4240407895288
50.4240407895797
50.4240407897019
50.4240407900311
50.4240407909892
50.4240407938768
3501.6695001717
31515.0255183449
31515.0262062973
3501.66957806073
50.4240419219069
50.424041921111
50.4240419208421
50.4240419207669
50.4240419207614
50.4240419207819
50.4240419208126
50.4240419208479
50.4240419208858
50.4240419209253
50.424041920966
50.4240419210078
50.4240419210505
50.4240419210937
50.4240419211376
50.4240419211817
50.424041921226
50.4240419212702
50.4240419213143
50.4240419213579
50.424041921401
50.4240419214433
50.4240419214848
50.4240419215252
50.4240419215645
50.4240419216025
50.4240419216391
50.4240419216742
50.4240419217078
50.4240419217396
50.4240419217697
50.424041921798
50.4240419218243
50.4240419218485
50.4240419218706
50.4240419218905
50.424041921908
50.4240419219232
50.4240419219362
50.4240419219476
50.424041921959
50.4240419219748
50.4240419220074
50.4240419220931
50.4240419223479
50.4240419231317
3501.66957816089
31515.0262081952
31515.0269172883
3501.66965736364
50.4240430654586
50.4240430652567
50.4240430652013
50.4240430652016
50.4240430652226
50.4240430652521
50.4240430652857
50.4240430653216
50.4240430653591
50.424043065398
50.424043065438
50.424043065479
50.4240430655209
50.4240430655635
50.4240430656065
50.42404306565
50.4240430656935
50.4240430657371
50.4240430657804
50.4240430658233
50.4240430658657
50.4240430659074
50.4240430659482
50.424043065988
50.4240430660267
50.4240430660641
50.4240430661001
50.4240430661347
50.4240430661677
50.4240430661991
50.4240430662288
50.4240430662566
50.4240430662826
50.4240430663065
50.4240430663284
50.4240430663481
50.4240430663655
50.4240430663805
50.424043066393
50.4240430664032
50.4240430664113
50.4240430664185
50.4240430664281
50.4240430664499
50.4240430665162
50.4240430667238
3501.66965745597
31515.0269184061
31515.0276333602
3501.66973701075
50.4240442128119
50.4240442127697
50.4240442127704
50.4240442127895
50.4240442128163
50.4240442128472
50.4240442128805
50.4240442129157
50.4240442129524
50.4240442129905
50.4240442130296
50.4240442130699
50.4240442131109
50.4240442131527
50.4240442131951
50.4240442132377
50.4240442132805
50.4240442133233
50.4240442133659
50.4240442134082
50.4240442134499
50.4240442134908
50.424044213531
50.4240442135702
50.4240442136082
50.4240442136451
50.4240442136805
50.4240442137146
50.4240442137471
50.424044213778
50.4240442138072
50.4240442138347
50.4240442138603
50.424044213884
50.4240442139057
50.4240442139252
50.4240442139426
50.4240442139575
50.4240442139702
50.4240442139803
50.424044213988
50.4240442139937
50.4240442139982
50.4240442140044
50.4240442140221
50.4240442140764
3501.66973710023
31515.0276342483
31515.0283507927
3501.66981674787
50.424045361142
50.4240453611411
50.4240453611553
50.4240453611781
50.4240453612052
50.4240453612354
50.4240453612678
50.4240453613019
50.4240453613376
50.4240453613747
50.424045361413
50.4240453614524
50.4240453614927
50.4240453615337
50.4240453615752
50.4240453616171
50.4240453616592
50.4240453617012
50.4240453617431
50.4240453617846
50.4240453618256
50.4240453618659
50.4240453619054
50.424045361944
50.4240453619814
50.4240453620176
50.4240453620525
50.424045362086
50.424045362118
50.4240453621485
50.4240453621772
50.4240453622043
50.4240453622296
50.424045362253
50.4240453622744
50.4240453622939
50.4240453623112
50.4240453623263
50.4240453623391
50.4240453623496
50.4240453623577
50.4240453623636
50.4240453623676
50.4240453623709
50.4240453623771
50.4240453623922
3501.66981683555
31515.0283516059
31515.0290685817
3501.66989650804
50.4240465097182
50.4240465097269
50.4240465097435
50.424046509766
50.4240465097921
50.424046509821
50.4240465098522
50.4240465098852
50.4240465099199
50.4240465099561
50.4240465099935
50.424046510032
50.4240465100714
50.4240465101116
50.4240465101523
50.4240465101934
50.4240465102347
50.424046510276
50.4240465103172
50.424046510358
50.4240465103983
50.4240465104379
50.4240465104767
50.4240465105146
50.4240465105513
50.424046510587
50.4240465106213
50.4240465106543
50.4240465106858
50.4240465107157
50.4240465107441
50.4240465107708
50.4240465107957
50.4240465108188
50.4240465108401
50.4240465108594
50.4240465108767
50.4240465108919
50.424046510905
50.4240465109159
50.4240465109246
50.4240465109311
50.4240465109359
50.4240465109393
50.4240465109435
50.4240465109495
3501.66989659422
31515.0290693652
31515.0297864622
3501.66997627403
50.4240476583554
50.4240476583655
50.4240476583817
50.4240476584029
50.4240476584278
50.4240476584554
50.4240476584853
50.4240476585172
50.4240476585508
50.424047658586
50.4240476586224
50.42404765866
50.4240476586986
50.4240476587379
50.4240476587779
50.4240476588182
50.4240476588587
50.4240476588993
50.4240476589397
50.4240476589797
50.4240476590193
50.4240476590582
50.4240476590964
50.4240476591336
50.4240476591698
50.4240476592047
50.4240476592385
50.4240476592709
50.4240476593019
50.4240476593314
50.4240476593593
50.4240476593856
50.4240476594102
50.4240476594331
50.4240476594542
50.4240476594734
50.4240476594907
50.4240476595061
50.4240476595194
50.4240476595307
50.42404765954
50.4240476595474
50.4240476595529
50.4240476595573
50.4240476595618
50.4240476595663
3501.66997635873
31515.0297872293
31515.0305043659
3501.67005604146
50.4240488070076
50.4240488070172
50.4240488070322
50.4240488070521
50.4240488070755
50.4240488071018
50.4240488071305
50.4240488071612
50.4240488071938
50.4240488072279
50.4240488072634
50.4240488073001
50.4240488073378
50.4240488073763
50.4240488074154
50.424048807455
50.4240488074947
50.4240488075345
50.4240488075741
50.4240488076135
50.4240488076524
50.4240488076905
50.424048807728
50.4240488077646
50.4240488078001
50.4240488078345
50.4240488078677
50.4240488078996
50.42404880793
50.424048807959
50.4240488079865
50.4240488080125
50.4240488080368
50.4240488080594
50.4240488080803
50.4240488080994
50.4240488081167
50.4240488081322
50.4240488081458
50.4240488081576
50.4240488081675
50.4240488081756
50.424048808182
50.4240488081874
50.4240488081928
50.4240488081978
3501.6700561247
31515.0305051166
31515.0312222756
3501.67013580926
50.4240499556636
50.4240499556721
50.4240499556859
50.4240499557044
50.4240499557265
50.4240499557515
50.4240499557789
50.4240499558085
50.42404995584
50.4240499558731
50.4240499559077
50.4240499559434
50.4240499559803
50.4240499560179
50.4240499560562
50.4240499560949
50.4240499561339
50.4240499561729
50.4240499562118
50.4240499562504
50.4240499562885
50.424049956326
50.4240499563628
50.4240499563987
50.4240499564336
50.4240499564674
50.4240499565
50.4240499565313
50.4240499565613
50.4240499565899
50.424049956617
50.4240499566425
50.4240499566665
50.4240499566889
50.4240499567096
50.4240499567287
50.424049956746
50.4240499567617
50.4240499567756
50.4240499567877
50.4240499567982
50.424049956807
50.4240499568144
50.4240499568207
50.424049956827
50.4240499568328
3501.67013589099
31515.0312230137
31515.0319401866
3501.67021557715
50.4240511043206
50.424051104328
50.4240511043405
50.4240511043576
50.4240511043784
50.4240511044021
50.4240511044283
50.4240511044567
50.4240511044871
50.4240511045193
50.4240511045528
50.4240511045877
50.4240511046236
50.4240511046604
50.4240511046979
50.4240511047358
50.4240511047739
50.4240511048122
50.4240511048503
50.4240511048882
50.4240511049256
50.4240511049624
50.4240511049986
50.4240511050338
50.4240511050681
50.4240511051012
50.4240511051333
50.4240511051641
50.4240511051935
50.4240511052217
50.4240511052484
50.4240511052735
50.4240511052972
50.4240511053194
50.4240511053399
50.424051105359
50.4240511053763
50.4240511053921
50.4240511054063
50.4240511054189
50.4240511054299
50.4240511054395
50.4240511054476
50.4240511054549
50.4240511054621
50.4240511054689
3501.67021565745
31515.0319409115
31515.032658098
3501.67029534505
50.4240522529777
50.4240522529839
50.4240522529952
50.424052253011
50.4240522530304
50.4240522530529
50.4240522530779
50.4240522531052
50.4240522531346
50.4240522531656
50.4240522531982
50.4240522532322
50.4240522532672
50.4240522533032
50.4240522533398
50.4240522533769
50.4240522534143
50.4240522534517
50.4240522534891
50.4240522535263
50.424052253563
50.4240522535991
50.4240522536345
50.4240522536692
50.4240522537028
50.4240522537354
50.4240522537669
50.4240522537971
50.4240522538261
50.4240522538538
50.42405225388
50.4240522539049
50.4240522539283
50.4240522539502
50.4240522539707
50.4240522539896
50.424052254007
50.4240522540229
50.4240522540374
50.4240522540504
50.424052254062
50.4240522540722
50.4240522540812
50.4240522540894
50.4240522540976
50.4240522541052
3501.67029542391
31515.0326588108
31515.0333760094
3501.67037511295
50.4240534016347
50.4240534016397
50.4240534016497
50.4240534016642
50.4240534016824
50.4240534017036
50.4240534017274
50.4240534017536
50.4240534017819
50.424053401812
50.4240534018436
50.4240534018766
50.4240534019108
50.4240534019458
50.4240534019817
50.4240534020179
50.4240534020545
50.4240534020912
50.4240534021279
50.4240534021643
50.4240534022003
50.4240534022358
50.4240534022705
50.4240534023045
50.4240534023376
50.4240534023696
50.4240534024005
50.4240534024302
50.4240534024587
50.424053402486
50.4240534025118
50.4240534025363
50.4240534025595
50.4240534025812
50.4240534026015
50.4240534026204
50.4240534026378
50.4240534026539
50.4240534026687
50.4240534026821
50.4240534026942
50.4240534027051
50.4240534027149
50.424053402724
50.424053402733
50.4240534027417
3501.67037519041
31515.0333767092
31515.0340939206
3501.67045488083
50.4240545502912
50.424054550295
50.4240545503038
50.424054550317
50.424054550334
50.424054550354
50.4240545503766
50.4240545504017
50.4240545504289
50.424054550458
50.4240545504886
50.4240545505207
50.424054550554
50.4240545505883
50.4240545506232
50.4240545506587
50.4240545506945
50.4240545507305
50.4240545507664
50.4240545508021
50.4240545508374
50.4240545508722
50.4240545509063
50.4240545509397
50.4240545509721
50.4240545510036
50.4240545510339
50.4240545510632
50.4240545510912
50.424054551118
50.4240545511435
50.4240545511677
50.4240545511905
50.4240545512121
50.4240545512322
50.4240545512511
50.4240545512686
50.4240545512849
50.4240545512999
50.4240545513136
50.4240545513263
50.4240545513379
50.4240545513484
50.4240545513584
50.4240545513684
50.424054551378
3501.67045495683
31515.0340946076
31515.0348118315
3501.67053464867
50.4240556989473
50.4240556989497
50.4240556989573
50.4240556989692
50.4240556989849
50.4240556990037
50.4240556990251
50.4240556990492
50.4240556990753
50.4240556991034
50.4240556991331
50.4240556991643
50.4240556991967
50.4240556992301
50.4240556992643
50.424055699299
50.4240556993341
50.4240556993692
50.4240556994044
50.4240556994394
50.4240556994741
50.4240556995082
50.4240556995417
50.4240556995744
50.4240556996062
50.4240556996372
50.424055699667
50.4240556996958
50.4240556997233
50.4240556997497
50.4240556997748
50.4240556997987
50.4240556998213
50.4240556998426
50.4240556998627
50.4240556998815
50.4240556998991
50.4240556999155
50.4240556999308
50.424055699945
50.4240556999582
50.4240556999704
50.4240556999817
50.4240556999926
50.4240557000035
50.4240557000142
3501.67053472325
31515.0348125038
31515.0355297421
3501.67061441647
50.4240568476026
50.4240568476037
50.42405684761
50.4240568476206
50.4240568476351
50.4240568476526
50.424056847673
50.4240568476959
50.424056847721
50.4240568477481
50.4240568477769
50.4240568478072
50.4240568478387
50.4240568478713
50.4240568479047
50.4240568479386
50.4240568479729
50.4240568480074
50.4240568480419
50.4240568480762
50.4240568481102
50.4240568481436
50.4240568481765
50.4240568482087
50.4240568482399
50.4240568482703
50.4240568482996
50.4240568483279
50.424056848355
50.424056848381
50.4240568484058
50.4240568484294
50.4240568484517
50.4240568484729
50.4240568484928
50.4240568485116
50.4240568485293
50.4240568485458
50.4240568485614
50.424056848576
50.4240568485897
50.4240568486026
50.4240568486146
50.4240568486265
50.4240568486383
50.4240568486501
3501.67061448973
31515.0355304032
31515.0362476523
3501.67069418422
50.4240579962569
50.4240579962566
50.4240579962616
50.4240579962709
50.4240579962841
50.4240579963005
50.4240579963198
50.4240579963416
50.4240579963657
50.4240579963918
50.4240579964197
50.4240579964491
50.4240579964799
50.4240579965116
50.4240579965442
50.4240579965774
50.4240579966109
50.4240579966447
50.4240579966785
50.4240579967122
50.4240579967455
50.4240579967783
50.4240579968106
50.4240579968421
50.4240579968729
50.4240579969027
50.4240579969315
50.4240579969593
50.424057996986
50.4240579970116
50.4240579970361
50.4240579970594
50.4240579970815
50.4240579971025
50.4240579971224
50.4240579971411
50.4240579971589
50.4240579971756
50.4240579971915
50.4240579972064
50.4240579972206
50.4240579972342
50.424057997247
50.4240579972598
50.4240579972726
50.4240579972857
3501.6706942562
31515.0362483026
31515.036965562
3501.6707739519
50.4240591449102
50.4240591449083
50.424059144912
50.42405914492
50.424059144932
50.4240591449472
50.4240591449654
50.4240591449862
50.4240591450093
50.4240591450345
50.4240591450615
50.42405914509
50.4240591451199
50.4240591451509
50.4240591451827
50.4240591452151
50.424059145248
50.424059145281
50.4240591453142
50.4240591453472
50.4240591453799
50.4240591454121
50.4240591454438
50.4240591454748
50.424059145505
50.4240591455343
50.4240591455627
50.42405914559
50.4240591456163
50.4240591456415
50.4240591456656
50.4240591456887
50.4240591457106
50.4240591457314
50.4240591457512
50.42405914577