/*--------------------------------*- C++ -*----------------------------------*\
  =========                 |
  \\      /  F ield         | OpenFOAM: The Open Source CFD Toolbox
   \\    /   O peration     | Website:  https://openfoam.org
    \\  /    A nd           | Version:  10
     \\/     M anipulation  |
\*---------------------------------------------------------------------------*/
FoamFile
{
    format      ascii;
    class       volScalarField;
    location    "4.4";
    object      p;
}
// * * * * * * * * * * * * * * * * * * * * * * * * * * * * * * * * * * * * * //

dimensions      [1 -1 -2 0 0 0 0];

internalField   nonuniform List<scalar> 
2500
(
100083.766403086
100083.76640446
100083.76640543
100083.7664062
100083.766406612
100083.766406839
100083.76640694
100083.766406964
100083.766406946
100083.7664069
100083.766406838
100083.766406766
100083.766406686
100083.7664066
100083.766406511
100083.766406419
100083.766406324
100083.766406227
100083.766406129
100083.76640603
100083.76640593
100083.766405831
100083.766405732
100083.766405633
100083.766405536
100083.766405441
100083.766405348
100083.766405257
100083.766405168
100083.766405083
100083.766405001
100083.766404922
100083.766404848
100083.766404777
100083.766404711
100083.766404649
100083.766404592
100083.766404538
100083.766404487
100083.766404439
100083.766404389
100083.766404333
100083.766404261
100083.766404156
100083.766403988
100083.766403704
100083.766403247
100083.766402441
100083.766401436
100083.766400049
100083.764156659
100083.76415774
100083.764158478
100083.764159129
100083.764159482
100083.76415968
100083.764159765
100083.764159781
100083.764159758
100083.764159711
100083.764159648
100083.764159575
100083.764159496
100083.764159411
100083.764159321
100083.764159229
100083.764159134
100083.764159038
100083.76415894
100083.764158841
100083.764158741
100083.764158642
100083.764158543
100083.764158445
100083.764158348
100083.764158253
100083.764158159
100083.764158068
100083.76415798
100083.764157894
100083.764157812
100083.764157734
100083.764157659
100083.764157588
100083.764157522
100083.76415746
100083.764157402
100083.764157348
100083.764157298
100083.764157249
100083.7641572
100083.764157146
100083.764157078
100083.764156982
100083.764156829
100083.764156575
100083.764156176
100083.76415549
100083.764154718
100083.764153627
100083.761898966
100083.761899619
100083.76189993
100083.761900316
100083.761900519
100083.761900635
100083.761900678
100083.761900672
100083.761900639
100083.761900587
100083.761900522
100083.761900449
100083.761900369
100083.761900284
100083.761900195
100083.761900103
100083.761900008
100083.761899912
100083.761899814
100083.761899715
100083.761899616
100083.761899517
100083.761899418
100083.76189932
100083.761899223
100083.761899128
100083.761899034
100083.761898943
100083.761898855
100083.761898769
100083.761898687
100083.761898609
100083.761898534
100083.761898463
100083.761898397
100083.761898335
100083.761898277
100083.761898223
100083.761898173
100083.761898125
100083.761898078
100083.761898029
100083.761897971
100083.761897897
100083.761897786
100083.761897613
100083.761897363
100083.761896943
100083.761896603
100083.761895929
100083.759632884
100083.759633071
100083.759633025
100083.759633129
100083.75963317
100083.759633194
100083.759633189
100083.75963316
100083.759633116
100083.759633058
100083.759632991
100083.759632917
100083.759632836
100083.759632751
100083.759632662
100083.75963257
100083.759632476
100083.759632379
100083.759632282
100083.759632183
100083.759632084
100083.759631985
100083.759631886
100083.759631788
100083.759631691
100083.759631596
100083.759631503
100083.759631412
100083.759631323
100083.759631238
100083.759631156
100083.759631077
100083.759631003
100083.759630932
100083.759630865
100083.759630803
100083.759630745
100083.759630692
100083.759630642
100083.759630595
100083.759630551
100083.759630507
100083.759630461
100083.759630411
100083.759630347
100083.759630266
100083.75963018
100083.759630041
100083.759630066
100083.759629856
100083.757360777
100083.757360643
100083.757360414
100083.757360331
100083.757360262
100083.757360219
100083.757360177
100083.757360128
100083.757360073
100083.75736001
100083.757359941
100083.757359865
100083.757359784
100083.757359699
100083.75735961
100083.757359518
100083.757359424
100083.757359328
100083.75735923
100083.757359132
100083.757359033
100083.757358934
100083.757358835
100083.757358737
100083.757358641
100083.757358545
100083.757358452
100083.757358361
100083.757358273
100083.757358188
100083.757358105
100083.757358027
100083.757357952
100083.757357881
100083.757357815
100083.757357753
100083.757357695
100083.757357642
100083.757357593
100083.757357548
100083.757357506
100083.757357468
100083.757357432
100083.757357401
100083.757357375
100083.757357362
100083.757357386
100083.757357437
100083.757357651
100083.757357767
100083.755084821
100083.75508454
100083.755084252
100083.755084068
100083.755083938
100083.755083852
100083.755083785
100083.755083722
100083.755083658
100083.755083591
100083.755083518
100083.755083441
100083.755083359
100083.755083274
100083.755083185
100083.755083093
100083.755082999
100083.755082903
100083.755082806
100083.755082708
100083.755082609
100083.75508251
100083.755082412
100083.755082314
100083.755082218
100083.755082123
100083.755082029
100083.755081939
100083.75508185
100083.755081765
100083.755081683
100083.755081604
100083.75508153
100083.755081459
100083.755081392
100083.75508133
100083.755081273
100083.75508122
100083.755081172
100083.755081128
100083.75508109
100083.755081056
100083.755081029
100083.755081013
100083.755081011
100083.755081042
100083.755081128
100083.755081282
100083.755081559
100083.755081831
100083.75280672
100083.752806417
100083.752806139
100083.752805917
100083.752805762
100083.752805651
100083.752805568
100083.752805494
100083.752805424
100083.752805353
100083.752805278
100083.752805199
100083.752805117
100083.752805031
100083.752804942
100083.75280485
100083.752804756
100083.75280466
100083.752804563
100083.752804465
100083.752804367
100083.752804268
100083.75280417
100083.752804073
100083.752803976
100083.752803881
100083.752803788
100083.752803698
100083.752803609
100083.752803524
100083.752803442
100083.752803364
100083.752803289
100083.752803218
100083.752803152
100083.75280309
100083.752803033
100083.752802981
100083.752802933
100083.752802891
100083.752802855
100083.752802826
100083.752802805
100083.7528028
100083.752802815
100083.752802869
100083.752802982
100083.752803175
100083.752803443
100083.752803743
100083.750527559
100083.750527295
100083.750527055
100083.750526833
100083.750526673
100083.750526551
100083.750526459
100083.750526378
100083.750526303
100083.750526227
100083.75052615
100083.75052607
100083.750525987
100083.750525901
100083.750525812
100083.75052572
100083.750525626
100083.750525531
100083.750525434
100083.750525336
100083.750525238
100083.75052514
100083.750525042
100083.750524945
100083.750524848
100083.750524754
100083.750524661
100083.75052457
100083.750524482
100083.750524397
100083.750524315
100083.750524237
100083.750524162
100083.750524092
100083.750524025
100083.750523964
100083.750523907
100083.750523855
100083.750523809
100083.750523768
100083.750523734
100083.750523709
100083.750523694
100083.750523696
100083.75052372
100083.750523785
100083.750523902
100083.750524097
100083.750524326
100083.750524589
100083.748247931
100083.748247723
100083.748247527
100083.748247323
100083.748247169
100083.748247045
100083.748246948
100083.748246862
100083.748246783
100083.748246705
100083.748246626
100083.748246544
100083.748246461
100083.748246374
100083.748246285
100083.748246193
100083.7482461
100083.748246004
100083.748245908
100083.74824581
100083.748245712
100083.748245614
100083.748245517
100083.74824542
100083.748245324
100083.748245229
100083.748245137
100083.748245046
100083.748244958
100083.748244873
100083.748244792
100083.748244713
100083.748244639
100083.748244568
100083.748244502
100083.748244441
100083.748244384
100083.748244333
100083.748244287
100083.748244248
100083.748244216
100083.748244194
100083.748244183
100083.74824419
100083.748244218
100083.748244287
100083.748244397
100083.748244574
100083.748244758
100083.748244966
100083.745968124
100083.745967968
100083.74596781
100083.74596763
100083.745967488
100083.745967366
100083.745967268
100083.745967179
100083.745967097
100083.745967017
100083.745966936
100083.745966854
100083.74596677
100083.745966683
100083.745966594
100083.745966502
100083.745966409
100083.745966314
100083.745966217
100083.74596612
100083.745966023
100083.745965925
100083.745965827
100083.745965731
100083.745965635
100083.745965541
100083.745965448
100083.745965358
100083.74596527
100083.745965186
100083.745965104
100083.745965026
100083.745964951
100083.745964881
100083.745964815
100083.745964754
100083.745964698
100083.745964647
100083.745964602
100083.745964564
100083.745964534
100083.745964514
100083.745964505
100083.745964515
100083.745964545
100083.745964612
100083.745964711
100083.745964863
100083.745965007
100083.745965162
100083.743688261
100083.743688145
100083.743688019
100083.743687863
100083.743687734
100083.743687617
100083.743687519
100083.743687429
100083.743687346
100083.743687264
100083.743687182
100083.7436871
100083.743687015
100083.743686928
100083.743686839
100083.743686747
100083.743686654
100083.743686559
100083.743686463
100083.743686367
100083.743686269
100083.743686172
100083.743686075
100083.743685978
100083.743685883
100083.743685789
100083.743685697
100083.743685607
100083.743685519
100083.743685435
100083.743685353
100083.743685275
100083.743685201
100083.743685131
100083.743685065
100083.743685004
100083.743684948
100083.743684898
100083.743684854
100083.743684816
100083.743684788
100083.743684769
100083.743684762
100083.743684773
100083.743684803
100083.743684864
100083.74368495
100083.743685078
100083.74368519
100083.743685302
100083.741408388
100083.741408302
100083.741408201
100083.741408067
100083.74140795
100083.741407839
100083.741407744
100083.741407654
100083.74140757
100083.741407487
100083.741407405
100083.741407322
100083.741407237
100083.74140715
100083.741407061
100083.74140697
100083.741406877
100083.741406782
100083.741406687
100083.74140659
100083.741406493
100083.741406396
100083.741406299
100083.741406203
100083.741406108
100083.741406015
100083.741405923
100083.741405833
100083.741405746
100083.741405661
100083.74140558
100083.741405502
100083.741405428
100083.741405358
100083.741405292
100083.741405231
100083.741405176
100083.741405126
100083.741405082
100083.741405046
100083.741405017
100083.741404999
100083.741404994
100083.741405004
100083.741405032
100083.741405087
100083.741405161
100083.741405266
100083.741405352
100083.741405434
100083.73912852
100083.739128456
100083.739128373
100083.739128258
100083.739128153
100083.739128049
100083.739127956
100083.739127868
100083.739127784
100083.739127701
100083.739127619
100083.739127535
100083.73912745
100083.739127364
100083.739127275
100083.739127184
100083.739127091
100083.739126997
100083.739126902
100083.739126806
100083.739126709
100083.739126613
100083.739126516
100083.73912642
100083.739126326
100083.739126232
100083.739126141
100083.739126051
100083.739125964
100083.73912588
100083.739125799
100083.739125721
100083.739125647
100083.739125577
100083.739125511
100083.739125451
100083.739125395
100083.739125346
100083.739125302
100083.739125266
100083.739125239
100083.739125221
100083.739125215
100083.739125224
100083.73912525
100083.739125298
100083.739125359
100083.739125445
100083.739125512
100083.739125571
100083.73684866
100083.736848611
100083.736848543
100083.736848444
100083.736848349
100083.736848252
100083.736848163
100083.736848077
100083.736847994
100083.736847911
100083.736847829
100083.736847746
100083.736847661
100083.736847574
100083.736847486
100083.736847395
100083.736847303
100083.736847209
100083.736847115
100083.736847019
100083.736846923
100083.736846827
100083.736846731
100083.736846635
100083.736846541
100083.736846448
100083.736846356
100083.736846267
100083.73684618
100083.736846096
100083.736846015
100083.736845937
100083.736845864
100083.736845794
100083.736845728
100083.736845668
100083.736845613
100083.736845563
100083.73684552
100083.736845484
100083.736845456
100083.736845439
100083.736845432
100083.736845439
100083.736845461
100083.736845502
100083.736845553
100083.736845623
100083.736845675
100083.736845718
100083.734568808
100083.73456877
100083.734568713
100083.734568627
100083.734568541
100083.734568452
100083.734568367
100083.734568283
100083.734568201
100083.734568119
100083.734568038
100083.734567955
100083.73456787
100083.734567784
100083.734567696
100083.734567606
100083.734567514
100083.734567421
100083.734567326
100083.734567231
100083.734567135
100083.73456704
100083.734566944
100083.734566849
100083.734566755
100083.734566662
100083.734566571
100083.734566482
100083.734566395
100083.734566312
100083.734566231
100083.734566153
100083.73456608
100083.73456601
100083.734565945
100083.734565884
100083.734565829
100083.734565779
100083.734565736
100083.7345657
100083.734565672
100083.734565654
100083.734565646
100083.734565651
100083.734565669
100083.734565703
100083.734565745
100083.734565801
100083.734565842
100083.734565874
100083.732288963
100083.732288932
100083.732288884
100083.732288809
100083.732288732
100083.732288649
100083.732288568
100083.732288486
100083.732288406
100083.732288326
100083.732288245
100083.732288162
100083.732288079
100083.732287993
100083.732287905
100083.732287815
100083.732287724
100083.732287632
100083.732287538
100083.732287443
100083.732287348
100083.732287252
100083.732287157
100083.732287063
100083.732286969
100083.732286876
100083.732286786
100083.732286697
100083.732286611
100083.732286527
100083.732286446
100083.732286369
100083.732286295
100083.732286226
100083.732286161
100083.7322861
100083.732286045
100083.732285995
100083.732285952
100083.732285916
100083.732285887
100083.732285868
100083.732285859
100083.732285861
100083.732285875
100083.732285902
100083.732285937
100083.732285981
100083.732286013
100083.732286037
100083.730009122
100083.730009097
100083.730009056
100083.730008991
100083.73000892
100083.730008844
100083.730008767
100083.730008688
100083.73000861
100083.730008531
100083.730008451
100083.73000837
100083.730008286
100083.730008201
100083.730008114
100083.730008025
100083.730007934
100083.730007842
100083.730007749
100083.730007655
100083.73000756
100083.730007465
100083.73000737
100083.730007276
100083.730007183
100083.730007091
100083.730007
100083.730006912
100083.730006826
100083.730006742
100083.730006662
100083.730006585
100083.730006511
100083.730006442
100083.730006376
100083.730006316
100083.730006261
100083.730006211
100083.730006167
100083.730006131
100083.730006102
100083.730006081
100083.73000607
100083.73000607
100083.730006079
100083.730006101
100083.730006128
100083.730006163
100083.730006187
100083.730006206
100083.727729286
100083.727729265
100083.72772923
100083.727729172
100083.727729108
100083.727729037
100083.727728964
100083.727728889
100083.727728813
100083.727728735
100083.727728657
100083.727728576
100083.727728494
100083.727728409
100083.727728323
100083.727728234
100083.727728144
100083.727728053
100083.72772796
100083.727727866
100083.727727772
100083.727727678
100083.727727583
100083.72772749
100083.727727397
100083.727727305
100083.727727215
100083.727727127
100083.727727041
100083.727726958
100083.727726878
100083.727726801
100083.727726727
100083.727726658
100083.727726592
100083.727726532
100083.727726476
100083.727726426
100083.727726382
100083.727726345
100083.727726315
100083.727726293
100083.72772628
100083.727726277
100083.727726283
100083.727726299
100083.727726319
100083.727726347
100083.727726365
100083.727726379
100083.725449453
100083.725449436
100083.725449404
100083.725449354
100083.725449295
100083.725449229
100083.72544916
100083.725449088
100083.725449014
100083.725448939
100083.725448861
100083.725448782
100083.7254487
100083.725448617
100083.725448531
100083.725448443
100083.725448354
100083.725448263
100083.725448171
100083.725448078
100083.725447984
100083.72544789
100083.725447797
100083.725447703
100083.725447611
100083.72544752
100083.72544743
100083.725447342
100083.725447257
100083.725447174
100083.725447094
100083.725447017
100083.725446943
100083.725446874
100083.725446808
100083.725446748
100083.725446692
100083.725446642
100083.725446597
100083.725446559
100083.725446528
100083.725446505
100083.72544649
100083.725446483
100083.725446485
100083.725446496
100083.725446511
100083.725446532
100083.725446546
100083.725446556
100083.723169622
100083.723169608
100083.723169581
100083.723169536
100083.723169482
100083.723169421
100083.723169355
100083.723169287
100083.723169215
100083.723169141
100083.723169065
100083.723168987
100083.723168907
100083.723168824
100083.723168739
100083.723168652
100083.723168564
100083.723168473
100083.723168382
100083.723168289
100083.723168196
100083.723168103
100083.72316801
100083.723167917
100083.723167825
100083.723167734
100083.723167645
100083.723167557
100083.723167472
100083.723167389
100083.723167309
100083.723167233
100083.723167159
100083.72316709
100083.723167024
100083.723166963
100083.723166907
100083.723166857
100083.723166812
100083.723166773
100083.723166741
100083.723166716
100083.723166699
100083.723166689
100083.723166688
100083.723166694
100083.723166704
100083.723166719
100083.723166729
100083.723166737
100083.720889794
100083.720889782
100083.720889758
100083.720889718
100083.720889669
100083.720889612
100083.72088955
100083.720889484
100083.720889415
100083.720889343
100083.720889269
100083.720889192
100083.720889113
100083.720889031
100083.720888947
100083.720888861
100083.720888773
100083.720888684
100083.720888593
100083.720888501
100083.720888408
100083.720888316
100083.720888223
100083.720888131
100083.720888039
100083.720887949
100083.72088786
100083.720887773
100083.720887688
100083.720887605
100083.720887525
100083.720887449
100083.720887375
100083.720887306
100083.72088724
100083.720887179
100083.720887123
100083.720887072
100083.720887026
100083.720886986
100083.720886953
100083.720886926
100083.720886907
100083.720886895
100083.72088689
100083.720886891
100083.720886897
100083.720886907
100083.720886914
100083.720886919
100083.718609967
100083.718609957
100083.718609936
100083.7186099
100083.718609855
100083.718609802
100083.718609744
100083.718609681
100083.718609614
100083.718609544
100083.718609472
100083.718609396
100083.718609318
100083.718609238
100083.718609155
100083.718609069
100083.718608982
100083.718608894
100083.718608803
100083.718608712
100083.71860862
100083.718608528
100083.718608436
100083.718608344
100083.718608253
100083.718608163
100083.718608075
100083.718607988
100083.718607903
100083.718607821
100083.718607741
100083.718607665
100083.718607591
100083.718607522
100083.718607456
100083.718607395
100083.718607338
100083.718607286
100083.71860724
100083.718607199
100083.718607164
100083.718607136
100083.718607114
100083.7186071
100083.718607091
100083.718607089
100083.718607091
100083.718607097
100083.718607101
100083.718607104
100083.716330142
100083.716330133
100083.716330115
100083.716330083
100083.716330042
100083.716329992
100083.716329937
100083.716329877
100083.716329813
100083.716329745
100083.716329674
100083.7163296
100083.716329523
100083.716329444
100083.716329362
100083.716329278
100083.716329191
100083.716329103
100083.716329014
100083.716328923
100083.716328832
100083.716328741
100083.716328649
100083.716328558
100083.716328467
100083.716328378
100083.716328289
100083.716328203
100083.716328119
100083.716328036
100083.716327957
100083.716327881
100083.716327807
100083.716327738
100083.716327672
100083.71632761
100083.716327553
100083.716327501
100083.716327453
100083.716327411
100083.716327375
100083.716327345
100083.716327322
100083.716327304
100083.716327293
100083.716327287
100083.716327286
100083.716327288
100083.716327289
100083.716327291
100083.714050318
100083.714050311
100083.714050294
100083.714050266
100083.714050228
100083.714050182
100083.71405013
100083.714050072
100083.714050011
100083.714049945
100083.714049876
100083.714049803
100083.714049728
100083.71404965
100083.714049569
100083.714049485
100083.7140494
100083.714049313
100083.714049224
100083.714049134
100083.714049044
100083.714048953
100083.714048862
100083.714048771
100083.714048681
100083.714048592
100083.714048504
100083.714048418
100083.714048334
100083.714048252
100083.714048173
100083.714048096
100083.714048023
100083.714047953
100083.714047887
100083.714047825
100083.714047768
100083.714047715
100083.714047667
100083.714047624
100083.714047586
100083.714047555
100083.714047529
100083.714047509
100083.714047494
100083.714047485
100083.71404748
100083.714047479
100083.714047479
100083.714047478
100083.711770494
100083.711770488
100083.711770474
100083.711770449
100083.711770414
100083.711770371
100083.711770322
100083.711770267
100083.711770208
100083.711770144
100083.711770077
100083.711770006
100083.711769932
100083.711769855
100083.711769775
100083.711769693
100083.711769608
100083.711769522
100083.711769434
100083.711769345
100083.711769255
100083.711769165
100083.711769074
100083.711768984
100083.711768895
100083.711768806
100083.711768719
100083.711768633
100083.711768549
100083.711768467
100083.711768388
100083.711768312
100083.711768239
100083.711768169
100083.711768102
100083.71176804
100083.711767982
100083.711767928
100083.711767879
100083.711767835
100083.711767797
100083.711767763
100083.711767735
100083.711767713
100083.711767696
100083.711767684
100083.711767676
100083.711767671
100083.711767669
100083.711767667
100083.709490671
100083.709490666
100083.709490654
100083.709490632
100083.7094906
100083.70949056
100083.709490514
100083.709490462
100083.709490405
100083.709490343
100083.709490278
100083.709490209
100083.709490136
100083.70949006
100083.709489981
100083.7094899
100083.709489817
100083.709489731
100083.709489644
100083.709489556
100083.709489466
100083.709489377
100083.709489287
100083.709489197
100083.709489108
100083.70948902
100083.709488933
100083.709488847
100083.709488764
100083.709488682
100083.709488603
100083.709488527
100083.709488454
100083.709488384
100083.709488317
100083.709488255
100083.709488196
100083.709488142
100083.709488092
100083.709488047
100083.709488006
100083.709487971
100083.709487941
100083.709487917
100083.709487897
100083.709487882
100083.709487871
100083.709487864
100083.709487859
100083.709487857
100083.707210848
100083.707210845
100083.707210835
100083.707210815
100083.707210786
100083.707210749
100083.707210705
100083.707210656
100083.707210601
100083.707210542
100083.707210478
100083.70721041
100083.707210339
100083.707210265
100083.707210187
100083.707210107
100083.707210024
100083.70720994
100083.707209853
100083.707209766
100083.707209677
100083.707209588
100083.707209499
100083.70720941
100083.707209321
100083.707209233
100083.707209147
100083.707209062
100083.707208978
100083.707208897
100083.707208818
100083.707208742
100083.707208669
100083.707208599
100083.707208532
100083.707208469
100083.70720841
100083.707208355
100083.707208304
100083.707208258
100083.707208216
100083.707208179
100083.707208147
100083.70720812
100083.707208098
100083.70720808
100083.707208066
100083.707208057
100083.70720805
100083.707208046
100083.704931026
100083.704931023
100083.704931015
100083.704930998
100083.704930971
100083.704930937
100083.704930896
100083.704930849
100083.704930797
100083.70493074
100083.704930678
100083.704930612
100083.704930542
100083.704930469
100083.704930392
100083.704930313
100083.704930231
100083.704930148
100083.704930062
100083.704929975
100083.704929888
100083.704929799
100083.70492971
100083.704929622
100083.704929534
100083.704929446
100083.70492936
100083.704929275
100083.704929192
100083.704929111
100083.704929033
100083.704928957
100083.704928883
100083.704928813
100083.704928746
100083.704928682
100083.704928623
100083.704928567
100083.704928515
100083.704928468
100083.704928425
100083.704928386
100083.704928352
100083.704928323
100083.704928298
100083.704928278
100083.704928262
100083.70492825
100083.704928241
100083.704928236
100083.702651203
100083.702651202
100083.702651195
100083.70265118
100083.702651157
100083.702651125
100083.702651087
100083.702651042
100083.702650992
100083.702650937
100083.702650877
100083.702650812
100083.702650744
100083.702650672
100083.702650597
100083.702650519
100083.702650438
100083.702650355
100083.702650271
100083.702650185
100083.702650098
100083.70265001
100083.702649922
100083.702649834
100083.702649746
100083.702649659
100083.702649573
100083.702649489
100083.702649406
100083.702649325
100083.702649247
100083.702649171
100083.702649097
100083.702649027
100083.70264896
100083.702648896
100083.702648835
100083.702648779
100083.702648726
100083.702648678
100083.702648633
100083.702648593
100083.702648557
100083.702648526
100083.702648499
100083.702648476
100083.702648457
100083.702648443
100083.702648432
100083.702648426
100083.70037138
100083.70037138
100083.700371375
100083.700371363
100083.700371342
100083.700371313
100083.700371277
100083.700371235
100083.700371187
100083.700371134
100083.700371075
100083.700371013
100083.700370946
100083.700370875
100083.700370801
100083.700370724
100083.700370645
100083.700370563
100083.700370479
100083.700370394
100083.700370307
100083.70037022
100083.700370133
100083.700370045
100083.700369958
100083.700369871
100083.700369786
100083.700369702
100083.700369619
100083.700369539
100083.70036946
100083.700369384
100083.700369311
100083.70036924
100083.700369173
100083.700369108
100083.700369047
100083.70036899
100083.700368937
100083.700368887
100083.700368841
100083.700368799
100083.700368762
100083.700368728
100083.700368699
100083.700368673
100083.700368652
100083.700368635
100083.700368623
100083.700368616
100083.698091557
100083.698091558
100083.698091555
100083.698091545
100083.698091526
100083.6980915
100083.698091467
100083.698091427
100083.698091381
100083.69809133
100083.698091274
100083.698091212
100083.698091147
100083.698091078
100083.698091005
100083.698090929
100083.69809085
100083.698090769
100083.698090686
100083.698090602
100083.698090516
100083.69809043
100083.698090343
100083.698090256
100083.698090169
100083.698090083
100083.698089998
100083.698089914
100083.698089832
100083.698089752
100083.698089673
100083.698089597
100083.698089524
100083.698089453
100083.698089385
100083.69808932
100083.698089259
100083.698089201
100083.698089146
100083.698089096
100083.698089048
100083.698089005
100083.698088966
100083.69808893
100083.698088898
100083.69808887
100083.698088847
100083.698088828
100083.698088814
100083.698088805
100083.695811733
100083.695811735
100083.695811735
100083.695811727
100083.695811711
100083.695811688
100083.695811657
100083.695811619
100083.695811575
100083.695811526
100083.695811471
100083.695811412
100083.695811348
100083.69581128
100083.695811208
100083.695811133
100083.695811056
100083.695810975
100083.695810893
100083.69581081
100083.695810725
100083.695810639
100083.695810552
100083.695810466
100083.69581038
100083.695810294
100083.69581021
100083.695810126
100083.695810044
100083.695809964
100083.695809886
100083.695809809
100083.695809736
100083.695809665
100083.695809597
100083.695809532
100083.69580947
100083.695809411
100083.695809356
100083.695809304
100083.695809255
100083.69580921
100083.695809169
100083.695809131
100083.695809097
100083.695809067
100083.695809042
100083.69580902
100083.695809004
100083.695808993
100083.693531908
100083.693531912
100083.693531914
100083.693531909
100083.693531895
100083.693531874
100083.693531846
100083.69353181
100083.693531769
100083.693531721
100083.693531668
100083.69353161
100083.693531548
100083.693531481
100083.693531411
100083.693531337
100083.69353126
100083.693531181
100083.6935311
100083.693531017
100083.693530932
100083.693530847
100083.693530762
100083.693530676
100083.69353059
100083.693530505
100083.69353042
100083.693530337
100083.693530255
100083.693530175
100083.693530097
100083.693530021
100083.693529947
100083.693529876
100083.693529808
100083.693529742
100083.69352968
100083.69352962
100083.693529564
100083.693529511
100083.693529461
100083.693529415
100083.693529372
100083.693529332
100083.693529296
100083.693529263
100083.693529235
100083.693529211
100083.693529193
100083.693529181
100083.691252083
100083.691252089
100083.691252092
100083.691252091
100083.691252079
100083.691252061
100083.691252034
100083.691252001
100083.691251962
100083.691251916
100083.691251865
100083.691251808
100083.691251747
100083.691251682
100083.691251613
100083.69125154
100083.691251464
100083.691251386
100083.691251305
100083.691251223
100083.69125114
100083.691251055
100083.69125097
100083.691250885
100083.691250799
100083.691250715
100083.691250631
100083.691250548
100083.691250466
100083.691250386
100083.691250308
100083.691250232
100083.691250158
100083.691250087
100083.691250018
100083.691249952
100083.691249889
100083.691249829
100083.691249772
100083.691249717
100083.691249666
100083.691249619
100083.691249574
100083.691249532
100083.691249494
100083.691249459
100083.691249429
100083.691249401
100083.691249381
100083.691249368
100083.688972257
100083.688972265
100083.68897227
100083.688972272
100083.688972263
100083.688972247
100083.688972223
100083.688972192
100083.688972154
100083.68897211
100083.688972061
100083.688972006
100083.688971946
100083.688971882
100083.688971814
100083.688971742
100083.688971668
100083.68897159
100083.688971511
100083.688971429
100083.688971346
100083.688971262
100083.688971178
100083.688971093
100083.688971008
100083.688970924
100083.68897084
100083.688970757
100083.688970676
100083.688970596
100083.688970518
100083.688970442
100083.688970368
100083.688970297
100083.688970228
100083.688970161