/*--------------------------------*- C++ -*----------------------------------*\
  =========                 |
  \\      /  F ield         | OpenFOAM: The Open Source CFD Toolbox
   \\    /   O peration     | Website:  https://openfoam.org
    \\  /    A nd           | Version:  10
     \\/     M anipulation  |
\*---------------------------------------------------------------------------*/
FoamFile
{
    format      ascii;
    class       volScalarField;
    location    "4.4";
    object      p_rgh;
}
// * * * * * * * * * * * * * * * * * * * * * * * * * * * * * * * * * * * * * //

dimensions      [1 -1 -2 0 0 0 0];

internalField   nonuniform List<scalar> 
2500
(
83.8796877176792
83.8796950789547
83.8797030690766
83.8797077805648
83.8797100970405
83.8797111991007
83.8797116852365
83.8797118729126
83.8797119198716
83.8797118989896
83.8797118463845
83.8797117771901
83.8797116984642
83.8797116138594
83.8797115249909
83.8797114329645
83.8797113382607
83.8797112417378
83.8797111438907
83.8797110450978
83.8797109458246
83.879710846566
83.8797107476712
83.8797106495476
83.8797105526319
83.8797104573459
83.8797103639663
83.879710272915
83.8797101845412
83.879710099136
83.8797100170341
83.8797099384974
83.8797098637879
83.8797097931383
83.8797097267234
83.8797096645867
83.8797096065973
83.8797095523623
83.879709500412
83.8797094479814
83.8797093881876
83.8797093054163
83.8797091644519
83.8797088931606
83.8797083359095
83.8797071827867
83.879704833962
83.8797000791092
83.8796919691522
83.8796847322956
83.8801905399741
83.8802143509238
83.8802353668725
83.8802476662968
83.880254010568
83.8802571477863
83.8802586154634
83.8802592498105
83.8802594872541
83.8802595426241
83.8802595184534
83.8802594593581
83.8802593840956
83.8802593005967
83.8802592121065
83.8802591201529
83.8802590255655
83.8802589290717
83.8802588312392
83.8802587324753
83.8802586332458
83.8802585340163
83.8802584351652
83.8802583370853
83.880258240184
83.8802581448836
83.8802580515039
83.8802579604526
83.8802578720788
83.8802577866591
83.8802577045426
83.8802576260205
83.8802575512382
83.8802574804868
83.8802574139845
83.8802573516587
83.8802572932036
83.880257237528
83.8802571815759
83.8802571176057
83.8802570264088
83.880256862627
83.8802565242222
83.8802557998715
83.8802542622288
83.8802510900132
83.8802447381895
83.8802323623095
83.8802110026445
83.8801875217905
83.8806666917517
83.880700428228
83.8807271181286
83.8807424005499
83.8807502326963
83.8807540867856
83.8807558899425
83.8807566743199
83.8807569753117
83.8807570559875
83.8807570411736
83.8807569853525
83.8807569112105
83.8807568280899
83.8807567397307
83.880756647879
83.8807565533934
83.8807564570016
83.8807563592272
83.8807562605216
83.8807561613648
83.880756062179
83.8807559634006
83.8807558653643
83.8807557684922
83.8807556732208
83.8807555798703
83.8807554888335
83.8807554004597
83.88075531504
83.880755232909
83.8807551543578
83.8807550795318
83.8807550087076
83.8807549421472
83.8807548797631
83.8807548211335
83.8807547650358
83.8807547079341
83.8807546405878
83.8807545397867
83.8807543504518
83.8807539482223
83.8807530741033
83.8807512024214
83.8807473143825
83.8807394646428
83.880724042785
83.8806967994751
83.8806629278115
83.881044194437
83.8810774251324
83.8811007043842
83.8811135056312
83.8811198029434
83.8811227835686
83.8811241311632
83.8811246959085
83.8811248989805
83.8811249388818
83.8811249081045
83.8811248463608
83.8811247701815
83.8811246864061
83.8811245979159
83.8811245060788
83.8811244116951
83.8811243154196
83.8811242177762
83.881124119187
83.8811240201467
83.8811239210627
83.8811238223716
83.8811237244372
83.8811236276379
83.8811235324247
83.8811234391324
83.8811233481101
83.8811232597509
83.8811231743312
83.8811230921856
83.8811230136344
83.8811229388084
83.8811228679842
83.8811228014383
83.881122739127
83.8811226808029
83.8811226256075
83.8811225710961
83.8811225107347
83.8811224279198
83.8811222827499
83.8811219830823
83.8811213326408
83.8811199155607
83.8811168875836
83.8811105413333
83.8810975551169
83.8810736586456
83.8810397124907
83.8813023770781
83.881328344185
83.8813447472494
83.8813533889333
83.8813574614178
83.8813593074156
83.8813601066358
83.8813604200404
83.8813605145406
83.8813605101022
83.8813604620518
83.8813603938761
83.8813603153831
83.8813602308655
83.8813601421862
83.8813600503636
83.8813599561108
83.88135986001
83.8813597625121
83.8813596640975
83.8813595652173
83.8813594662643
83.8813593677041
83.8813592698862
83.8813591732032
83.8813590780774
83.8813589848578
83.8813588939229
83.8813588055928
83.8813587202167
83.8813586380857
83.8813585595344
83.8813584847376
83.8813584139716
83.8813583474548
83.8813582852599
83.8813582272851
83.8813581731083
83.8813581213471
83.8813580682181
83.8813580041751
83.8813579059643
83.8813577185792
83.8813573233783
83.8813564556622
83.8813545559678
83.8813504225982
83.8813416044432
83.8813246465434
83.8812976835034
83.8814582569321
83.8814753535553
83.8814851967763
83.8814901456208
83.8814923710161
83.8814933252725
83.8814937103452
83.8814938382129
83.881493853245
83.8814938161959
83.8814937551797
83.881493681969
83.8814936015988
83.8814935164119
83.8814934275433
83.8814933357789
83.8814932416717
83.88149314576
83.8814930484514
83.8814929502405
83.8814928515494
83.8814927527856
83.8814926543855
83.8814925567131
83.8814924601902
83.8814923651807
83.8814922720776
83.88149218123
83.8814920929726
83.8814920076547
83.8814919255819
83.8814918470453
83.8814917722921
83.8814917015843
83.8814916351257
83.8814915730763
83.8814915154944
83.8814914622053
83.8814914126124
83.8814913649258
83.8814913145907
83.8814912502712
83.8814911442169
83.881490936692
83.8814904842875
83.8814894754032
83.881487192426
83.8814821078704
83.8814718461654
83.8814538104198
83.8815428708622
83.8815526874241
83.8815578648209
83.8815603190014
83.881561354865
83.8815617560322
83.8815618906228
83.8815619071538
83.8815618740337
83.88156181667
83.8815617471846
83.8815616704669
83.8815615886706
83.8815615029162
83.8815614139166
83.8815613221959
83.8815612282488
83.8815611325263
83.8815610354359
83.8815609374578
83.881560838985
83.8815607404395
83.8815606422431
83.8815605447599
83.8815604484116
83.8815603535622
83.88156026059
83.8815601698443
83.8815600817179
83.8815599964728
83.8815599144582
83.8815598359797
83.8815597612993
83.8815596906352
83.8815596243076
83.8815595624328
83.8815595052001
83.8815594526677
83.8815594047192
83.8815593607724
83.8815593191975
83.8815592756437
83.8815592183819
83.8815591229068
83.8815589214646
83.8815584661206
83.8815573797619
83.8815548333951
83.8815493821312
83.8815388615039
83.8815847578662
83.8815897766326
83.8815921945352
83.8815932374418
83.8815936257888
83.8815937339386
83.8815937374602
83.8815936953033
83.8815936359606
83.8815935669263
83.8815934921586
83.8815934130544
83.8815933301521
83.8815932439611
83.8815931548452
83.8815930631827
83.8815929693956
83.8815928738768
83.8815927770484
83.8815926792886
83.8815925810777
83.8815924827795
83.8815923848015
83.881592287551
83.881592191392
83.8815920967318
83.8815920039196
83.881591913334
83.8815918253094
83.8815917401807
83.8815916582826
83.8815915798623
83.8815915052546
83.8815914347069
83.8815913684957
83.8815913068393
83.8815912499704
83.8815911981073
83.8815911514394
83.8815911100537
83.8815910738922
83.8815910421545
83.8815910112316
83.8815909745317
83.881590903984
83.8815907417738
83.8815903079376
83.881589204364
83.8815866255318
83.8815811581153
83.8816038773948
83.8816061853577
83.8816071801702
83.8816075270879
83.8816076069779
83.8816075782961
83.8816075205687
83.8816074501374
83.8816073773341
83.8816073017369
83.8816072236805
83.8816071429028
83.8816070591856
83.8816069726308
83.8816068834276
83.8816067918378
83.8816066982254
83.8816066029394
83.8816065063729
83.8816064089187
83.8816063109698
83.8816062129335
83.8816061152174
83.8816060182144
83.8816059222881
83.8816058278317
83.8816057352233
83.8816056448122
83.8816055569332
83.8816054719209
83.8816053901246
83.8816053118207
83.8816052373004
83.8816051668691
83.8816051008034
83.8816050393798
83.8816049828602
83.8816049315938
83.881604885959
83.8816048464359
83.8816048136796
83.8816047885484
83.8816047711298
83.8816047625587
83.881604752969
83.8816047272558
83.8816046041175
83.8816042145481
83.8816031310562
83.8816005704139
83.8816119879484
83.8816129392944
83.8816132791399
83.8816133231157
83.8816132738721
83.8816131891363
83.8816131057392
83.8816130227788
83.8816129432525
83.8816128639883
83.8816127838363
83.8816127018799
83.8816126175661
83.8816125307349
83.881612441488
83.8816123500292
83.8816122566059
83.8816121615819
83.8816120652918
83.8816119681433
83.8816118704999
83.8816117727692
83.8816116753296
83.8816115785885
83.8816114829242
83.8816113887151
83.8816112963104
83.8816112060886
83.8816111183842
83.8816110335174
83.8816109518521
83.8816108736646
83.8816107992607
83.8816107289604
83.8816106630547
83.8816106018494
83.881610545679
83.8816104949365
83.8816104501457
83.881610411976
83.8816103814752
83.8816103600984
83.8816103494028
83.8816103532881
83.8816103691206
83.8816103990393
83.8816104055441
83.8816103275749
83.8816099387623
83.8816088578315
83.8816151972569
83.8816155370587
83.8816156063549
83.8816155364038
83.8816154419183
83.8816153386579
83.8816152462823
83.8816151584761
83.881615075763
83.8816149944905
83.8816149130289
83.8816148302867
83.8816147455364
83.8816146585741
83.8816145693709
83.8816144780576
83.8816143848671
83.8816142901342
83.8816141941643
83.8816140973358
83.8816140000272
83.8816139026167
83.8816138054972
83.8816137090471
83.8816136136593
83.8816135196976
83.8816134275403
83.8816133375221
83.8816132500069
83.8816131653293
83.8816130837949
83.8816130057385
83.88161293148
83.8816128613107
83.8816127955506
83.881612734549
83.8816126786842
83.8816126283782
83.8816125842568
83.8816125470912
83.8816125180747
83.8816124988225
83.8816124913574
83.881612500074
83.8816125247686
83.8816125728772
83.8816126245365
83.881612663914
83.881612564961
83.8816121625568
83.8816163772426
83.8816164677992
83.8816164389282
83.8816163364099
83.8816162319854
83.8816161262366
83.8816160323186
83.8816159433773
83.8816158594564
83.8816157771944
83.8816156950052
83.8816156117973
83.8816155268432
83.8816154398519
83.8816153507505
83.8816152596555
83.8816151667415
83.8816150723287
83.8816149767081
83.8816148802434
83.881614783284
83.8816146862227
83.881614589438
83.8816144933226
83.8816143982403
83.8816143045551
83.8816142126452
83.8816141228745
83.8816140355484
83.88161395106
83.8816138696857
83.8816137917747
83.8816137176327
83.8816136475943
83.8816135819943
83.8816135211673
83.8816134655499
83.8816134156223
83.8816133720102
83.8816133355285
83.8816133074142
83.8816132892825
83.8816132831562
83.8816132930224
83.8816133191867
83.8816133695946
83.8816134309309
83.8816135040252
83.881613511563
83.8816133909568
83.8816167706827
83.8816167709156
83.8816167139448
83.8816166100296
83.881616508952
83.8816164070304
83.881616314844
83.8816162266885
83.8816161427239
83.8816160602291
83.881615977778
83.8816158944101
83.8816158094269
83.8816157225374
83.8816156336397
83.8816155428212
83.881615450242
83.8816153561929
83.8816152609506
83.8816151648643
83.8816150682978
83.8816149716149
83.8816148752085
83.8816147794278
83.8816146846657
83.8816145912861
83.8816144996526
83.8816144101147
83.881614323036
83.8816142387222
83.8816141575226
83.8816140797571
83.8816140057606
83.8816139358387
83.8816138703696
83.8816138096881
83.8816137542599
83.8816137045796
83.8816136612877
83.8816136252281
83.8816135975794
83.8816135798552
83.8816135739035
83.8816135830275
83.8816136074893
83.8816136539535
83.8816137117828
83.8816137863905
83.8816138252878
83.8816138093389
83.8816168786143
83.8816168518824
83.881616792336
83.8816166972101
83.8816166036704
83.8816165077733
83.8816164187738
83.8816163324373
83.8816162491858
83.8816161670111
83.8816160846909
83.8816160014394
83.8816159166308
83.8816158299742
83.8816157413821
83.8816156508983
83.8816155587119
83.8816154650704
83.8816153702501
83.8816152745858
83.8816151784267
83.8816150821513
83.8816149861232
83.8816148907063
83.8816147962934
83.8816147032339
83.8816146118916
83.8816145226301
83.8816144357697
83.8816143516742
83.8816142706492
83.8816141930438
83.8816141191637
83.8816140493582
83.881613983991
83.8816139234259
83.8816138681141
83.8816138185648
83.8816137754475
83.8816137395479
83.8816137120157
83.8816136941314
83.881613687583
83.8816136949754
83.881613716323
83.8816137567046
83.8816138068505
83.8816138725815
83.8816139151459
83.8816139319388
83.8816168903868
83.8816168593767
83.8816168051271
83.8816167208861
83.8816166356555
83.8816165462922
83.8816164611198
83.8816163771844
83.881616295228
83.8816162137955
83.8816161319701
83.8816160490969
83.8816159646231
83.8816158783302
83.881615790131
83.8816157000838
83.881615608334
83.8816155151435
83.8816154207743
83.8816153255611
83.8816152298532
83.8816151340143
83.8816150383791
83.8816149433696
83.8816148493206
83.8816147565958
83.881614665559
83.8816145765741
83.8816144899611
83.8816144060838
83.8816143252334
83.8816142477735
83.8816141740244
83.8816141043208
83.8816140390118
83.8816139785195
83.8816139232513
83.8816138737311
83.8816138306138
83.881613794656
83.881613766891
83.8816137484537
83.8816137407703
83.8816137458489
83.8816137634567
83.8816137972753
83.8816138390976
83.8816138937545
83.8816139312839
83.881613954436
83.8816168733902
83.8816168451158
83.8816167976911
83.8816167237819
83.8816166463803
83.8816165634489
83.8816164822929
83.8816164011514
83.881616320883
83.8816162405565
83.8816161595023
83.8816160772258
83.8816159932758
83.8816159074777
83.8816158197733
83.8816157302208
83.8816156389657
83.88161554627
83.8816154523956
83.8816153576772
83.8816152624349
83.8816151670471
83.8816150718631
83.8816149772465
83.8816148835758
83.8816147912148
83.8816147004982
83.8816146118043
83.8816145254532
83.8816144417797
83.881614361133
83.8816142838186
83.8816142101714
83.8816141405405
83.8816140752897
83.8816140147974
83.8816139595001
83.8816139099217
83.8816138666443
83.8816138304246
83.8816138021502
83.8816137828253
83.8816137736139
83.881613776015
83.8816137896938
83.8816138170951
83.8816138510447
83.8816138952679
83.881613925987
83.8816139470873
83.8816168500634
83.8816168258927
83.8816167848418
83.8816167199548
83.8816166496545
83.8816165727767
83.8816164957097
83.8816164175369
83.881616339233
83.8816162602889
83.8816161802533
83.8816160987626
83.8816160154965
83.8816159303096
83.8816158431873
83.8816157542024
83.8816156635148
83.8816155713575
83.881615478007
83.8816153837979
83.8816152890649
83.8816151941428
83.8816150994098
83.8816150052298
83.8816149119521
83.8816148199548
83.8816147295875
83.8816146411846
83.8816145550954
83.8816144716548
83.8816143911972
83.8816143140284
83.881614240483
83.8816141709103
83.8816141056741
83.8816140451381
83.8816139897535
83.8816139400005
83.8816138964467
83.8816138597613
83.8816138307739
83.8816138102848
83.8816137993126
83.8816137988761
83.8816138085531
83.8816138299298
83.8816138568072
83.8816138918919
83.8816139162082
83.8816139333358
83.8816168272315
83.8816168069316
83.881616771323
83.881616714134
83.8816166501347
83.8816165788739
83.8816165058233
83.8816164307063
83.8816163545853
83.8816162772418
83.8816161983996
83.8816161178693
83.8816160354327
83.8816159509734
83.8816158645204
83.8816157761757
83.8816156860994
83.8816155945387
83.8816155017703
83.8816154080996
83.8816153138905
83.8816152194777
83.8816151252249
83.8816150314815
83.8816149386403
83.8816148470214
83.8816147569887
83.881614668906
83.8816145830788
83.8816144998709
83.881614419588
83.8816143425502
83.8816142691066
83.8816141995776
83.8816141343123
83.881614073689
83.8816140181443
83.8816139681148
83.8816139241535
83.8816138868715
83.8816138569819
83.881613835154
83.8816138222173
83.8816138188413
83.881613824633
83.8816138404218
83.8816138610418
83.8816138883412
83.8816139071423
83.8816139203991
83.8816168065096
83.8816167894402
83.8816167584009
83.8816167077748
83.881616649378
83.8816165832686
83.8816165141179
83.8816164420859
83.8816163682641
83.8816162926814
83.8816162152216
83.8816161358118
83.8816160543065
83.8816159706766
83.8816158849804
83.8816157973342
83.8816157079273
83.8816156170069
83.8816155248351
83.881615431761
83.8816153381049
83.8816152442014
83.8816151504434
83.8816150571802
83.881614964761
83.881614873535
83.8816147838661
83.8816146960889
83.8816146105528
83.8816145275632
83.8816144474549
83.8816143705626
83.8816142971773
83.8816142276628
83.8816141623538
83.8816141015996
83.8816140458221
83.8816139954433
83.8816139509872
83.8816139129776
83.8816138820257
83.8816138587135
83.881613843696
83.881613837395
83.8816138394031
83.8816138500697
83.8816138651455
83.8816138858674
83.881613900041
83.8816139099799
83.8816167880286
83.8816167736368
83.8816167464392
83.8816167014447
83.8816166480246
83.8816165866447
83.8816165212338
83.8816164522723
83.8816163808224
83.8816163071169
83.8816162311559
83.881616152983
83.8816160725255
83.881615989827
83.8816159049748
83.8816158180853
83.8816157293913
83.8816156391404
83.8816155476088
83.8816154551459
83.8816153620573
83.8816152687214
83.8816151754436
83.8816150826606
83.8816149906779
83.8816148998594
83.8816148105689
83.8816147231119
83.8816146378522
83.8816145550954
83.8816144751618
83.8816143983859
83.8816143250733
83.8816142555443
83.881614190148
83.8816141292191
83.8816140731651
83.8816140223644
83.8816139772971
83.881613938458
83.881613906342
83.8816138814436
83.8816138642724
83.8816138550756
83.8816138534748
83.8816138594993
83.881613869642
83.8816138847324
83.8816138950351
83.8816139022383
83.881616771454
83.881616759274
83.8816167353652
83.881616695202
83.8816166462639
83.8816165892058
83.8816165273747
83.8816164614254
83.8816163924057
83.8816163206502
83.8816162463045
83.8816161694704
83.8816160901624
83.8816160084534
83.8816159244889
83.8816158384288
83.8816157505062
83.8816156609682
83.8816155701206
83.8816154782835
83.8816153858061
83.8816152930231
83.8816152002983
83.8816151079955
83.8816150164785
83.881614926082
83.8816148371552
83.8816147500329
83.8816146650497
83.8816145825258
83.8816145027668
83.8816144260927
83.8816143528384
83.8816142832657
83.8816142177529
83.8816141566203
83.8816141002171
83.8816140489507
83.8816140031995
83.8816139634291
83.8816139300761
83.8816139035189
83.8816138841648
83.8816138721595
83.88161386711
83.8816138688853
83.8816138746333
83.8816138848488
83.8816138918482
83.8816138967959
83.881616756451
83.8816167461191
83.881616725077
83.8816166891629
83.8816166442411
83.8816165911849
83.8816165327735
83.8816164697637
83.8816164031741
83.8816163334413
83.8816162607691
83.8816161853465
83.8816161072609
83.8816160266433
83.8816159436392
83.8816158584523
83.88161577133
83.8816156825342
83.8816155923996
83.8816155012173
83.8816154093511
83.8816153171501
83.8816152249783
83.8816151331848
83.8816150421189
83.881614952159
83.8816148636106
83.881614776823
83.8816146921163
83.8816146098106
83.8816145302262
83.8816144536686
83.8816143804288
83.881614310827
83.8816142451542
83.8816141837742
83.8816141269926
83.8816140751733
83.8816140286945
83.88161398792
83.8816139532573
83.8816139250121
83.8816139034898
83.8816138887341
83.881613880425
83.8816138783004
83.8816138801049
83.8816138861148
83.881613890233
83.8816138932598
83.8816167426266
83.8816167338809
83.8816167153709
83.8816166832257
83.8816166419856
83.8816165926255
83.8816165374592
83.8816164773161
83.8816164131567
83.8816163454612
83.8816162745497
83.8816162006115
83.8816161238065
83.8816160443093
83.8816159623238
83.8816158780537
83.8816157917754
83.88161570378
83.8816156143585
83.8816155238746
83.8816154326487
83.8816153410444
83.8816152494255
83.8816151581559
83.8816150675702
83.8816149780323
83.8816148898622
83.8816148034093
83.8816147189937
83.8816146369209
83.8816145574965
83.8816144810262
83.881614407801
83.8816143381264
83.8816142722935
83.8816142106225
83.8816141534189
83.8816141010175
83.8816140537383
83.8816140119307
83.8816139759147
83.8816139459523
83.8816139222763
83.8816139048577
83.8816138934781
83.8816138877592
83.8816138859838
83.8816138882539
83.8816138898401
83.8816138911934
83.8816167297045
83.8816167223995
83.8816167061741
83.8816166774341
83.8816166395554
83.8816165936296
83.8816165415774
83.8816164841992
83.8816164224554
83.8816163568408
83.8816162876901
83.8816162152798
83.8816161398136
83.8816160615097
83.881615980572
83.8816158972768
83.8816158118716
83.8816157246911
83.8816156360263
83.8816155462409
83.8816154556698
83.8816153646912
83.8816152736399
83.8816151828942
83.8816150927887
83.8816150036728
83.8816149158956
83.8816148297919
83.8816147456528
83.8816146637982
83.8816145845194
83.8816145081364
83.8816144349257
83.8816143651493
83.8816142991272
83.8816142371506
83.881614179496
83.8816141264542
83.8816140783456
83.8816140354611
83.8816139980772
83.8816139663832
83.8816139405681
83.8816139206028
83.8816139062837
83.8816138972616
83.8816138921975
83.8816138911352
83.8816138904367
83.8816138903203
83.8816167173936
83.8816167113837
83.8816166972829
83.8816166716279
83.8816166368924
83.8816165941971
83.881616545099
83.8816164904274
83.8816164310701
83.8816163675219
83.8816163001757
83.8816162293369
83.8816161552531
83.8816160781716
83.8816159983398
83.8816159160197
83.8816158315312
83.8816157451947
83.8816156573012
83.8816155682434
83.8816154783417
83.8816153879743
83.8816152975196
83.8816152072977
83.881615117687
83.8816150290077
83.8816149416234
83.8816148558544
83.8816147719917
83.8816146903555
83.8816146112367
83.8816145349265
83.8816144616867
83.8816143918229
83.8816143255826
83.8816142632568
83.8816142051219
83.8816141514253
83.8816141024581
83.8816140584531
83.8816140196577
83.8816139862465
83.8816139583359
83.881613935926
83.8816139188275
83.8816139066912
83.8816138986149
83.8816138944967
83.8816138917173
83.8816138902475
83.8816167054611
83.881616700688
83.8816166885663
83.8816166658216
83.8816166340112
83.8816165943426
83.8816165480966
83.881616496059
83.8816164390446
83.8816163775628
83.8816163120355
83.8816162427975
83.8816161701252
83.8816160942952
83.8816160155984
83.8816159343114
83.8816158507543
83.8816157652618
83.8816156781686
83.881615589853
83.8816155006352
83.8816154109081
83.8816153210209
83.881615231352
83.8816151422216
83.8816150540079
83.881614967002
83.8816148815677
83.8816147979815
83.8816147165635
83.8816146375757
83.8816145613382
83.8816144880839
83.8816144180892
83.8816143516306
83.8816142889409
83.8816142302821
83.8816141759016
83.8816141260468
83.8816140809213
83.8816140407289
83.8816140056006
83.8816139756673
83.8816139508708
83.8816139311239
83.8816139160772
83.8816139051632
83.8816138982365
83.8816138934926
83.8816138907569
83.8816166937031
83.8816166901233
83.8816166799079
83.8816166598699
83.8816166308534
83.8816165940952
83.881616550585
83.881616501094
83.8816164463933
83.8816163869633
83.8816163232696
83.8816162556323
83.8816161844006
83.8816161098512
83.881616032304
83.8816159520647
83.8816158694681
83.8816157848632
83.8816156985849
83.881615610997
83.8816155224922
83.8816154334054
83.8816153441148
83.8816152549844
83.8816151663486
83.8816150785715
83.881614991973
83.8816149068589
83.8816148235492
83.8816147423349
83.8816146634927
83.8816145872988
83.8816145140154
83.8816144438897
83.8816143771692
83.8816143141012
83.8816142549185
83.8816141998395
83.8816141490679
83.8816141027928
83.8816140612034
83.8816140243871
83.8816139924456
83.88161396535
83.8816139430564
83.881613925274
83.8816139116971
83.8816139021073
83.8816138955008
83.8816138915572
83.8816166819452
83.8816166795586
83.8816166711767
83.8816166537727
83.8816166274046
83.8816165934404
83.8816165525641
83.8816165055759
83.8816164531454
83.8816163957526
83.8816163338779
83.881616267885
83.881616198094
83.8816161248542
83.8816160484712
83.8816159692942
83.8816158876725
83.8816158039554
83.881615718492
83.8816156316752
83.8816155438544
83.8816154554224
83.8816153667285
83.8816152781365
83.8816151900101
83.8816151026695
83.8816150164639
83.8816149316845
83.8816148486367
83.8816147676262
83.8816146889149
83.8816146127647
83.8816145394376
83.8816144691664
83.8816144021839
83.881614338723
83.8816142789874
83.8816142231808
83.881614171507
83.8816141240968
83.8816140811105
83.8816140426352
83.8816140087292
83.8816139794071
83.8816139546834
83.8816139342525
83.8816139181436
83.8816139060073
83.8816138975963
83.8816138924449
83.8816166700126
83.8816166688048
83.8816166622564
83.8816166474135
83.8816166236211
83.8816165923636
83.8816165540484
83.8816165094759
83.8816164592863
83.8816164039163
83.8816163438605
83.8816162794974
83.8816162111616
83.8816161392315
83.8816160640417
83.8816159859416
83.8816159053094
83.8816158224799
83.8816157378606
83.8816156518005
83.8816155646928
83.8816154769011
83.8816153888183
83.8816153007792
83.881615213133
83.8816151262436
83.8816150404164
83.881614955957
83.8816148731858
83.8816147923644
83.8816147137841
83.881614637663
83.8816145642777
83.8816144938464
83.881614426602
83.8816143627191
83.8816143024305
83.8816142458963
83.8816141932912
83.881614144746
83.8816141003626
83.881614060243
83.8816140244307
83.8816139929404
83.8816139658593
83.8816139428964
83.8816139243281
83.881613909718
83.8816138995171
83.8816138931579
83.8816166577453
83.881616657789
83.8816166530887
83.8816166407778
83.8816166194883
83.8816165908647
83.8816165550525
83.8816165128665
83.8816164648597
83.8816164114833
83.8816163532465
83.8816162904986
83.8816162236326
83.8816161530121
83.8816160790157
83.8816160020069
83.8816159223643
83.8816158404516
83.8816157566471
83.8816156713583
83.8816155849636
83.8816154978267
83.8816154103406
83.8816153228399
83.8816152357031
83.8816151492356
83.8816150638013
83.8816149796621
83.8816148971528
83.8816148165206
83.8816147380421
83.8816146619647
83.8816145885212
83.8816145179153
83.8816144503799
83.8816143860895
83.8816143252334
83.881614267957
83.8816142144206
83.8816141647258
83.8816141189745
83.8816140772396
83.8816140395647
83.8816140059644
83.8816139765986
83.8816139511473
83.8816139301925
83.8816139131377
83.8816139011324
83.8816138935363
83.8816166450124
83.8816166463803
83.8816166435427
83.8816166337783
83.8816166149481
83.8816165889148
83.8816165555472
83.8816165157041
83.881616469851
83.8816164184391
83.8816163619922
83.8816163008596
83.8816162354633
83.8816161661671
83.8816160933638
83.881616017432
83.8816159387789
83.8816158577683
83.8816157748079
83.8816156902903
83.8816156046087
83.8816155181266
83.8816154312226
83.8816153442749
83.8816152576183
83.8816151715873
83.8816150865314
83.8816150027124
83.8816149204504
83.8816148400074
83.8816147616308
83.8816146855825
83.8816146120516
83.8816145412857
83.8816144734446
83.8816144087323
83.8816143472941
83.8816142892902
83.8816142348223
83.881614184007
83.8816141368879
83.8816140935669
83.8816140540584
83.8816140183917
83.8816139867995
83.8816139589326
83.881613935635
83.8816139160917
83.8816139022529
83.8816138933325
83.8816166316537
83.8816166344477
83.88161663356
83.8816166264005
83.8816166100296
83.8816165865574
83.8816165555618
83.8816165180033
83.8816164742748
83.8816164248128
83.8816163701267
83.8816163106094
83.8816162466537
83.8816161786817
83.8816161070717
83.8816160322312
83.8816159545677
83.8816158744739
83.8816157923429
83.8816157085967
83.8816156235989
83.8816155377717
83.8816154514643
83.8816153650405
83.8816152788786
83.8816151932842
83.8816151085775
83.8816150250786
83.8816149430641
83.8816148627957
83.8816147845209
83.8816147084726
83.8816146348836
83.8816145639285
83.8816144957818
83.8816144306329
83.8816143686272
83.8816143098811
83.8816142544965
83.8816142025462
83.8816141541029
83.8816141092248
83.8816140679119
83.881614030237
83.881613996462
83.8816139662085
83.8816139405535
83.8816139185074
83.8816139027476
83.8816138924303
83.8816166175529
83.881616621904
83.8816166230536
83.881616618557
83.8816166046308
83.8816165836906
83.8816165550525
83.8816165197495
83.8816164781019
83.8816164305463
83.8816163776064
83.8816163196752
83.8816162571602
83.8816161904833
83.8816161200666
83.8816160463175
83.8816159696289
83.8816158904374
83.8816158091358
83.8816157261463
83.8816156418616
83.8816155566601
83.8816154709493
83.8816153850494
83.8816152993677
83.8816152141953
83.8816151298524
83.8816150466591
83.8816149648774
83.8816148847691
83.8816148065962
83.8816147305624
83.8816146568715
83.8816145857272
83.8816145172896
83.8816144517041
83.8816143891163
83.8816143296281
83.8816142733413
83.881614220285
83.8816141705174
83.8816141241114
83.8816140810522
83.8816140413837
83.8816140054842
83.8816139728442
83.8816139448609
83.8816139202099
83.8816139024275
83.8816138905531
83.8816166025936
83.8816166086763
83.8816166120232
83.8816166102915
83.8816165988392
83.8816165804164
83.8816165540775
83.8816165209864
83.8816164813761
83.8816164356977
83.8816163844749
83.8816163281008
83.8816162670119
83.8816162016301
83.8816161323921
83.8816160597053
83.8816159840062
83.8816159057023
83.8816158252303
83.8816157429828
83.8816156593821
83.8816155748209
83.8816154896776
83.8816154043016
83.881615319071
83.8816152343206
83.8816151503415
83.8816150674393
83.8816149858758
83.8816149059421
83.881614827842
83.8816147518082
83.88161467803
83.8816146066965
83.8816145379533
83.8816144719458
83.8816144087759
83.8816143485601
83.8816142913565
83.8816142372234
83.8816141861607
83.8816141382558
83.8816140934796
83.8816140518757
83.8816140138661
83.8816139788687
83.8816139485134
83.8816139211704
83.8816139012051
83.8816138876136
83.8816165866301
83.8816165946628
83.8816166003671
83.8816166015022
83.8816165925673
83.881616576633
83.8816165525641
83.8816165216413
83.8816164840246
83.8816164401796
83.8816163906595
83.8816163358133
83.8816162761213
83.8816162120202
83.8816161439318
83.8816160723072
83.8816159975686
83.8816159201524
83.8816158404807
83.8816157589754
83.8816156760586
83.8816155921086
83.8816155075328
83.8816154226806
83.8816153379012
83.8816152535437
83.8816151698993
83.8816150872881
83.8816150059574
83.8816149261693
83.8816148481419
83.8816147721082
83.8816146982426
83.8816146267054
83.8816145576566