/*--------------------------------*- C++ -*----------------------------------*\
  =========                 |
  \\      /  F ield         | OpenFOAM: The Open Source CFD Toolbox
   \\    /   O peration     | Website:  https://openfoam.org
    \\  /    A nd           | Version:  10
     \\/     M anipulation  |
\*---------------------------------------------------------------------------*/
FoamFile
{
    format      ascii;
    class       surfaceScalarField;
    location    "4.4";
    object      phi;
}
// * * * * * * * * * * * * * * * * * * * * * * * * * * * * * * * * * * * * * //

dimensions      [1 0 -1 0 0 0 0];

internalField   nonuniform List<scalar> 
4900
(
-6.37346440178229e-12
6.57277494617201e-12
-7.74366680861875e-12
1.67371911534117e-12
-6.1502862310041e-12
-1.26557063152164e-12
-4.14056281798625e-12
-1.68405266833079e-12
-2.63110041756202e-12
-1.18877089549723e-12
-1.66273537481415e-12
-6.51225656753252e-13
-1.06612285122103e-12
-2.82156193814468e-13
-6.98423322003109e-13
-5.56295494854581e-14
-4.63462196769472e-13
7.49136854810244e-14
-3.06140270863686e-13
1.50610714549914e-13
-1.95094179586206e-13
1.95236709219461e-13
-1.128120445627e-13
2.22625868372795e-13
-4.9441773258592e-14
2.40378024732018e-13
7.92414402483722e-16
2.52503272244866e-13
4.13832697019779e-14
2.61220457492311e-13
7.45792621314728e-14
2.67730627944712e-13
1.01900306997272e-13
2.7273126475709e-13
1.24448301892105e-13
2.76629116161656e-13
1.43068140307518e-13
2.79674613708125e-13
1.58415838578697e-13
2.82061542935032e-13
1.71045886446148e-13
2.83895679397769e-13
1.81431477448359e-13
2.85266737026457e-13
1.89987429278963e-13
2.86239580291046e-13
1.97093162203168e-13
2.86857098933536e-13
2.0310060420049e-13
2.87152641388005e-13
2.08360458171592e-13
2.87132464253805e-13
2.13214621504962e-13
2.86810529575775e-13
2.18013866852753e-13
2.86181894611024e-13
2.23136199419803e-13
2.85223059122368e-13
2.28972866400302e-13
2.83923503950735e-13
2.35993296643226e-13
2.82209111128717e-13
2.44734803730696e-13
2.80015199008166e-13
2.55832727175774e-13
2.77248706311727e-13
2.70118441120448e-13
2.7371990027352e-13
2.88708304205496e-13
2.69154426339595e-13
3.13158318906387e-13
2.63127199637362e-13
3.45740886129207e-13
2.54942167972512e-13
3.90003580334558e-13
2.43349456412702e-13
4.5174790591217e-13
2.26119206290622e-13
5.4092344756463e-13
1.99118624949821e-13
6.75089337510317e-13
1.54734431679299e-13
8.85650920415559e-13
7.91018253952782e-14
1.22775217735387e-12
-5.15007832836649e-14
1.79843484070971e-12
-2.78767142859045e-13
2.74294162185424e-12
-6.50249864627829e-13
4.24013843031862e-12
-1.19831081416211e-12
6.26756031532985e-12
-1.72041228110629e-12
7.90114563199846e-12
-1.31503184534662e-12
6.49274622698156e-12
1.72658242784315e-12
6.71121886023479e-12
-7.91487909720592e-12
1.47633968557003e-11
-1.22726530400908e-11
6.4195946593993e-12
-1.05769574146319e-11
-2.55316682977945e-12
-7.66524220091377e-12
-4.1931257605896e-12
-5.23268670730155e-12
-3.22672825686194e-12
-3.5707167261677e-12
-1.92451910355439e-12
-2.48798025943887e-12
-9.80465169225059e-13
-1.77984592073436e-12
-3.8269269299251e-13
-1.29987650022515e-12
-2.67888785221939e-14
-9.58892365695355e-13
1.85540445478286e-13
-7.05050332276248e-13
3.15351874206002e-13
-5.08398783838944e-13
3.98304010726229e-13
-3.51288559143787e-13
4.542118980576e-13
-2.2290987176242e-13
4.9384427498977e-13
-1.16327703441894e-13
5.23221389713253e-13
-2.68538064653639e-14
5.45745002790009e-13
4.88454222582882e-14
5.63434031982319e-13
1.13266305457307e-13
5.77520503944204e-13
1.68349224173797e-13
5.88806412750295e-13
2.15675386085872e-13
5.97850027435839e-13
2.56573761861257e-13
6.0501570242139e-13
2.9220201663467e-13
6.10574976624949e-13
3.23586847200591e-13
6.14731191846328e-13
3.51672890461103e-13
6.17618276182166e-13
3.77356056569811e-13
6.19325679493031e-13
4.01516257479117e-13
6.19882673222154e-13
4.25025755133428e-13
6.19316232867511e-13
4.48782659140424e-13
6.17599748164039e-13
4.7372990666561e-13
6.14670262404004e-13
5.00892786440551e-13
6.10438605208833e-13
5.31428302191948e-13
6.0470385853661e-13
5.66671010951957e-13
5.97227079194697e-13
6.08189845062747e-13
5.87688453045844e-13
6.57943083790895e-13
5.75516966511467e-13
7.18482863387942e-13
5.59858067992338e-13
7.93209637828701e-13
5.39457748834739e-13
8.86899489958981e-13
5.12271315286669e-13
1.00656885094459e-12
4.74838324399415e-13
1.16313471880289e-12
4.21058730401476e-13
1.37440707683504e-12
3.399244687813e-13
1.67051139233472e-12
2.11505976105307e-13
2.10349770119096e-12
1.2722149076858e-17
2.76298082589331e-12
-3.55753624280353e-13
3.79699609833261e-12
-9.55499157714012e-13
5.41544707094485e-12
-1.90757395380192e-12
7.82716374109108e-12
-3.2414188215834e-12
1.07759760531388e-11
-4.28821901140101e-12
1.25519265261655e-11
-2.69653115210879e-12
8.14087978552353e-12
6.51743718385188e-12
1.50943273335356e-11
-4.7986867295193e-12
1.98495240148812e-11
-1.00370277901604e-11
1.20420953033902e-11
-9.61930574915854e-12
-2.58010757555687e-12
-7.65070310813845e-12
-5.78139228183412e-12
-5.70355557937771e-12
-4.80469062005524e-12
-4.22312600332931e-12
-3.04381553671796e-12
-3.1677030424058e-12
-1.68015686228497e-12
-2.41746411310483e-12
-7.80985108898136e-13
-1.87070095870047e-12
-2.2444227925746e-13
-1.45827276762708e-12
1.19994158614912e-13
-1.13677895791262e-12
3.38938640667479e-13
-8.79148860643465e-13
4.84260322791865e-13
-6.6811956785968e-13
5.85483264204025e-13
-4.92347202184614e-13
6.59219199687987e-13
-3.44066644133347e-13
7.15004326124031e-13
-2.17752977066325e-13
7.58442165662639e-13
-1.09306158357501e-13
7.9294880359043e-13
-1.55744489239575e-14
8.20696471442948e-13
6.59495531598583e-14
8.43128037329385e-13
1.37342680001491e-13
8.61239026348528e-13
2.00366300030079e-13
8.75714822100478e-13
2.56567688407896e-13
8.8705114820018e-13
3.07335791602516e-13
8.95618026946968e-13
3.53955361243785e-13
9.0166121436754e-13
3.97648660091531e-13
9.05340041687084e-13
4.39613134156177e-13
9.0671486525486e-13
4.81044736999932e-13
9.05819205057657e-13
5.23171878952399e-13
9.02599507424149e-13
5.67283314984343e-13
8.96936114040606e-13
6.14785402835282e-13
8.88626219908969e-13
6.67239141675778e-13
8.77318841690049e-13
7.26430859762575e-13
8.62553256451999e-13
7.9445886365668e-13
8.43705176833463e-13
8.73876244169353e-13
8.19756031576784e-13
9.67908290941809e-13
7.89193434863218e-13
1.0807246554711e-12
7.49836551003572e-13
1.21795616387975e-12
6.98205774440377e-13
1.38743938966808e-12
6.28664671626229e-13
1.60061513986169e-12
5.31538499732216e-13
1.87485384389524e-12
3.8991234607245e-13
2.23738478523352e-12
1.74013292531513e-13
2.73183685144629e-12
-1.68308913824722e-13
3.42798123877306e-12
-7.24222940793501e-13
4.42926012416425e-12
-1.62655424161371e-12
5.86142990861888e-12
-3.00466578686806e-12
7.78416158460804e-12
-4.81975671733431e-12
9.78908006252295e-12
-5.9335771012105e-12
1.03042218397083e-11
-2.83785935445785e-12
5.03934593450492e-12
1.21382157173653e-11
2.03533883861618e-11
-2.44577995950377e-12
2.25760222734308e-11
-6.12223182285843e-12
1.60793753233881e-11
-6.79872069682537e-12
-1.54695696828045e-12
-6.13523881889685e-12
-6.10255766570007e-12
-5.09850060255854e-12
-5.51231755200355e-12
-4.11754578344771e-12
-3.7049555401737e-12
-3.30595418499143e-12
-2.17790864355912e-12
-2.6599886832998e-12
-1.11699269090241e-12
-2.14833320842493e-12
-4.28829960283261e-13
-1.73896654344624e-12
1.58883321148463e-14
-1.40681488092904e-12
3.1045445600367e-13
-1.13340897122584e-12
5.13194526026643e-13
-9.05324394251267e-13
6.58577359087712e-13
-7.12815684921477e-13
7.6682883110294e-13
-5.48704634080385e-13
8.50001034631981e-13
-4.07597466225235e-13
9.15451941570773e-13
-2.8533939172546e-13
9.67815643304498e-13
-1.78650520539579e-13
1.01013441590881e-12
-8.48691083268489e-14
1.04446663380017e-12
-1.76604326320877e-15
1.07224766852379e-12
7.25694238078287e-14
1.09448721037142e-12
1.39823825054496e-13
1.11191433431251e-12
2.01520488886068e-13
1.12506977861952e-12
2.59074874940201e-13
1.1343154954217e-12
3.13838403125862e-13
1.13988064250235e-12
3.67128118336669e-13
1.14186651880782e-12
4.20260420076021e-13
1.14031227512966e-12
4.7458782366762e-13
1.13513259664927e-12
5.31532840841829e-13
1.12614273486853e-12
5.92638834900876e-13
1.11302129844073e-12
6.59611158849657e-13
1.09526048761026e-12
7.34389496976222e-13
1.07216892317052e-12
8.19234474595611e-13
1.04280673313323e-12
9.16855554834777e-13
1.00571469202579e-12
1.03058643269266e-12
9.58768279010065e-13
1.16463795848342e-12
8.98926231553372e-13
1.32447158901985e-12
8.21481524610273e-13
1.51730172307024e-12
7.19071441024487e-13
1.75289112204668e-12
5.79500909933062e-13
2.04466224717619e-12
3.8222028099503e-13
2.41107700922129e-12
9.2445662419656e-14
2.87722506521418e-12
-3.48537451716075e-13
3.47546941746538e-12
-1.03496183498388e-12
4.23821548578467e-12
-2.09909983631041e-12
5.1741318929383e-12
-3.64521595823453e-12
6.18498552331955e-12
-5.5252960787158e-12
6.87332501942654e-12
-6.30027626060108e-12
6.28592421920069e-12
-1.91390286722147e-12
2.6090947725012e-12
1.6133779768982e-11
2.315513564474e-11
-1.21317992483897e-12
2.40450076154722e-11
-3.09481528915859e-12
1.82771302796978e-11
-4.3202549321808e-12
-1.8989268249989e-14
-4.56726678544148e-12
-5.56887707457308e-12
-4.2588763008296e-12
-5.5473882747586e-12
-3.72735268402224e-12
-3.9724380215537e-12
-3.17010109482787e-12
-2.47692051631456e-12
-2.66123736436747e-12
-1.37119507901107e-12
-2.22208194466649e-12
-6.15670857102205e-13
-1.85089024280173e-12
-1.04683613910419e-13
-1.53888462910013e-12
2.47724504391192e-13
-1.27607732167793e-12
4.98520330984609e-13
-1.05341687821337e-12
6.83022707528256e-13
-8.63408416296513e-13
8.22965215603673e-13
-7.0004742522026e-13
9.31851696937541e-13
-5.58549870367274e-13
1.01824200431981e-12
-4.35097863594988e-13
1.08772043882327e-12
-3.26582084808625e-13
1.14403653916985e-12
-2.30436711030725e-13
1.18979154450571e-12
-1.44479842586119e-13
1.22681183133875e-12
-6.68295189638736e-14
1.25641220591129e-12
4.18643032241061e-15
1.27954161347083e-12
7.00911050745441e-14
1.29689564939056e-12
1.32295199767695e-13
1.3089573500358e-12
1.921534524118e-13
1.31601701961242e-12
2.50978971287113e-13
1.31822342803807e-12
3.10087588530393e-13
1.31561836161937e-12
3.70831871121235e-13
1.30808366385073e-12
4.34630583687301e-13
1.29537239514286e-12
5.03019193760697e-13
1.27704969934871e-12
5.77682413125562e-13
1.25246242051449e-12
6.60526979935099e-13
1.22070076310755e-12
7.53757429912496e-13
1.18053214053919e-12
8.59980141393158e-13
1.13010273925896e-12
9.82322629757967e-13
1.06677645736897e-12
1.12464157377655e-12
9.86798567076087e-13
1.29173678235403e-12
8.8453612883812e-13
1.48960601484416e-12
7.51451996976198e-13
1.72568238316576e-12
5.73938436379044e-13
2.00890603102133e-12
3.29961683552497e-13
2.34906723656663e-12
-1.60836214708345e-14
2.75464646965411e-12
-5.21532867226799e-13
3.22712253797022e-12
-1.27341532285712e-12
3.74515310646356e-12
-2.38063245958429e-12
4.23793294473104e-12
-3.89671569854224e-12
4.52062408810822e-12
-5.55733424546202e-12
4.28814368529943e-12
-5.80141578502461e-12
3.13181568278065e-12
-4.77192906019574e-13
1.2710754474632e-12
1.82589194308279e-11
2.45805023493543e-11
-5.74062007289219e-13
2.48385873123648e-11
-1.42958874449005e-12
1.93924625186371e-11
-2.7854450843623e-12
1.57820692520805e-12
-3.44656257501595e-12
-4.6820861934896e-12
-3.54288508921207e-12
-5.23775742714236e-12
-3.30302440513417e-12
-4.00747412636367e-12
-2.93649678629609e-12
-2.64382344186235e-12
-2.54700316614809e-12
-1.56414917484766e-12
-2.18211484151743e-12
-7.85958018289749e-13
-1.85788285513349e-12
-2.35686502825977e-13
-1.57643933935579e-12
1.58407670317384e-13
-1.33421970215601e-12
4.4745908006379e-13
-1.12591878411976e-12
6.64977941612828e-13
-9.46233798287588e-13
8.32668281814697e-13
-7.90457945224967e-13
9.64604745270872e-13
-6.54593638373356e-13
1.07004537728299e-12
-5.35308932313549e-13
1.15523120220923e-12
-4.29806645116511e-13
1.22444737079763e-12
-3.35725636606556e-13
1.28073157880356e-12
-2.51029515362541e-13
1.32624279525353e-12
-1.73939163740561e-13
1.36255847895047e-12
-1.02866028811059e-13
1.3908268044826e-12
-3.6351445520839e-14
1.41187955400582e-12
2.69605478256856e-14
1.42630955660169e-12
8.8370006296572e-14
1.43446899342611e-12
1.491385912037e-13
1.43655074591372e-12
2.10533253028822e-13
1.43259562669312e-12
2.738491448851e-13
1.4224614082683e-12
3.40447729737685e-13
1.40583837168227e-12
4.11792595982803e-13
1.38219314953442e-12
4.89483748815916e-13
1.35073894716471e-12
5.75312812652219e-13
1.31037861230248e-12
6.71333371039381e-13
1.25962128352625e-12
7.79929664409908e-13
1.19628910066186e-12
9.03900229128434e-13
1.117339876967e-12
1.04659137245781e-12
1.01848236884801e-12
1.21197938991374e-12
8.93468415868719e-13
1.40472775409979e-12
7.3309013486122e-13
1.63002719252658e-12
5.23228669061411e-13
1.89298959364137e-12
2.41946366959359e-13
2.19684635292821e-12
-1.44457262361159e-13
2.53891241715665e-12
-6.87340521183927e-13
2.90237125281088e-12
-1.45943024782461e-12
3.23872595593909e-12
-2.53749038692439e-12
3.44632025916937e-12
-3.9207995188608e-12
3.32609958641708e-12
-5.24549264057272e-12
2.67409460541696e-12
-4.94373591733392e-12
1.36889248187215e-12
1.04643901421022e-12
5.52684737616148e-13
1.92795487905236e-11
2.52489014121154e-11
-2.01539464162426e-13
2.52110927740502e-11
-7.41298296959607e-13
2.01226359376755e-11
-2.00366432870922e-12
3.01025097384584e-12
-2.74965611795387e-12
-3.77971861154222e-12
-3.00811415130813e-12
-4.83293535420917e-12
-2.92730678609646e-12
-3.94881434377362e-12
-2.6872717940456e-12
-2.74857279206764e-12
-2.38960871720663e-12
-1.72892991577109e-12
-2.08888670210306e-12
-9.55259564500051e-13
-1.80913530274363e-12
-3.85051775271027e-13
-1.5587719764089e-12
3.75656229872952e-14
-1.33864941747956e-12
3.56056752550656e-13
-1.14641609214614e-12
6.00681905639626e-13
-9.78688790109963e-13
7.92098445463579e-13
-8.31995179710374e-13
9.44280478614316e-13
-7.03143948421892e-13
1.06676341501652e-12
-5.89325596612654e-13
1.16616646038317e-12
-4.88098607377513e-13
1.24714680825443e-12
-3.97339803636661e-13
1.31306116071532e-12
-3.15191013916379e-13
1.36634196527949e-12
-2.40000046540116e-13
1.40877839569943e-12
-1.70276497950602e-13
1.44168777292374e-12
-1.04649283543195e-13
1.46602796826845e-12
-4.18267693044995e-14
1.48247837911037e-12
1.94199228952925e-14
1.49145865071379e-12
8.02934166376406e-14
1.49319346432774e-12
1.41996076805189e-13
1.48772806946011e-12
2.05756990886583e-13
1.47489783798098e-12
2.72867530595646e-13
1.45433378737218e-12
3.44703318526297e-13
1.42542159739297e-12
4.22761631377357e-13
1.38725596769087e-12
5.08695359603941e-13
1.33858719999124e-12
6.04382594957699e-13
1.2777033575043e-12
7.11949374450496e-13
1.20218357405573e-12
8.33830409817803e-13
1.10868341712281e-12
9.72829469483771e-13
9.92550487858717e-13
1.13210288174974e-12
8.47194836534317e-13
1.31505375563225e-12
6.63169602884658e-13
1.52492429834453e-12
4.26525465053629e-13
1.76383088859143e-12
1.1645657325513e-13
2.03052768002302e-12
-2.97362529946369e-13
2.31591736494908e-12
-8.58396678024893e-13
2.59498276760946e-12
-1.6233322450946e-12
2.81184182114817e-12
-2.63772744387229e-12
2.86629923968789e-12
-3.85567210504988e-12
2.58727772733676e-12
-4.84051866525655e-12
1.84946039067366e-12
-4.0683483891291e-12
6.27490163890945e-13
2.41627870074307e-12
1.4022240784179e-13
1.99035841804491e-11
2.54610377576623e-11
5.26234508713086e-15
2.5324636530453e-11
-5.40535597564757e-13
2.0788944688926e-11
-1.6234480250007e-12
4.19465981720728e-12
-2.30902344150106e-12
-3.00270446634611e-12
-2.60488339920316e-12
-4.45291899088794e-12
-2.60522800171598e-12
-3.86938202643398e-12
-2.44802369427533e-12
-2.82975043238029e-12
-2.21979714057046e-12
-1.88284196051348e-12
-1.97231218037352e-12
-1.12944808636227e-12
-1.73187695870396e-12
-5.52927817939057e-13
-1.51017593508352e-12
-1.12237264551675e-13
-1.31099979326774e-12
2.28120265959204e-13
-1.13425729181328e-12
4.94499235442611e-13
-9.78177850643791e-13
7.05877805444472e-13
-8.40401937150746e-13
8.75638417087242e-13
-7.18494880464147e-13
1.0132463864153e-12
-6.10161023082309e-13
1.12545905253128e-12
-5.13316276606277e-13
1.21715114216902e-12
-4.26084633070871e-13
1.29189033098865e-12
-3.46784159990033e-13
1.35231100527345e-12
-2.73897857340594e-13
1.40037238399542e-12
-2.06037723239544e-13
1.43752902466929e-12
-1.41919358172329e-13
1.46484802289014e-12
-8.03206997695618e-14
1.48307754143747e-12
-2.00805697077349e-14
1.49270384085113e-12
3.99423870392971e-14
1.49397582537543e-12
1.00890184627794e-13
1.48694226661743e-12
1.63927265950794e-13
1.47142034311601e-12
2.30271441766885e-13
1.4469907116614e-12
3.0121132202945e-13
1.41297117220125e-12
3.78138220180977e-13
1.36835684460122e-12
4.6256854922138e-13
1.31177592666651e-12
5.56192487449268e-13
1.24134597258678e-12
6.60884444756642e-13
1.15446593549177e-12
7.78720945544795e-13
1.04759422017161e-12
9.11977888695156e-13
9.15884429931554e-13
1.06304552617136e-12
7.52636716948424e-13
1.23420361409283e-12
5.48517271485256e-13
1.42707379954657e-12
2.90232538050394e-13
1.6415013057848e-12
-4.12520562213785e-14
1.87329513685517e-12
-4.72228116452496e-13
2.11010036999746e-12
-1.03797977042387e-12
2.32464209885085e-12
-1.7802008335124e-12
2.46391490685604e-12
-2.71849293221911e-12
2.44261118053533e-12
-3.77397988588863e-12
2.13057490062171e-12
-4.46355602309941e-12
1.45441544255465e-12
-3.31836686977846e-12
4.0844916401949e-13
3.54424300310333e-12
-7.90375331318339e-14
2.04643566874857e-11
2.54155458498451e-11
8.60179638348386e-14
2.53027824963623e-11
-5.12060332929662e-13
2.143762280177e-11
-1.40523897135696e-12
5.12296050461703e-12
-1.99425995071562e-12
-2.38437755835969e-12
-2.27997649348259e-12
-4.14199441262561e-12
-2.32292639204919e-12
-3.80426350175311e-12
-2.2223858028799e-12
-2.9099848561045e-12
-2.04785539711105e-12
-2.03807950803152e-12
-1.84472426101388e-12
-1.31388244632873e-12
-1.63877130128807e-12
-7.40653177353405e-13
-1.44313354348673e-12
-2.90128461836823e-13
-1.26350076448095e-12
6.570182652353e-14
-1.10147483720784e-12
3.49100847350266e-13
-9.56605621477865e-13
5.77007201535936e-13
-8.27500246986463e-13
7.6186789599056e-13
-7.12411311852327e-13
9.12802969223497e-13
-6.09527084672807e-13
1.03650801128367e-12
-5.17099878491265e-13
1.13792955220485e-12
-4.33501714201647e-13
1.22075868850689e-12
-3.57229385983926e-13
1.28776273011522e-12
-2.86899471804924e-13
1.34102560423905e-12
-2.21229510136273e-13
1.38211034281818e-12
-1.59015937401739e-13
1.41216870442102e-12
-9.91140234517702e-14
1.43201419167085e-12
-4.0421812020671e-14
1.44217991897183e-12
1.81375332190842e-14
1.44294580517974e-12
7.76469953557336e-14
1.43435766583172e-12
1.39204741223396e-13
1.4162211976446e-12
2.03958259723708e-13
1.38807105606353e-12
2.7310941525153e-13
1.34917354796095e-12
3.47942072151369e-13
1.29844484318498e-12
4.29839471742572e-13
1.23441617686524e-12
5.20307270405202e-13
1.15508545530429e-12
6.20975114802777e-13
1.0577313894561e-12
7.33572947641611e-13
9.38714884067736e-13
8.59888863030994e-13
7.93134220695003e-13
1.00162610050704e-12
6.14374977580498e-13
1.16009591808266e-12
3.93489923529369e-13
1.33560496166054e-12
1.18177902252235e-13
1.52631659886456e-12
-2.2847087144595e-13
1.72617660368624e-12
-6.68551616532381e-13
1.92146385391202e-12
-1.22969248266206e-12
2.0855849129127e-12
-1.94069476434034e-12
2.17224020476585e-12
-2.80133060868625e-12
2.11314401460452e-12
-3.71027479006354e-12
1.81583945015544e-12
-4.15895578380343e-12
1.23769786055505e-12
-2.72687936644884e-12
3.80818297476132e-13
4.41972358792936e-12
-1.58984550827501e-13
2.10169346836779e-11
2.5253059360445e-11
8.515483754351e-14
2.52331028503919e-11
-5.16162626764896e-13
2.20304814384769e-11
-1.24189216277697e-12
5.83004989922565e-12
-1.7405458352028e-12
-1.90623859937144e-12
-2.00304972432433e-12
-3.90130073893519e-12
-2.06979537147392e-12
-3.76057299858686e-12
-2.00978530471727e-12
-2.99386937341787e-12
-1.87767689834217e-12
-2.19448970916466e-12
-1.71185499135268e-12
-1.5042646790728e-12
-1.53628762750766e-12
-9.41041145815152e-13
-1.36447381632602e-12
-4.87104325634765e-13
-1.20323358960166e-12
-1.21131452306747e-13
-1.05538914365854e-12
1.75154156389725e-13
-9.2153255643849e-13
4.1648323022367e-13
-8.01084584221856e-13
6.14143870572395e-13
-6.9290067085822e-13
7.76703901481385e-13
-5.95613902892909e-13
9.10641854844581e-13
-5.07800335047592e-13
1.02085597125567e-12
-4.2806698218544e-13
1.11107221826486e-12
-3.55085415531938e-13
1.18413100962541e-12
-2.87607973995999e-13
1.24220125859686e-12
-2.24455721455991e-13
1.28692306545517e-12
-1.64511623995608e-13
1.31951460227882e-12
-1.06706392643679e-13
1.34084347203464e-12
-5.0001379149746e-14
1.3514779468049e-12
6.61408113986687e-15
1.3517310413285e-12
6.41636070683378e-14
1.34163881546057e-12
1.23679731020396e-13
1.32100211680574e-12
1.86234363813287e-13
1.28931876599178e-12
2.52942644758405e-13
1.24581490771635e-12
3.24983231696376e-13
1.18934588725637e-12
4.03604038913233e-13
1.11837618067383e-12
4.9013335611496e-13
1.03082607842598e-12
5.85962599123793e-13
9.23913669329675e-13
6.92499586082015e-13
7.93985579809839e-13
8.11089203176271e-13
6.36203624608209e-13
9.4283097550637e-13
4.44194488337876e-13
1.08822986142873e-12
2.09595717288701e-13
1.24656605960638e-12
-7.86913378603413e-14
1.41480601399526e-12
-4.35293432914757e-13
1.58581548288174e-12
-8.78244151193674e-13
1.74563600335189e-12
-1.42838447931485e-12
1.86968779215883e-12
-2.10391701485482e-12
1.91906299460859e-12
-2.89024252329035e-12
1.84031778242223e-12
-3.67120240686256e-12
1.57031796467557e-12
-3.92759266362622e-12
1.08318492941405e-12
-2.27506894515856e-12
3.92998340631877e-13
5.07757252055165e-12
-1.5329631686788e-13
2.15270535165362e-11
2.50682241379347e-11
4.66476629104068e-14
2.5159810567504e-11
-5.10405962712629e-13
2.25300188116708e-11
-1.09984406961875e-12
6.35705492094793e-12
-1.52311096461349e-12
-1.54350619235541e-12
-1.76059035505903e-12
-3.72309971126483e-12
-1.84060760264717e-12
-3.739491695304e-12
-1.81008772020193e-12
-3.08323802353697e-12
-1.71173422622102e-12
-2.35162492481614e-12
-1.57738254696434e-12
-1.69738148842937e-12
-1.42862949249021e-12
-1.14865357013422e-12
-1.27864500155432e-12
-6.96176479156936e-13
-1.13479725673379e-12
-3.24413270345358e-13
-1.00073003724472e-12
-1.87875296046317e-14
-8.77816920979452e-13
2.33189825568865e-13
-7.66141609104333e-13
4.41533209862066e-13
-6.65080826554658e-13
6.14119218076122e-13
-5.7366041057921e-13
7.57082169241004e-13
-4.90753714858463e-13
8.75177019511925e-13
-4.15191881426468e-13
9.72092722270857e-13
-3.45816825169462e-13
1.05068805031326e-12
-2.81515510172062e-13
1.11318190503812e-12
-2.21214648853479e-13
1.16126115163632e-12
-1.63886589619628e-13
1.19619425446881e-12
-1.08537227324516e-13
1.21888939401668e-12
-5.41998043102296e-14
1.22994518017836e-12
7.72587162297492e-17
1.2296951581096e-12
5.52470383881653e-14
1.21817726972389e-12
1.12276516150287e-13
1.19518188050205e-12
1.72159147870473e-13
1.16018325037699e-12
2.35926141586541e-13
1.11237272846459e-12
3.04645317565337e-13
1.05057116240678e-12
3.79429216604233e-13
9.73201237521807e-13
4.61438686605035e-13
8.78136780106051e-13
5.51838449730022e-13
7.62594623923558e-13
6.5174154066838e-13
6.22973627381804e-13
7.62098561277342e-13
4.54597303166314e-13
8.83495515675095e-13
2.51449971010677e-13
1.0157897527764e-12
5.88260293394729e-15
1.15749378602509e-12
-2.91887608518406e-13
1.30478821293707e-12
-6.54197526267649e-13
1.45004720173399e-12
-1.09533032211691e-12
1.5797698792799e-12
-1.63031396229145e-12
1.67193122231204e-12
-2.26888579409852e-12
1.69450204885676e-12
-2.98646436125749e-12
1.60593012699294e-12
-3.65722311742722e-12
1.36424546269525e-12
-3.76094681904532e-12
9.52292146870868e-13
-1.93740466501776e-12
3.96423956182556e-13
5.55933159294873e-12
-1.09723690881693e-13
2.19572663710462e-11
2.49037729050543e-11
6.25845621783046e-16
2.51017605744652e-11
-4.90007516171378e-13
2.29296249794637e-11
-9.72058031348777e-13
6.74819399014173e-12
-1.33302107346048e-12
-1.26877614719258e-12
-1.54632464531099e-12
-3.59295717450422e-12
-1.63268976595894e-12
-3.73479621839181e-12
-1.62344809000356e-12
-3.17341069276318e-12
-1.55184153054617e-12
-2.50375009264491e-12
-1.44393565581276e-12
-1.88560386144157e-12
-1.31876551598791e-12
-1.35412220330907e-12
-1.18871914342076e-12
-9.0667023190611e-13
-1.06128233213455e-12
-5.32578640590789e-13
-9.4057904533629e-13
-2.20602379441668e-13
-8.28541944066204e-13
3.95879522782516e-14
-7.25765758040799e-13
2.56686510912904e-13
-6.32057991061927e-13
4.37800253739506e-13
-5.46785175564822e-13
5.88629021984821e-13
-4.69090741229196e-13
7.13715748358999e-13
-3.9801465580105e-13
8.1664939006549e-13
-3.32563577957979e-13
9.00264411711486e-13
-2.71753112813804e-13
9.66791954575402e-13
-2.14617932896385e-13
1.01794595570823e-12
-1.6021980874039e-13
1.05502638213158e-12
-1.07642754101013e-13
1.07896928158764e-12
-5.59936595912745e-14
1.09040029045359e-12
-4.38600416187188e-15
1.08966429941072e-12
4.80608892188142e-14
1.0768075890384e-12
1.02249994684905e-13
1.05160285967938e-12
1.5908939321742e-13
1.0135210285969e-12
2.19523056742367e-13
9.61720996891222e-13
2.84511415683985e-13
8.95009034869465e-13
3.55038050060021e-13
8.11787168406403e-13
4.32099204782807e-13
7.09919063440494e-13
5.16649707331491e-13
5.86664510116041e-13
6.09539162259128e-13
4.38528033027768e-13
7.11377545785307e-13
2.61070914801463e-13
8.22326630577133e-13
4.8716214378587e-14
9.41747634938861e-13
-2.05402226096047e-13
1.06761768262038e-12
-5.09717245284378e-13
1.19567003894246e-12
-8.74372103857887e-13
1.3182220678966e-12
-1.31030252078362e-12
1.42265543736814e-12
-1.82768046109041e-12
1.48966810444801e-12
-2.42964608256162e-12
1.49324274555969e-12
-3.08496937314253e-12
1.40115325741043e-12
-3.6615965668282e-12
1.1861508130427e-12
-3.64405681006003e-12
8.35688148814509e-13
-1.68657812818014e-12
3.84168193080694e-13
5.90933738952284e-12
-5.96421905014788e-14
2.22987239292824e-11
2.4775381712193e-11
-3.78371656452943e-14
2.50609934640437e-11
-4.59228427929827e-13
2.32384570331005e-11
-8.57233150407806e-13
7.03758777382851e-12
-1.16579388656825e-12
-1.06203468122063e-12
-1.35619124131637e-12
-3.49997285338858e-12
-1.44397973269482e-12
-3.74210381508166e-12
-1.44968764743151e-12
-3.26159665408999e-12
-1.39907440083833e-12
-2.64760523129448e-12
-1.31325402017185e-12
-2.06433872103458e-12
-1.20870682230181e-12
-1.55148903592168e-12
-1.09676807347973e-12
-1.11151763127722e-12
-9.84724909741556e-13
-7.37757788233622e-13
-8.76907976165865e-13
-4.21886657663538e-13
-7.75606723721273e-13
-1.55583700022387e-13
-6.81793540538171e-13
6.85467214716217e-14
-5.95618927381332e-13
2.56806871453559e-13
-5.16738536986648e-13
4.14409273925241e-13
-4.44528412274251e-13
5.45627854770222e-13
-3.78222365491006e-13
6.53913112016385e-13
-3.16981041423751e-13
7.42034280858003e-13
-2.59943817904972e-13
8.12205751262423e-13
-2.06254731824567e-13
8.6615298035009e-13
-1.55062207188662e-13
9.05184368687224e-13
-1.05532544238203e-13
9.30259680958049e-13
-5.68477896625177e-14
9.42023730688113e-13
-8.18786014913862e-15
9.40824218080709e-13
4.12558866753518e-14
9.26721705221583e-13
9.2310587404404e-14
8.99473858037845e-13
1.45807890504745e-13
8.5854951118192e-13
2.02599645764491e-13
8.03090327362085e-13
2.63539980453516e-13
7.31902076671858e-13
3.29487248164634e-13
6.43385751404497e-13
4.01284535079748e-13
5.35421173945644e-13
4.79699683716779e-13
4.05345899369116e-13
5.65345140845669e-13
2.49819348975003e-13
6.58547257821597e-13
6.46867750620167e-14
7.59132840226663e-13
-1.55139731622813e-13
8.66102231330649e-13
-4.15719110878204e-13
9.77099475560719e-13
-7.24165174823967e-13
1.08767871985561e-12
-1.08858609881718e-12
1.19041649528234e-12
-1.51701613229417e-12
1.27382738910883e-12
-2.01565845224138e-12
1.32129099531896e-12
-2.58262313950775e-12
1.31188367862603e-12
-3.18248276116746e-12
1.22069039744179e-12
-3.67928911731554e-12
1.03048437548744e-12
-3.5653573892944e-12
7.31430783255233e-13
-1.50249514533523e-12
3.60378939562255e-13
6.1612176259068e-12
-1.78639786748551e-14
2.25577781150211e-11
2.4679660630419e-11
-6.4198137948406e-14
2.50359985890388e-11
-4.22592883814506e-13
2.34757359671978e-11
-7.54087553481999e-13
7.2547568880799e-12
-1.01782368308386e-12
-9.04736166518483e-13
-1.18665641989825e-12
-3.43251575281364e-12
-1.2723823772369e-12
-3.75500715202621e-12
-1.28816307772596e-12
-3.34300165948753e-12
-1.25382958005357e-12
-2.77835392212554e-12
-1.18633657901713e-12
-2.22785986311018e-12
-1.09972363936793e-12
-1.73399513565106e-12
-1.00413609824404e-12
-1.30304931574251e-12
-9.06438927331759e-13
-9.31585190393635e-13
-8.10958957800457e-13
-6.1378403179077e-13
-7.2017301875923e-13
-3.43143814287808e-13
-6.35311788605701e-13
-1.13498300348546e-13
-5.56781996854302e-13
8.06481630806334e-14
-4.84479052458918e-13
2.44003734459722e-13
-4.17977764397657e-13
3.80531701273206e-13
-3.56682067467528e-13
4.93516192438454e-13
-2.99896397496274e-13
5.85634200730613e-13
-2.46880897308987e-13
6.59060029075506e-13
-1.96878853534292e-13
7.15509204556669e-13
-1.49133495313181e-13
7.56293061165695e-13
-1.02888745087094e-13
7.82378630599664e-13
-5.74015615736495e-14
7.94426459210031e-13
-1.19271711373595e-14
7.9278765813294e-13
3.42737606070252e-14
7.77530794985679e-13
8.19517141082934e-14
7.48405797166991e-13
1.31859603401603e-13
7.04881481615475e-13
1.84757167608928e-13
6.46095658237602e-13
2.41397741692683e-13
5.7086223820722e-13
3.0252089736779e-13
4.77598148760588e-13
3.68825299659198e-13
3.64226308644506e-13
4.40910908735124e-13
2.28184462712091e-13
5.19192860232934e-13
6.63170582315168e-14
6.03764326996691e-13
-1.25211915118439e-13
6.94201844825617e-13
-3.50983618122261e-13
7.89263218680163e-13
-6.16257816717176e-13
8.86424369579192e-13
-9.26903725350068e-13
9.8127521243227e-13
-1.28919932360295e-12
1.06686258243311e-12
-1.70871554949097e-12
1.13295701169443e-12
-2.18847696451052e-12
1.16546380234441e-12
-2.72284370512626e-12
1.147708277471e-12
-3.27393894117558e-12
1.06052584560863e-12
-3.7035198649519e-12
8.9334582776143e-13