/*--------------------------------*- C++ -*----------------------------------*\
  =========                 |
  \\      /  F ield         | OpenFOAM: The Open Source CFD Toolbox
   \\    /   O peration     | Website:  https://openfoam.org
    \\  /    A nd           | Version:  10
     \\/     M anipulation  |
\*---------------------------------------------------------------------------*/
FoamFile
{
    format      ascii;
    class       volScalarField;
    location    "4.4";
    object      rho;
}
// * * * * * * * * * * * * * * * * * * * * * * * * * * * * * * * * * * * * * //

dimensions      [1 -3 0 0 0 0 0];

internalField   nonuniform List<scalar> 
2500
(
1.14335373926087
1.14341416311723
1.14348501550509
1.14352480129189
1.14354402398258
1.14355284696569
1.1435567425684
1.14355838748711
1.14355904792482
1.14355929681541
1.14355939094467
1.14355942531049
1.14355943798184
1.14355944516206
1.14355945013256
1.14355945489671
1.1435594573916
1.14355946033647
1.1435594636322
1.14355946597074
1.14355946803252
1.1435594698986
1.14355947147237
1.14355947239734
1.14355947336057
1.14355947428424
1.14355947463787
1.14355947488357
1.14355947495511
1.14355947466471
1.14355947414804
1.14355947318421
1.14355947178929
1.14355947000432
1.1435594681055
1.14355946577294
1.14355946234466
1.14355945673572
1.14355944145984
1.14355940374543
1.14355930212257
1.14355903182468
1.14355834044301
1.14355665580203
1.14355273028705
1.14354395649704
1.14352486388974
1.14348500851821
1.14341329845635
1.14335426356087
1.14836139769562
1.14858635176807
1.14878703647722
1.14890232431116
1.14896161692647
1.14899070301213
1.14900439039394
1.14901050687976
1.14901308235089
1.14901410058163
1.14901448165827
1.14901461649062
1.14901466183646
1.14901467766696
1.14901468394145
1.14901468740743
1.14901468911885
1.14901469079313
1.14901469261837
1.1490146940547
1.14901469543437
1.14901469684085
1.14901469808474
1.14901469880914
1.14901469942079
1.1490147000637
1.14901470033404
1.14901470055249
1.1490147008398
1.14901470072001
1.14901470049808
1.14901470020352
1.14901469899779
1.14901469733988
1.14901469589338
1.1490146934228
1.14901468692995
1.14901466870988
1.14901461465254
1.14901446162405
1.14901404345757
1.14901295639866
1.14901028221659
1.14900406494294
1.14899036194851
1.14896148653059
1.14890256817474
1.14878687545241
1.14858312503072
1.14836153216819
1.15302874623731
1.15334992730074
1.15360601791032
1.15375064298469
1.15382470727068
1.15386099187864
1.15387808627001
1.15388575147247
1.15388899501428
1.15389028549857
1.15389076963042
1.15389094084813
1.15389099785854
1.15389101636824
1.15389102249535
1.1538910248429
1.153891025736
1.15389102644132
1.15389102722359
1.15389102790223
1.15389102865746
1.15389102956013
1.15389103042681
1.1538910309286
1.153891031265
1.15389103165529
1.15389103180784
1.15389103195632
1.15389103229004
1.15389103231908
1.15389103234158
1.15389103243886
1.15389103145501
1.15389103005381
1.15389102913871
1.15389102704366
1.15389101990936
1.15389099785791
1.15389093133615
1.15389074012665
1.15389021599747
1.15388885412603
1.15388550968232
1.15387774705267
1.15386065234301
1.15382458915835
1.1537507999085
1.15360516430782
1.15334398106943
1.15302168885183
1.15666172046293
1.15697651655825
1.15719873525949
1.1573196936504
1.15737930066645
1.1574074661814
1.15742035218236
1.15742600793143
1.15742836587105
1.15742929474996
1.15742964071129
1.15742976227888
1.1574298023173
1.15742981494444
1.15742981881702
1.15742981997077
1.15742982021524
1.15742982036154
1.15742982056367
1.15742982078319
1.15742982110724
1.15742982159969
1.15742982213792
1.15742982246017
1.15742982261799
1.15742982281321
1.15742982288095
1.15742982295157
1.15742982316237
1.15742982320671
1.15742982327777
1.15742982353976
1.15742982296806
1.15742982209205
1.15742982169499
1.15742982056066
1.15742981610809
1.15742980148135
1.15742975632189
1.15742962427152
1.15742925713673
1.15742828938131
1.1574258745125
1.15742016025579
1.15740726431075
1.15737919029683
1.15731955415763
1.15719715929201
1.15696925975192
1.1566478670514
1.15910183464839
1.15934593133412
1.15950147721901
1.15958306808171
1.15962179743579
1.15963946890354
1.15964733286068
1.15965071999461
1.15965211623633
1.15965266309596
1.15965286631931
1.15965293763487
1.15965296099521
1.15965296825198
1.15965297030691
1.15965297069658
1.15965297064639
1.1596529706167
1.15965297060382
1.15965297060146
1.1596529706876
1.15965297090375
1.15965297120107
1.1596529713866
1.15965297143387
1.15965297149247
1.15965297150858
1.1596529715335
1.15965297163345
1.15965297166716
1.15965297174623
1.15965297200611
1.15965297173697
1.15965297137179
1.15965297132048
1.15965297073605
1.15965296834702
1.15965296030804
1.15965293493367
1.15965285980223
1.15965264892668
1.15965208750772
1.1596506697155
1.15964726088618
1.15963939573812
1.15962175186853
1.15958287260271
1.15949992808469
1.15933933247389
1.15908608606749
1.16054986589851
1.16070945386777
1.16080249506879
1.16084963206429
1.16087126139584
1.16088082134745
1.16088496974706
1.16088672760987
1.16088744612616
1.16088772677833
1.16088783118102
1.16088786788482
1.16088787987961
1.16088788355712
1.16088788445819
1.16088788451488
1.16088788443376
1.16088788434814
1.16088788429682
1.16088788428695
1.16088788428162
1.16088788433205
1.1608878844843
1.16088788457376
1.16088788456135
1.16088788455874
1.16088788455543
1.16088788456298
1.16088788460249
1.16088788462446
1.16088788468773
1.16088788487138
1.16088788476711
1.1608878846428
1.16088788467591
1.16088788441905
1.16088788331233
1.16088787942166
1.16088786685857
1.16088782930888
1.16088772331462
1.16088743942017
1.16088671655654
1.16088495655081
1.16088081676131
1.16087127207365
1.16084951736312
1.16080140500216
1.16070462493302
1.16053649873997
1.1613231094826
1.16141439837568
1.16146360988969
1.16148775045835
1.16149849975986
1.16150311768391
1.16150507636847
1.16150589454276
1.16150622682979
1.16150635654242
1.16150640494495
1.16150642202461
1.16150642760342
1.16150642927191
1.16150642962049
1.16150642960194
1.16150642953208
1.16150642945901
1.16150642940908
1.16150642939941
1.16150642938215
1.16150642938142
1.1615064294491
1.16150642948274
1.16150642945904
1.16150642944422
1.16150642943625
1.16150642943715
1.16150642945252
1.16150642946491
1.16150642950459
1.1615064296116
1.1615064295799
1.16150642954863
1.16150642958883
1.16150642948179
1.16150642901768
1.16150642731496
1.16150642165807
1.16150640462634
1.16150635642532
1.16150622698281
1.16150589575229
1.16150508152763
1.16150313439191
1.16149853295935
1.16148771932594
1.16146300090086
1.16141141173933
1.16131379996813
1.16170012271889
1.16174694728524
1.16177050305491
1.16178171605745
1.16178657806545
1.16178861473608
1.16178946089243
1.16178980984087
1.16178995085354
1.1617900059435
1.16179002658892
1.16179003390823
1.16179003629915
1.16179003699314
1.16179003711449
1.1617900370885
1.16179003704363
1.16179003699849
1.16179003696551
1.16179003695152
1.16179003694209
1.16179003693883
1.16179003695929
1.16179003696699
1.16179003694943
1.16179003693829
1.16179003693266
1.16179003693099
1.16179003693617
1.16179003694335
1.16179003696403
1.16179003701798
1.1617900370122
1.16179003700937
1.16179003703483
1.16179003699598
1.16179003681966
1.16179003612662
1.16179003376316
1.16179002661025
1.16179000636639
1.16178995201521
1.16178981264091
1.16178946766215
1.16178863098652
1.16178660964668
1.16178172650083
1.16177021986365
1.16174533367134
1.16169453452154
1.16186994472441
1.16189186209821
1.16190223905944
1.16190704092979
1.16190907440301
1.16190990736464
1.16191024697284
1.16191038539573
1.16191044110563
1.16191046290575
1.16191047111533
1.16191047404038
1.16191047499619
1.16191047526287
1.16191047529983
1.16191047528356
1.16191047525917
1.16191047523526
1.16191047521697
1.16191047520704
1.16191047520207
1.16191047520044
1.1619104752029
1.16191047519993
1.1619104751915
1.16191047518534
1.1619104751821
1.16191047518031
1.16191047518173
1.16191047518521
1.16191047519449
1.16191047521769
1.16191047521901
1.16191047522047
1.1619104752318
1.16191047522105
1.16191047515952
1.16191047489438
1.1619104739664
1.16191047114692
1.16191046318353
1.16191044185983
1.16191038719662
1.1619102512809
1.16190991773238
1.16190909592656
1.16190706059181
1.16190212734221
1.16189108261635
1.16186696454112
1.16194128797894
1.16195077402004
1.1619550348288
1.16195695430609
1.16195775007081
1.16195806962756
1.16195819769913
1.1619582493381
1.16195827004741
1.16195827816785
1.16195828124098
1.16195828234103
1.16195828270037
1.16195828279646
1.16195828280578
1.16195828279672
1.16195828278462
1.16195828277295
1.16195828276364
1.16195828275771
1.16195828275438
1.16195828275272
1.1619582827513
1.16195828274802
1.16195828274381
1.16195828274057
1.16195828273865
1.16195828273726
1.16195828273725
1.16195828273846
1.16195828274196
1.16195828275073
1.16195828275219
1.16195828275354
1.16195828275731
1.16195828275561
1.16195828273643
1.16195828263902
1.16195828229307
1.16195828123967
1.16195827827554
1.16195827037486
1.16195825016985
1.16195819981021
1.16195807502111
1.16195776218234
1.16195696977141
1.16195499769086
1.16195043158556
1.16193984653283
1.16196945639651
1.16197329184195
1.16197493854836
1.16197566168343
1.16197595574218
1.16197607176231
1.16197611754056
1.16197613581242
1.16197614311621
1.16197614598607
1.16197614707707
1.161976147469
1.16197614759644
1.16197614762848
1.16197614762997
1.16197614762554
1.1619761476197
1.1619761476141
1.16197614760942
1.161976147606
1.16197614760349
1.16197614760173
1.16197614760023
1.16197614759811
1.16197614759579
1.1619761475939
1.16197614759257
1.16197614759144
1.16197614759088
1.1619761475909
1.16197614759179
1.16197614759456
1.16197614759511
1.16197614759563
1.16197614759675
1.16197614759646
1.16197614759039
1.16197614755626
1.16197614743281
1.16197614705699
1.16197614600493
1.16197614321784
1.16197613611927
1.16197611841688
1.16197607421247
1.16197596170001
1.1619756708507
1.16197492870614
1.16197315327575
1.16196881453867
1.16197997109548
1.16198143172627
1.16198203537058
1.16198229409882
1.16198239745927
1.16198243760392
1.16198245322108
1.16198245939529
1.16198246185528
1.16198246282351
1.16198246319285
1.16198246332564
1.16198246336826
1.16198246337805
1.16198246337752
1.16198246337502
1.16198246337202
1.16198246336913
1.16198246336658
1.16198246336447
1.16198246336268
1.16198246336119
1.16198246335985
1.16198246335833
1.1619824633568
1.16198246335546
1.16198246335435
1.16198246335334
1.16198246335256
1.16198246335204
1.16198246335185
1.1619824633523
1.16198246335217
1.16198246335206
1.16198246335214
1.16198246335187
1.16198246334977
1.161982463338
1.16198246329548
1.16198246316664
1.1619824628084
1.1619824618663
1.16198245947987
1.16198245353505
1.16198243860382
1.16198240009824
1.16198229870658
1.16198203377231
1.16198137956716
1.1619797049569
1.16198369506544
1.16198422249623
1.16198443366932
1.16198452212709
1.16198455688959
1.16198457020292
1.16198457531614
1.1619845773194
1.16198457811472
1.16198457842793
1.16198457854747
1.16198457859016
1.16198457860336
1.16198457860573
1.16198457860473
1.16198457860308
1.16198457860127
1.1619845785995
1.16198457859784
1.16198457859634
1.16198457859494
1.16198457859367
1.16198457859246
1.16198457859122
1.16198457859
1.16198457858888
1.16198457858785
1.16198457858689
1.16198457858602
1.16198457858527
1.16198457858466
1.16198457858429
1.1619845785838
1.16198457858335
1.16198457858299
1.16198457858257
1.1619845785816
1.16198457857745
1.16198457856313
1.1619845785204
1.16198457840275
1.16198457809603
1.1619845773242
1.1619845754063
1.16198457056969
1.16198455795688
1.16198452418453
1.16198443391374
1.16198420408568
1.16198359138163
1.1619849444749
1.16198512607015
1.16198519691643
1.16198522596159
1.16198523720247
1.16198524145352
1.1619852430673
1.16198524369396
1.16198524394159
1.16198524403884
1.16198524407567
1.16198524408842
1.16198524409186
1.16198524409186
1.16198524409079
1.1619852440895
1.16198524408815
1.16198524408682
1.16198524408552
1.16198524408427
1.16198524408306
1.1619852440819
1.16198524408077
1.16198524407965
1.16198524407856
1.16198524407752
1.16198524407652
1.16198524407558
1.16198524407468
1.16198524407385
1.1619852440731
1.16198524407245
1.1619852440718
1.1619852440712
1.16198524407066
1.16198524407014
1.16198524406948
1.16198524406784
1.16198524406298
1.16198524404911
1.16198524401164
1.16198524391503
1.16198524367384
1.16198524307676
1.16198524156738
1.16198523759437
1.16198522679293
1.16198519728801
1.16198511993132
1.16198490623948
1.16198533472459
1.16198539461936
1.16198541750399
1.16198542670072
1.1619854302093
1.16198543152094
1.16198543201345
1.16198543220284
1.16198543227705
1.16198543230581
1.16198543231631
1.1619854323195
1.16198543231984
1.16198543231912
1.16198543231805
1.16198543231691
1.16198543231574
1.16198543231457
1.16198543231341
1.16198543231227
1.16198543231114
1.16198543231004
1.16198543230896
1.16198543230789
1.16198543230685
1.16198543230584
1.16198543230487
1.16198543230393
1.16198543230303
1.16198543230218
1.16198543230138
1.16198543230064
1.16198543229993
1.16198543229928
1.16198543229867
1.16198543229811
1.16198543229754
1.1619854322967
1.16198543229491
1.16198543229038
1.16198543227869
1.1619854322491
1.161985432176
1.16198543199601
1.16198543154054
1.16198543033242
1.16198542700184
1.16198541771288
1.16198539266656
1.16198532128975
1.16198543939128
1.16198545839095
1.16198546553157
1.16198546834902
1.16198546940936
1.16198546980137
1.16198546994685
1.161985470002
1.16198547002314
1.16198547003093
1.16198547003334
1.16198547003359
1.16198547003299
1.16198547003206
1.16198547003101
1.16198547002993
1.16198547002883
1.16198547002773
1.16198547002663
1.16198547002553
1.16198547002444
1.16198547002337
1.16198547002231
1.16198547002127
1.16198547002025
1.16198547001926
1.16198547001831
1.16198547001738
1.16198547001649
1.16198547001564
1.16198547001483
1.16198547001407
1.16198547001335
1.16198547001267
1.16198547001205
1.16198547001147
1.16198547001093
1.16198547001035
1.16198547000952
1.16198547000792
1.16198547000424
1.16198546999535
1.16198546997378
1.16198546992109
1.16198546978782
1.16198546943211
1.16198546843875
1.16198546561231
1.16198545778538
1.16198543486152
1.16198545280495
1.16198545862135
1.16198546077938
1.16198546161664
1.16198546192755
1.16198546204104
1.16198546208244
1.16198546209763
1.16198546210303
1.1619854621046
1.16198546210461
1.161985462104
1.16198546210312
1.16198546210214
1.16198546210111
1.16198546210006
1.16198546209899
1.16198546209792
1.16198546209685
1.16198546209578
1.16198546209471
1.16198546209366
1.16198546209262
1.1619854620916
1.1619854620906
1.16198546208962
1.16198546208868
1.16198546208776
1.16198546208688
1.16198546208604
1.16198546208524
1.16198546208448
1.16198546208376
1.16198546208308
1.16198546208246
1.16198546208188
1.16198546208135
1.16198546208085
1.16198546208032
1.16198546207961
1.16198546207835
1.16198546207565
1.1619854620694
1.16198546205438
1.16198546201651
1.16198546191489
1.16198546162754
1.16198546079402
1.16198545842669
1.16198545132336
1.16198543809044
1.16198543981377
1.1619854404468
1.16198544068855
1.16198544077697
1.1619854408086
1.16198544081967
1.1619854408233
1.16198544082417
1.16198544082396
1.1619854408233
1.16198544082244
1.1619854408215
1.16198544082051
1.16198544081949
1.16198544081846
1.16198544081742
1.16198544081637
1.16198544081531
1.16198544081426
1.16198544081322
1.16198544081218
1.16198544081116
1.16198544081015
1.16198544080916
1.16198544080821
1.16198544080727
1.16198544080637
1.1619854408055
1.16198544080467
1.16198544080388
1.16198544080312
1.16198544080241
1.16198544080174
1.16198544080112
1.16198544080055
1.16198544080003
1.16198544079955
1.16198544079911
1.16198544079867
1.16198544079812
1.16198544079722
1.16198544079539
1.1619854407912
1.16198544078073
1.16198544075254
1.16198544067177
1.16198544043301
1.16198543973837
1.16198543760851
1.16198541498641
1.16198541548174
1.1619854156622
1.16198541572999
1.16198541575422
1.16198541576244
1.16198541576492
1.16198541576532
1.16198541576494
1.16198541576424
1.1619854157634
1.16198541576249
1.16198541576154
1.16198541576056
1.16198541575956
1.16198541575855
1.16198541575752
1.16198541575649
1.16198541575545
1.16198541575442
1.16198541575338
1.16198541575236
1.16198541575136
1.16198541575037
1.1619854157494
1.16198541574845
1.16198541574753
1.16198541574664
1.16198541574579
1.16198541574496
1.16198541574418
1.16198541574344
1.16198541574273
1.16198541574207
1.16198541574146
1.16198541574089
1.16198541574038
1.16198541573991
1.1619854157395
1.16198541573913
1.16198541573878
1.16198541573838
1.16198541573779
1.16198541573662
1.1619854157338
1.16198541572622
1.16198541570414
1.1619854156376
1.1619854154395
1.16198541482003
1.16198538945472
1.16198538959301
1.16198538964296
1.1619853896613
1.1619853896675
1.16198538966923
1.16198538966936
1.16198538966889
1.16198538966818
1.16198538966737
1.16198538966649
1.16198538966558
1.16198538966464
1.16198538966368
1.1619853896627
1.1619853896617
1.16198538966069
1.16198538965967
1.16198538965865
1.16198538965763
1.16198538965662
1.16198538965561
1.16198538965462
1.16198538965364
1.16198538965269
1.16198538965176
1.16198538965085
1.16198538964998
1.16198538964913
1.16198538964832
1.16198538964755
1.16198538964682
1.16198538964612
1.16198538964547
1.16198538964487
1.16198538964431
1.1619853896438
1.16198538964334
1.16198538964294
1.16198538964259
1.16198538964229
1.16198538964202
1.16198538964176
1.1619853896414
1.16198538964065
1.16198538963867
1.1619853896328
1.16198538961474
1.16198538955979
1.16198538938471
1.16198536323989
1.16198536327733
1.16198536329064
1.1619853632953
1.16198536329657
1.16198536329657
1.16198536329608
1.1619853632954
1.16198536329463
1.1619853632938
1.16198536329294
1.16198536329204
1.16198536329112
1.16198536329017
1.16198536328921
1.16198536328823
1.16198536328724
1.16198536328623
1.16198536328523
1.16198536328423
1.16198536328323
1.16198536328224
1.16198536328126
1.1619853632803
1.16198536327936
1.16198536327845
1.16198536327755
1.16198536327669
1.16198536327586
1.16198536327506
1.1619853632743
1.16198536327358
1.1619853632729
1.16198536327225
1.16198536327166
1.1619853632711
1.1619853632706
1.16198536327015
1.16198536326975
1.1619853632694
1.16198536326911
1.16198536326888
1.16198536326869
1.16198536326852
1.1619853632683
1.1619853632678
1.16198536326627
1.16198536326149
1.16198536324669
1.1619853631986
1.16198533683771
1.16198533684743
1.16198533685072
1.1619853368517
1.16198533685168
1.16198533685124
1.16198533685062
1.16198533684991
1.16198533684914
1.16198533684833
1.16198533684749
1.16198533684661
1.16198533684571
1.16198533684478
1.16198533684383
1.16198533684287
1.16198533684189
1.16198533684091
1.16198533683992
1.16198533683894
1.16198533683796
1.16198533683698
1.16198533683602
1.16198533683508
1.16198533683415
1.16198533683325
1.16198533683237
1.16198533683152
1.16198533683071
1.16198533682992
1.16198533682917
1.16198533682846
1.16198533682779
1.16198533682715
1.16198533682656
1.16198533682602
1.16198533682552
1.16198533682507
1.16198533682467
1.16198533682432
1.16198533682403
1.1619853368238
1.16198533682362
1.16198533682349
1.16198533682339
1.16198533682324
1.16198533682283
1.16198533682158
1.16198533681775
1.16198533680498
1.16198531038538
1.16198531038766
1.16198531038829
1.16198531038831
1.16198531038799
1.16198531038746
1.16198531038684
1.16198531038614
1.1619853103854
1.16198531038461
1.16198531038379
1.16198531038293
1.16198531038205
1.16198531038114
1.16198531038021
1.16198531037927
1.16198531037831
1.16198531037735
1.16198531037638
1.16198531037541
1.16198531037444
1.16198531037348
1.16198531037254
1.16198531037161
1.1619853103707
1.16198531036981
1.16198531036895
1.16198531036812
1.16198531036731
1.16198531036654
1.1619853103658
1.1619853103651
1.16198531036444
1.16198531036381
1.16198531036323
1.16198531036269
1.1619853103622
1.16198531036175
1.16198531036135
1.161985310361
1.16198531036071
1.16198531036047
1.16198531036028
1.16198531036014
1.16198531036005
1.16198531035998
1.16198531035983
1.16198531035948
1.16198531035857
1.16198531035537
1.16198528391991
1.16198528392025
1.16198528392019
1.16198528391999
1.16198528391961
1.16198528391909
1.16198528391849
1.16198528391782
1.16198528391711
1.16198528391634
1.16198528391555
1.16198528391471
1.16198528391385
1.16198528391296
1.16198528391206
1.16198528391113
1.16198528391019
1.16198528390924
1.16198528390829
1.16198528390734
1.16198528390639
1.16198528390545
1.16198528390452
1.16198528390361
1.16198528390272
1.16198528390184
1.16198528390099
1.16198528390017
1.16198528389938
1.16198528389862
1.1619852838979
1.16198528389721
1.16198528389655
1.16198528389594
1.16198528389536
1.16198528389483
1.16198528389434
1.1619852838939
1.1619852838935
1.16198528389315
1.16198528389285
1.16198528389259
1.16198528389239
1.16198528389224
1.16198528389213
1.16198528389205
1.16198528389196
1.16198528389182
1.16198528389165
1.16198528389099
1.16198525745106
1.16198525745091
1.16198525745069
1.16198525745046
1.16198525745009
1.1619852574496
1.16198525744902
1.16198525744839
1.1619852574477
1.16198525744696
1.16198525744619
1.16198525744538
1.16198525744454
1.16198525744367
1.16198525744278
1.16198525744188
1.16198525744096
1.16198525744003
1.16198525743909
1.16198525743816
1.16198525743723
1.1619852574363
1.16198525743539
1.16198525743449
1.16198525743362
1.16198525743276
1.16198525743192
1.16198525743112
1.16198525743034
1.16198525742959
1.16198525742888
1.1619852574282
1.16198525742756
1.16198525742695
1.16198525742638
1.16198525742586
1.16198525742537
1.16198525742493
1.16198525742453
1.16198525742417
1.16198525742387
1.16198525742361
1.16198525742339
1.16198525742322
1.16198525742309
1.16198525742299
1.16198525742289
1.16198525742279
1.1619852574228
1.16198525742279
1.16198523098135
1.16198523098109
1.16198523098084
1.16198523098062
1.16198523098028
1.16198523097982
1.16198523097928
1.16198523097867
1.16198523097801
1.1619852309773
1.16198523097655
1.16198523097577
1.16198523097495
1.1619852309741
1.16198523097323
1.16198523097235
1.16198523097144
1.16198523097053
1.16198523096962
1.1619852309687
1.16198523096779
1.16198523096688
1.16198523096599
1.1619852309651
1.16198523096424
1.1619852309634
1.16198523096258
1.16198523096179
1.16198523096102
1.16198523096029
1.16198523095959
1.16198523095892
1.16198523095828
1.16198523095769
1.16198523095713
1.1619852309566
1.16198523095612
1.16198523095568
1.16198523095528
1.16198523095493
1.16198523095461
1.16198523095434
1.16198523095411
1.16198523095393
1.16198523095378
1.16198523095365
1.16198523095353
1.16198523095342
1.16198523095347
1.16198523095361
1.16198520451143
1.16198520451115
1.16198520451091
1.16198520451071
1.16198520451039
1.16198520450997
1.16198520450946
1.16198520450888
1.16198520450825
1.16198520450757
1.16198520450684
1.16198520450608
1.16198520450528
1.16198520450446
1.16198520450361
1.16198520450274
1.16198520450186
1.16198520450097
1.16198520450007
1.16198520449917
1.16198520449828
1.16198520449739
1.16198520449651
1.16198520449564
1.1619852044948
1.16198520449397
1.16198520449316
1.16198520449238
1.16198520449163
1.16198520449091
1.16198520449022
1.16198520448956
1.16198520448894
1.16198520448835
1.1619852044878
1.16198520448728
1.1619852044868
1.16198520448636
1.16198520448596
1.1619852044856
1.16198520448528
1.161985204485
1.16198520448476
1.16198520448456
1.16198520448439
1.16198520448424
1.1619852044841
1.16198520448396
1.16198520448401
1.16198520448419
1.16198517804146
1.16198517804117
1.16198517804095
1.16198517804078
1.16198517804049
1.1619851780401
1.16198517803962
1.16198517803907
1.16198517803847
1.16198517803781
1.16198517803711
1.16198517803637
1.1619851780356
1.1619851780348
1.16198517803397
1.16198517803312
1.16198517803226
1.16198517803138
1.1619851780305
1.16198517802962
1.16198517802874
1.16198517802787
1.16198517802701
1.16198517802616
1.16198517802533
1.16198517802452
1.16198517802373
1.16198517802296
1.16198517802222
1.16198517802151
1.16198517802083
1.16198517802019
1.16198517801957
1.16198517801899
1.16198517801845
1.16198517801794
1.16198517801746
1.16198517801702
1.16198517801662
1.16198517801626
1.16198517801593
1.16198517801564
1.16198517801539
1.16198517801517
1.16198517801498
1.16198517801481
1.16198517801465
1.16198517801449
1.16198517801453
1.16198517801471
1.16198515157147
1.1619851515712
1.16198515157099
1.16198515157085
1.16198515157059
1.16198515157023
1.16198515156978
1.16198515156926
1.16198515156868
1.16198515156805
1.16198515156738
1.16198515156666
1.16198515156591
1.16198515156513
1.16198515156432
1.16198515156349
1.16198515156265
1.16198515156179
1.16198515156093
1.16198515156007
1.16198515155921
1.16198515155835
1.16198515155751
1.16198515155667
1.16198515155586
1.16198515155506
1.16198515155428
1.16198515155353
1.16198515155281
1.16198515155211
1.16198515155144
1.16198515155081
1.1619851515502
1.16198515154963
1.16198515154909
1.16198515154858
1.16198515154811
1.16198515154768
1.16198515154727
1.16198515154691
1.16198515154657
1.16198515154627
1.16198515154601
1.16198515154577
1.16198515154556
1.16198515154537
1.16198515154519
1.16198515154501
1.16198515154503
1.16198515154521
1.16198512510149
1.16198512510123
1.16198512510104
1.16198512510093
1.16198512510069
1.16198512510036
1.16198512509994
1.16198512509945
1.1619851250989
1.1619851250983
1.16198512509765
1.16198512509696
1.16198512509623
1.16198512509546
1.16198512509468
1.16198512509387
1.16198512509304
1.16198512509221
1.16198512509137
1.16198512509052
1.16198512508967
1.16198512508884
1.16198512508801
1.16198512508719
1.16198512508639
1.1619851250856
1.16198512508484
1.16198512508411
1.16198512508339
1.16198512508271
1.16198512508205
1.16198512508142
1.16198512508083
1.16198512508026
1.16198512507973
1.16198512507923
1.16198512507876
1.16198512507833
1.16198512507792
1.16198512507755
1.16198512507721
1.1619851250769
1.16198512507663
1.16198512507637
1.16198512507615
1.16198512507594
1.16198512507573
1.16198512507553
1.16198512507554
1.1619851250757
1.16198509863152
1.16198509863127
1.1619850986311
1.16198509863101
1.16198509863081
1.1619850986305
1.16198509863011
1.16198509862965
1.16198509862913
1.16198509862855
1.16198509862793
1.16198509862726
1.16198509862655
1.16198509862581
1.16198509862504
1.16198509862425
1.16198509862345
1.16198509862263
1.1619850986218
1.16198509862098
1.16198509862015
1.16198509861933
1.16198509861851
1.16198509861771
1.16198509861692
1.16198509861616
1.16198509861541
1.16198509861468
1.16198509861398
1.16198509861331
1.16198509861266
1.16198509861205
1.16198509861146
1.1619850986109
1.16198509861037
1.16198509860988
1.16198509860941
1.16198509860898
1.16198509860857
1.1619850986082
1.16198509860785
1.16198509860754
1.16198509860725
1.16198509860698
1.16198509860674
1.16198509860651
1.16198509860628
1.16198509860605
1.16198509860605
1.1619850986062
1.16198507216156
1.16198507216132
1.16198507216117
1.16198507216111
1.16198507216094
1.16198507216066
1.1619850721603
1.16198507215987
1.16198507215937
1.16198507215882
1.16198507215822
1.16198507215757
1.16198507215688
1.16198507215617
1.16198507215542
1.16198507215465
1.16198507215386
1.16198507215306
1.16198507215226
1.16198507215144
1.16198507215063
1.16198507214983
1.16198507214903
1.16198507214824
1.16198507214747
1.16198507214672
1.16198507214598
1.16198507214527
1.16198507214458
1.16198507214392
1.16198507214328
1.16198507214268
1.1619850721421
1.16198507214155
1.16198507214103
1.16198507214053
1.16198507214007
1.16198507213964
1.16198507213923
1.16198507213886
1.1619850721385
1.16198507213818
1.16198507213787
1.16198507213759
1.16198507213733
1.16198507213708
1.16198507213683
1.16198507213658
1.16198507213656
1.1619850721367
1.16198504569161
1.16198504569138
1.16198504569126
1.16198504569123
1.16198504569109
1.16198504569084
1.16198504569051
1.1619850456901
1.16198504568963
1.16198504568911
1.16198504568853
1.1619850456879
1.16198504568724
1.16198504568654
1.16198504568581
1.16198504568506
1.1619850456843
1.16198504568351
1.16198504568272
1.16198504568193
1.16198504568113
1.16198504568034
1.16198504567956
1.16198504567879
1.16198504567803
1.16198504567729
1.16198504567657
1.16198504567587
1.16198504567519
1.16198504567454
1.16198504567392
1.16198504567332
1.16198504567275
1.1619850456722
1.16198504567169
1.1619850456712
1.16198504567074
1.16198504567031
1.1619850456699
1.16198504566952
1.16198504566916
1.16198504566883
1.16198504566851
1.16198504566821
1.16198504566794
1.16198504566766
1.16198504566739
1.16198504566712
1.16198504566707
1.1619850456672
1.16198501922167
1.16198501922147
1.16198501922137
1.16198501922138
1.16198501922126
1.16198501922105
1.16198501922074
1.16198501922036
1.16198501921992
1.16198501921942
1.16198501921886
1.16198501921826
1.16198501921762
1.16198501921694
1.16198501921623
1.1619850192155
1.16198501921475
1.16198501921398
1.16198501921321
1.16198501921243
1.16198501921165
1.16198501921088
1.16198501921011
1.16198501920935
1.16198501920861
1.16198501920788
1.16198501920718
1.16198501920649
1.16198501920582
1.16198501920518
1.16198501920457
1.16198501920398
1.16198501920341
1.16198501920288
1.16198501920237
1.16198501920188
1.16198501920143
1.16198501920099
1.16198501920058
1.1619850192002
1.16198501919983
1.16198501919949
1.16198501919916
1.16198501919885
1.16198501919855
1.16198501919826
1.16198501919796
1.16198501919766
1.16198501919759
1.16198501919771
1.16198499275176
1.16198499275157
1.16198499275151
1.16198499275155
1.16198499275146
1.16198499275128
1.161984992751
1.16198499275065
1.16198499275024
1.16198499274976
1.16198499274922
1.16198499274864
1.16198499274802
1.16198499274736
1.16198499274667
1.16198499274596
1.16198499274523
1.16198499274448
1.16198499274372
1.16198499274296
1.1619849927422
1.16198499274144
1.16198499274068
1.16198499273994
1.16198499273921
1.1619849927385
1.1619849927378
1.16198499273712
1.16198499273647
1.16198499273584
1.16198499273523
1.16198499273465
1.1619849927341
1.16198499273357
1.16198499273306
1.16198499273258