/*--------------------------------*- C++ -*----------------------------------*\
  =========                 |
  \\      /  F ield         | OpenFOAM: The Open Source CFD Toolbox
   \\    /   O peration     | Website:  https://openfoam.org
    \\  /    A nd           | Version:  10
     \\/     M anipulation  |
\*---------------------------------------------------------------------------*/
FoamFile
{
    format      ascii;
    class       volScalarField;
    location    "4.4";
    object      T;
}
// * * * * * * * * * * * * * * * * * * * * * * * * * * * * * * * * * * * * * //

dimensions      [0 0 0 1 0 0 0];

internalField   nonuniform List<scalar> 
2500
(
304.888815736957
304.872703855876
304.853813397836
304.843206853782
304.838082516481
304.835730565255
304.83469212217
304.834253641508
304.834077591014
304.834011245069
304.833986153198
304.833976992195
304.833973614176
304.83397169989
304.83397037463
304.833969104366
304.833968439003
304.833967653689
304.833966774844
304.833966151155
304.833965601239
304.833965103495
304.833964683677
304.83396443681
304.833964179752
304.833963933247
304.833963838702
304.833963772938
304.83396375361
304.833963830774
304.833963968263
304.833964224963
304.83396459659
304.833965072202
304.833965578178
304.833966199785
304.833967113487
304.833968608489
304.833972680377
304.833982733619
304.834009822674
304.834081874757
304.834266173585
304.834715242685
304.835761659396
304.838100497364
304.84319015723
304.853815251346
304.872934394444
304.888675916874
303.559280560724
303.499827571111
303.446808368992
303.416358676031
303.400700756749
303.39302033069
303.389406196672
303.387791174901
303.38711114208
303.386842287
303.386741666958
303.386706065469
303.386694092052
303.386689911875
303.38668825486
303.386687339397
303.386686887206
303.386686444817
303.386685962565
303.386685583002
303.386685218402
303.386684846725
303.386684517984
303.386684326414
303.38668416462
303.386683994582
303.386683922924
303.386683864977
303.386683788858
303.386683820242
303.386683878605
303.386683956158
303.386684274307
303.386684711864
303.386685093614
303.386685745775
303.386687459991
303.386692270682
303.386706543883
303.386746949516
303.38685736245
303.387144390729
303.38785048732
303.389492122051
303.393110380443
303.400735180857
303.416294264488
303.446850893814
303.500680189945
303.5592450048
302.330495212074
302.246303220266
302.179207142547
302.141328343273
302.121933819167
302.112433215845
302.107957502054
302.10595061471
302.105101405269
302.104763537708
302.104636784989
302.104591957574
302.104577031197
302.104572184823
302.104570580368
302.104569965447
302.104569731316
302.104569546346
302.104569341225
302.104569163237
302.104568965197
302.104568728559
302.104568501349
302.104568369674
302.104568281311
302.104568178843
302.104568138629
302.104568099488
302.104568011861
302.104568004011
302.104567997888
302.104567972196
302.104568229571
302.104568596228
302.104568835627
302.104569383969
302.104571251667
302.104577024892
302.104594441067
302.104644502235
302.104781726476
302.105138283967
302.106013911087
302.108046307386
302.11252210693
302.121964737308
302.141287239469
302.179430728951
302.247861485508
302.332345699535
301.380894502105
301.298893245521
301.24103434285
301.209549844066
301.194037036496
301.186707478531
301.183354252333
301.181882523173
301.181268948376
301.181027239308
301.180937214615
301.180905580622
301.180895161747
301.180891875693
301.1808908677
301.180890567177
301.180890503259
301.180890464882
301.180890411976
301.180890354545
301.180890269913
301.180890141466
301.180890001108
301.180889916958
301.180889875602
301.180889824521
301.180889806621
301.180889787981
301.180889732871
301.180889721089
301.180889702367
301.180889633972
301.180889782527
301.18089001028
301.180890113419
301.180890408417
301.180891566883
301.180895372837
301.180907123882
301.180941485281
301.181037019293
301.181288844345
301.181917232883
301.183404186965
301.186760001763
301.194065750057
301.209586140177
301.241444588933
301.300783059932
301.384504194441
300.746427633789
300.683106406888
300.642770088538
300.621616189362
300.611575949251
300.606995001383
300.60495648448
300.60407847059
300.603716537762
300.603574781282
300.603522101781
300.603503615219
300.603497559518
300.603495678152
300.603495145187
300.60349504388
300.603495056589
300.603495063979
300.60349506701
300.603495067315
300.603495044679
300.603494988346
300.603494910975
300.60349486259
300.603494850048
300.603494834576
300.603494830129
300.603494823406
300.603494797242
300.603494788261
300.603494767534
300.603494699947
300.603494769504
300.603494863971
300.603494877088
300.603495028413
300.603495647535
300.603497731242
300.603504308614
300.603523783952
300.6035784467
300.603723976921
300.604091495792
300.604975133412
300.607013959069
300.611587753
300.621666858353
300.643171749285
300.684817860359
300.750513886718
300.371176068427
300.329877510139
300.305805324175
300.293611226278
300.288016160954
300.285543263503
300.284470198808
300.284015495408
300.283829638289
300.283757042494
300.283730036692
300.283720542364
300.283717439439
300.283716487908
300.283716254543
300.283716239583
300.283716260265
300.283716282109
300.283716295079
300.283716297324
300.283716298399
300.283716285052
300.283716245374
300.283716221939
300.283716224864
300.28371622526
300.283716225846
300.283716223631
300.283716213159
300.283716207233
300.283716190638
300.283716142913
300.283716169677
300.283716201637
300.283716192891
300.283716259162
300.28371654528
300.283717551523
300.283720801053
300.28373051381
300.283757930956
300.283831365108
300.284018346465
300.284473603931
300.285544441257
300.288013390154
300.293640888824
300.30608732156
300.331126977868
300.374635760298
300.171173142254
300.147579242236
300.134861910731
300.128623853535
300.125846257516
300.124653011678
300.124146901261
300.12393549111
300.12384963057
300.123816113643
300.12380360658
300.123799193077
300.123797751291
300.123797319887
300.123797229529
300.123797234028
300.12379725178
300.123797270357
300.123797282954
300.123797285151
300.123797289306
300.123797289196
300.123797271412
300.123797262428
300.123797268268
300.123797271821
300.123797273611
300.123797273117
300.123797268896
300.123797265452
300.12379725497
300.123797227101
300.123797235086
300.123797242974
300.123797232406
300.123797259896
300.123797379662
300.12379781949
300.123799281055
300.123803681803
300.123816136455
300.123849583273
300.123935170538
300.124145559884
300.124648685941
300.125837670247
300.12863188935
300.135019271278
300.14835108011
300.173579414803
300.073750027623
300.061655462489
300.05557148632
300.052675482187
300.051419779043
300.050893774282
300.050675240456
300.050585118723
300.050548699736
300.050534471646
300.050529139391
300.050527248804
300.050526631043
300.05052645153
300.050526419902
300.050526426321
300.050526437613
300.050526448969
300.050526457185
300.050526460495
300.05052646263
300.050526463174
300.050526457596
300.050526455319
300.050526459569
300.050526462171
300.050526463357
300.050526463529
300.050526461944
300.050526459849
300.050526454281
300.050526440131
300.05052644142
300.050526441958
300.050526435203
300.050526445071
300.050526490454
300.050526669305
300.05052727958
300.050529126822
300.050534355026
300.050548392003
300.050584387575
300.050673483828
300.050889568888
300.051411614022
300.052672776225
300.055644618551
300.062072226253
300.075193488862
300.02988361511
300.024223993914
300.021544473819
300.020304559432
300.019779489275
300.019564407711
300.019476716389
300.019440973637
300.019426588411
300.019420959106
300.019418839038
300.019418083493
300.01941783642
300.019417767281
300.019417757452
300.019417761361
300.019417767362
300.019417773236
300.019417777659
300.019417779923
300.019417780907
300.019417781033
300.019417780106
300.019417780585
300.01941778248
300.019417783796
300.019417784367
300.019417784572
300.019417783958
300.019417782823
300.019417780201
300.019417773994
300.01941777345
300.019417772883
300.01941776978
300.019417772391
300.019417788129
300.019417856454
300.01941809595
300.019418823869
300.019420880028
300.019426386006
300.019440500685
300.01947559581
300.019561722236
300.019773923051
300.020299473728
300.021573312195
300.024425263377
300.030653181526
300.011454930833
300.009005669146
300.00790555642
300.007409962352
300.007204502389
300.00712199532
300.007088928099
300.00707559511
300.007070247896
300.007068151017
300.007067357306
300.007067073018
300.007066979967
300.00706695488
300.007066952188
300.007066954239
300.007066957068
300.007066959784
300.007066961888
300.007066963123
300.007066963685
300.007066963822
300.007066963897
300.007066964459
300.007066965269
300.007066965833
300.007066966064
300.007066966169
300.007066965924
300.007066965377
300.007066964248
300.007066961771
300.007066961193
300.007066960655
300.007066959507
300.007066959782
300.007066964586
300.007066989603
300.007067078807
300.007067350685
300.007068115917
300.007070155747
300.007075372479
300.007088374911
300.007120594419
300.00720136679
300.007405960699
300.007915136428
300.009094075021
300.011827101694
300.004175230966
300.003184975824
300.002759822435
300.002573120552
300.002497199169
300.00246724439
300.002455424926
300.002450707167
300.002448821192
300.002448079983
300.002447798045
300.002447696591
300.002447663416
300.002447654867
300.0024476542
300.002447655055
300.002447656269
300.00244765742
300.002447658333
300.002447658921
300.002447659275
300.002447659437
300.002447659539
300.002447659802
300.002447660125
300.002447660344
300.002447660427
300.002447660465
300.002447660366
300.002447660127
300.002447659674
300.002447658749
300.002447658407
300.002447658085
300.002447657623
300.002447657538
300.002447658957
300.002447667639
300.002447699396
300.00244779633
300.002448067881
300.002448787413
300.002450620126
300.002455190617
300.002466603532
300.002495652518
300.002570745144
300.002762354876
300.003220742734
300.004340941011
300.001453674087
300.001076566821
300.000920717358
300.000853918438
300.000827232473
300.000816867589
300.000812835259
300.000811240925
300.000810605541
300.000810355302
300.000810259685
300.000810225135
300.00081021386
300.000810211057
300.000810210912
300.000810211272
300.000810211755
300.000810212209
300.000810212576
300.000810212827
300.000810212998
300.000810213093
300.000810213156
300.000810213268
300.000810213389
300.000810213468
300.000810213495
300.000810213505
300.000810213466
300.00081021337
300.000810213199
300.000810212872
300.000810212709
300.000810212552
300.000810212358
300.000810212271
300.00081021267
300.000810215578
300.000810226444
300.000810259616
300.000810352036
300.000810595224
300.000811211342
300.000812746211
300.000816601239
300.000826542778
300.000852720307
300.000921121413
300.001090024656
300.001522377441
300.000485383916
300.000349211927
300.000294691173
300.000271852879
300.000262877613
300.000259440078
300.00025811967
300.000257602197
300.0002573966
300.000257315478
300.000257284354
300.000257273067
300.00025726939
300.000257268503
300.000257268481
300.000257268622
300.000257268802
300.00025726897
300.000257269108
300.000257269207
300.000257269278
300.000257269321
300.000257269352
300.000257269396
300.000257269438
300.000257269465
300.000257269473
300.000257269475
300.00025726946
300.000257269424
300.000257269363
300.000257269252
300.000257269184
300.000257269117
300.000257269039
300.000257268991
300.0002572691
300.000257270046
300.000257273635
300.000257284576
300.000257314882
300.000257394028
300.00025759329
300.000258088483
300.00025933727
300.000262593776
300.00027131327
300.000294619559
300.000353956592
300.000512144382
300.000155978256
300.000109094038
300.000090802831
300.000083303697
300.000080401258
300.000079303439
300.000078886523
300.000078724468
300.000078660277
300.00007863491
300.000078625142
300.000078621587
300.000078620431
300.000078620158
300.000078620157
300.000078620209
300.000078620271
300.000078620329
300.000078620377
300.000078620413
300.000078620439
300.000078620456
300.000078620469
300.000078620485
300.000078620499
300.000078620507
300.00007862051
300.000078620509
300.000078620504
300.000078620492
300.000078620471
300.000078620435
300.00007862041
300.000078620384
300.000078620354
300.000078620334
300.000078620364
300.000078620665
300.000078621813
300.000078625304
300.000078634913
300.000078659814
300.000078722076
300.000078876254
300.00007926601
300.000080291877
300.000083080726
300.00009069847
300.000110670476
300.000165841335
300.000048390034
300.000032926366
300.00002701788
300.000024643233
300.000023737139
300.000023398233
300.000023270818
300.000023221663
300.00002320225
300.000023194568
300.0000231916
300.000023190516
300.000023190162
300.000023190079
300.000023190079
300.000023190096
300.000023190115
300.000023190134
300.000023190149
300.000023190161
300.000023190169
300.000023190175
300.000023190179
300.000023190184
300.000023190188
300.000023190191
300.000023190191
300.000023190191
300.000023190189
300.000023190186
300.000023190179
300.000023190168
300.00002319016
300.000023190151
300.000023190141
300.000023190134
300.000023190144
300.000023190238
300.000023190596
300.000023191677
300.000023194632
300.00002320223
300.000023221089
300.000023267582
300.000023385229
300.00002369724
300.000024557244
300.000026955614
300.000033422145
300.000051850209
300.000014533351
300.000009627953
300.000007784263
300.000007056644
300.000006782656
300.000006681199
300.000006643391
300.000006628902
300.000006623196
300.000006620935
300.000006620057
300.000006619734
300.000006619627
300.000006619601
300.0000066196
300.000006619603
300.000006619608
300.000006619613
300.000006619617
300.00000661962
300.000006619622
300.000006619623
300.000006619624
300.000006619625
300.000006619626
300.000006619627
300.000006619627
300.000006619627
300.000006619626
300.000006619625
300.000006619624
300.000006619621
300.000006619619
300.000006619616
300.000006619614
300.000006619613
300.000006619617
300.000006619648
300.000006619757
300.000006620084
300.000006620969
300.000006623223
300.000006628777
300.000006642396
300.000006676846
300.000006768765
300.000007025328
300.000007755176
300.000009776003
300.000015694513
300.000004236265
300.000002734525
300.000002177254
300.000001960902
300.000001880425
300.000001850891
300.000001839968
300.000001835806
300.000001834169
300.000001833519
300.000001833264
300.000001833168
300.000001833135
300.000001833125
300.000001833123
300.000001833122
300.000001833122
300.000001833122
300.000001833122
300.000001833122
300.000001833122
300.000001833122
300.000001833122
300.000001833122
300.000001833121
300.000001833121
300.000001833121
300.000001833121
300.000001833121
300.000001833121
300.000001833121
300.000001833121
300.000001833121
300.000001833121
300.000001833121
300.000001833122
300.000001833125
300.000001833136
300.00000183317
300.000001833268
300.000001833528
300.000001834181
300.000001835776
300.000001839662
300.000001849475
300.000001875777
300.000001950039
300.000002165334
300.000002776585
300.000004610555
300.00000120128
300.000000756295
300.000000592761
300.000000530182
300.000000507162
300.000000498781
300.0000004957
300.00000049453
300.000000494069
300.000000493884
300.000000493809
300.00000049378
300.000000493768
300.000000493763
300.00000049376
300.000000493758
300.000000493756
300.000000493755
300.000000493754
300.000000493753
300.000000493752
300.000000493751
300.00000049375
300.00000049375
300.00000049375
300.000000493749
300.000000493749
300.000000493749
300.000000493749
300.00000049375
300.00000049375
300.000000493751
300.000000493751
300.000000493752
300.000000493753
300.000000493755
300.000000493758
300.000000493763
300.000000493775
300.000000493805
300.000000493881
300.000000494068
300.000000494517
300.000000495601
300.000000498327
300.000000505657
300.000000526568
300.000000588286
300.000000767669
300.000001317582
300.000000332286
300.000000204355
300.000000157677
300.000000140028
300.000000133598
300.000000131273
300.000000130421
300.000000130097
300.000000129967
300.000000129913
300.000000129889
300.000000129878
300.000000129872
300.000000129869
300.000000129866
300.000000129863
300.000000129861
300.000000129859
300.000000129858
300.000000129856
300.000000129855
300.000000129854
300.000000129853
300.000000129853
300.000000129852
300.000000129852
300.000000129852
300.000000129852
300.000000129852
300.000000129852
300.000000129853
300.000000129854
300.000000129855
300.000000129856
300.000000129858
300.000000129859
300.000000129862
300.000000129865
300.000000129871
300.000000129882
300.000000129906
300.00000012996
300.000000130086
300.000000130384
300.000000131126
300.000000133122
300.000000138867
300.000000156103
300.000000207276
300.000000367227
300.000000090059
300.000000054315
300.000000041342
300.000000036475
300.000000034715
300.000000034081
300.000000033847
300.000000033756
300.000000033718
300.0000000337
300.00000003369
300.000000033684
300.00000003368
300.000000033677
300.000000033674
300.000000033671
300.000000033669
300.000000033667
300.000000033665
300.000000033664
300.000000033662
300.000000033661
300.00000003366
300.00000003366
300.000000033659
300.000000033659
300.000000033659
300.000000033659
300.000000033659
300.000000033659
300.00000003366
300.000000033661
300.000000033662
300.000000033663
300.000000033665
300.000000033667
300.000000033669
300.000000033672
300.000000033676
300.000000033681
300.000000033691
300.000000033708
300.000000033745
300.000000033828
300.000000034028
300.000000034563
300.000000036111
300.000000040816
300.000000055022
300.000000100232
300.000000024202
300.000000014499
300.000000010994
300.000000009675
300.000000009197
300.000000009024
300.000000008959
300.000000008931
300.000000008917
300.000000008909
300.000000008903
300.000000008899
300.000000008895
300.000000008891
300.000000008888
300.000000008886
300.000000008883
300.000000008881
300.00000000888
300.000000008878
300.000000008877
300.000000008876
300.000000008875
300.000000008874
300.000000008873
300.000000008873
300.000000008873
300.000000008873
300.000000008873
300.000000008874
300.000000008874
300.000000008875
300.000000008876
300.000000008878
300.000000008879
300.000000008881
300.000000008884
300.000000008887
300.00000000889
300.000000008894
300.000000008899
300.000000008907
300.00000000892
300.000000008945
300.000000009001
300.000000009145
300.00000000956
300.000000010823
300.000000014656
300.000000027075
300.000000006707
300.000000004168
300.000000003257
300.000000002899
300.000000002766
300.000000002717
300.000000002696
300.000000002685
300.000000002678
300.000000002672
300.000000002667
300.000000002663
300.00000000266
300.000000002656
300.000000002653
300.000000002651
300.000000002648
300.000000002646
300.000000002644
300.000000002643
300.000000002641
300.00000000264
300.000000002639
300.000000002639
300.000000002638
300.000000002638
300.000000002638
300.000000002638
300.000000002638
300.000000002638
300.000000002639
300.00000000264
300.000000002641
300.000000002643
300.000000002644
300.000000002646
300.000000002649
300.000000002651
300.000000002655
300.000000002658
300.000000002662
300.000000002667
300.000000002674
300.000000002684
300.000000002702
300.000000002744
300.00000000286
300.000000003201
300.000000004195
300.000000007491
300.000000002159
300.000000001542
300.000000001325
300.000000001223
300.000000001181
300.000000001164
300.000000001155
300.000000001149
300.000000001143
300.000000001138
300.000000001134
300.00000000113
300.000000001126
300.000000001123
300.00000000112
300.000000001117
300.000000001115
300.000000001113
300.000000001111
300.000000001109
300.000000001108
300.000000001107
300.000000001106
300.000000001105
300.000000001104
300.000000001104
300.000000001104
300.000000001104
300.000000001104
300.000000001105
300.000000001105
300.000000001106
300.000000001107
300.000000001109
300.000000001111
300.000000001113
300.000000001115
300.000000001118
300.000000001121
300.000000001124
300.000000001128
300.000000001133
300.000000001138
300.000000001144
300.000000001152
300.000000001167
300.000000001207
300.000000001305
300.000000001541
300.000000002362
300.000000001
300.000000000888
300.000000000853
300.000000000817
300.000000000799
300.00000000079
300.000000000784
300.000000000779
300.000000000774
300.000000000769
300.000000000765
300.000000000761
300.000000000757
300.000000000754
300.000000000751
300.000000000748
300.000000000746
300.000000000743
300.000000000742
300.00000000074
300.000000000739
300.000000000737
300.000000000737
300.000000000736
300.000000000735
300.000000000735
300.000000000735
300.000000000735
300.000000000735
300.000000000736
300.000000000736
300.000000000737
300.000000000738
300.00000000074
300.000000000742
300.000000000744
300.000000000746
300.000000000749
300.000000000752
300.000000000755
300.000000000759
300.000000000763
300.000000000768
300.000000000773
300.000000000778
300.000000000787
300.000000000807
300.000000000844
300.000000000881
300.000000001046
300.000000000711
300.000000000728
300.00000000074
300.000000000721
300.000000000708
300.000000000702
300.000000000697
300.000000000692
300.000000000687
300.000000000682
300.000000000678
300.000000000674
300.00000000067
300.000000000667
300.000000000664
300.000000000661
300.000000000658
300.000000000656
300.000000000655
300.000000000653
300.000000000652
300.00000000065
300.000000000649
300.000000000649
300.000000000648
300.000000000648
300.000000000648
300.000000000648
300.000000000648
300.000000000649
300.000000000649
300.00000000065
300.000000000651
300.000000000653
300.000000000655
300.000000000657
300.000000000659
300.000000000662
300.000000000665
300.000000000668
300.000000000672
300.000000000676
300.00000000068
300.000000000685
300.00000000069
300.000000000698
300.000000000712
300.000000000733
300.00000000072
300.000000000715
300.00000000064
300.00000000069
300.000000000713
300.000000000698
300.000000000687
300.000000000681
300.000000000676
300.000000000671
300.000000000666
300.000000000662
300.000000000657
300.000000000653
300.00000000065
300.000000000646
300.000000000643
300.000000000641
300.000000000638
300.000000000636
300.000000000634
300.000000000633
300.000000000631
300.00000000063
300.000000000629
300.000000000629
300.000000000628
300.000000000628
300.000000000628
300.000000000628
300.000000000628
300.000000000628
300.000000000629
300.00000000063
300.000000000631
300.000000000633
300.000000000634
300.000000000636
300.000000000639
300.000000000642
300.000000000645
300.000000000648
300.000000000652
300.000000000656
300.00000000066
300.000000000665
300.00000000067
300.000000000677
300.000000000691
300.000000000708
300.000000000682
300.000000000633
300.000000000623
300.000000000681
300.000000000707
300.000000000693
300.000000000683
300.000000000677
300.000000000672
300.000000000667
300.000000000662
300.000000000657
300.000000000653
300.000000000649
300.000000000645
300.000000000642
300.000000000639
300.000000000636
300.000000000634
300.000000000632
300.00000000063
300.000000000628
300.000000000627
300.000000000626
300.000000000625
300.000000000624
300.000000000624
300.000000000623
300.000000000623
300.000000000623
300.000000000623
300.000000000624
300.000000000625
300.000000000626
300.000000000627
300.000000000628
300.00000000063
300.000000000632
300.000000000634
300.000000000637
300.00000000064
300.000000000643
300.000000000647
300.000000000651
300.000000000656
300.00000000066
300.000000000665
300.000000000672
300.000000000686
300.000000000702
300.000000000673
300.000000000614
300.00000000062
300.00000000068
300.000000000706
300.000000000693
300.000000000682
300.000000000676
300.00000000067
300.000000000665
300.00000000066
300.000000000656
300.000000000651
300.000000000647
300.000000000644
300.00000000064
300.000000000637
300.000000000635
300.000000000632
300.00000000063
300.000000000629
300.000000000627
300.000000000626
300.000000000624
300.000000000624
300.000000000623
300.000000000622
300.000000000622
300.000000000622
300.000000000622
300.000000000622
300.000000000623
300.000000000623
300.000000000624
300.000000000626
300.000000000627
300.000000000629
300.000000000631
300.000000000633
300.000000000636
300.000000000639
300.000000000642
300.000000000646
300.00000000065
300.000000000655
300.000000000659
300.000000000664
300.000000000672
300.000000000685
300.000000000702
300.000000000672
300.00000000061
300.00000000062
300.00000000068
300.000000000707
300.000000000693
300.000000000682
300.000000000675
300.00000000067
300.000000000665
300.00000000066
300.000000000655
300.000000000651
300.000000000647
300.000000000643
300.00000000064
300.000000000637
300.000000000634
300.000000000632
300.00000000063
300.000000000628
300.000000000626
300.000000000625
300.000000000624
300.000000000623
300.000000000622
300.000000000622
300.000000000622
300.000000000621
300.000000000621
300.000000000622
300.000000000622
300.000000000623
300.000000000624
300.000000000625
300.000000000626
300.000000000628
300.00000000063
300.000000000632
300.000000000635
300.000000000638
300.000000000642
300.000000000646
300.00000000065
300.000000000654
300.000000000659
300.000000000664
300.000000000672
300.000000000686
300.000000000702
300.000000000673
300.00000000061
300.000000000621
300.000000000682
300.000000000707
300.000000000693
300.000000000682
300.000000000675
300.000000000669
300.000000000664
300.000000000659
300.000000000654
300.00000000065
300.000000000646
300.000000000642
300.000000000639
300.000000000636
300.000000000633
300.000000000631
300.000000000629
300.000000000627
300.000000000626
300.000000000625
300.000000000623
300.000000000623
300.000000000622
300.000000000621
300.000000000621
300.000000000621
300.000000000621
300.000000000621
300.000000000622
300.000000000622
300.000000000623
300.000000000624
300.000000000626
300.000000000628
300.00000000063
300.000000000632
300.000000000635
300.000000000638
300.000000000641
300.000000000645
300.000000000649
300.000000000654
300.000000000659
300.000000000664
300.000000000672
300.000000000686
300.000000000703
300.000000000675
300.000000000612
300.000000000623
300.000000000683
300.000000000708
300.000000000693
300.000000000682
300.000000000675
300.000000000669
300.000000000663
300.000000000658
300.000000000653
300.000000000649
300.000000000645
300.000000000641
300.000000000638
300.000000000635
300.000000000633
300.00000000063
300.000000000628
300.000000000627
300.000000000625
300.000000000624
300.000000000623
300.000000000622
300.000000000621
300.000000000621
300.000000000621
300.00000000062
300.000000000621
300.000000000621
300.000000000621
300.000000000622
300.000000000623
300.000000000624
300.000000000625
300.000000000627
300.000000000629
300.000000000631
300.000000000634
300.000000000637
300.00000000064
300.000000000644
300.000000000649
300.000000000653
300.000000000659
300.000000000664
300.000000000672
300.000000000687
300.000000000705
300.000000000676
300.000000000614
300.000000000625
300.000000000686
300.00000000071
300.000000000694
300.000000000682
300.000000000674
300.000000000668
300.000000000662
300.000000000657
300.000000000652
300.000000000648
300.000000000644
300.00000000064
300.000000000637
300.000000000634
300.000000000632
300.000000000629
300.000000000627
300.000000000626
300.000000000624
300.000000000623
300.000000000622
300.000000000621
300.000000000621
300.00000000062
300.00000000062
300.00000000062
300.00000000062
300.00000000062
300.000000000621
300.000000000621
300.000000000622
300.000000000623
300.000000000625
300.000000000626
300.000000000628
300.00000000063
300.000000000633
300.000000000636
300.00000000064
300.000000000644
300.000000000648
300.000000000653
300.000000000658
300.000000000664
300.000000000673
300.000000000688
300.000000000706
300.000000000679
300.000000000616
300.000000000628
300.000000000688
300.000000000711
300.000000000695
300.000000000682
300.000000000674
300.000000000667
300.000000000661
300.000000000656
300.000000000651
300.000000000646
300.000000000642
300.000000000639
300.000000000636
300.000000000633
300.000000000631
300.000000000628
300.000000000626
300.000000000625
300.000000000623
300.000000000622
300.000000000621
300.00000000062
300.00000000062
300.000000000619
300.000000000619
300.000000000619
300.000000000619
300.000000000619
300.00000000062
300.00000000062
300.000000000621
300.000000000622
300.000000000624
300.000000000625
300.000000000627
300.000000000629
300.000000000632
300.000000000635
300.000000000639
300.000000000643
300.000000000647
300.000000000652
300.000000000658
300.000000000664
300.000000000673
300.000000000689
300.000000000708
300.000000000682
300.000000000619
300.000000000631
300.000000000691
300.000000000713
300.000000000695
300.000000000681
300.000000000673
300.000000000666
300.00000000066
300.000000000654
300.000000000649
300.000000000645
300.000000000641
300.000000000637
300.000000000634
300.000000000632
300.000000000629
300.000000000627
300.000000000625
300.000000000624
300.000000000622
300.000000000621
300.00000000062
300.000000000619
300.000000000619
300.000000000618
300.000000000618
300.000000000618
300.000000000618
300.000000000618
300.000000000619
300.000000000619
300.00000000062
300.000000000621
300.000000000623
300.000000000624
300.000000000626
300.000000000628
300.000000000631
300.000000000634
300.000000000637
300.000000000641
300.000000000646
300.000000000651
300.000000000657
300.000000000664
300.000000000673
300.00000000069
300.000000000711
300.000000000686
300.000000000623
300.000000000635
300.000000000695
300.000000000716
300.000000000696
300.000000000681
300.000000000672
300.000000000665
300.000000000659
300.000000000653
300.000000000648
300.000000000643
300.000000000639
300.000000000636
300.000000000633
300.00000000063
300.000000000628
300.000000000626
300.000000000624
300.000000000622
300.000000000621
300.00000000062
300.000000000619
300.000000000618
300.000000000618
300.000000000617
300.000000000617
300.000000000617
300.000000000617
300.000000000617
300.000000000618
300.000000000618
300.000000000619
300.00000000062
300.000000000621
300.000000000623
300.000000000625