/*--------------------------------*- C++ -*----------------------------------*\
  =========                 |
  \\      /  F ield         | OpenFOAM: The Open Source CFD Toolbox
   \\    /   O peration     | Website:  https://openfoam.org
    \\  /    A nd           | Version:  10
     \\/     M anipulation  |
\*---------------------------------------------------------------------------*/
FoamFile
{
    format      ascii;
    class       volVectorField;
    location    "4.4";
    object      U;
}
// * * * * * * * * * * * * * * * * * * * * * * * * * * * * * * * * * * * * * //

dimensions      [0 1 -1 0 0 0 0];

internalField   nonuniform List<vector> 
2500
(
(-1.62245770633188e-06 -5.91629772704895e-06 1.06118747656513e-24)
(-3.81818544164141e-06 -7.53230239080208e-06 8.42580491041445e-24)
(-3.11488320208901e-06 -7.87661839141086e-06 1.32503688372911e-24)
(-2.23312649481113e-06 -7.94817353746157e-06 7.32235217812767e-25)
(-1.4033404963498e-06 -7.90272838140583e-06 2.32998682786914e-24)
(-8.85581067167051e-07 -7.8498226698345e-06 3.03818897891771e-25)
(-5.6317740441423e-07 -7.80972488569206e-06 2.48454757496456e-25)
(-3.65113393802764e-07 -7.78424379847337e-06 2.6280650177587e-25)
(-2.42036020251537e-07 -7.7700665119879e-06 4.06444478100156e-25)
(-1.60650391794689e-07 -7.7625653170596e-06 7.66769990662054e-24)
(-1.04372563696032e-07 -7.75882802928829e-06 2.7234405017511e-24)
(-6.34457933750799e-08 -7.75698622595955e-06 9.95277147124184e-24)
(-3.23359683905791e-08 -7.75604443914015e-06 8.754357437148e-24)
(-7.97069718603242e-09 -7.7555362266201e-06 2.13737882446294e-24)
(1.15478735259544e-08 -7.75524103562107e-06 9.9826258677585e-24)
(2.74014376678949e-08 -7.75505243900645e-06 1.89131238598266e-24)
(4.03788911042121e-08 -7.75493415285943e-06 9.16237048280909e-24)
(5.1036432116015e-08 -7.75485036614599e-06 9.94350728205713e-24)
(5.9792224969494e-08 -7.75480818691481e-06 2.27036456589435e-24)
(6.69696668507526e-08 -7.75477990340803e-06 8.50668503379586e-24)
(7.2840064235606e-08 -7.7547752891608e-06 1.24215825898618e-24)
(7.76287554810581e-08 -7.75478230465653e-06 3.71426300383631e-25)
(8.15317910714822e-08 -7.75479807426319e-06 8.37434988495008e-24)
(8.47252134498886e-08 -7.7548253559255e-06 9.9621327897343e-25)
(8.73692395054402e-08 -7.75485585925636e-06 4.68891068116914e-25)
(8.96257625626096e-08 -7.75489188778269e-06 1.02276947406656e-23)
(9.16446278822234e-08 -7.75493924295516e-06 6.20287833827925e-25)
(9.3575676007795e-08 -7.75498577222338e-06 8.3397671817329e-25)
(9.55846535720412e-08 -7.75504229384256e-06 7.13103645509251e-24)
(9.78390288223357e-08 -7.75509677895334e-06 -4.70793857205359e-26)
(1.00521105505408e-07 -7.75516576002255e-06 2.74588834685154e-25)
(1.03850442426636e-07 -7.75524311434698e-06 -1.04677331052824e-24)
(1.08087368677104e-07 -7.75532765812009e-06 5.36763467324633e-25)
(1.13532454054689e-07 -7.75543785731449e-06 6.26266428261261e-25)
(1.2060363853046e-07 -7.75557730822404e-06 1.1049621419366e-25)
(1.29866677208487e-07 -7.75578338238723e-06 7.86283990333714e-24)
(1.42113384313803e-07 -7.75609086818664e-06 -1.03060332392885e-23)
(1.58537470340954e-07 -7.75661757580444e-06 -9.36167113297455e-25)
(1.810460751752e-07 -7.75758875683359e-06 -6.52567021243166e-26)
(2.12744513707626e-07 -7.7594925592216e-06 -4.64272760754758e-24)
(2.59165378586447e-07 -7.76331400380703e-06 -9.44586874111082e-24)
(3.30181101450633e-07 -7.77086386993092e-06 -9.09505299945702e-24)
(4.42181227662354e-07 -7.78493122720107e-06 -4.50543003641792e-24)
(6.29014631556505e-07 -7.81005693724422e-06 -9.83280610479292e-24)
(9.39822729290345e-07 -7.84954552134323e-06 -9.6202521075673e-24)
(1.44851994450449e-06 -7.90251461114516e-06 -5.2525297631789e-24)
(2.27567318822861e-06 -7.94996943124548e-06 -1.08068821120154e-23)
(3.17541133936888e-06 -7.88007832690383e-06 -9.29205811412719e-24)
(3.89277569126261e-06 -7.52200619368024e-06 -4.51635763918254e-24)
(1.65235724218501e-06 -5.89590707220501e-06 -7.42195143363872e-24)
(-1.34536540381373e-06 -7.5432215725407e-06 1.07449377009404e-24)
(-5.97798745701746e-06 -1.04926540097637e-05 1.9499061880098e-24)
(-5.22581306794726e-06 -1.18252019553321e-05 1.62819564522138e-24)
(-3.98375394495607e-06 -1.19601181286678e-05 1.49389536728614e-24)
(-2.68242149408776e-06 -1.16976920235978e-05 3.57714604336206e-24)
(-1.81596927880077e-06 -1.14171593474181e-05 -1.25616808237842e-24)
(-1.25193702511261e-06 -1.12225969091273e-05 3.83512797196351e-25)
(-8.86341380177616e-07 -1.11032107325281e-05 2.61983622105735e-25)
(-6.4529760796216e-07 -1.10351731661975e-05 -2.30001271689063e-24)
(-4.76072870874094e-07 -1.09971080558382e-05 1.98721993287509e-24)
(-3.51835775498718e-07 -1.09756509059535e-05 5.56000000290108e-24)
(-2.56711773865385e-07 -1.09630632903058e-05 6.73095302703972e-24)
(-1.81325575661491e-07 -1.09552057489731e-05 2.20574799971557e-24)
(-1.20206518817926e-07 -1.09499582019794e-05 3.93187059845848e-24)
(-6.97734548878423e-08 -1.09462256865194e-05 2.1347923783952e-24)
(-2.76590011636049e-08 -1.09434491017079e-05 2.00063692001377e-24)
(7.81286334798478e-09 -1.09413148400568e-05 5.84350400348065e-24)
(3.78667916467252e-08 -1.09396446129767e-05 3.74387671446961e-24)
(6.3451338340532e-08 -1.09383402359902e-05 2.19594643618544e-24)
(8.53260441530613e-08 -1.09373115774068e-05 2.31460263872328e-24)
(1.04123327209859e-07 -1.09365152322273e-05 1.02322247257021e-24)
(1.20390123702741e-07 -1.09359157510742e-05 -2.04673122235871e-24)
(1.34593972256382e-07 -1.09354961543447e-05 4.51519791942859e-24)
(1.47171434346474e-07 -1.09352231179954e-05 9.82949616095749e-25)
(1.58523266362995e-07 -1.093508712074e-05 -1.99154280249382e-24)
(1.6903672180939e-07 -1.09350929795061e-05 4.82371011108232e-24)
(1.79099715878197e-07 -1.09352318264753e-05 -1.03409172015301e-24)
(1.8909170570849e-07 -1.09355059360965e-05 2.50063715677062e-24)
(1.99420631413681e-07 -1.09359199496252e-05 3.1390268296218e-24)
(2.10510657875609e-07 -1.09364857752661e-05 -2.52136642397699e-24)
(2.22823927000043e-07 -1.09372346475493e-05 1.73939091664414e-24)
(2.36910976147849e-07 -1.09381894929531e-05 -4.11659494928752e-24)
(2.53393314565289e-07 -1.093938333904e-05 3.10167503365999e-24)
(2.73010519225179e-07 -1.09409163291804e-05 3.1387534257001e-24)
(2.96722380248838e-07 -1.09428919686232e-05 -2.29687059046401e-24)
(3.25786692954169e-07 -1.09454971397049e-05 3.39910888378154e-24)
(3.61894870245336e-07 -1.09490392617272e-05 -4.35368393097358e-24)
(4.07441465639592e-07 -1.09541091887355e-05 -7.39903959616371e-25)
(4.66034304484798e-07 -1.09618217801595e-05 1.48731484648993e-24)
(5.43213095656404e-07 -1.0974347985227e-05 -1.26776381726569e-23)
(6.48396931263285e-07 -1.09958448533163e-05 -7.77307877364432e-24)
(7.97735085814991e-07 -1.10339942796946e-05 -6.94089269004373e-24)
(1.01784056117046e-06 -1.11020458407319e-05 -1.08990548907483e-23)
(1.36250690333623e-06 -1.122136467169e-05 -7.1651290825028e-24)
(1.905133349947e-06 -1.14162358096573e-05 -7.44048535176978e-24)
(2.75478834218753e-06 -1.17004365666059e-05 -1.35294851108638e-23)
(4.05136357309578e-06 -1.19744572212447e-05 -7.47758602356453e-24)
(5.33017722600877e-06 -1.18459934607263e-05 -7.27863669697996e-24)
(6.1217984547317e-06 -1.04684574923687e-05 -1.10054914627802e-23)
(1.40975243103785e-06 -7.46384974303955e-06 -4.73646157387524e-24)
(5.08188193058333e-08 1.17638667736668e-08 4.60716730969858e-25)
(-4.6907964243037e-06 -1.83422995956114e-06 -5.4966903356271e-24)
(-4.47512487050104e-06 -4.0594759093719e-06 9.86258375470691e-25)
(-3.76591296100911e-06 -4.34845193964246e-06 5.94623514472067e-25)
(-2.78590195666596e-06 -3.98783392239726e-06 -5.29230121701876e-24)
(-2.0575894357866e-06 -3.57104278051456e-06 -7.57324948029495e-24)
(-1.53739028071172e-06 -3.27869096913788e-06 7.09345647510875e-27)
(-1.16767527187721e-06 -3.09702384255586e-06 -1.07929021055621e-25)
(-9.034315207288e-07 -2.98989268039191e-06 -8.29218059447629e-24)
(-7.04859350993311e-07 -2.92635248654946e-06 -5.47750102030181e-24)
(-5.51084728385561e-07 -2.88748162144906e-06 9.98133519415401e-24)
(-4.28642479812285e-07 -2.86251090279832e-06 3.86997224671082e-24)
(-3.28826697174337e-07 -2.84555758901943e-06 -5.37175601504016e-24)
(-2.46141940754684e-07 -2.83344346948519e-06 6.04772595812673e-24)
(-1.76728457825147e-07 -2.8244002402921e-06 -5.45003394984364e-24)
(-1.17865749184424e-07 -2.81743413564008e-06 1.27935700660008e-24)
(-6.7539395732893e-08 -2.81194187153937e-06 2.90201142331879e-24)
(-2.42255680127218e-08 -2.80756244546504e-06 -4.56646852919488e-24)
(1.32837025601145e-08 -2.80404114693169e-06 8.91149746557553e-25)
(4.59728311143782e-08 -2.80122405404152e-06 -6.03272464901522e-24)
(7.4670074504563e-08 -2.79898088851865e-06 -1.22460932246592e-27)
(1.00085859301246e-07 -2.79724463283664e-06 -7.44838004851295e-24)
(1.22860551591935e-07 -2.79595460657078e-06 1.87226472544057e-24)
(1.43580908260467e-07 -2.79505963619229e-06 4.4867603256459e-25)
(1.62777315477199e-07 -2.79453955015886e-06 -5.58588764096356e-24)
(1.80982804333806e-07 -2.79438640102661e-06 1.44489610834955e-24)
(1.98719186126535e-07 -2.79458911241151e-06 -5.77057716747953e-24)
(2.16505687692275e-07 -2.79515543753678e-06 7.10181347353913e-24)
(2.34892405708513e-07 -2.79610646927777e-06 1.17362889078394e-24)
(2.54456616751865e-07 -2.79747663226518e-06 -7.65401189245739e-24)
(2.75834750316332e-07 -2.79931561640152e-06 5.86752987034555e-24)
(2.99753693359547e-07 -2.80170203129189e-06 -9.37272323041191e-24)
(3.27038428036244e-07 -2.80474032134755e-06 8.34626077568865e-24)
(3.58669770907488e-07 -2.8085953936713e-06 8.27700976864576e-24)
(3.95884881161944e-07 -2.81352781326149e-06 -7.3658806187241e-24)
(4.40238852467908e-07 -2.8199064280914e-06 4.86469943636044e-25)
(4.93766007991823e-07 -2.82833658002929e-06 -1.61599221238193e-24)
(5.59213128709219e-07 -2.83983297153395e-06 -1.81415869125477e-26)
(6.4046755740141e-07 -2.856184613441e-06 7.08673932278724e-24)
(7.43082156093963e-07 -2.8806459077814e-06 -1.32721330935378e-23)
(8.75772730248018e-07 -2.9191556650294e-06 -4.85967804330697e-24)
(1.05229607375092e-06 -2.9825786952781e-06 -4.10430675273794e-24)
(1.29330394740308e-06 -3.08997003120566e-06 -1.22794085028355e-23)
(1.63985078360547e-06 -3.27269166158878e-06 -4.19286491734184e-24)
(2.13637879180025e-06 -3.56794722527557e-06 -4.60651166737312e-24)
(2.84607663346637e-06 -3.99410038792956e-06 -1.55385219901093e-23)
(3.81990000637888e-06 -4.37758554055939e-06 -4.4062896880721e-24)
(4.565493340172e-06 -4.10388190721019e-06 -4.52926178307844e-24)
(4.84668873907867e-06 -1.81632039093198e-06 -1.39386129621119e-23)
(3.74201451137883e-08 1.28200197477471e-07 -2.67317166230674e-24)
(2.57621505848897e-07 5.59267965580695e-06 9.51198751665043e-25)
(-2.54301495066339e-06 4.7598449311205e-06 -3.40401663078197e-24)
(-2.84058993537248e-06 1.44373819078681e-06 1.46882880481093e-24)
(-2.79380477236685e-06 6.72496844918454e-07 5.52672400898986e-25)
(-2.35790122974793e-06 8.53181377582218e-07 -1.81205013461453e-24)
(-1.9287631654889e-06 1.23061077485561e-06 -1.77211454079663e-24)
(-1.56069684952231e-06 1.53010447159481e-06 5.01977775711068e-25)
(-1.25802856317912e-06 1.73164744876778e-06 5.1334490831639e-25)
(-1.01896334071738e-06 1.85988481905361e-06 -2.0277564741667e-24)
(-8.26082039280514e-07 1.94194168053006e-06 -2.57021023071188e-24)
(-6.69557730430182e-07 1.99598475662726e-06 4.47927494399333e-24)
(-5.41051745462836e-07 2.03299720605926e-06 1.29105678314074e-24)
(-4.34137476114867e-07 2.05940386363213e-06 -2.77886640190371e-24)
(-3.44288753398943e-07 2.07895795065943e-06 3.00452878112024e-24)
(-2.68014956334972e-07 2.09389089216676e-06 -2.74815479677248e-24)
(-2.02711224529699e-07 2.10558949377647e-06 1.45575234497332e-24)
(-1.46367818152478e-07 2.11490681645521e-06 4.14314638234266e-25)
(-9.74109232610807e-08 2.12240520177067e-06 -1.25252075477191e-24)
(-5.45783512882818e-08 2.12847081823581e-06 1.62555192563794e-24)
(-1.68184725536043e-08 2.13335941988656e-06 -2.03747356834543e-24)
(1.67603508206273e-08 2.1372523359696e-06 9.65124778672313e-25)
(4.6927952567745e-08 2.14029409962931e-06 -1.76190856068515e-24)
(7.43792777921531e-08 2.14257452586257e-06 -5.86582055992677e-26)
(9.97542089471746e-08 2.14416458216142e-06 8.89509427494621e-25)
(1.23645529345242e-07 2.14509901533799e-06 -1.81589981391906e-24)
(1.46629800586512e-07 2.14540188084222e-06 5.64687307722277e-25)
(1.69282325900065e-07 2.14507839315267e-06 -1.09395761971631e-24)
(1.92173296607991e-07 2.14411753660559e-06 1.93210280826859e-24)
(2.15901549563943e-07 2.14248228844152e-06 -6.28150813101475e-26)
(2.41108516455064e-07 2.14011733149684e-06 -2.38414915277314e-24)
(2.68487277939594e-07 2.1369300844357e-06 1.42361404550226e-24)
(2.98818084452275e-07 2.13279722017967e-06 -3.97624651846815e-24)
(3.33001475647089e-07 2.1275438150323e-06 2.56468926460361e-24)
(3.7209107322729e-07 2.12091506805616e-06 2.64318487636251e-24)
(4.17368394754443e-07 2.11251118028832e-06 -2.39515395120349e-24)
(4.70429385427398e-07 2.10176711962985e-06 -7.18008929041221e-25)
(5.33300823616459e-07 2.08781070485926e-06 1.10298420171769e-24)
(6.08601702058507e-07 2.06927853082163e-06 -2.21760784705387e-25)
(6.99818240166045e-07 2.04390466346833e-06 2.44910199226462e-24)
(8.11498024664931e-07 2.00787518563027e-06 -4.44228967223052e-24)
(9.50005100398154e-07 1.95470706622613e-06 -1.23226886951371e-24)
(1.12386204736808e-06 1.87327862652351e-06 1.25776079781247e-25)
(1.34253902041553e-06 1.74512991238128e-06 -3.44896919502646e-24)
(1.62458135777483e-06 1.54235274368844e-06 -1.71527189704813e-25)
(1.97096797800719e-06 1.23824689084889e-06 2.02299743122153e-26)
(2.38252187003733e-06 8.45889506811462e-07 -5.14444988887731e-24)
(2.81085770952723e-06 6.29512918431998e-07 2.73395565296597e-26)
(2.88351492689859e-06 1.3697240086012e-06 -3.09845082887165e-25)
(2.65384551273497e-06 4.76157574899897e-06 -4.28902124983909e-24)
(-1.84030035303591e-07 5.69653533444317e-06 9.11817960118461e-25)
(2.10437353542254e-08 8.15552157901075e-06 1.3835759119597e-24)
(-9.29473255168504e-07 7.5404498585486e-06 2.65354246799901e-24)
(-1.5433371183321e-06 3.50708148952112e-06 1.85197309601097e-24)
(-1.90466846148105e-06 2.26742936486962e-06 5.48608232274059e-25)
(-1.87783638451341e-06 2.21359869628798e-06 -5.29772708037248e-26)
(-1.69306902265946e-06 2.49949108772028e-06 8.29027597889523e-25)
(-1.46653183098772e-06 2.77839960919081e-06 7.07170182908982e-25)
(-1.23924158602954e-06 2.9865361496236e-06 8.20322930073254e-25)
(-1.03989105833879e-06 3.12966703871098e-06 1.12275258312965e-24)
(-8.6796501953167e-07 3.227121993092e-06 1.47153169138314e-24)
(-7.2263289850586e-07 3.29464769894056e-06 1.8595749294113e-24)
(-6.00175807014785e-07 3.34276400773519e-06 2.12453600749101e-24)
(-4.96524485597179e-07 3.37809677057419e-06 1.38273403798163e-24)
(-4.08367550988535e-07 3.40480101721426e-06 1.26653537405516e-24)
(-3.32846821984487e-07 3.42549193889694e-06 1.30006637996176e-24)
(-2.67693001296658e-07 3.44184397072747e-06 1.73891313383086e-24)
(-2.11088384499335e-07 3.45494855392013e-06 2.24116298389702e-24)
(-1.61555108982056e-07 3.46554092498596e-06 2.25667005374198e-24)
(-1.17885270362645e-07 3.47411868491058e-06 2.13107774464105e-24)
(-7.90643211692661e-08 3.48104720359974e-06 1.91077559847331e-24)
(-4.42089664658474e-08 3.48656736546031e-06 1.61968202600638e-24)
(-1.25621599508141e-08 3.49086837181754e-06 1.07861703450517e-24)
(1.65633638633299e-08 3.49408257160723e-06 1.73738846309894e-24)
(4.38090865673584e-08 3.49629717740785e-06 1.21759664102529e-24)
(6.97626048556738e-08 3.49757782427219e-06 1.09571741720504e-24)
(9.5004667090183e-08 3.49794462256789e-06 1.73299476911335e-24)
(1.20103134761938e-07 3.49741244872636e-06 8.09200173493735e-25)
(1.45630003210005e-07 3.49594956445787e-06 2.18559353843442e-26)
(1.72181959893098e-07 3.49352024703114e-06 7.48676698069391e-25)
(2.00391697838655e-07 3.49003923167135e-06 1.74709019129747e-25)
(2.30952855386969e-07 3.4853770098162e-06 -3.17259740360311e-25)
(2.6463122229179e-07 3.47936493370524e-06 -1.20795092524324e-24)
(3.02304866935841e-07 3.47176688586977e-06 -2.66946021207984e-25)
(3.44996913880162e-07 3.46222161714117e-06 -6.65957149750504e-26)
(3.93927797584969e-07 3.45021819565426e-06 5.22500644495973e-26)
(4.50575445687892e-07 3.4350301390838e-06 5.03519290815874e-25)
(5.16774242387445e-07 3.41554293999931e-06 -4.10096948551386e-25)
(5.94785065866203e-07 3.39010477181611e-06 -5.39834864393846e-25)
(6.87430896446349e-07 3.3560781679623e-06 2.82823353648219e-25)
(7.98017339182219e-07 3.30926826963552e-06 -6.29709065893645e-26)
(9.30474096533433e-07 3.24298396099484e-06 -9.35830550428663e-25)
(1.08858966844292e-06 3.1465978768632e-06 -6.98640218270667e-25)
(1.27264479634458e-06 3.00407295189141e-06 5.03271780468492e-25)
(1.483902961576e-06 2.79519841481918e-06 -6.94048588151993e-25)
(1.6923177945209e-06 2.51130886235916e-06 -6.46392313652276e-25)
(1.86130373828543e-06 2.2070429419797e-06 -6.88518681177915e-28)
(1.87931122230069e-06 2.21530302307721e-06 -6.7544494927641e-25)
(1.53475115412238e-06 3.40986507558535e-06 -5.9295824786761e-25)
(9.73562829364947e-07 7.53062112379949e-06 4.43215753400032e-25)
(1.46765909036338e-08 8.24441827454474e-06 1.97038705822563e-25)
(-1.18344852474995e-07 8.49698568092741e-06 1.29129969889719e-24)
(-1.03875688564238e-07 7.68913228093333e-06 4.82489684635372e-24)
(-8.41411629343861e-07 3.48473976879413e-06 1.65205389598876e-24)
(-1.33464796879947e-06 1.98812404011824e-06 5.3359304700487e-25)
(-1.51272213146234e-06 1.77914306057741e-06 1.04806083333921e-24)
(-1.46887835193974e-06 1.99030409000158e-06 2.10193904347331e-24)
(-1.33913560975778e-06 2.24794631948846e-06 6.66062097084448e-25)
(-1.17241264142628e-06 2.45748522331134e-06 7.42552173905598e-25)
(-1.01084255672212e-06 2.61047078808729e-06 2.08053397452655e-24)
(-8.62873289782484e-07 2.71950164872805e-06 2.55279520669254e-24)
(-7.33123305521322e-07 2.79785306079424e-06 8.71397572522976e-26)
(-6.21141101213195e-07 2.85530470477941e-06 1.85629422373362e-24)
(-5.2477619265812e-07 2.89841590399752e-06 2.79687944568157e-24)
(-4.41834952331204e-07 2.93150794137134e-06 9.14608346712029e-26)
(-3.70141396523164e-07 2.95743504182307e-06 2.67463945235964e-24)
(-3.07839556244103e-07 2.97807551031198e-06 1.46838253821701e-24)
(-2.53361444630302e-07 2.99468949329724e-06 2.23309928210824e-24)
(-2.0539845407829e-07 3.00815274082306e-06 3.28267989198068e-24)
(-1.62846501531515e-07 3.01906807515854e-06 1.88752921318889e-24)
(-1.24759781202648e-07 3.0278758058494e-06 3.0149731845085e-24)
(-9.03189978098594e-08 3.03488819989752e-06 1.53807401273242e-24)
(-5.87990041663999e-08 3.04032321940613e-06 2.0333076145825e-24)
(-2.95476382310568e-08 3.04436165920978e-06 1.8635858923715e-24)
(-1.94902139719173e-09 3.0471067971956e-06 1.09750727920514e-24)
(2.45656832228226e-08 3.04863328807034e-06 2.38086163342602e-24)
(5.05461788963379e-08 3.04898093111395e-06 2.01056792236378e-24)
(7.65393466004038e-08 3.04815846817414e-06 1.63166479818168e-24)
(1.03095527302705e-07 3.04613646610791e-06 -9.94555040088755e-25)
(1.30788960304707e-07 3.04285276453102e-06 9.91400022827468e-25)
(1.6022153110967e-07 3.03820515565791e-06 1.37499864487501e-24)
(1.92052854296134e-07 3.03204093728235e-06 -1.28357009760106e-24)
(2.27006158958943e-07 3.0241361498766e-06 3.20681984114312e-25)
(2.65902492078173e-07 3.01420108499254e-06 -1.59832429779177e-24)
(3.09690457760496e-07 3.00179782842468e-06 -1.41669866704114e-24)
(3.59477424576658e-07 2.9863183253757e-06 1.28557869016475e-24)
(4.16563136087898e-07 2.96689135724047e-06 1.00652471123366e-24)
(4.82514486602116e-07 2.94224762608226e-06 -6.78285745070548e-25)
(5.59172143951052e-07 2.91051847477713e-06 -5.9396412882641e-25)
(6.48663979826471e-07 2.86885780508847e-06 -1.04737223130478e-24)
(7.53142298968778e-07 2.81289224596577e-06 1.8076597801797e-24)
(8.74576356440723e-07 2.73601310985342e-06 -7.85695215145262e-25)
(1.01340963669446e-06 2.62838389722877e-06 -7.03607089538115e-25)
(1.16432632955955e-06 2.47645964455105e-06 1.8920618633885e-24)
(1.31928235896346e-06 2.26682399257904e-06 -6.3033205153318e-25)
(1.43436675881109e-06 2.00446148080497e-06 -6.39748070179295e-25)
(1.46453564925094e-06 1.77314025651048e-06 1.93216958477877e-24)
(1.27725920787501e-06 1.92992077716226e-06 -7.2297056215814e-25)
(7.96278122956905e-07 3.37217848529532e-06 -6.45369697525368e-25)
(9.27646484521688e-08 7.66818113187807e-06 2.84995052796319e-24)
(1.21432568105435e-07 8.57366633049411e-06 -1.38269050250317e-25)
(-8.73215943862784e-08 7.79791136561984e-06 8.74438670423348e-25)
(1.6655791859921e-07 6.80079909968229e-06 4.02938049426402e-24)
(-5.60919710972756e-07 2.74246911348478e-06 1.09724993604079e-24)
(-1.02440870768367e-06 1.14408315999102e-06 3.23276290793526e-25)
(-1.26418157421126e-06 8.49528367021655e-07 5.84751338419405e-25)
(-1.28426654054974e-06 1.00696102248954e-06 1.13960189765022e-24)
(-1.2127940271963e-06 1.24551028403893e-06 3.93492923180951e-25)
(-1.09009343650696e-06 1.45273951764652e-06 4.44398751889844e-25)
(-9.59923694045944e-07 1.6111360358798e-06 1.36545039674441e-24)
(-8.34065232363997e-07 1.72810655867196e-06 2.02397326242024e-24)
(-7.19831126241234e-07 1.81465242231544e-06 1.35200820910956e-25)
(-6.18868241653545e-07 1.87961325825473e-06 1.80003250602181e-24)
(-5.30488626520328e-07 1.92925163563781e-06 2.33427257628278e-24)
(-4.5345635703364e-07 1.96788658783136e-06 2.46384681670942e-25)
(-3.86222685194358e-07 1.99844866271476e-06 2.2915840029678e-24)
(-3.27349618571896e-07 2.02294214404929e-06 9.78294853924158e-25)
(-2.75542670860687e-07 2.04275087274951e-06 2.02816616199442e-24)
(-2.29668096074285e-07 2.05883723782662e-06 2.67050256736141e-24)
(-1.88748244701713e-07 2.07189580531587e-06 1.22838434408977e-24)
(-1.51926041670611e-07 2.08242315141338e-06 2.45580021990694e-24)
(-1.18443706632298e-07 2.0907810745737e-06 9.7186341850695e-25)
(-8.76247477372357e-08 2.09724209375538e-06 1.36936898029607e-24)
(-5.88534584993603e-08 2.10199595721893e-06 1.63294220608619e-24)
(-3.15545288838804e-08 2.10518846159651e-06 7.11621194234561e-25)
(-5.18486599571414e-09 2.10689251616276e-06 1.402281800224e-24)
(2.07838366579872e-08 2.10716248650307e-06 1.88663085908888e-24)
(4.68652346841446e-08 2.10600238822577e-06 9.48994320410771e-25)
(7.35812897007455e-08 2.10338190905561e-06 -4.17927374637799e-25)
(1.01476661283591e-07 2.09922779582381e-06 1.25451230165762e-24)
(1.31123870841552e-07 2.09341430765147e-06 8.38062450609693e-25)
(1.63138114994084e-07 2.08575920957442e-06 -6.02420072513826e-25)
(1.98191984968689e-07 2.07601494414963e-06 2.06406674783243e-25)
(2.37043279888768e-07 2.06382766647747e-06 -9.07308143516142e-25)
(2.80547683986763e-07 2.04870422284193e-06 -8.19089724686096e-25)
(3.29682777009652e-07 2.02995241789238e-06 7.74715047132964e-25)
(3.85563792138748e-07 2.00660568412632e-06 1.23093108185813e-24)
(4.49479715546767e-07 1.97729744337319e-06 -9.93240953769991e-25)
(5.2284730675433e-07 1.94003518871195e-06 -4.10440479263118e-25)
(6.07152931643869e-07 1.89189340027811e-06 -5.35676349036758e-25)
(7.03574722160424e-07 1.82852059618118e-06 1.13249850498726e-24)
(8.12611063767599e-07 1.7436366217712e-06 -1.11521926597227e-24)
(9.32554393715391e-07 1.62837090896067e-06 -1.10029241083046e-24)
(1.05534569809474e-06 1.47150745862733e-06 1.06859757658e-24)
(1.16943357084589e-06 1.26492009760101e-06 -1.07702795086116e-24)
(1.22913828044875e-06 1.02213732601415e-06 -1.08348270462121e-24)
(1.19770426247192e-06 8.43322047185725e-07 1.14154612193308e-24)
(9.49563286341923e-07 1.08002556901912e-06 -1.31040273081613e-24)
(4.9762404319868e-07 2.61689914221148e-06 -1.45581773930804e-24)
(-2.0835077040351e-07 6.76292583839597e-06 1.82953914625344e-24)
(7.3667609261151e-08 7.85705494799572e-06 -9.4282919035008e-25)
(3.37196228002365e-09 6.92451866996854e-06 4.29039145000369e-25)
(1.70557935520818e-07 5.89659403019683e-06 1.94208617078167e-24)
(-4.74070203463896e-07 2.05892011859113e-06 5.42384889024426e-25)
(-8.54100541298318e-07 4.24206260757857e-07 1.34873663509797e-25)
(-1.08827242669198e-06 7.75135094490749e-08 -7.32337184338733e-26)
(-1.1326226902586e-06 1.91670563377713e-07 5.51920914687798e-25)
(-1.09576394138109e-06 4.09918164703545e-07 1.94203432897531e-25)
(-1.0050894668167e-06 6.10344718292491e-07 2.22533542973095e-25)
(-9.00355954398655e-07 7.69634812364907e-07 7.10812547383599e-25)
(-7.93771254624043e-07 8.90990556974879e-07 9.88637856749014e-25)
(-6.93699913597522e-07 9.83174126297967e-07 5.64465335008602e-27)
(-6.03104822944801e-07 1.05387271166518e-06 7.35102440960416e-25)
(-5.22369871071849e-07 1.10882293967212e-06 1.05527762481089e-24)
(-4.51050445205459e-07 1.15215719135802e-06 1.02982583325828e-25)
(-3.88166770002503e-07 1.18677327607989e-06 1.02126542912566e-24)
(-3.32656315078987e-07 1.2147032495389e-06 4.73712062996971e-25)
(-2.83490001749234e-07 1.23739150647235e-06 8.70788433114334e-25)
(-2.39719310178442e-07 1.25586924526808e-06 1.21382487909962e-24)
(-2.00486794503352e-07 1.27088531696675e-06 6.0072969674924e-25)
(-1.65026571227878e-07 1.28298644853382e-06 1.11248362872714e-24)
(-1.32645361548603e-07 1.29258415395809e-06 4.74055256545382e-25)
(-1.02717625429094e-07 1.29997652576858e-06 6.90458501780923e-25)
(-7.46671987911004e-08 1.30538147005055e-06 7.76691703694491e-25)
(-4.79492166137637e-08 1.30895214901729e-06 3.41832030682022e-25)
(-2.20533685557994e-08 1.3107919454559e-06 6.94886718122935e-25)
(3.51937427418294e-09 1.31095109301337e-06 8.18374303159245e-25)
(2.92578214142615e-08 1.30943498497923e-06 5.09474786191786e-25)
(5.56606902748085e-08 1.30620896728044e-06 -2.03983801724617e-25)
(8.32415394408931e-08 1.30119116607841e-06 5.01880309221719e-25)
(1.12534870711231e-07 1.29424012732802e-06 4.39450747354438e-25)
(1.44122018520916e-07 1.28514578644672e-06 -2.67520659039643e-25)
(1.78620719999802e-07 1.2736356807084e-06 1.62658551114244e-25)
(2.16717715675767e-07 1.25931236976475e-06 -4.64861267017732e-25)
(2.59180792268966e-07 1.24163352368326e-06 -4.33042151839252e-25)
(3.0685880241305e-07 1.21985778789905e-06 4.14660776122128e-25)
(3.60689523932802e-07 1.1929569196231e-06 4.89336265057792e-25)
(4.21687673648767e-07 1.15951061140549e-06 -3.64070696886994e-25)
(4.90881531925739e-07 1.117500520491e-06 -1.9762307386199e-25)
(5.6919624136914e-07 1.06404368139997e-06 -2.33249915251857e-25)
(6.57014523449732e-07 9.94997662261285e-07 9.46764553790664e-25)
(7.5375234827695e-07 9.04632344743194e-07 -3.88650147658258e-25)
(8.56375160460872e-07 7.85281455392736e-07 -3.92017944243111e-25)
(9.55821835269555e-07 6.28011955145368e-07 9.00906643896675e-25)
(1.04005712948974e-06 4.2897109950943e-07 -3.89452794533892e-25)
(1.06753841909194e-06 2.06947658011348e-07 -3.85792991153331e-25)
(1.01426534345097e-06 7.03063664240912e-08 9.97300372458558e-25)
(7.73406276159525e-07 3.53769723491095e-07 -4.89072681489472e-25)
(4.0573117423654e-07 1.92037138960801e-06 -4.88522946052543e-25)
(-2.22557015404618e-07 5.83641854260914e-06 1.78514149634518e-24)
(-2.17184214029843e-08 6.95783176665564e-06 -2.80719400177288e-25)
(6.9032941062307e-08 6.24987817772917e-06 2.07280165081424e-25)
(9.3501281799605e-08 5.31881766339907e-06 1.21501820072648e-24)
(-4.42885362804687e-07 1.6542381431687e-06 2.63148895931184e-25)
(-7.42321193297407e-07 -2.05331634800657e-09 9.48237183781288e-26)
(-9.50157958416458e-07 -3.89829173894126e-07 2.425008868675e-25)
(-1.00282592246393e-06 -3.1468955572421e-07 4.78223678540959e-25)
(-9.87725999778086e-07 -1.18852911012023e-07 1.17073973009699e-25)
(-9.21209013291513e-07 7.09239644304788e-08 1.24700727301991e-25)
(-8.37277360148045e-07 2.2733919602857e-07 5.75498540509654e-25)
(-7.47402255471823e-07 3.50065284106185e-07 5.49163975710263e-25)
(-6.60088802482334e-07 4.45654665014988e-07 -2.49252419255172e-25)
(-5.7908714143272e-07 5.20503446048147e-07 2.54084719756342e-25)
(-5.05567336501753e-07 5.79659687312462e-07 6.64542894316289e-25)
(-4.39714072975527e-07 6.26910348521653e-07 -1.63096613742629e-25)
(-3.81029031596369e-07 6.65025813202786e-07 6.45737627551043e-25)
(-3.28800434747824e-07 6.95996531833022e-07 2.12481282450066e-25)
(-2.8223873584396e-07 7.21279724930347e-07 3.48682806720815e-25)
(-2.40563981208037e-07 7.41933449244208e-07 7.35104289365888e-25)
(-2.03046426616941e-07 7.58749811710791e-07 2.91961078081833e-25)
(-1.69004365884525e-07 7.72305002017332e-07 7.1869563356077e-25)
(-1.37811622558686e-07 7.83048472250975e-07 2.39409100157249e-25)
(-1.08895039112007e-07 7.91296456530299e-07 5.32065796393132e-25)
(-8.17176269970177e-08 7.97296353481704e-07 2.96118379628323e-25)
(-5.57680598319292e-08 8.01210741673434e-07 1.60986166832613e-25)
(-3.05622915272705e-08 8.03154331637402e-07 4.75819274601167e-25)
(-5.63049517899044e-09 8.03182272490369e-07 3.50424349951042e-25)
(1.94908144010302e-08 8.01310693767601e-07 3.98685342695357e-25)
(4.52732647508699e-08 7.97493144592404e-07 -3.13078384162461e-25)
(7.22014156973497e-08 7.91639370410968e-07 1.74139125189878e-25)
(1.00777460559394e-07 7.83593774378159e-07 4.14992380340331e-25)
(1.31540124183774e-07 7.73131765918869e-07 -3.31477259800108e-25)
(1.65057871864318e-07 7.59943128424438e-07 3.1032448145564e-25)
(2.01950511910053e-07 7.43616471137398e-07 -3.44755657836986e-25)
(2.42896388147276e-07 7.23567659530843e-07 -4.24180280581091e-25)
(2.88619891416531e-07 6.99030657605432e-07 4.46451258055063e-25)
(3.39886342729697e-07 6.68948801554792e-07 1.90175253487025e-25)
(3.97466514045776e-07 6.31882496558712e-07 -1.18153104698315e-25)
(4.6203912035378e-07 5.85874342051089e-07 -9.53200601945363e-26)
(5.34051187667974e-07 5.28191971665142e-07 -2.28916145162325e-25)
(6.1325510721919e-07 4.55038138721072e-07 5.30900917565439e-25)
(6.98301896815722e-07 3.61397892882633e-07 -9.4768905608842e-26)
(7.85366738177279e-07 2.40948141802762e-07 -9.72890137295605e-26)
(8.65339184872615e-07 8.69971024213121e-08 6.26504019598493e-25)
(9.26938490449017e-07 -1.00774358600487e-07 -9.90648148174057e-26)
(9.34674749838514e-07 -3.00058600119694e-07 -9.151010842115e-26)
(8.75372881502285e-07 -3.98772803175419e-07 7.0394986283775e-25)