/*--------------------------------*- C++ -*----------------------------------*\
  =========                 |
  \\      /  F ield         | OpenFOAM: The Open Source CFD Toolbox
   \\    /   O peration     | Website:  https://openfoam.org
    \\  /    A nd           | Version:  10
     \\/     M anipulation  |
\*---------------------------------------------------------------------------*/
FoamFile
{
    format      ascii;
    class       volScalarField;
    location    "4.4";
    object      wallHeatFlux;
}
// * * * * * * * * * * * * * * * * * * * * * * * * * * * * * * * * * * * * * //

dimensions      [1 0 -3 0 0 0 0];

internalField   uniform 0;

boundaryField
{
    back
    {
        type            calculated;
        value           uniform 0;
    }
    bottom
    {
        type            calculated;
        value           nonuniform List<scalar> 
50
(
137.242435567927
141.44467401622
146.370904993344
149.135806432028
150.470771913089
151.082845542712
151.35291949438
151.466282346615
151.511145355612
151.528005109171
151.533777418412
151.535671606034
151.536255358683
151.536351607192
151.536339056724
151.536253237302
151.536241230786
151.536194099572
151.536132527908
151.53610831601
151.536089923824
151.536081791279
151.536076269719
151.536076355787
151.536065160742
151.536058566066
151.536061991638
151.536065059378
151.536077492557
151.536086581171
151.536102303238
151.53614026087
151.536150553173
151.536159761264
151.536188965602
151.536218334822
151.536204980586
151.535985713592
151.535321134887
151.533054936462
151.526405325049
151.508106313039
151.460636902215
151.343971129786
151.07215075233
150.462698575119
149.136160372534
146.366527164438
141.380163149425
137.274965382682
)
;
    }
    left
    {
        type            calculated;
        value           uniform 0;
    }
    front
    {
        type            calculated;
        value           uniform 0;
    }
    right
    {
        type            calculated;
        value           uniform 0;
    }
    top
    {
        type            calculated;
        value           uniform 0;
    }
}


// ************************************************************************* //
