/*--------------------------------*- C++ -*----------------------------------*\
  =========                 |
  \\      /  F ield         | OpenFOAM: The Open Source CFD Toolbox
   \\    /   O peration     | Website:  https://openfoam.org
    \\  /    A nd           | Version:  10
     \\/     M anipulation  |
\*---------------------------------------------------------------------------*/
FoamFile
{
    format      ascii;
    class       volScalarField;
    location    "8";
    object      alphat;
}
// * * * * * * * * * * * * * * * * * * * * * * * * * * * * * * * * * * * * * //

dimensions      [1 -1 -1 0 0 0 0];

internalField   nonuniform List<scalar> 
2500
(
6.27147080118283e-15
1.23427847453617e-13
5.28818659556822e-13
9.21373648933962e-13
1.26593680586964e-12
1.55009622859543e-12
1.77087997853447e-12
1.93268411707243e-12
2.04467447678438e-12
2.11798572733385e-12
2.16344847223883e-12
2.19020173810367e-12
2.20516762449308e-12
2.21314040907803e-12
2.21719238430704e-12
2.21916031661684e-12
2.22007509010572e-12
2.22048259355891e-12
2.22065667520032e-12
2.22072794704661e-12
2.22075582032726e-12
2.22076613028034e-12
2.22076964156165e-12
2.22077065227202e-12
2.22077078260414e-12
2.22077053005436e-12
2.22076982310225e-12
2.22076795181729e-12
2.22076286333117e-12
2.22074937615247e-12
2.22071494511811e-12
2.22063035248281e-12
2.22043023139715e-12
2.21997437330092e-12
2.21897523823142e-12
2.21687065312088e-12
2.21261633437898e-12
2.20437686688304e-12
2.1891147375064e-12
2.16212576460057e-12
2.11664722434006e-12
2.04375723452212e-12
1.93284482175854e-12
1.7728919262912e-12
1.55460949517642e-12
1.27311313106321e-12
9.30443278259445e-13
5.37534296146298e-13
1.2693069187582e-13
6.55260334043427e-15
6.2289892650823e-13
3.21565516777157e-11
1.40639664299907e-10
2.45204830907984e-10
3.37098382367222e-10
4.1303974475404e-10
4.72199155520909e-10
5.15690828937176e-10
5.4590122699228e-10
5.65756829988335e-10
5.78123665585858e-10
5.85435076306943e-10
5.89545220452298e-10
5.91746032939859e-10
5.92870453328106e-10
5.93419508618601e-10
5.93676137543831e-10
5.93791097484379e-10
5.93840488833574e-10
5.93860832014126e-10
5.93868840468519e-10
5.93871826814302e-10
5.93872856366632e-10
5.93873160373391e-10
5.93873205799693e-10
5.93873137022793e-10
5.93872932514205e-10
5.93872389459698e-10
5.93870919779315e-10
5.93867046799129e-10
5.93857214235517e-10
5.93833184569729e-10
5.93776628601228e-10
5.93648450954351e-10
5.93368922922818e-10
5.92783044770167e-10
5.91604544378849e-10
5.89333139932172e-10
5.85145625888751e-10
5.77774381318479e-10
5.65407492040473e-10
5.45668332599473e-10
5.15747225756194e-10
4.72746111225953e-10
4.14243816771427e-10
3.38996515188461e-10
2.47590106104663e-10
1.42921473652712e-10
3.30512731134435e-11
6.49794703563036e-13
2.2153306469924e-12
5.79324580443791e-10
1.99245777044151e-07
3.46845933847215e-07
4.75806718429692e-07
5.82051592628052e-07
6.64677672412638e-07
7.25394977031769e-07
7.67599920162725e-07
7.95384198677577e-07
8.12730635414522e-07
8.23016487337652e-07
8.28818428773218e-07
8.31936733063424e-07
8.3353625640458e-07
8.34320566327715e-07
8.34688744509639e-07
8.34854415397882e-07
8.34925927174251e-07
8.34955528304009e-07
8.34967246764043e-07
8.3497164741822e-07
8.34973180806823e-07
8.34973643389868e-07
8.34973720527571e-07
8.34973625551104e-07
8.34973327247148e-07
8.34972532334304e-07
8.34970388567406e-07
8.34964762431063e-07
8.34950533233617e-07
8.34915881318956e-07
8.34834600136423e-07
8.34650995418668e-07
8.34251904953669e-07
8.33418145961031e-07
8.31746397774769e-07
8.28534383149638e-07
8.22630494737683e-07
8.12266854737276e-07
7.94922464962001e-07
7.67294245740869e-07
7.25472622342428e-07
6.65402526508203e-07
5.83641842185208e-07
4.78310214913238e-07
3.49987833393836e-07
2.0224154595653e-07
5.94035799768419e-10
2.29673396946872e-12
3.93026902850988e-12
1.03504390855489e-09
3.57321671506764e-07
6.19992995618718e-07
8.48186601945461e-07
1.03535973358871e-06
1.18044721258161e-06
1.28682380583803e-06
1.36066572309547e-06
1.40924618708134e-06
1.43957425090227e-06
1.45756446137387e-06
1.46771931235514e-06
1.47318231302997e-06
1.47598775303664e-06
1.4773651730281e-06
1.47801271599265e-06
1.47830455999167e-06
1.47843075621617e-06
1.47848309685692e-06
1.47850386632189e-06
1.47851169018075e-06
1.47851442958525e-06
1.47851526406235e-06
1.47851541064651e-06
1.47851525073052e-06
1.478514735435e-06
1.47851335529314e-06
1.47850962996171e-06
1.47849984678585e-06
1.47847508627859e-06
1.478414743833e-06
1.47827310280996e-06
1.47795294885182e-06
1.47725666069136e-06
1.47580131681993e-06
1.47288207251883e-06
1.46727125976319e-06
1.45695497857725e-06
1.43883968526135e-06
1.40850872763621e-06
1.36016184819476e-06
1.28690283977197e-06
1.1815149732216e-06
1.03775122034577e-06
8.51971343093673e-07
6.24734802938484e-07
3.61795403666483e-07
1.05650810362696e-09
4.04683112863383e-12
5.62659850140564e-12
1.48258419472916e-09
5.10785968109065e-07
8.83544964802754e-07
1.20580165276858e-06
1.46913094500324e-06
1.67268239348773e-06
1.82163991643185e-06
1.92492026652791e-06
1.99283130471788e-06
2.03522448417035e-06
2.06037926152566e-06
2.07458662657002e-06
2.08223594721691e-06
2.08616802642644e-06
2.08810081684824e-06
2.08901061946887e-06
2.08942125283014e-06
2.08959910152223e-06
2.08967300274911e-06
2.08970239463688e-06
2.08971350104654e-06
2.08971740923716e-06
2.08971861179399e-06
2.0897188332574e-06
2.08971861890057e-06
2.0897179090689e-06
2.08971599519806e-06
2.08971082474961e-06
2.0896972386596e-06
2.08966282839394e-06
2.08957890215764e-06
2.08938174623895e-06
2.08893577528787e-06
2.08796518748338e-06
2.08593527916085e-06
2.08186135278874e-06
2.07402756023706e-06
2.05961785554366e-06
2.03430372022575e-06
1.99189865422131e-06
1.92426211137849e-06
1.82167949179712e-06
1.67391094778719e-06
1.47195242001982e-06
1.21029473844881e-06
8.89170706018674e-07
5.16062263195449e-07
1.50788037875713e-09
5.76524062324123e-12
7.25771613867354e-12
1.91256297426691e-09
6.57145797571567e-07
1.13348145800948e-06
1.54350915193365e-06
1.87745374060612e-06
2.13497161096693e-06
2.32311793701206e-06
2.45344577518196e-06
2.53910552547817e-06
2.59257800931941e-06
2.62431696664143e-06
2.64225323043382e-06
2.65191760569593e-06
2.65689013584516e-06
2.65933698881607e-06
2.66049017526714e-06
2.66101137119282e-06
2.66123745615113e-06
2.66133157213661e-06
2.66136908946001e-06
2.66138331195453e-06
2.66138834336112e-06
2.66138990843007e-06
2.66139020966524e-06
2.66138995158689e-06
2.66138906859349e-06
2.66138667046721e-06
2.66138018814537e-06
2.66136314989313e-06
2.66131997406516e-06
2.66121459967209e-06
2.66096688529034e-06
2.66040616753189e-06
2.65918507851013e-06
2.65662981729985e-06
2.6514989768009e-06
2.64162852680532e-06
2.62346539074668e-06
2.59154516213197e-06
2.53805086836902e-06
2.45267974123834e-06
2.32309907873484e-06
2.1362311078392e-06
1.88042624339868e-06
1.54827480229696e-06
1.13945303202533e-06
6.62740216779314e-07
1.93970767383813e-09
7.40949272539572e-12
8.79514022994144e-12
2.31792302492047e-09
7.94358483307661e-07
1.3666098069217e-06
1.85732359901079e-06
2.25583320937753e-06
2.56250864013851e-06
2.7862669027817e-06
2.94114261262242e-06
3.04290490198396e-06
3.10643245537644e-06
3.14415220153983e-06
3.16548012486023e-06
3.17698040705101e-06
3.1829027855049e-06
3.18582001374473e-06
3.18719647774794e-06
3.18781940006179e-06
3.18809001648626e-06
3.18820287101163e-06
3.18824796089119e-06
3.18826511057529e-06
3.18827121153728e-06
3.18827313135114e-06
3.18827351705907e-06
3.18827322550198e-06
3.18827218909977e-06
3.18826935451321e-06
3.18826169080165e-06
3.18824154749552e-06
3.18819048792674e-06
3.18806580941408e-06
3.18777254159042e-06
3.18710831306517e-06
3.18566098931803e-06
3.18263076357091e-06
3.17654349098407e-06
3.1648285359659e-06
3.14326374198883e-06
3.10535275772193e-06
3.0417955666487e-06
2.94031835840775e-06
2.78619168855441e-06
2.56371805034302e-06
2.25876272790205e-06
1.86204933727436e-06
1.37254010850236e-06
7.99927684800492e-07
2.34552034245394e-09
8.95353970763388e-12
1.02189231852351e-11
2.69355186544653e-09
9.20935671169463e-07
1.58070352029384e-06
2.14457001934138e-06
2.60134891248509e-06
2.95225179343718e-06
3.20799060191612e-06
3.38489141140506e-06
3.50109976161452e-06
3.57365252906844e-06
3.61674580651744e-06
3.64112523386087e-06
3.65428013159605e-06
3.66106028553716e-06
3.6644032679659e-06
3.66598235184195e-06
3.66669785978553e-06
3.66700914453902e-06
3.66713918352776e-06
3.66719125672639e-06
3.66721112850808e-06
3.66721823847735e-06
3.66722050308896e-06
3.66722097779432e-06
3.66722066162698e-06
3.66721948961767e-06
3.66721626416692e-06
3.6672075449892e-06
3.6671846340658e-06
3.66712655257728e-06
3.66698467509204e-06
3.66665078864416e-06
3.66589416934908e-06
3.66424470787509e-06
3.66078970509069e-06
3.65384635100399e-06
3.64047925471373e-06
3.61586575147371e-06
3.57258279386897e-06
3.49999741695611e-06
3.38406132603694e-06
3.2078802633185e-06
2.95337485168173e-06
2.60411921082516e-06
2.14905486586146e-06
1.58633741140566e-06
9.262511379286e-07
2.72064235330241e-09
1.03791943245437e-11
1.15161439843332e-11
3.03610862773605e-09
1.03594561605311e-06
1.77447263028536e-06
2.40381324085705e-06
2.91254609904067e-06
3.30278488783129e-06
3.58692684132327e-06
3.78337789720263e-06
3.912410485168e-06
3.99298042338007e-06
4.04085221600799e-06
4.06794915774395e-06
4.08258014579049e-06
4.09012707511328e-06
4.09385151816932e-06
4.09561261181708e-06
4.09641153208983e-06
4.09675958153735e-06
4.0969052213012e-06
4.09696367046316e-06
4.09698604914477e-06
4.09699410207132e-06
4.0969966986285e-06
4.09699726563884e-06
4.09699693333547e-06
4.09699564163649e-06
4.09699206832203e-06
4.09698241339357e-06
4.09695705700548e-06
4.09689277952014e-06
4.0967357271309e-06
4.09636598142308e-06
4.09552772748788e-06
4.09369949906314e-06
4.08986851055695e-06
4.08216683997183e-06
4.06733535937794e-06
4.04001822537186e-06
3.99196927680847e-06
3.91137087005306e-06
3.78259570527255e-06
3.58681836935056e-06
3.30382366815166e-06
2.91510825738412e-06
2.40795247759798e-06
1.77966715629371e-06
1.04087371011953e-06
3.06208328758656e-09
1.16749741533099e-11
1.26799773533281e-11
3.343811996526e-09
1.13895183704211e-06
1.94743653000808e-06
2.63466719976621e-06
3.18919222477052e-06
3.61403375488208e-06
3.92313561452419e-06
4.13676205278825e-06
4.27706453710785e-06
4.36468545484159e-06
4.41676479640886e-06
4.44625812514426e-06
4.46219309139264e-06
4.47041877396206e-06
4.4744816658239e-06
4.47640466468338e-06
4.47727800186686e-06
4.47765896415512e-06
4.47781862988997e-06
4.47788284465524e-06
4.47790751008115e-06
4.47791643574868e-06
4.47791934808283e-06
4.47792000930105e-06
4.47791966854622e-06
4.47791827175137e-06
4.4779143908615e-06
4.47790391269213e-06
4.47787641404734e-06
4.47780671943982e-06
4.47763640517262e-06
4.47723530897977e-06
4.4763256339077e-06
4.47434087862143e-06
4.47018042632042e-06
4.46181381810111e-06
4.44569755637224e-06
4.41600732287993e-06
4.36377354676537e-06
4.27613699220301e-06
4.13608089074938e-06
3.92307730007675e-06
3.6150204411922e-06
3.19155160578638e-06
2.63843433180088e-06
1.95213969158314e-06
1.14343548100713e-06
3.36834752625454e-09
1.28352642486136e-11
1.37087509978754e-11
3.61619878334971e-09
1.22993099613928e-06
2.09977268370148e-06
2.83758285859134e-06
3.4320166926041e-06
3.88697041525858e-06
4.21777841782827e-06
4.44634085457302e-06
4.5964486190058e-06
4.69020975060032e-06
4.74595775467619e-06
4.77754379223508e-06
4.79461956028016e-06
4.80344028501879e-06
4.80780057188377e-06
4.8098662060676e-06
4.81080529617102e-06
4.8112154398263e-06
4.81138759475406e-06
4.81145697329703e-06
4.81148370465436e-06
4.81149343013612e-06
4.81149663927455e-06
4.81149739471414e-06
4.81149705189918e-06
4.81149556386626e-06
4.81149141299478e-06
4.81148021640346e-06
4.81145085765269e-06
4.81137647095977e-06
4.81119467790792e-06
4.81076644101132e-06
4.80979489868529e-06
4.8076744576901e-06
4.80322820873977e-06
4.79428443791428e-06
4.77705242842734e-06
4.74530050467045e-06
4.68942996818794e-06
4.59567553449601e-06
4.4458111026172e-06
4.2178249006966e-06
3.88795826840773e-06
3.43421884119586e-06
2.84101057630181e-06
2.10400196821865e-06
1.23397220458433e-06
3.63919931813108e-09
1.38593950649365e-11
1.46050171656652e-11
3.85388975897774e-09
1.30919348114403e-06
2.23217823550631e-06
3.01366109221118e-06
3.64248654329098e-06
4.12336198119162e-06
4.47284873527377e-06
4.71426660246192e-06
4.87281928835913e-06
4.97187416978905e-06
5.03078931675344e-06
5.06418488844362e-06
5.08224892145927e-06
5.09158620364919e-06
5.09620526241186e-06
5.09839533114908e-06
5.09939195322369e-06
5.09982771808872e-06
5.10001088567365e-06
5.10008484401267e-06
5.10011342357987e-06
5.10012387466058e-06
5.10012735949444e-06
5.10012820719896e-06
5.10012786757507e-06
5.10012630117949e-06
5.10012191528245e-06
5.10011009720769e-06
5.10007913833233e-06
5.10000072688713e-06
5.09980909707504e-06
5.09935760082332e-06
5.09833301261715e-06
5.09609615781385e-06
5.09140454716553e-06
5.08196499010218e-06
5.06377410392898e-06
5.03024973786579e-06
4.97125187742884e-06
4.8722355751656e-06
4.71393373940317e-06
4.47305609055218e-06
4.12441639923375e-06
3.64460332694855e-06
3.01682278004378e-06
2.23600012459761e-06
1.31283693201039e-06
3.8754313881015e-09
1.47507158216355e-11
1.53746881110397e-11
4.05837459901031e-09
1.37731262456366e-06
2.34575142449718e-06
3.1644965829491e-06
3.82262269907054e-06
4.32556749072399e-06
4.69095577936355e-06
4.94332213650809e-06
5.10907281757986e-06
5.21264491719649e-06
5.27426645162835e-06
5.30921088538908e-06
5.32812242597262e-06
5.33790363417649e-06
5.3427456041999e-06
5.34504314456137e-06
5.34608960314791e-06
5.34654763908116e-06
5.34674042051938e-06
5.34681840014539e-06
5.34684861649589e-06
5.34685971900394e-06
5.34686345689235e-06
5.34686439322407e-06
5.34686406086539e-06
5.34686242795206e-06
5.34685783939628e-06
5.3468454888216e-06
5.3468131670971e-06
5.34673133856093e-06
5.34653136682188e-06
5.34606014728076e-06
5.34499055896053e-06
5.34265488939372e-06
5.33775488507494e-06
5.32789401662556e-06
5.30888794179864e-06
5.27385625294542e-06
5.21219826490238e-06
5.10870551736669e-06
4.9432248611511e-06
4.69137708205682e-06
4.32675786513077e-06
3.82473966660971e-06
3.16748950427494e-06
2.34926283337036e-06
1.38063070984418e-06
4.07865307864445e-09
1.5515732960332e-11
1.60262321017402e-11
4.2318114120191e-09
1.43506058793586e-06
2.44188724208676e-06
3.29204314750815e-06
3.97484356849106e-06
4.49636657861555e-06
4.87514323856159e-06
5.1367331925717e-06
5.30855356016126e-06
5.41593950237807e-06
5.47984943093462e-06
5.5161057745776e-06
5.53573656567553e-06
5.54589533375669e-06
5.55092734318498e-06
5.55331674938131e-06
5.55440593487759e-06
5.55488313113772e-06
5.55508421918259e-06
5.55516569338732e-06
5.55519734422139e-06
5.55520902527801e-06
5.55521299263544e-06
5.55521401261936e-06
5.55521369054153e-06
5.55521200193159e-06
5.55520724049942e-06
5.55519443842684e-06
5.55516096825858e-06
5.55507626992029e-06
5.55486930142476e-06
5.55438154175275e-06
5.55327420230206e-06
5.55085559010994e-06
5.54578056520019e-06
5.53556567536223e-06
5.51587432809461e-06
5.47957515363413e-06
5.41567985128906e-06
5.30842170048852e-06
5.13690201258462e-06
4.87582494490802e-06
4.49775945745864e-06
3.97704920936235e-06
3.29497408116954e-06
2.44519959145851e-06
1.43814040734202e-06
4.25109485155275e-09
1.61633174654153e-11
1.65699146447846e-11
4.37683514320566e-09
1.48334828243939e-06
2.52218153763684e-06
3.39849150603799e-06
4.10182425060292e-06
4.63880603324758e-06
5.02872746820746e-06
5.29800121275447e-06
5.47488340129863e-06
5.58545415927707e-06
5.65127806406362e-06
5.68863363795281e-06
5.70886828587905e-06
5.71934474021895e-06
5.72453704089491e-06
5.72700414031792e-06
5.72812956978894e-06
5.72862307602258e-06
5.72883126540457e-06
5.72891574431668e-06
5.72894863888046e-06
5.72896082805772e-06
5.72896500096047e-06
5.72896609864784e-06
5.72896578895812e-06
5.72896405446841e-06
5.72895914735643e-06
5.72894596684732e-06
5.72891153993773e-06
5.72882445912671e-06
5.72861169003523e-06
5.72811022080794e-06
5.72697158018036e-06
5.72448415938577e-06
5.71926385641369e-06
5.70875495747387e-06
5.68849426856566e-06
5.65114171604377e-06
5.58538665991426e-06
5.4749981707116e-06
5.29845763750181e-06
5.02970683583468e-06
4.64045991540863e-06
4.10420157467102e-06
3.40146530755805e-06
2.52540791210039e-06
1.48628095540673e-06
4.39542357270926e-09
1.6703967133923e-11
1.70170844447345e-11
4.49637468779031e-09
1.52316867972536e-06
2.58834162661073e-06
3.48615613832523e-06
4.20636672411849e-06
4.75605861928731e-06
5.15514876090129e-06
5.43074972913729e-06
5.61180507017274e-06
5.72500528966903e-06
5.79241204459919e-06
5.83067837481547e-06
5.85141437631514e-06
5.86215518828991e-06
5.86748120355748e-06
5.87001329122179e-06
5.87116913022285e-06
5.87167636918102e-06
5.87189056362603e-06
5.87197759797222e-06
5.87201155906333e-06
5.87202418947772e-06
5.87202854427678e-06
5.87202971307931e-06
5.87202941712807e-06
5.8720276455878e-06
5.87202261740447e-06
5.87200912368508e-06
5.87197390955458e-06
5.8718848751604e-06
5.87166735629925e-06
5.8711546634287e-06
5.86999038833659e-06
5.86744658433152e-06
5.86210716733698e-06
5.85135708140653e-06
5.83062913732979e-06
5.79241180361689e-06
5.72512962795201e-06
5.61217034743192e-06
5.43150613057663e-06
5.15645241173089e-06
4.75802052760078e-06
4.20898734684937e-06
3.48926743022833e-06
2.59158723002644e-06
1.52604119593777e-06
4.51456792791879e-09
1.71491215941694e-11
1.73795203963837e-11
4.59348361654881e-09
1.55554467971822e-06
2.64210473078417e-06
3.55737246884653e-06
4.29128210122549e-06
4.85129509256098e-06
5.25783650462141e-06
5.53858504678251e-06
5.72303998614002e-06
5.83838556932181e-06
5.90708602722035e-06
5.94609819309074e-06
5.96724564236613e-06
5.97820391297649e-06
5.98364020100551e-06
5.98622603318694e-06
5.98740709866604e-06
5.98792577050243e-06
5.98814498614672e-06
5.98823416954094e-06
5.98826903493881e-06
5.98828204412943e-06
5.98828655796487e-06
5.98828779096203e-06
5.98828750948418e-06
5.98828570875453e-06
5.98828058153127e-06
5.98826683221658e-06
5.9882309790975e-06
5.98814036420459e-06
5.98791900768202e-06
5.98739724766667e-06
5.9862122546392e-06
5.98362285251344e-06
5.97818704259023e-06
5.96724166059565e-06
5.94613518090576e-06
5.90721700106131e-06
5.8386968668461e-06
5.72365320888325e-06
5.53964517291401e-06
5.25948011270962e-06
4.85359890104045e-06
4.29420279568467e-06
3.56070040766187e-06
2.6454605973734e-06
1.55843431506053e-06
4.61155809509287e-09
1.75105431157379e-11
1.76688619425776e-11
4.67119103013084e-09
1.58148332864821e-06
2.6851667694091e-06
3.61440735084733e-06
4.35928821990682e-06
4.9275728986399e-06
5.34009187836876e-06
5.62497498809442e-06
5.81216447711583e-06
5.92923860435248e-06
5.99898335280623e-06
6.03859880041065e-06
6.06007980202204e-06
6.07121479101013e-06
6.07674092919329e-06
6.07937067859709e-06
6.08057242377691e-06
6.08110050223311e-06
6.08132386754437e-06
6.08141483732572e-06
6.08145046065075e-06
6.08146379123872e-06
6.08146844248995e-06
6.08146973271444e-06
6.08146946597742e-06
6.08146764298398e-06
6.08146243623379e-06
6.08144848167716e-06
6.08141211780823e-06
6.08132024338848e-06
6.08109583196282e-06
6.08056685387047e-06
6.07936535809194e-06
6.07673960636662e-06
6.07122689318999e-06
6.06012558969767e-06
6.03871670957238e-06
5.99923837577604e-06
5.92972843978748e-06
5.81301779832275e-06
5.62633505038525e-06
5.34208086623243e-06
4.9302392476351e-06
4.36254971289469e-06
3.61801320326209e-06
2.68870646846803e-06
1.58445446529848e-06
4.68938536191754e-09
1.77997818005935e-11
1.78961409083034e-11
4.73237781045951e-09
1.60193787770213e-06
2.71912364219156e-06
3.65938543920673e-06
4.41292549842247e-06
4.98774473391046e-06
5.40499145575936e-06
5.69314920702168e-06
5.88250797312796e-06
6.0009558020805e-06
6.07153212376767e-06
6.11162901920324e-06
6.13337684515326e-06
6.14465356357774e-06
6.15025196291364e-06
6.15291713932921e-06
6.15413562221507e-06
6.15467134330946e-06
6.15489809568206e-06
6.15499053232448e-06
6.15502678329335e-06
6.15504038338903e-06
6.15504515201193e-06
6.15504649268372e-06
6.15504624060115e-06
6.15504440137209e-06
6.15503913218556e-06
6.1550250159701e-06
6.15498825124729e-06
6.15489539080169e-06
6.15466858961394e-06
6.15413396282233e-06
6.1529195404327e-06
6.1502652849613e-06
6.14469220301142e-06
6.1334683836369e-06
6.11182169575459e-06
6.07190255987317e-06
6.00161330341738e-06
5.88358962297252e-06
5.69479941170866e-06
5.40732250293766e-06
4.99078225334572e-06
4.41655314001842e-06
3.66331252499163e-06
2.72290252961892e-06
1.60504090608571e-06
4.75088622805927e-09
1.80277398793472e-11
1.80714225303957e-11
4.77968067799339e-09
1.61777834595911e-06
2.74542591020283e-06
3.69423252944213e-06
4.45449227221231e-06
5.03438831250821e-06
5.45531316136162e-06
5.74602259604507e-06
5.9370747542255e-06
6.05659707359019e-06
6.1278252711814e-06
6.16830048213385e-06
6.19025852002728e-06
6.20164721002923e-06
6.2073028709907e-06
6.20999621275563e-06
6.21122805061515e-06
6.21176989482663e-06
6.21199937424938e-06
6.21209299948665e-06
6.2121297636166e-06
6.21214358699333e-06
6.21214845475838e-06
6.21214983946917e-06
6.21214960171137e-06
6.2121477514384e-06
6.21214243465038e-06
6.21212819420363e-06
6.21209112214384e-06
6.2119975071109e-06
6.21176887731879e-06
6.21122992380788e-06
6.21000558481311e-06
6.20732942642099e-06
6.20170988213877e-06
6.19039163537814e-06
6.16856143593638e-06
6.12830179230517e-06
6.05741002426412e-06
5.93837050969953e-06
5.74794896064986e-06
5.45797628181063e-06
5.03779580367446e-06
4.45849811514599e-06
3.69850797693837e-06
2.74948235914674e-06
1.62105021395163e-06
4.79865286613408e-09
1.82043402070008e-11
1.82035521864801e-11
4.81542345893957e-09
1.62977037797222e-06
2.76534645660597e-06
3.72063528982152e-06
4.48599894611738e-06
5.06975662411272e-06
5.49348384570679e-06
5.78614104811145e-06
5.9784885177987e-06
6.09883463794541e-06
6.17056388821172e-06
6.21133068593514e-06
6.23345122756542e-06
6.24492675465528e-06
6.25062697695813e-06
6.25334231903928e-06
6.2545846314454e-06
6.25513130047549e-06
6.25536294069974e-06
6.25545751451034e-06
6.25549469229627e-06
6.25550869831117e-06
6.2555136489158e-06
6.25551507175303e-06
6.25551484783133e-06
6.25551299093979e-06
6.25550763932071e-06
6.25549330664477e-06
6.25545600659898e-06
6.25536183233944e-06
6.25513184610945e-06
6.25458967602282e-06
6.25335794477365e-06
6.25066541389002e-06
6.24501104935653e-06
6.23362187336643e-06
6.21165355467893e-06
6.17113719564632e-06
6.09979053826413e-06
5.97998317749421e-06
5.7883273334319e-06
5.49646477074192e-06
5.0735258197358e-06
4.49038472926227e-06
3.72527299756126e-06
2.76970443985719e-06
1.63323629486633e-06
4.83496904153685e-09
1.83382938452576e-11
1.8299994856085e-11
4.84157244388582e-09
1.63856144085536e-06
2.77995957586065e-06
3.74001539573662e-06
4.50913866585793e-06
5.09574618394119e-06
5.52154585118166e-06
5.81564686663616e-06
6.00895701204048e-06
6.12991714892658e-06
6.20202103698555e-06
6.24300660399677e-06
6.26524952060711e-06
6.27679070249499e-06
6.2825247607504e-06
6.28525688519267e-06
6.28650722827168e-06
6.28705761756446e-06
6.2872909352708e-06
6.28738625193429e-06
6.28742375760155e-06
6.2874379109208e-06
6.28744293000531e-06
6.28744438563426e-06
6.28744417497681e-06
6.28744231521294e-06
6.28743693972838e-06
6.28742254220972e-06
6.2873850817506e-06
6.28729051391188e-06
6.28705957029776e-06
6.28651511955125e-06
6.2852781199839e-06
6.28257386198184e-06
6.27689444169181e-06
6.26545401863763e-06
6.2433855549176e-06
6.20268249974965e-06
6.13100418058549e-06
6.01063578096389e-06
5.81807646273115e-06
5.52482846335412e-06
5.09986471508456e-06
4.5138992049449e-06
3.74501960168587e-06
2.78463197679381e-06
1.6422372375569e-06
4.86176828536436e-09
1.84369530655649e-11
1.83667484520225e-11
4.85971114561535e-09
1.64467294196272e-06
2.79012923386427e-06
3.75351518670157e-06
4.52527118543609e-06
5.11387964544141e-06
5.54113873521408e-06
5.83625985886631e-06
6.0302526898604e-06
6.15165005088955e-06
6.2240219084266e-06
6.26516472268381e-06
6.28749606569715e-06
6.29908495805944e-06
6.30484375358617e-06
6.30758822728401e-06
6.30884452147421e-06
6.30939768950519e-06
6.30963227189998e-06
6.30972815529048e-06
6.30976591515881e-06
6.30978018527708e-06
6.30978526034205e-06
6.30978674403136e-06
6.30978654602849e-06
6.3097846865466e-06
6.30977929663005e-06
6.30976485792647e-06
6.3097272953446e-06
6.30963247643692e-06
6.30940091770252e-06
6.30885498662034e-06
6.30761452989033e-06
6.30490249584652e-06
6.29920630534568e-06
6.28773130041644e-06
6.26559478214975e-06
6.22476409652109e-06
6.15285790008945e-06
6.03210239136245e-06
5.83891748155899e-06
5.54470732397283e-06
5.11833387823264e-06
4.53039771779418e-06
3.7588840969615e-06
2.79512131166856e-06
1.64856762400325e-06
4.88060971576404e-09
1.85062310042717e-11
1.84083096073724e-11
4.87102905295736e-09
1.64849662940215e-06
2.79650391022948e-06
3.76199154943301e-06
4.53541612303364e-06
5.12529860974997e-06
5.55349174189082e-06
5.8492695450816e-06
6.04370471600526e-06
6.16538743697699e-06
6.23793557376452e-06
6.27918272124949e-06
6.30157327745394e-06
6.31319443217965e-06
6.31897012897903e-06
6.32172313274835e-06
6.3229835859642e-06
6.3235387211895e-06
6.32377421243274e-06
6.32387051073373e-06
6.32390846130906e-06
6.3239228219323e-06
6.32392794218026e-06
6.32392944979049e-06
6.32392926383623e-06
6.32392740730434e-06
6.32392201117378e-06
6.32390755213157e-06
6.32386993900231e-06
6.32377499506097e-06
6.32354312313843e-06
6.32299641534718e-06
6.32175408806033e-06
6.31903772699133e-06
6.31333197496931e-06
6.30183684297448e-06
6.27966002677806e-06
6.23875267160538e-06
6.16670794286768e-06
6.04571476596523e-06
5.85214262674124e-06
5.55733289170466e-06
5.13007606994845e-06
4.54089922407963e-06
3.76772056175024e-06
2.80181643014581e-06
1.65261472313346e-06
4.89266630943183e-09
1.85505671723975e-11
1.84276711952852e-11
4.8763191337303e-09
1.65029368091613e-06
2.79951550523852e-06
3.76601476937587e-06
4.54025177354234e-06
5.13076242112955e-06
5.55942257288159e-06
5.85553388915553e-06
6.05019764781451e-06
6.172030685017e-06
6.24467358234938e-06
6.28597804258408e-06
6.30840187206281e-06
6.32004158603536e-06
6.32582724280465e-06
6.32858539991469e-06
6.32984843203147e-06
6.33040482196929e-06
6.3306409119142e-06
6.33073749448844e-06
6.33077558235335e-06
6.33079001218137e-06
6.33079516931622e-06
6.33079669780304e-06
6.33079652339667e-06
6.33079467170988e-06
6.33078927582539e-06
6.33077481407433e-06
6.33073719597346e-06
6.33064224081531e-06
6.3304103307124e-06
6.32986348823681e-06
6.32862073593416e-06
6.32590318108882e-06
6.32019439391106e-06
6.30869217611811e-06
6.28650002171267e-06
6.24556168451651e-06
6.17345830796163e-06
6.05236076884117e-06
5.85861360958636e-06
5.56352658182629e-06
5.13585363814615e-06
4.54608359043424e-06
3.77209893982932e-06
2.80514714158539e-06
1.65463705217414e-06
4.89872064436965e-09
1.85729191430595e-11
1.84263305720727e-11
4.87597854986012e-09
1.6501949111907e-06
2.7993800570266e-06
3.76586979455317e-06
4.54011679148146e-06
5.13065006684223e-06
5.55933935469859e-06
5.85548124978718e-06
6.05017332928392e-06
6.17203022165754e-06
6.24469166038268e-06
6.28600954674444e-06
6.3084424864967e-06
6.32008802517922e-06
6.32587720904316e-06
6.32863740037051e-06
6.32990155770868e-06
6.3304585503628e-06
6.3306949573344e-06
6.33079170692908e-06
6.33082988506228e-06
6.33084436592763e-06
6.3308495531764e-06
6.33085110013124e-06
6.33085093681304e-06
6.33084909142202e-06
6.33084370134662e-06
6.33082925309494e-06
6.33079167331595e-06
6.33069681658512e-06
6.33046513433181e-06
6.32991877781661e-06
6.32867699389775e-06
6.32596125414014e-06
6.32025567401985e-06
6.30875879517688e-06
6.28657499578294e-06
6.24564890341794e-06
6.17356224337599e-06
6.05248579643961e-06
5.85876292432367e-06
5.56370081330466e-06
5.13604938625479e-06
4.54629212354523e-06
3.77230518453841e-06
2.80532888272165e-06
1.65476401416182e-06
4.89916390626569e-09
1.85747641950507e-11
1.84043051557016e-11
4.87001220120988e-09
1.64820171141592e-06
2.79609901083101e-06
3.76155764810608e-06
4.53501168507287e-06
5.12496169785043e-06
5.55324215651897e-06
5.84911187860578e-06
6.04363237183185e-06
6.16538708460435e-06
6.23799126953958e-06
6.27927904246644e-06
6.30169718957379e-06
6.3133359969621e-06
6.31912238849072e-06
6.3218815621751e-06
6.32314542848275e-06
6.32370239146658e-06
6.3239388434705e-06
6.32403564730887e-06
6.32407387060041e-06
6.32408838504742e-06
6.32409359583497e-06
6.32409515884983e-06
6.32409500613298e-06
6.32409316854322e-06
6.32408779013903e-06
6.32407337244918e-06
6.32403587635298e-06
6.3239412323066e-06
6.32371005365465e-06
6.32316482321492e-06
6.32192543802695e-06
6.31921458840774e-06
6.3135185688681e-06
6.30203962814593e-06
6.2798881290652e-06
6.23901783929998e-06
6.16702364441618e-06
6.04609411779439e-06
5.85259509776926e-06
5.55786012303649e-06
5.13066749251968e-06
4.54152821811632e-06
3.76834154624819e-06
2.80236260900708e-06
1.65299553339027e-06
4.89399405198038e-09
1.85560902728843e-11
1.83601463589707e-11
4.85803593620159e-09
1.64418668250194e-06
2.78945981826466e-06
3.75279588170659e-06
4.52459911424418e-06
5.11331880917778e-06
5.54072307653287e-06
5.83599793083542e-06
6.03013410744518e-06
6.15165285166833e-06
6.22411947978752e-06
6.26533114193188e-06
6.28770932777196e-06
6.29932823249057e-06
6.3051052299583e-06
6.30786021205077e-06
6.30912232131078e-06
6.30967860307209e-06
6.30991482104776e-06
6.31001156375484e-06
6.31004978603453e-06
6.31006431607922e-06
6.31006954351357e-06
6.31007112002387e-06
6.31007097744701e-06
6.31006914948574e-06
6.31006378951554e-06
6.31004942161234e-06
6.31001205958286e-06
6.30991775397179e-06
6.30968738055935e-06
6.30914397317177e-06
6.30790853826359e-06
6.30520590356468e-06
6.29952629432865e-06
6.288078840074e-06
6.26598533258522e-06
6.22521748880515e-06
6.1533967435345e-06
6.03274849228685e-06
5.83968621569322e-06
5.54560058681393e-06
5.11933282580166e-06
4.53145659513219e-06
3.75992580588494e-06
2.79603418259089e-06
1.64920178219723e-06
4.88281574263367e-09
1.85154041948858e-11
1.82909300058418e-11
4.8392747596108e-09