/*--------------------------------*- C++ -*----------------------------------*\
  =========                 |
  \\      /  F ield         | OpenFOAM: The Open Source CFD Toolbox
   \\    /   O peration     | Website:  https://openfoam.org
    \\  /    A nd           | Version:  10
     \\/     M anipulation  |
\*---------------------------------------------------------------------------*/
FoamFile
{
    format      ascii;
    class       volScalarField;
    location    "8";
    object      h;
}
// * * * * * * * * * * * * * * * * * * * * * * * * * * * * * * * * * * * * * //

dimensions      [0 2 -2 0 0 0 0];

internalField   nonuniform List<scalar> 
2500
(
6201.73856730335
6198.86794255713
6189.28727873162
6181.62768405656
6176.5675161785
6173.44756996972
6171.58887582573
6170.51032147779
6169.90305549862
6169.57379318994
6169.40065078952
6169.31341788381
6169.27114206023
6169.25086452139
6169.24127800298
6169.23649184603
6169.2343617737
6169.23303861226
6169.23201798655
6169.23137804592
6169.23088280049
6169.23048005472
6169.230160333
6169.22996307584
6169.22976754943
6169.22961644492
6169.22956890695
6169.22957299853
6169.22964070731
6169.22978506113
6169.23003571823
6169.23051383636
6169.23119347254
6169.2323767988
6169.23464694884
6169.23933495479
6169.24929662777
6169.27028255438
6169.31472580677
6169.40432957948
6169.57990475392
6169.91216621568
6170.51932237166
6171.59294738539
6173.44222048801
6176.54776275392
6181.60865969868
6189.31069663378
6198.94086029015
6201.64655265673
5426.69660861692
5406.27420153569
5378.19721859363
5356.46298743124
5341.93154597386
5332.79007150088
5327.21575565238
5323.9025583992
5321.99044525108
5320.92454404619
5320.35174090701
5320.05586478822
5319.90895628326
5319.8385324171
5319.80588086755
5319.79108195568
5319.78463509051
5319.78169675038
5319.78021125485
5319.77943898877
5319.77895889401
5319.77860995478
5319.77834514453
5319.77816681433
5319.77801093556
5319.77788910795
5319.77783236487
5319.77781712078
5319.77784988789
5319.7779670354
5319.7782510728
5319.77890894353
5319.78031887786
5319.78345111006
5319.79048187226
5319.80624555392
5319.84086940403
5319.91466044088
5320.06707258106
5320.36996811555
5320.9503836093
5322.02239674737
5323.9333952809
5327.23229899407
5332.77712680586
5341.8866024429
5356.43714989342
5378.31657669493
5406.58271141277
5426.28358179637
4617.5825332938
4579.2439411518
4537.95658123388
4507.20755575671
4486.88217200556
4474.16304834607
4466.42915581281
4461.83782527225
4459.18723095993
4457.70697326651
4456.90983943703
4456.49685641732
4456.29113267087
4456.1924481961
4456.14680168158
4456.12636625462
4456.11754157595
4456.11374631096
4456.1120548442
4456.11127210584
4456.11085277788
4456.11057773378
4456.11037737704
4456.11023929843
4456.11012690787
4456.11003786704
4456.1099867884
4456.10996182103
4456.10996720952
4456.11005419491
4456.11033204768
4456.11105882012
4456.11283151248
4456.11699626873
4456.12660662619
4456.14844394708
4456.19668087347
4456.29968913082
4456.51204265277
4456.93363420523
4457.74017610156
4459.22765008142
4461.87704879121
4466.45170322168
4474.15234639661
4486.84543423041
4507.2335178742
4538.25401997391
4579.95340507791
4617.59583953648
3866.82765659393
3817.65815207505
3772.25449321614
3739.79221603412
3718.88606544109
3706.09356792042
3698.47243200602
3694.02903090956
3691.50319860626
3690.11089746319
3689.3695241407
3688.98912357748
3688.80123273733
3688.71184571718
3688.67085317252
3688.65270166063
3688.64495206348
3688.64170626302
3688.6403344497
3688.63973867498
3688.63944420565
3688.6392601568
3688.6391264299
3688.639033014
3688.63896019547
3688.63890102304
3688.63886099233
3688.63883285709
3688.63881730901
3688.63885477676
3688.63904099682
3688.6395999546
3688.64107362978
3688.64463736208
3688.65299092641
3688.67222942299
3688.71521510503
3688.80797030425
3689.00106687952
3689.38847704369
3690.13793408436
3691.53716368783
3694.06410856069
3698.49743018778
3706.09864801816
3718.89126562192
3739.91296683865
3772.7571108478
3818.80304550882
3867.77354999234
3236.14772024125
3185.21370561729
3142.88259554125
3113.78642516212
3095.56505403725
3084.6845111765
3078.34352116809
3074.71602093303
3072.68610729333
3071.58128003389
3070.99899777241
3070.70269735088
3070.55733753101
3070.48859677924
3070.45725500658
3070.44347451313
3070.43764196483
3070.43524427278
3070.43426963379
3070.4338708861
3070.43368980028
3070.43358216388
3070.43350293223
3070.43344717644
3070.4334054302
3070.43337015434
3070.43334221555
3070.43331690642
3070.43329642775
3070.43329903562
3070.43339512196
3070.43376408301
3070.43482258708
3070.4374422308
3070.44364772823
3070.45808545706
3070.49062941768
3070.56142786949
3070.7100195824
3071.01081517659
3071.59854467117
3072.7085135463
3074.74047304618
3078.36391064354
3084.69840320062
3095.60148876097
3113.97137111374
3143.50878222916
3186.6528996117
3237.98666392993
2750.62562342884
2705.19536680789
2670.32588429327
2647.22797890368
2633.16397676661
2624.971281272
2620.30132374714
2617.67954459297
2616.23444205046
2615.45708972824
2615.05105843108
2614.84584016724
2614.74567750673
2614.69850395784
2614.67707651287
2614.66769962306
2614.66375849234
2614.66216344181
2614.66153703018
2614.6612966775
2614.66119910919
2614.6611456662
2614.66110497502
2614.66107606953
2614.66105563567
2614.66103710234
2614.66101941869
2614.66099950893
2614.6609790028
2614.66096852766
2614.6610051187
2614.6612147482
2614.66189865453
2614.66363011526
2614.66776516182
2614.67746543605
2614.69947915168
2614.74766733605
2614.84945460879
2615.05700312183
2615.4659896619
2616.24634548536
2617.69309038726
2620.31391758339
2624.98503803377
2633.20996411661
2647.42550553771
2670.95954794774
2706.69726516166
2752.97219000055
2405.04130421053
2368.99028611207
2343.03434188066
2326.42153134996
2316.58045796569
2310.98602646263
2307.8659639612
2306.14617934034
2305.21183687307
2304.71462878456
2304.45694002554
2304.32740507316
2304.26441590514
2304.2348274085
2304.22141814811
2304.21556878771
2304.21312466724
2304.21214969182
2304.21177956277
2304.21164756184
2304.21160213435
2304.2115816274
2304.21156485
2304.21155251117
2304.21154494383
2304.21153677056
2304.21152654876
2304.21151241902
2304.21149521677
2304.21148234378
2304.21148834493
2304.21159207121
2304.21199560826
2304.21304679293
2304.21557631905
2304.22155196661
2304.23518303461
2304.26515804776
2304.32878186955
2304.45925849887
2304.71819497817
2305.21672323977
2306.15180665277
2307.87141974181
2310.99478806791
2316.6196412751
2326.59114043881
2343.58227563503
2370.34365920982
2407.43186736869
2175.99904501769
2150.03581485809
2132.31748416434
2121.33291900447
2114.99611688081
2111.47843733448
2109.55799661102
2108.51819845931
2107.9610430264
2107.66750010965
2107.51639675035
2107.44076938384
2107.40408809081
2107.38688258945
2107.37909429818
2107.37570410341
2107.37429478861
2107.37374045333
2107.37353752348
2107.37347117873
2107.37345311498
2107.37344941128
2107.3734455568
2107.37344189063
2107.37344116546
2107.37343867503
2107.37343332189
2107.37342415406
2107.37341142893
2107.37339934552
2107.37339468859
2107.37343994496
2107.37365850538
2107.37425202812
2107.3756925304
2107.37911630413
2107.38695586953
2107.40424959952
2107.44108428467
2107.51695326453
2107.66839264974
2107.96226058356
2108.51940235829
2109.55878518738
2111.48170708348
2115.02208481214
2121.4568369972
2132.73477017787
2151.11663321154
2178.08445835066
2033.80800063361
2016.60701934501
2005.39594994993
1998.64830718116
1994.85323501197
1992.79442913094
1991.69355500869
1991.10780120597
1990.79809283374
1990.63643649374
1990.55372039412
1990.51246312773
1990.49248484657
1990.4831190879
1990.47888093101
1990.47703861021
1990.47627638069
1990.47598080386
1990.47587659275
1990.47584716809
1990.47584358731
1990.4758456859
1990.47584645577
1990.47584649564
1990.4758476688
1990.47584744676
1990.47584481637
1990.47583940348
1990.47583088688
1990.47582152317
1990.47581504249
1990.47583165892
1990.47594142185
1990.47625579886
1990.4770268924
1990.47886940745
1990.48309921251
1990.49244765155
1990.51240367379
1990.55363601358
1990.63631930562
1990.7978645358
1991.10717000686
1991.69215540556
1992.79396985042
1994.86691964641
1998.72756131655
2005.68146346311
2017.38615108935
2035.42190500349
1950.69731519971
1940.10857858987
1933.47853766792
1929.59636352364
1927.46508017275
1926.33422472168
1925.74163975007
1925.43166798201
1925.26988485058
1925.18618320931
1925.14358359654
1925.1223930417
1925.11214068186
1925.10733352942
1925.10515751516
1925.10421240837
1925.10382319755
1925.10367451221
1925.10362495996
1925.10361418948
1925.10361517283
1925.10361784339
1925.10361981589
1925.10362122405
1925.10362258144
1925.10362283389
1925.10362170596
1925.10361859985
1925.10361333717
1925.10360698707
1925.10360181687
1925.10360643029
1925.10365783349
1925.10381503261
1925.10420582607
1925.10514403056
1925.10730115091
1925.11207233265
1925.12226836191
1925.14337679363
1925.1858553659
1925.26933698106
1925.43063309169
1925.73971448887
1926.33210515385
1927.47042587135
1929.64139609675
1933.65653745079
1940.62250971462
1951.82935646108
1904.7522485297
1898.64816604062
1894.95879620383
1892.85307011746
1891.7233071516
1891.13650370843
1890.83499706415
1890.67990111292
1890.59997291537
1890.5589694567
1890.53820184831
1890.52789296952
1890.52290653612
1890.52056668091
1890.51950665051
1890.51904648141
1890.51885786302
1890.51878694625
1890.51876513071
1890.51876203131
1890.51876366212
1890.51876591275
1890.51876771462
1890.5187691151
1890.51877015791
1890.51877053276
1890.51877007475
1890.51876833789
1890.51876530052
1890.51876139933
1890.51875781143
1890.51875843122
1890.51878125255
1890.51885572009
1890.5190442999
1890.51949896999
1890.52054501016
1890.52285810163
1890.5278013079
1890.53804440778
1890.55870951476
1890.59952378428
1890.67904272456
1890.83334674914
1891.13415614105
1891.72423195006
1892.8759252907
1895.06096725964
1898.96164454172
1905.48246740195
1880.63241357271
1877.31628140656
1875.37365822136
1874.29096082618
1873.72259611505
1873.43336766265
1873.28757331782
1873.21380104735
1873.17625563307
1873.15715238627
1873.14751991725
1873.14274611062
1873.14043635089
1873.13935115419
1873.13885893352
1873.13864531791
1873.13855818386
1873.13852604236
1873.13851714135
1873.13851665741
1873.13851790603
1873.13851944768
1873.13852070991
1873.1385217083
1873.13852238789
1873.13852269529
1873.13852251189
1873.13852158035
1873.13851993069
1873.13851772025
1873.13851552273
1873.13851513942
1873.1385247496
1873.13855841012
1873.1386454665
1873.13885618516
1873.1393409085
1873.14041153263
1873.14269732732
1873.14743343675
1873.15700319413
1873.17598149835
1873.21324176012
1873.28642169609
1873.43146601771
1873.72177663805
1874.30127390363
1875.42807929574
1877.49458900382
1881.07020077725
1868.56429157203
1866.85753008181
1865.88502762887
1865.35486620844
1865.08223889177
1864.9462010644
1864.87888972632
1864.8453782511
1864.82853337778
1864.82003142197
1864.81576225322
1864.81364901722
1864.81262581317
1864.81214429014
1864.81192555416
1864.81183064148
1864.81179212312
1864.81177826765
1864.81177483399
1864.81177498982
1864.81177583198
1864.81177676244
1864.81177752831
1864.8117781353
1864.8117785317
1864.81177872863
1864.81177865395
1864.81177817844
1864.81177733018
1864.81177616031
1864.8117749386
1864.81177448509
1864.81177834534
1864.81179294978
1864.8118315533
1864.81192533258
1864.81214088281
1864.81261604262
1864.81362862268
1864.81572449226
1864.81996204282
1864.8283933562
1864.84506308492
1864.8781840776
1864.94489934372
1865.08108105006
1865.35891548415
1865.91208754651
1866.95276082809
1868.8102432192
1862.79055686059
1861.95457495034
1861.48980839013
1861.24158526794
1861.11640291782
1861.05510050694
1861.02531038356
1861.01071447526
1861.00346772056
1860.99983913497
1860.99802423045
1860.99712663539
1860.99669155824
1860.99648640611
1860.99639305192
1860.99635254766
1860.99633619857
1860.99633049167
1860.99632924306
1860.99632945963
1860.99632995613
1860.99633046763
1860.99633088857
1860.9963312211
1860.99633143324
1860.99633154257
1860.99633151131
1860.99633127976
1860.99633086471
1860.99633028125
1860.99632965255
1860.99632934553
1860.99633083281
1860.99633693948
1860.99635344259
1860.99639366506
1860.99648598836
1860.9966889633
1860.99712034295
1860.99801150735
1860.99981283925
1861.00340575855
1861.01055472347
1861.0249173827
1861.05430634389
1861.1154555032
1861.24288045486
1861.50242425364
1862.00260567919
1862.92089254394
1860.1413704316
1859.75017620354
1859.537380089
1859.42586866343
1859.37065439325
1859.34409611541
1859.33141353513
1859.32529669758
1859.32229685745
1859.32080661326
1859.3200640385
1859.31969700163
1859.31951884434
1859.3194346488
1859.31939626147
1859.31937960651
1859.31937292149
1859.31937066011
1859.3193702343
1859.31937038828
1859.31937065302
1859.31937091372
1859.31937112783
1859.31937129606
1859.3193714017
1859.31937145669
1859.31937144333
1859.31937133547
1859.31937114151
1859.31937086562
1859.31937056227
1859.31937039122
1859.31937094479
1859.31937341733
1859.31938024073
1859.31939691942
1859.3194351305
1859.31951886273
1859.31969620444
1859.32006155659
1859.32079922606
1859.32227304028
1859.32522231151
1859.33121059709
1859.34365237612
1859.37002626077
1859.42612442929
1859.54291145025
1859.7731642765
1860.20687215716
1858.9724778903
1858.79699455713
1858.70336194395
1858.65514933045
1858.63168492363
1858.62058942656
1858.61537953866
1858.61290536426
1858.61170673707
1858.61111596182
1858.61082264972
1858.6106777238
1858.61060725963
1858.61057387562
1858.61055862233
1858.61055200382
1858.61054936226
1858.61054849854
1858.61054836294
1858.61054844813
1858.61054857813
1858.6105487025
1858.61054880439
1858.61054888396
1858.61054893328
1858.61054895889
1858.61054895316
1858.61054890502
1858.61054881828
1858.61054869416
1858.61054855603
1858.61054847227
1858.61054867285
1858.61054964525
1858.61055238234
1858.61055908766
1858.61057441369
1858.61060786959
1858.61067843666
1858.61082330521
1858.61111523893
1858.61169901893
1858.61287311314
1858.6152810807
1858.62035854964
1858.63131788956
1858.6550959973
1858.70564611924
1858.80747867453
1859.00383927961
1858.47530727064
1858.39961877042
1858.35991660688
1858.33980123728
1858.33016794992
1858.3256858582
1858.32361516972
1858.32264657147
1858.32218299945
1858.32195630162
1858.32184414352
1858.32178873362
1858.32176174056
1858.32174891667
1858.32174304332
1858.32174049372
1858.32173948134
1858.32173916015
1858.32173911931
1858.32173916149
1858.3217392208
1858.32173927647
1858.32173932198
1858.32173935729
1858.32173937892
1858.32173939005
1858.32173938763
1858.32173936706
1858.32173932997
1858.32173927683
1858.32173921734
1858.32173917976
1858.32173925159
1858.32173962536
1858.32174069379
1858.3217433144
1858.32174928698
1858.32176226854
1858.32178952122
1858.32184523354
1858.32195719948
1858.32218112054
1858.32263341878
1858.32356985116
1858.32557273028
1858.3299720191
1858.33970159386
1858.36080481535
1858.4041914208
1858.48966822194
1858.27100466527
1858.23953207316
1858.22326992926
1858.21515196139
1858.21132224744
1858.20956744462
1858.20876924295
1858.20840133379
1858.20822735634
1858.20814293778
1858.20810131318
1858.2080807474
1858.20807070628
1858.20806592103
1858.20806372299
1858.20806276752
1858.20806238925
1858.20806227161
1858.20806225921
1858.20806227777
1858.20806230272
1858.20806232588
1858.2080623448
1858.20806235939
1858.20806236821
1858.2080623727
1858.20806237169
1858.20806236333
1858.20806234828
1858.20806232678
1858.20806230272
1858.20806228739
1858.20806231364
1858.20806245515
1858.20806286261
1858.20806386117
1858.20806612837
1858.20807103195
1858.20808127186
1858.20810210366
1858.20814382582
1858.20822720982
1858.20839624249
1858.2087493016
1858.20951480874
1858.21122481098
1858.21507710097
1858.22359431428
1858.24144532475
1858.27731545552
1858.1897281183
1858.17708135525
1858.17063290795
1858.16745729783
1858.1659799379
1858.16531267563
1858.16501362198
1858.16487773416
1858.16481422991
1858.16478365184
1858.16476862294
1858.16476119452
1858.16475755779
1858.16475581797
1858.16475501544
1858.16475466519
1858.16475452608
1858.16475448252
1858.16475447766
1858.16475448446
1858.1647544937
1858.16475450231
1858.16475450934
1858.16475451475
1858.16475451796
1858.16475451956
1858.16475451914
1858.16475451597
1858.16475451033
1858.16475450234
1858.16475449352
1858.1647544882
1858.16475449869
1858.1647545523
1858.16475470518
1858.16475507772
1858.16475591861
1858.16475772638
1858.16476147861
1858.16476906971
1858.1647842098
1858.16481442377
1858.16487584496
1858.16500518001
1858.16528927197
1858.16593424132
1858.16741320532
1858.17074346522
1858.17785144104
1858.19239732756
1858.15836709476
1858.15344555051
1858.15096537279
1858.14975902556
1858.14920500031
1858.1489581203
1858.14884901483
1858.14880011294
1858.14877752072
1858.14876672299
1858.14876143111
1858.14875881279
1858.1487575261
1858.148756907
1858.1487566192
1858.14875649215
1858.14875644069
1858.14875642337
1858.1487564201
1858.14875642151
1858.14875642396
1858.14875642634
1858.14875642831
1858.14875642983
1858.14875643069
1858.1487564311
1858.14875643091
1858.14875642988
1858.14875642811
1858.14875642567
1858.14875642312
1858.14875642212
1858.14875642724
1858.14875644827
1858.14875650563
1858.1487566429
1858.14875694923
1858.14875760201
1858.14875894662
1858.14876164891
1858.14876701108
1858.14877768679
1858.14879943172
1858.14884555684
1858.14894812435
1858.14918461738
1858.14973620159
1858.15100006418
1858.15374444916
1858.15945656731
1858.14661019335
1858.14475179727
1858.14382495521
1858.14337920743
1858.14317691027
1858.14308788817
1858.1430490609
1858.14303188301
1858.1430240333
1858.14302030728
1858.14301848472
1858.14301758059
1858.14301713332
1858.14301691575
1858.14301681277
1858.14301676583
1858.14301674553
1858.1430167374
1858.14301673444
1858.14301673343
1858.14301673305
1858.14301673289
1858.14301673279
1858.14301673274
1858.14301673265
1858.14301673258
1858.14301673249
1858.14301673231
1858.14301673208
1858.14301673183
1858.14301673178
1858.14301673258
1858.14301673585
1858.14301674504
1858.14301676744
1858.14301681849
1858.14301692942
1858.14301716195
1858.14301763536
1858.14301857823
1858.14302043665
1858.14302412319
1858.14303163857
1858.14304768206
1858.1430837683
1858.14316820827
1858.14336837232
1858.14383468508
1858.14486391176
1858.14704032002
1858.14232118052
1858.14163908051
1858.14130204648
1858.14114162147
1858.14106960282
1858.14103827499
1858.14102477659
1858.14101887581
1858.14101620571
1858.14101494499
1858.14101432791
1858.14101401956
1858.14101386476
1858.1410137875
1858.14101374926
1858.14101373037
1858.14101372088
1858.14101371586
1858.14101371292
1858.14101371093
1858.14101370944
1858.14101370827
1858.14101370736
1858.14101370669
1858.14101370623
1858.14101370597
1858.14101370593
1858.14101370609
1858.14101370645
1858.14101370704
1858.14101370795
1858.14101370944
1858.14101371208
1858.14101371707
1858.14101372699
1858.14101374716
1858.14101378833
1858.14101387153
1858.14101403705
1858.14101436166
1858.14101499473
1858.14101624273
1858.14101878429
1858.14102423681
1858.14103662858
1858.14106602849
1858.14113680265
1858.14130430394
1858.14167979824
1858.14248577985
1858.14079637672
1858.14055264635
1858.14043324627
1858.14037695567
1858.14035193566
1858.14034116503
1858.14033657394
1858.14033458718
1858.1403336945
1858.14033327335
1858.14033306547
1858.14033295944
1858.14033290421
1858.14033287486
1858.14033285878
1858.14033284949
1858.14033284369
1858.1403328397
1858.14033283672
1858.14033283436
1858.14033283245
1858.1403328309
1858.14033282968
1858.14033282878
1858.14033282817
1858.14033282786
1858.14033282784
1858.14033282812
1858.1403328287
1858.14033282961
1858.14033283088
1858.14033283262
1858.14033283505
1858.14033283858
1858.14033284413
1858.14033285349
1858.14033287031
1858.14033290161
1858.14033296072
1858.14033307289
1858.14033328706
1858.14033370385
1858.1403345481
1858.14033636305
1858.14034052276
1858.14035051602
1858.14037492213
1858.14043355772
1858.14056698895
1858.14085754454
1858.14026739038
1858.1401824901
1858.14014125673
1858.14012199992
1858.14011351817
1858.140109899
1858.14010836876
1858.14010771032
1858.14010741429
1858.14010727287
1858.1401072009
1858.14010716212
1858.14010714005
1858.14010712673
1858.14010711808
1858.14010711202
1858.14010710745
1858.14010710381
1858.14010710081
1858.14010709832
1858.14010709625
1858.14010709456
1858.14010709323
1858.14010709224
1858.14010709159
1858.14010709126
1858.14010709125
1858.14010709158
1858.14010709224
1858.14010709326
1858.14010709466
1858.14010709649
1858.14010709885
1858.14010710189
1858.14010710592
1858.14010711158
1858.14010712008
1858.14010713371
1858.14010715681
1858.14010719752
1858.14010727153
1858.14010741113
1858.14010768911
1858.1401082835
1858.14010965118
1858.14011296937
1858.14012117828
1858.14014118437
1858.14018739745
1858.14028950118
1858.14008808797
1858.14005922918
1858.14004536338
1858.14003895786
1858.14003616016
1858.14003497304
1858.14003447186
1858.14003425476
1858.14003415489
1858.14003410477
1858.14003407704
1858.14003406015
1858.14003404893
1858.14003404086
1858.14003403467
1858.14003402968
1858.14003402552
1858.140034022
1858.14003401901
1858.14003401647
1858.14003401436
1858.14003401263
1858.14003401126
1858.14003401025
1858.14003400958
1858.14003400925
1858.14003400925
1858.14003400959
1858.14003401028
1858.14003401134
1858.14003401278
1858.14003401464
1858.14003401697
1858.14003401984
1858.14003402336
1858.14003402777
1858.14003403346
1858.1400340412
1858.14003405236
1858.14003406951
1858.14003409756
1858.14003414665
1858.14003423971
1858.14003443353
1858.14003487561
1858.14003595117
1858.14003863743
1858.14004527473
1858.14006086229
1858.14009587365
1858.1400286404
1858.1400190667
1858.14001455384
1858.14001250517
1858.14001161767
1858.14001123992
1858.14001107755
1858.14001100411
1858.14001096745
1858.14001094654
1858.14001093291
1858.14001092302
1858.14001091528
1858.14001090892
1858.14001090354
1858.14001089891
1858.14001089491
1858.14001089145
1858.14001088847
1858.14001088593
1858.14001088381
1858.14001088208
1858.14001088071
1858.1400108797
1858.14001087902
1858.14001087869
1858.1400108787
1858.14001087905
1858.14001087975
1858.14001088082
1858.14001088227
1858.14001088413
1858.14001088644
1858.14001088924
1858.14001089258
1858.14001089656
1858.14001090132
1858.14001090712
1858.14001091439
1858.14001092392
1858.14001093721
1858.14001095734
1858.14001099129
1858.14001105643
1858.14001119831
1858.14001153714
1858.14001238328
1858.1400145025
1858.14001959592
1858.14003131386
1858.1400093413
1858.1400062489
1858.1400048598
1858.14000425562
1858.14000399634
1858.14000388233
1858.1400038292
1858.14000380156
1858.14000378482
1858.14000377305
1858.14000376383
1858.14000375613
1858.1400037495
1858.1400037437
1858.1400037386
1858.14000373411
1858.14000373018
1858.14000372676
1858.14000372381
1858.14000372129
1858.14000371918
1858.14000371746
1858.14000371611
1858.1400037151
1858.14000371444
1858.14000371411
1858.14000371412
1858.14000371447
1858.14000371517
1858.14000371624
1858.14000371769
1858.14000371954
1858.14000372183
1858.14000372459
1858.14000372786
1858.14000373168
1858.14000373612
1858.14000374129
1858.1400037473
1858.14000375442
1858.14000376308
1858.14000377416
1858.14000378962
1858.14000381434
1858.14000386098
1858.14000396304
1858.14000420952
1858.14000483607
1858.14000641613
1858.14001023685
1858.14000320129
1858.14000223889
1858.14000187038
1858.14000173484
1858.14000167774
1858.14000164778
1858.14000162904
1858.14000161562
1858.14000160497
1858.14000159596
1858.14000158807
1858.14000158105
1858.14000157478
1858.14000156917
1858.14000156419
1858.14000155977
1858.1400015559
1858.14000155252
1858.1400015496
1858.14000154711
1858.14000154503
1858.14000154333
1858.14000154199
1858.140001541
1858.14000154034
1858.14000154002
1858.14000154004
1858.14000154039
1858.14000154109
1858.14000154214
1858.14000154358
1858.14000154542
1858.14000154769
1858.14000155041
1858.14000155363
1858.14000155739
1858.14000156171
1858.14000156666
1858.14000157228
1858.14000157865
1858.1400015859
1858.14000159425
1858.14000160413
1858.14000161652
1858.1400016337
1858.14000166141
1858.1400017168
1858.14000186096
1858.14000229058
1858.14000349348
1858.14000128611
1858.14000100904
1858.14000096688
1858.14000097998
1858.14000098634
1858.14000098238
1858.14000097407
1858.14000096484
1858.14000095592
1858.14000094768
1858.14000094015
1858.14000093333
1858.14000092718
1858.14000092166
1858.14000091674
1858.14000091239
1858.14000090856
1858.14000090523
1858.14000090236
1858.14000089991
1858.14000089786
1858.14000089619
1858.14000089487
1858.1400008939
1858.14000089326
1858.14000089295
1858.14000089297
1858.14000089331
1858.14000089401
1858.14000089505
1858.14000089647
1858.14000089829
1858.14000090053
1858.14000090322
1858.1400009064
1858.1400009101
1858.14000091437
1858.14000091923
1858.14000092472
1858.14000093088
1858.14000093774
1858.14000094535
1858.14000095367
1858.14000096252
1858.14000097098
1858.14000097608
1858.14000097212
1858.14000096392
1858.14000102488
1858.14000137829
1858.14000070114
1858.14000064022
1858.14000070005
1858.14000075893
1858.14000078441
1858.14000078802
1858.14000078255
1858.14000077434
1858.14000076579
1858.14000075768
1858.14000075022
1858.14000074345
1858.14000073735
1858.14000073189
1858.14000072703
1858.14000072274
1858.14000071897
1858.1400007157
1858.14000071288
1858.14000071047
1858.14000070847
1858.14000070683
1858.14000070554
1858.14000070459
1858.14000070397
1858.14000070367
1858.14000070369
1858.14000070403
1858.14000070471
1858.14000070574
1858.14000070714
1858.14000070893
1858.14000071113
1858.14000071379
1858.14000071692
1858.14000072058
1858.1400007248
1858.14000072961
1858.14000073506
1858.14000074117
1858.14000074797
1858.14000075545
1858.14000076347
1858.14000077151
1858.1400007777
1858.1400007764
1858.14000075479
1858.14000069985
1858.14000064532
1858.14000072855
1858.14000052751
1858.14000053353
1858.14000062424
1858.14000069639
1858.14000072699
1858.14000073233
1858.14000072731
1858.14000071912
1858.14000071049
1858.14000070231
1858.14000069482
1858.14000068805
1858.14000068199
1858.14000067658
1858.14000067179
1858.14000066757
1858.14000066387
1858.14000066066
1858.1400006579
1858.14000065555
1858.14000065359
1858.140000652
1858.14000065074
1858.14000064982
1858.14000064921
1858.14000064892
1858.14000064895
1858.14000064929
1858.14000064996
1858.14000065097
1858.14000065234
1858.14000065409
1858.14000065626
1858.14000065886
1858.14000066195
1858.14000066556
1858.14000066972
1858.1400006745
1858.14000067992
1858.14000068603
1858.14000069287
1858.14000070042
1858.14000070855
1858.14000071664
1858.14000072257
1858.14000071993
1858.1400006937
1858.14000062524
1858.14000053559
1858.14000053448
1858.14000047921
1858.14000050562
1858.140000605
1858.14000068021
1858.14000071149
1858.14000071668
1858.14000071131
1858.14000070281
1858.14000069395
1858.14000068563
1858.14000067808
1858.14000067131
1858.14000066528
1858.14000065993
1858.14000065522
1858.14000065107
1858.14000064746
1858.14000064432
1858.14000064163
1858.14000063935
1858.14000063744
1858.14000063589
1858.14000063468
1858.14000063378
1858.1400006332
1858.14000063292
1858.14000063294
1858.14000063328
1858.14000063394
1858.14000063493
1858.14000063626
1858.14000063798
1858.14000064009
1858.14000064265
1858.14000064567
1858.14000064922
1858.14000065334
1858.14000065807
1858.14000066347
1858.14000066959
1858.1400006765
1858.1400006842
1858.14000069257
1858.140000701
1858.14000070734
1858.14000070497
1858.14000067821
1858.14000060663
1858.14000050698
1858.14000047996
1858.1400004689
1858.14000050145
1858.14000060257
1858.14000067752
1858.14000070798
1858.14000071234
1858.14000070633
1858.14000069736
1858.14000068821
1858.14000067973
1858.14000067211
1858.14000066535
1858.14000065936
1858.14000065409
1858.14000064945
1858.1400006454
1858.14000064188
1858.14000063883
1858.14000063622
1858.140000634
1858.14000063216
1858.14000063066
1858.14000062949
1858.14000062863
1858.14000062807
1858.1400006278
1858.14000062783
1858.14000062816
1858.1400006288
1858.14000062976
1858.14000063107
1858.14000063273
1858.1400006348
1858.14000063729
1858.14000064025
1858.14000064373
1858.14000064777
1858.14000065245
1858.14000065782
1858.14000066396
1858.14000067094
1858.14000067881
1858.14000068748
1858.14000069638
1858.14000070338
1858.14000070187
1858.14000067599
1858.14000060461
1858.14000050278
1858.14000046791
1858.1400004705
1858.14000050485
1858.14000060539
1858.14000067887
1858.14000070785
1858.14000071107
1858.14000070425
1858.14000069475
1858.14000068528
1858.14000067663
1858.14000066896
1858.14000066221
1858.14000065628
1858.14000065109
1858.14000064656
1858.14000064261
1858.14000063919
1858.14000063624
1858.14000063372
1858.14000063158
1858.14000062981
1858.14000062837
1858.14000062724
1858.14000062642
1858.14000062588
1858.14000062563
1858.14000062566
1858.14000062598
1858.14000062661
1858.14000062754
1858.1400006288
1858.14000063042
1858.14000063242
1858.14000063484
1858.14000063772
1858.14000064112
1858.14000064509
1858.1400006497
1858.14000065503
1858.14000066118
1858.14000066823
1858.14000067627
1858.14000068526
1858.14000069469
1858.1400007025
1858.14000070214
1858.14000067772
1858.14000060778
1858.14000050635
1858.14000046914
1858.14000047646
1858.14000051125
1858.14000061025
1858.14000068156
1858.14000070867
1858.14000071052
1858.14000070278
1858.14000069271
1858.14000068291
1858.14000067411
1858.14000066639
1858.14000065967
1858.14000065382
1858.14000064874
1858.14000064432
1858.1400006405
1858.14000063719
1858.14000063435
1858.14000063192
1858.14000062988
1858.14000062818
1858.1400006268
1858.14000062572
1858.14000062494
1858.14000062443
1858.14000062419
1858.14000062423
1858.14000062454
1858.14000062514
1858.14000062604
1858.14000062726
1858.14000062882
1858.14000063075
1858.14000063309
1858.14000063589
1858.14000063919