/*--------------------------------*- C++ -*----------------------------------*\
  =========                 |
  \\      /  F ield         | OpenFOAM: The Open Source CFD Toolbox
   \\    /   O peration     | Website:  https://openfoam.org
    \\  /    A nd           | Version:  10
     \\/     M anipulation  |
\*---------------------------------------------------------------------------*/
FoamFile
{
    format      ascii;
    class       volScalarField;
    location    "8";
    object      k;
}
// * * * * * * * * * * * * * * * * * * * * * * * * * * * * * * * * * * * * * //

dimensions      [0 2 -2 0 0 0 0];

internalField   nonuniform List<scalar> 
2500
(
7.00053405332839e-10
1.37785113397974e-08
5.90300603479197e-08
1.02845218349429e-07
1.41302016488037e-07
1.73016531956617e-07
1.97657668449358e-07
2.15716250148775e-07
2.28215280916302e-07
2.36397453307346e-07
2.41471516196161e-07
2.44457443157719e-07
2.46127790410225e-07
2.47017637868652e-07
2.47469882106604e-07
2.47689524215212e-07
2.47791622767573e-07
2.47837103876529e-07
2.47856532204215e-07
2.47864486119959e-07
2.47867596364721e-07
2.47868746442899e-07
2.47869137827876e-07
2.47869250321821e-07
2.47869264548506e-07
2.47869236113824e-07
2.47869157136355e-07
2.47868948286246e-07
2.47868380458118e-07
2.47866875342674e-07
2.47863032763942e-07
2.47853591811437e-07
2.47831256526771e-07
2.47780378099895e-07
2.47668863813246e-07
2.47433969034381e-07
2.46959140841542e-07
2.46039528581336e-07
2.44336119467232e-07
2.41323887234553e-07
2.36248064000551e-07
2.28112913750725e-07
2.15734196552351e-07
1.9788223593261e-07
1.73520281534709e-07
1.42103010919981e-07
1.03857573250428e-07
6.00029615607822e-08
1.41695467507081e-08
7.31434456042143e-10
1.72906631221084e-08
3.96664045530707e-07
1.73452750242062e-06
3.02371226333365e-06
4.15648960605429e-06
5.09255611800952e-06
5.82174662781793e-06
6.35781754066041e-06
6.73018920161541e-06
6.97493188729148e-06
7.1273696037406e-06
7.21749396340575e-06
7.26815857131667e-06
7.29528773126526e-06
7.30914848079136e-06
7.3159167476337e-06
7.31908026363314e-06
7.32049739526557e-06
7.32110624047775e-06
7.32135700235094e-06
7.32145571075661e-06
7.32149251087317e-06
7.32150519088884e-06
7.32150893023994e-06
7.32150948278493e-06
7.32150862902237e-06
7.32150610503187e-06
7.32149940930387e-06
7.32148129206299e-06
7.32143355002299e-06
7.32131234384154e-06
7.3210161279911e-06
7.32031895082305e-06
7.31873887526823e-06
7.31529307782659e-06
7.3080708899728e-06
7.29354351412501e-06
7.26554422645839e-06
7.21392602543959e-06
7.12306432155379e-06
6.97062625708615e-06
6.72731935400165e-06
6.35851412897158e-06
5.82849068118152e-06
5.10740123936163e-06
4.17989272582645e-06
3.05312546421818e-06
1.76267073801483e-06
4.07701620754174e-07
1.80371973670563e-08
6.11680329214406e-08
1.77687094459433e-06
8.79766841273726e-06
1.53118339494916e-05
2.10021178752514e-05
2.5689618539336e-05
2.93349371315128e-05
3.20136722119822e-05
3.38757013590275e-05
3.51015345464612e-05
3.58668714742643e-05
3.63207009331957e-05
3.65766980230184e-05
3.67142884879942e-05
3.67848661730545e-05
3.68194736758467e-05
3.68357196401487e-05
3.68430299559642e-05
3.68461854380037e-05
3.68474915781188e-05
3.68480086247682e-05
3.68482027637074e-05
3.68482703852232e-05
3.68482907660323e-05
3.68482941429502e-05
3.68482899299457e-05
3.68482767530845e-05
3.68482416666672e-05
3.68481470612215e-05
3.68478987948291e-05
3.68472709123191e-05
3.68457418620363e-05
3.68421552652309e-05
3.68340535996589e-05
3.68164436330185e-05
3.67796542275803e-05
3.67058898035517e-05
3.65641648261095e-05
3.63036702466543e-05
3.58464098363129e-05
3.50811651888171e-05
3.38622203495877e-05
3.20171071768513e-05
2.93669322569748e-05
2.57598044973493e-05
2.11126171554236e-05
1.54505386447957e-05
8.92996362939988e-06
1.82200085119844e-06
6.3415685393223e-08
1.07984422238716e-07
3.1587429441861e-06
1.56981080768959e-05
2.7232138704291e-05
3.72500176590764e-05
4.54663086057443e-05
5.18350068825431e-05
5.65044881520922e-05
5.97458942921763e-05
6.18784606039826e-05
6.32098235890097e-05
6.39995895981519e-05
6.44453948258778e-05
6.46852289988907e-05
6.48083941408928e-05
6.48688668052039e-05
6.48972961178548e-05
6.49101091551322e-05
6.49156496522714e-05
6.4917947595169e-05
6.49188594247168e-05
6.49192028796514e-05
6.49193231054692e-05
6.49193597060829e-05
6.49193661111844e-05
6.4919359064175e-05
6.49193364211883e-05
6.49192758092073e-05
6.49191122289057e-05
6.49186826805629e-05
6.49175955640548e-05
6.49149462583039e-05
6.49087276471535e-05
6.48946716986697e-05
6.48641023166977e-05
6.48002085964581e-05
6.46720473253602e-05
6.44257243597952e-05
6.39728331131656e-05
6.31775776716484e-05
6.18460905968986e-05
5.97237828753684e-05
5.65079716124349e-05
5.18819022284431e-05
4.55713287767065e-05
3.74162343418141e-05
2.74404363889556e-05
1.58947039298613e-05
3.22427163399685e-06
1.11187667711126e-07
1.53949019996484e-07
4.50569398250039e-06
2.23471569239261e-05
3.86481273743141e-05
5.27379647507239e-05
6.42505368358336e-05
7.31495291487892e-05
7.96618098450385e-05
8.41772147792266e-05
8.71463439052142e-05
8.89998514517011e-05
9.00996870098176e-05
9.07208830908647e-05
9.10553435907522e-05
9.12272729369906e-05
9.13117847515277e-05
9.13515665213343e-05
9.1369521899343e-05
9.13772985598753e-05
9.13805299888679e-05
9.13818151744821e-05
9.13823007881264e-05
9.13824716438106e-05
9.13825241974393e-05
9.13825338567247e-05
9.13825244616817e-05
9.13824934041634e-05
9.13824096961024e-05
9.13821835821783e-05
9.13815894697029e-05
9.13800847811743e-05
9.13764149447167e-05
9.1367794037885e-05
9.13482934958209e-05
9.13058538401259e-05
9.12170954952774e-05
9.10389639499105e-05
9.06964377855974e-05
9.00663953440486e-05
8.89595936273792e-05
8.71055691198753e-05
8.41484459646073e-05
7.96635533857448e-05
7.32032659928573e-05
6.43739362988174e-05
5.29344909095054e-05
3.88942567530974e-05
2.25780910738776e-05
4.58261472732361e-06
1.57744315306586e-07
1.97941419745773e-07
5.7940115455939e-06
2.86607532500753e-05
4.94280957703774e-05
6.73020405779317e-05
8.1858675275702e-05
9.30838084990079e-05
0.000101285146129515
0.000106966259593258
0.000110700316137417
0.000113031313915263
0.00011441491471719
0.000115196823166539
0.000115618134001267
0.00011583490961914
0.000115941580145193
0.000115991853657359
0.000116014575493551
0.000116024431847521
0.000116028534924587
0.000116030170527096
0.000116030790557294
0.000116031009884925
0.000116031078096481
0.000116031091214015
0.0001160310799481
0.000116031041437838
0.000116030936869218
0.000116030654237686
0.000116029911397198
0.000116028029048796
0.000116023435104932
0.000116012635797157
0.000115988190995811
0.000115934957221122
0.000115823560567793
0.00011559988339196
0.000115169588886595
0.000114377790466849
0.000112986288251692
0.00011065434155374
0.000106932870182307
0.000101284333014967
9.31387297660127e-05
8.19882865440624e-05
6.75098590536477e-05
4.96885651221825e-05
2.89048694634179e-05
5.87630343727026e-06
2.02083996898178e-07
2.39323683421232e-07
7.00641199278145e-06
3.45701285269286e-05
5.94677047472328e-05
8.08157292172551e-05
9.81520111440133e-05
0.000111493249897591
0.000121227459073279
0.00012796514125938
0.000132392244702509
0.000135156002780542
0.000136797012319667
0.000137724898511514
0.000138225230003325
0.000138482890712299
0.000138609809164797
0.000138669694612101
0.000138696796044712
0.000138708569781433
0.000138713479775455
0.000138715441520426
0.000138716187656213
0.000138716453083645
0.000138716536600258
0.000138716553374824
0.000138716540682144
0.000138716495580589
0.00013871637223939
0.000138716038788055
0.000138715162374002
0.000138712940861404
0.000138707516399101
0.000138694757167866
0.000138665858639764
0.00013860289027953
0.000138471055606066
0.000138206220824506
0.000137696549614484
0.000136758358119612
0.000135109028905614
0.000132343982308081
0.000127929283215267
0.000121224191104852
0.000111545874660604
9.82794811216673e-05
8.10213762364467e-05
5.97258275610067e-05
3.48126241093116e-05
7.08989429486606e-06
2.43637734623968e-07
2.77644305419801e-07
8.13002165745497e-06
4.00227678740785e-05
6.86904892098128e-05
9.31897546812203e-05
0.000113035904423624
0.000128281984698503
0.000139393450243535
0.000147079592073677
0.000152128756788095
0.000155281142684492
0.000157153538399601
0.000158212826022651
0.000158784409651862
0.000159079010141131
0.000159224264572302
0.000159292876838683
0.000159323966233154
0.000159337491845889
0.000159343142180644
0.000159345404826452
0.000159346268283669
0.00015934657721929
0.000159346675616465
0.00015934669624242
0.00015934668250181
0.000159346631570453
0.000159346491409706
0.000159346112533858
0.000159345117004334
0.00015934259326459
0.000159336428505698
0.000159321920829234
0.000159289045121303
0.000159217374867085
0.000159067253004976
0.000158765561257537
0.000158184757345383
0.0001571152988925
0.000155234661484971
0.000152080858932656
0.000147043524565738
0.00013938865692924
0.000128330784778024
0.000113156284108271
9.33846544666204e-05
6.89353702254172e-05
4.02538831216842e-05
8.21184847541225e-06
2.82002711374159e-07
3.12594401268855e-07
9.15586434326187e-06
4.49830803397158e-05
7.70481292325051e-05
0.000104371657763881
0.000126458706251338
0.000143401285067899
0.000155737638695556
0.000164266837705096
0.000169868997066006
0.000173367086650109
0.000175445534471943
0.000176622004823276
0.000177257241286503
0.000177584908457334
0.000177746613944922
0.000177823076110172
0.000177857763236484
0.00017787287470465
0.000177879198048917
0.000177881735787087
0.000177882707425894
0.000177883057068314
0.000177883169805538
0.00017788319442535
0.000177883179997164
0.000177883123911152
0.000177882968758806
0.000177882549551626
0.000177881448618364
0.000177878657814518
0.000177871838942426
0.000177855785473828
0.000177819390582985
0.000177740013574236
0.000177573682102425
0.000177239296373835
0.000176595354914308
0.000175409324236046
0.000173323184626154
0.000169823858936044
0.000164232876219111
0.000155732928393839
0.000143446385805319
0.000126569951222362
0.000104551389621152
7.72737177270057e-05
4.51971548391246e-05
9.23424275530423e-06
3.16909082779262e-07
3.43995797907865e-07
1.00786760735711e-05
4.94322502026319e-05
8.45195439744981e-05
0.000114344019670521
0.00013840925410635
0.000156846534809791
0.000170260988897677
0.000179532014946046
0.000185620922377235
0.000189423541299405
0.000191683712338518
0.000192963683769574
0.000193655241082287
0.000194012225642889
0.000194188550342658
0.000194272006292104
0.000194309908162311
0.000194326441525021
0.00019433337086291
0.000194336157728239
0.000194337228189372
0.000194337615558003
0.000194337741952552
0.000194337770650594
0.000194337755862467
0.000194337695241356
0.000194337526810166
0.000194337072060096
0.000194335878635034
0.000194332853944005
0.000194325462461296
0.00019430805530732
0.000194268576415852
0.000194182440294101
0.00019400188154855
0.000193638780914762
0.000192939355491566
0.000191650838494323
0.000189383965024627
0.000185580667322518
0.000179502452430524
0.000170258456927588
0.000156889354300608
0.000138511648045229
0.000114507516495408
8.47236884335982e-05
4.96269058202153e-05
1.01526639144921e-05
3.48211200167782e-07
3.71792098907391e-07
1.08966866226996e-05
5.33672433828529e-05
9.11087810577745e-05
0.000123121316410366
0.000148912926451171
0.000168652729045118
0.000183006051622624
0.000192923091664348
0.00019943609047185
0.000203504280100054
0.000205923125303304
0.000207293610113439
0.000208034510107931
0.000208417232469248
0.000208606421010595
0.000208696046878339
0.000208736793109384
0.000208754588867197
0.000208762058520339
0.000208765068799195
0.000208766228653416
0.000208766650636387
0.000208766789880149
0.000208766822659488
0.000208766807785561
0.000208766743220436
0.000208766563115216
0.000208766077300339
0.000208764803443452
0.000208761575862485
0.000208753688015826
0.000208735107208905
0.000208692952908161
0.000208600949018947
0.000208408030647434
0.000208019969400549
0.000207272290184274
0.000205894607651856
0.000203470445780623
0.000199402546632797
0.000192900105585601
0.000183008067434898
0.000168695589404327
0.000149008473895552
0.000123270044142745
9.12923028441213e-05
5.3542629489102e-05
1.09660169151809e-05
3.75879505901439e-07
3.96036158667416e-07
1.16112770394109e-05
5.67990963809097e-05
9.68419087705203e-05
0.000130745648791238
0.000158026512449727
0.000178888755026965
0.00019405086275449
0.000204524527351945
0.000211403176676932
0.000215700575813601
0.00021825655295792
0.000219705388311187
0.000220489079553366
0.00022089416893798
0.000221094562589358
0.000221189576744538
0.000221232814304585
0.000221251719582258
0.000221259666152571
0.000221262874774504
0.000221264114677166
0.000221264568090338
0.000221264719278385
0.000221264756056334
0.000221264741322496
0.000221264673365483
0.000221264483085682
0.00022126397036607
0.000221262627238162
0.000221259225420597
0.000221250911722442
0.000221231323952893
0.000221186873108083
0.000221089829178823
0.000220886287920894
0.000220476761416247
0.000219687566735591
0.000218233143712302
0.000215673578059732
0.000211377852560607
0.000204510085993642
0.000194059857972465
0.000178934498741174
0.00015811834550561
0.000130882815768323
9.70077261102204e-05
5.6957187338203e-05
1.16761930313984e-05
3.99988150592913e-07
4.16873526464397e-07
1.22265155220736e-05
5.97506713815642e-05
0.000101763192181818
0.000137281677782229
0.000165832248532644
0.000187650814418063
0.000203501963266538
0.000214450038474378
0.000221640583036254
0.000226133716845061
0.000228806964325263
0.000230322913819349
0.000231143329000443
0.000231567654692298
0.000231777707728081
0.00023187737901344
0.000231922776207397
0.000231942646607055
0.000231951009805391
0.000231954392700117
0.000231955703540022
0.000231956185187548
0.000231956347344667
0.000231956387965002
0.000231956373547007
0.000231956302708244
0.000231956103647893
0.000231955567856926
0.000231954165681835
0.000231950615814041
0.000231941940687353
0.000231921498360251
0.000231875097758903
0.000231773772361648
0.000231561201694253
0.000231133420195852
0.000230308903943144
0.000228789169153408
0.000226114340225408
0.000221624648803794
0.00021444581829859
0.000203520239697385
0.000187702454098951
0.00016592408495891
0.000137411515154141
0.000101915526567183
5.98946275437137e-05
1.22876155166655e-05
4.20698542105005e-07
4.34523037306852e-07
1.27486079165033e-05
6.22540842146568e-05
0.000105930860921886
0.000142811129459306
0.00017243141813005
0.000195055402539098
0.000211486967995982
0.000222834904102101
0.000230288580438718
0.000234947051129064
0.000237719504841949
0.000239292328398566
0.000240143924814314
0.000240584618764292
0.00024080291060684
0.000240906564606628
0.000240953814186895
0.000240974515275239
0.00024098323860838
0.000240986773014233
0.000240988146049237
0.000240988652781903
0.00024098882488904
0.000240988869136965
0.000240988855165196
0.000240988781912134
0.000240988575357683
0.000240988019994623
0.000240986568035592
0.000240982893764489
0.000240973915333365
0.000240952755997601
0.000240904718887399
0.000240799797912395
0.000240579640029285
0.000240136511478626
0.000239282288092603
0.000237707606500874
0.000234935787272777
0.00023028286023849
0.000222842227535132
0.000211516540648246
0.00019511582605016
0.000172527099422296
0.000142938274508493
0.000106074553980896
6.23876944853952e-05
1.2806704618705e-05
4.38240244445884e-07
4.49256152046989e-07
1.31853090452021e-05
6.43480123330101e-05
0.000109412772770411
0.000147427231978523
0.000177937913823155
0.000201232268443053
0.000218147123952212
0.000229828264019666
0.000237501443441676
0.000242298021954786
0.000245153474374014
0.000246773965698894
0.00024765174828149
0.000248106218719831
0.000248331461643414
0.000248438484855657
0.000248487306187797
0.000248508714577592
0.000248517745871243
0.000248521410582315
0.000248522837554934
0.000248523366324029
0.000248523547345597
0.000248523594963657
0.000248523581529358
0.000248523506286862
0.000248523293415276
0.000248522721642071
0.000248521228196
0.000248517450614028
0.000248508220651728
0.000248486466826038
0.000248437072391876
0.000248329167635065
0.000248102709966814
0.000247646832075525
0.000246767919829624
0.000245147559570884
0.000242295093816276
0.000237506422148338
0.000229848063772737
0.000218189608992748
0.0002013040138878
0.000178041042067811
0.000147556235460064
0.000109552733768497
6.44752347728691e-05
1.3241309105193e-05
4.52890882180064e-07
4.61376601846754e-07
1.35453393878623e-05
6.60750681691136e-05
0.000112282242256231
0.000151229406149211
0.000182472118185884
0.000206317736276255
0.000223630255677978
0.0002355858185897
0.00024343999484008
0.000248350617677588
0.000251274721148606
0.00025293471368634
0.000253834240969003
0.000254300177156253
0.000254531219582997
0.000254641061491789
0.000254691201763549
0.000254713205779393
0.000254722497530373
0.000254726273078835
0.000254727746310521
0.00025472829421783
0.00025472848312907
0.000254728533831791
0.000254728520993483
0.000254728444144097
0.000254728226021527
0.000254727640664103
0.000254726113075607
0.000254722250765102
0.000254712814801031
0.000254690574194697
0.000254640067965668
0.000254529717802419
0.000254298094009178
0.000253831755518044
0.000252932577766358
0.000251274710696154
0.000248356011471131
0.000243455840559493
0.000235618631257672
0.000223686807978587
0.000206402843688441
0.000182585800476498
0.000151364373581282
0.00011242303647075
6.61996789465708e-05
1.36001475132196e-05
4.64956562828184e-07
4.71201632276813e-07
1.38378443977748e-05
6.74793885272284e-05
0.000114614250673047
0.000154318467796316
0.000186155389923872
0.00021044869479033
0.000228084419024992
0.000240263261822476
0.000248264898151351
0.000253268577743252
0.000256248796590712
0.000257941140368664
0.000258858514564997
0.000259333883229581
0.000259569708852012
0.000259681881989702
0.000259733116490612
0.000259755616422543
0.000259765125975183
0.000259768994741949
0.000259770507199501
0.000259771071536966
0.000259771267346761
0.000259771320834098
0.000259771308623644
0.000259771230508175
0.000259771008089717
0.000259770411645772
0.000259768856340992
0.00025976492547597
0.000259755323052267
0.000259732689155511
0.000259681284278051
0.000259568956276645
0.000259333151394529
0.000258858341836979
0.000257942744897415
0.000256254478224242
0.000253282081800498
0.000248291499693846
0.000240309249984534
0.000228155718558895
0.000210548633708056
0.00018628208921874
0.000154462833254041
0.000114759827769109
6.76047410475211e-05
1.38922940876832e-05
4.74754026376855e-07
4.79045766932748e-07
1.40719232470308e-05
6.86045456907951e-05
0.000116482186727173
0.000156792518827609
0.000189105351441368
0.000213757465165732
0.00023165248376144
0.000244010675333564
0.000252130930611868
0.00025720959078304
0.000260235108761969
0.000261953621650783
0.000262885464666788
0.000263368499020582
0.000263608222166408
0.000263722300348984
0.000263774431896616
0.000263797339870576
0.000263807029428442
0.000263810975685646
0.00026381252102085
0.000263813099300045
0.000263813301070745
0.000263813357040537
0.000263813345469535
0.000263813266388324
0.000263813040520176
0.000263812435173323
0.000263810857713438
0.000263806872213155
0.000263797137275002
0.000263774190274982
0.000263722069546399
0.000263608164782653
0.000263369024011931
0.000262887450930644
0.000261958736535434
0.000260246171625929
0.000257230839781307
0.000252167947575263
0.000244069674656845
0.000231738765785873
0.000213873131006812
0.000189246834513609
0.00015694894013305
0.000116635738356098
6.87334333689113e-05
1.41267336961935e-05
4.82595342517909e-07
4.85207612130708e-07
1.42562426424277e-05
6.94918403148795e-05
0.000117955199503703
0.000158743621883391
0.000191432082041344
0.000216367658495471
0.000234467761845486
0.000246968004073053
0.000255182360402774
0.000260320610374132
0.000263382201171998
0.000265121598794571
0.000266065016392325
0.000266554198834512
0.000266797056601944
0.00026691267157608
0.000266965529190543
0.000266988768695534
0.000266998605181277
0.000267002615069724
0.000267004187631631
0.000267004777601871
0.000267004984464073
0.000267005042622238
0.000267005031686942
0.000267004951901452
0.000267004723324888
0.000267004110965461
0.000267002516116996
0.000266998487844041
0.00026698864924072
0.000266965457206451
0.000266912775735767
0.000266797634510675
0.000266555875007904
0.000266068987319069
0.000265129957076457
0.000263398270638304
0.000260349132689687
0.000255229282220533
0.000247039589718515
0.000234568882338309
0.000216499425645403
0.000191589448589498
0.00015891397826027
0.000118119127072035
6.96264493018224e-05
1.43119991456163e-05
4.88775586802169e-07
4.89959840670635e-07
1.43987404730524e-05
7.01789916407188e-05
0.000119096179610125
0.000160255273178319
0.000193235230618417
0.000218391036831487
0.000236650695816232
0.000249261629003749
0.000257549443969884
0.000262734304884455
0.000265824173787297
0.000267579982580872
0.000268532519087081
0.000269026558811346
0.000269271900565481
0.000269388737341544
0.000269442174289674
0.000269465679413193
0.000269475634197371
0.000269479695646637
0.000269481290469291
0.000269481890125387
0.000269482101288342
0.000269482161356905
0.000269482151043014
0.000269482070778445
0.000269481840136953
0.000269481222388434
0.000269479614207841
0.000269475553201251
0.000269465635273941
0.000269442255548611
0.000269389143900167
0.000269273052536354
0.00026902927751857
0.000268538293611966
0.000267591302719367
0.000265844845205112
0.000262769570567639
0.000257605653655571
0.000249345194422094
0.000236766221595189
0.000218538853300576
0.000193409003492927
0.000160440741451171
0.000119272147761683
7.03209248192391e-05
1.44558940296982e-05
4.93563562959144e-07
4.93542178224419e-07
1.45064150687386e-05
7.06992041324926e-05
0.000119960330422476
0.000161400622002806
0.000194601986859779
0.000219925310626307
0.000238306536314643
0.000251001963500771
0.000259345968966228
0.000264566566284295
0.000267678170805861
0.000269446628606041
0.000270406214508714
0.000270904021217333
0.000271151296037999
0.000271269087185531
0.000271322978518397
0.000271346692942027
0.000271356741461533
0.000271360844059798
0.000271362456826796
0.000271363064405711
0.000271363279162233
0.000271363340884715
0.000271363331171031
0.000271363250619349
0.00027136301846689
0.00027136239671748
0.000271360778646879
0.000271356693381094
0.000271346716611633
0.000271323197351534
0.000271269765027743
0.000271152963426683
0.000270907677909451
0.000270413617099101
0.00026946063460575
0.000267703040799884
0.000264608033102483
0.000259410807088479
0.000251096804242734
0.000238435848412198
0.000220088817786572
0.000194792241494468
0.000161601805086149
0.000120149379098786
7.08495551125224e-05
1.45652959519223e-05
4.971953507995e-07
4.96156979945772e-07
1.45851889878349e-05
7.10805612215535e-05
0.000120594249131072
0.000162241333323161
0.000195605790813054
0.000221052741081307
0.000239523869773781
0.000252281929780989
0.000260667696254613
0.000265914929701529
0.000269042786058409
0.000270820734096593
0.000271785628639618
0.000272286283460166
0.000272535026087646
0.000272653545255425
0.000272707784959477
0.000272731660768337
0.000272741782057098
0.000272745916880346
0.00027274754387084
0.000272748157839814
0.00027274837556699
0.000272748438711973
0.000272748429573689
0.000272748348897404
0.000272748115709657
0.00027274749114736
0.000272745866118001
0.000272741763778677
0.000272731745477708
0.000272708127282149
0.000272654466417737
0.000272537156092163
0.000272290783651826
0.000271794499735096
0.000270837172933538
0.00026907148021876
0.00026596208497974
0.000260740521010806
0.000252387325312539
0.000239666269020632
0.000221231402372981
0.00019581230231621
0.000162458415058281
0.000120796937212073
7.124001675847e-05
1.46460287640374e-05
4.99870247743388e-07
4.97966848514672e-07
1.46398322083727e-05
7.13456801055146e-05
0.000121035412341896
0.000162826958968321
0.000196305625241568
0.000221839377142566
0.000240373816141819
0.0002531761288249
0.000261591510448538
0.000266857710833091
0.000269997191796818
0.000271781961271476
0.000272750691779063
0.000273253416293843
0.000273503232030885
0.000273622286912498
0.000273676784777142
0.000273700781128252
0.000273710957279435
0.000273715116687389
0.000273716754705155
0.000273717373740879
0.000273717593896489
0.000273717658258728
0.000273717649669397
0.000273717569005342
0.000273717335191527
0.000273716708842608
0.000273715079383112
0.000273710966152284
0.000273700921167074
0.000273677238753793
0.000273623427915947
0.000273505780261958
0.000273258680322113
0.000272760896228115
0.000271800617190548
0.000270029387811752
0.000266910107161062
0.000261671750238787
0.000253291416122345
0.000240528621018537
0.00022203260113214
0.000196528013490915
0.00016305986153613
0.000121251967970877
7.15146308629695e-05
1.47027889475825e-05
5.01748557122281e-07
4.99093692661579e-07
1.46739279258178e-05
7.15115542463802e-05
0.000121311950224376
0.00016319466956381
0.000196745719863965
0.000222334739994858
0.000240909698440413
0.000253740498355403
0.000262175068994822
0.000267453648486203
0.00027060077655771
0.000272390072071953
0.000273361371282235
0.00027386549535601
0.000274116044278919
0.000274235469199092
0.000274290147484091
0.000274314229172874
0.000274324444750224
0.000274328622157121
0.000274330268447802
0.000274330891409646
0.000274331113525296
0.000274331178925225
0.000274331170858561
0.000274331090322472
0.000274330856239084
0.000274330229007851
0.000274328597355545
0.000274324478700593
0.000274314420128881
0.000274290704021025
0.000274236812036313
0.000274118976671388
0.000273871461943191
0.000273372804717944
0.000272410777519457
0.000270636222148415
0.000267510931848021
0.000262262264682354
0.000253865132237889
0.000241076326984593
0.000222541985553043
0.000196983576023643
0.000163443193319904
0.000121542406598029
7.16901965790603e-05
1.47391099522357e-05
5.02950638590752e-07
4.99618654196822e-07
1.46898649002335e-05
7.15895133068033e-05
0.000121442598262355
0.000163369203643713
0.000196955498584752
0.000222571769402564
0.000241166987932567
0.000254012256177934
0.000262456743302244
0.000267741843729073
0.000270893082641891
0.000272684864456015
0.000273657607100154
0.000274162536294234
0.000274413517290565
0.000274533165767334
0.000274587955927165
0.00027461209204629
0.000274622333595697
0.000274626523334516
0.000274628175580875
0.00027462880154484
0.000274629025260649
0.000274629091566204
0.000274629084000485
0.000274629003674572
0.000274628769601849
0.000274628142253077
0.00027462651038503
0.000274622391243308
0.000274612331014885
0.000274588609063372
0.000274534698639103
0.000274416811483012
0.000274169165079019
0.000273670200450341
0.000272707507839083
0.000270931608392112
0.000267803773816556
0.000262550579195551
0.00025414585402755
0.000241345019277272
0.000222792625697849
0.000197208482000861
0.000163633134122556
0.000121686897873728
7.17779281556795e-05
1.47573492376329e-05
5.03556676745059e-07
4.9958232922827e-07
1.46888395598624e-05
7.15852319363733e-05
0.000121436728048703
0.000163362922071802
0.000196949652023222
0.000222566905594287
0.000241163388889058
0.000254009984222595
0.000262455700284477
0.00026774183578539
0.000270893879164407
0.000272686243483465
0.000273659381374205
0.000274164563266342
0.000274415697278956
0.000274535434005229
0.000274590272979499
0.000274614435245471
0.000274624690547917
0.000274628887532251
0.00027463054369451
0.000274631171872497
0.000274631396894653
0.000274631464001351
0.000274631456916636
0.000274631376863829
0.000274631143043092
0.000274630516279893
0.00027462888607417
0.000274624771202025
0.00027461472085723
0.000274591019985536
0.000274537151567177
0.000274419343143994
0.000274171835850476
0.000273673102802071
0.000272710772586367
0.000270935404237877
0.00026780829468036
0.000262556014796905
0.000254152342820045
0.000241352588373318
0.000222801127339865
0.000197217537092557
0.000163642088418525
0.000121694787302323
7.17834390049798e-05
1.47586852282147e-05
5.03606723286772e-07
4.98985189658976e-07
1.4670866657761e-05
7.14987704526684e-05
0.000121294402228124
0.000163175869168295
0.000196728202151132
0.000222320155035105
0.000240898904220626
0.000253733693310324
0.000262171966367048
0.000267453669571068
0.000270603229431766
0.000272394287515605
0.000273366783747668
0.00027387167366015
0.000274122686553058
0.000274242379139563
0.000274297205491464
0.000274321366471442
0.00027433162372785
0.000274335823065458
0.000274337481186756
0.000274338110821539
0.000274338336864814
0.000274338404668197
0.000274338398043366
0.000274338318328972
0.00027433808501452
0.000274337459577062
0.000274335833001412
0.000274331727355304
0.000274321698856211
0.000274298046832443
0.000274244282468259
0.000274126686173267
0.000273879593605198
0.000273381638687385
0.000272420709611166
0.000270647761891215
0.000267524663317611
0.000262278756578773
0.000253884794893292
0.000241099230992489
0.000222567671647116
0.000197010888485682
0.000163470153765143
0.000121566116281799
7.17067258106981e-05
1.47431117611521e-05
5.03100451001672e-07
4.9778796062129e-07
1.46347889366828e-05
7.13246022818323e-05
0.000121006400450812
0.000162795792324533
0.000196276515156292
0.000221815098179425
0.000240355839147043
0.000253164823534962
0.000261586425371671
0.000266857892531569
0.000270001485339099
0.000271789241828761
0.00027276000459059
0.000273264031150866
0.000273514636542079
0.000273634147303328
0.000273688897437229
0.000273713028866963
0.000273723275971723
0.000273727472657655
0.000273729130735134
0.000273729761046571
0.000273729987811992
0.000273730056200808
0.000273730050015849
0.000273729970719134
0.000273729738204336
0.000273729114926587
0.00027372749416666
0.000273723403201644
0.000273713409633279
0.000273689836692197
0.000273636243688183
0.000273519003749999
0.000273272623047493
0.000272776033985827
0.000271817620533486
0.000270049116826167
0.000266933542331759
0.000261699837042781
0.000253324820847688
0.000240567424902393
0.000222075985430609
0.000196573991776429
0.000163105087498793
0.000121291595511648
7.15421566478019e-05
1.47094378775025e-05
5.01997375950773e-07
4.95911360517203e-07
1.45782717274155e-05