/*--------------------------------*- C++ -*----------------------------------*\
  =========                 |
  \\      /  F ield         | OpenFOAM: The Open Source CFD Toolbox
   \\    /   O peration     | Website:  https://openfoam.org
    \\  /    A nd           | Version:  10
     \\/     M anipulation  |
\*---------------------------------------------------------------------------*/
FoamFile
{
    format      ascii;
    class       volScalarField;
    location    "8";
    object      nut;
}
// * * * * * * * * * * * * * * * * * * * * * * * * * * * * * * * * * * * * * //

dimensions      [0 2 -1 0 0 0 0];

internalField   nonuniform List<scalar> 
2500
(
5.47406381308555e-15
1.07733191995153e-13
4.61561451811729e-13
8.04169622470975e-13
1.10488407191654e-12
1.35287886569269e-12
1.54556309645378e-12
1.68677422721058e-12
1.78451166816173e-12
1.84849286013142e-12
1.88816984791404e-12
1.91151846483024e-12
1.92457981192701e-12
1.93153800299253e-12
1.93507433976561e-12
1.93679183983209e-12
1.9375902030003e-12
1.9379458468593e-12
1.93809777168131e-12
1.93815997075792e-12
1.93818429426967e-12
1.93819328981841e-12
1.93819635229272e-12
1.93819723314823e-12
1.93819734565682e-12
1.93819712428354e-12
1.9381965069834e-12
1.93819487382888e-12
1.93819043323703e-12
1.93817866309798e-12
1.93814861469775e-12
1.93807478875882e-12
1.93790013562e-12
1.93750228893369e-12
1.93663029934082e-12
1.93479353371643e-12
1.93108060222554e-12
1.92388966572461e-12
1.9105697833605e-12
1.88701546519076e-12
1.84732470542903e-12
1.78371118827213e-12
1.68691453391526e-12
1.54731907582391e-12
1.35681788963797e-12
1.11114735176903e-12
8.12085492245126e-13
4.69168635889129e-13
1.10790653343275e-13
5.71944910000976e-15
5.42319781515142e-13
2.79948563228669e-11
1.22426827278626e-10
2.13435586005086e-10
2.93409230718515e-10
3.59497539775001e-10
4.10980619301731e-10
4.48828910202241e-10
4.75119396930815e-10
4.92398790327012e-10
5.03161152470724e-10
5.09524033118808e-10
5.13100983861949e-10
5.15016305802935e-10
5.15994871084533e-10
5.16472707084593e-10
5.16696048832037e-10
5.16796097301908e-10
5.16839081713122e-10
5.16856785748536e-10
5.16863754957941e-10
5.16866353482009e-10
5.16867249086483e-10
5.16867513371234e-10
5.16867552642911e-10
5.16867492577498e-10
5.16867314490669e-10
5.16866841826474e-10
5.16865562770459e-10
5.16862192185995e-10
5.16853635061379e-10
5.16832722361645e-10
5.16783502216564e-10
5.16671950267218e-10
5.16428679656848e-10
5.15918797127325e-10
5.14893167538222e-10
5.1291641266995e-10
5.09272133315477e-10
5.02857188286241e-10
4.92094790498164e-10
4.74916749530455e-10
4.48878040304758e-10
4.11456686947151e-10
3.60545513024292e-10
2.95061315255051e-10
2.15511801747799e-10
1.24413191025452e-10
2.87738121826941e-11
5.65735513876607e-13
1.92363364764512e-12
5.02980334708218e-10
1.72965384257354e-07
3.01066717699523e-07
4.12978715862216e-07
5.05173321818297e-07
5.7687134240478e-07
6.29558160337848e-07
6.66181314153674e-07
6.90291252074794e-07
7.0534387957643e-07
7.14269682976337e-07
7.1930451545662e-07
7.22010555728556e-07
7.23398620831059e-07
7.24079248854009e-07
7.24398757497475e-07
7.24542528734555e-07
7.24604587406717e-07
7.24630275381557e-07
7.24640444445459e-07
7.2464426297181e-07
7.24645593271325e-07
7.24645994402624e-07
7.24646061079916e-07
7.2464597844069e-07
7.24645719430781e-07
7.24645029492712e-07
7.24643169001225e-07
7.24638286471093e-07
7.24625938084003e-07
7.24595866566729e-07
7.24525329543987e-07
7.24365995010301e-07
7.24019660489274e-07
7.23296120581911e-07
7.2184538003878e-07
7.19058021757243e-07
7.13934728020103e-07
7.04941433807374e-07
6.89890601927257e-07
6.65916115314315e-07
6.29625628661474e-07
5.77500483489799e-07
5.06553510928625e-07
4.15151587424674e-07
3.03793952737526e-07
1.75566184909706e-07
5.15754091384116e-10
1.99431851976244e-12
3.40433683591441e-12
8.96393325306864e-10
3.09409877964647e-07
5.36803211568443e-07
7.34327485920772e-07
8.96336995200733e-07
1.02191718961627e-06
1.11399144231639e-06
1.1779058915613e-06
1.21995559563534e-06
1.24620693240382e-06
1.26177906819311e-06
1.27056909493273e-06
1.2752979063964e-06
1.27772633443557e-06
1.27891865650362e-06
1.27947918579702e-06
1.27973181425313e-06
1.27984105342215e-06
1.279886360909e-06
1.27990433927945e-06
1.27991111142409e-06
1.27991348229443e-06
1.27991420428629e-06
1.27991433087315e-06
1.27991419218802e-06
1.2799137459404e-06
1.27991255106686e-06
1.27990932607369e-06
1.27990085717782e-06
1.27987942340353e-06
1.27982718879623e-06
1.27970457987613e-06
1.27942744552818e-06
1.27882472126597e-06
1.27756494698362e-06
1.27503800969926e-06
1.27018125487564e-06
1.26125150304676e-06
1.24557111338354e-06
1.21931730082507e-06
1.17746982728744e-06
1.11405999016703e-06
1.02284163799718e-06
8.98407380566825e-07
7.37604182554513e-07
5.40908985301203e-07
3.13284265051449e-07
9.14985711755853e-10
3.50531201329983e-12
4.8635373724215e-12
1.28130527388249e-09
4.41378787309057e-07
7.63412724946271e-07
1.04179065850495e-06
1.26925672264512e-06
1.44508485326026e-06
1.573755243933e-06
1.66297027770546e-06
1.72163345327636e-06
1.75825410040814e-06
1.77998386178483e-06
1.79225689651123e-06
1.79886481519372e-06
1.80226159170876e-06
1.80393126667139e-06
1.80471721949924e-06
1.80507195547127e-06
1.80522559492261e-06
1.80528943655334e-06
1.80531482741897e-06
1.80532442171522e-06
1.80532779756744e-06
1.80532883613564e-06
1.80532902721101e-06
1.80532884181551e-06
1.80532822841814e-06
1.80532657485495e-06
1.80532210793059e-06
1.80531037078698e-06
1.8052806439873e-06
1.80520814147294e-06
1.80503782281575e-06
1.80465255966985e-06
1.80381409613423e-06
1.80206052394655e-06
1.79854121134142e-06
1.79177393753567e-06
1.77932611801241e-06
1.75745871037822e-06
1.7208278223184e-06
1.66240180976832e-06
1.57378956117155e-06
1.44614633883613e-06
1.27169439638126e-06
1.04567272859258e-06
7.68274025179349e-07
4.45939045852329e-07
1.30317338884472e-09
4.98340757205783e-12
6.26338574570311e-12
1.65028759381654e-09
5.66964029341081e-07
9.77856188277646e-07
1.3315257182102e-06
1.61956289118916e-06
1.84167911422069e-06
2.00396137813364e-06
2.11637428223533e-06
2.19025986225648e-06
2.23638279861355e-06
2.2637595914469e-06
2.27923081934647e-06
2.28756703700523e-06
2.29185622190017e-06
2.2939668270538e-06
2.29496154560567e-06
2.2954111215417e-06
2.29560613959609e-06
2.29568732302171e-06
2.29571968504352e-06
2.29573195308251e-06
2.29573629290755e-06
2.29573764272973e-06
2.29573790242249e-06
2.29573767966109e-06
2.29573691784909e-06
2.29573484905363e-06
2.29572925719171e-06
2.29571455977039e-06
2.29567731621094e-06
2.29558642095352e-06
2.295372745611e-06
2.29488907884111e-06
2.2938357884232e-06
2.29163167184115e-06
2.28720593148831e-06
2.27869195952639e-06
2.26302504144357e-06
2.23549189866095e-06
2.1893501681427e-06
2.11571357474881e-06
2.00394520052175e-06
1.84276566408089e-06
1.62212715884708e-06
1.3356370639994e-06
9.83008517035025e-07
5.71791911570949e-07
1.67371818002334e-09
6.39441810303801e-12
7.5814984995396e-12
1.99783411615899e-09
6.84604271837628e-07
1.17772445584191e-06
1.60056227024775e-06
1.94394481970922e-06
2.20819689716636e-06
2.40100297389571e-06
2.5344557938438e-06
2.62214257103875e-06
2.67688346890498e-06
2.70938626867983e-06
2.72776444780785e-06
2.73767422766618e-06
2.74277755018579e-06
2.74529133690464e-06
2.74647744403538e-06
2.7470142210458e-06
2.74724741381221e-06
2.74734466184161e-06
2.74738351637075e-06
2.74739829444473e-06
2.74740355162539e-06
2.74740520585899e-06
2.74740553816315e-06
2.74740528684762e-06
2.74740439366397e-06
2.74740195090968e-06
2.74739534676401e-06
2.74737798871615e-06
2.74733398961542e-06
2.74722655233837e-06
2.74697384066647e-06
2.74640146987722e-06
2.74515430211974e-06
2.74254314410105e-06
2.73729773066226e-06
2.72720296591057e-06
2.70862067557401e-06
2.67595308945053e-06
2.62118666172182e-06
2.53374555450031e-06
2.40093820449667e-06
2.20923912515041e-06
1.94646936355548e-06
1.6046349182983e-06
1.18283576826467e-06
6.89405244515795e-07
2.02162950244834e-09
7.71810154855164e-12
8.80213008252561e-12
2.31990717044142e-09
7.93138526736085e-07
1.36130159583696e-06
1.84686451968027e-06
2.24020802643627e-06
2.54237946156641e-06
2.76260355442595e-06
2.91493864183965e-06
3.01500988062088e-06
3.07748793807476e-06
3.11459737979721e-06
3.13559158983327e-06
3.14691988268759e-06
3.15275859864113e-06
3.15563740584406e-06
3.1569972349128e-06
3.15761339590442e-06
3.15788145974647e-06
3.15799344342248e-06
3.15803828658715e-06
3.15805539933118e-06
3.15806152211173e-06
3.15806347226623e-06
3.15806388105592e-06
3.15806360875924e-06
3.15806259941573e-06
3.15805982169073e-06
3.15805231295077e-06
3.15803258285435e-06
3.15798256535315e-06
3.15786038661722e-06
3.15757285926468e-06
3.15692129523343e-06
3.15550086012089e-06
3.15252558582052e-06
3.14654632895801e-06
3.13503530007847e-06
3.11383951471188e-06
3.07656673019211e-06
3.01406059353195e-06
2.91422381592919e-06
2.7625085459121e-06
2.54334660802024e-06
2.24259375324194e-06
1.85072694692769e-06
1.36615406322098e-06
7.97717476235885e-07
2.34324811123643e-09
8.94024238788519e-12
9.91482311838342e-12
2.61378831677311e-09
8.91813234412111e-07
1.52755388963807e-06
2.06929539363439e-06
2.50721518755173e-06
2.84313515048442e-06
3.08772696835828e-06
3.25683418689976e-06
3.36790712808962e-06
3.43726293321933e-06
3.47847175970083e-06
3.50179728703488e-06
3.51439191594746e-06
3.52088846086873e-06
3.52409453741535e-06
3.52561052400679e-06
3.52629825202884e-06
3.52659786088278e-06
3.52672323105871e-06
3.52677354558509e-06
3.52679280976447e-06
3.52679974194344e-06
3.52680197712832e-06
3.52680246523943e-06
3.52680217918145e-06
3.52680106722245e-06
3.52679799115657e-06
3.52678967984191e-06
3.52676785228997e-06
3.52671252047269e-06
3.52657732586043e-06
3.5262590403629e-06
3.52553745311482e-06
3.52396367525384e-06
3.52066588159619e-06
3.51403613124334e-06
3.50126891287827e-06
3.47775383796378e-06
3.43639251060325e-06
3.36701219840755e-06
3.25616085243194e-06
3.08763358618603e-06
2.84402935017828e-06
2.50942077364767e-06
2.07285870278452e-06
1.53202599756455e-06
8.96056525355257e-07
2.63615673475035e-09
1.00516217439354e-11
1.09138162541663e-11
2.87796000439017e-09
9.80254192878842e-07
1.67606581142831e-06
2.26751646239043e-06
2.74475605050171e-06
3.11038683543123e-06
3.37640919997668e-06
3.56026284276622e-06
3.68101174886812e-06
3.75642126254519e-06
3.80124254038891e-06
3.82662553587962e-06
3.84033973660594e-06
3.84741905635581e-06
3.85091572957125e-06
3.85257073340133e-06
3.85332235998918e-06
3.85365023055393e-06
3.85378764505654e-06
3.85384291083347e-06
3.8538641389078e-06
3.85387182071523e-06
3.85387432720313e-06
3.85387489629108e-06
3.85387460302728e-06
3.85387340087608e-06
3.85387006078926e-06
3.85386104279544e-06
3.85383737629404e-06
3.85377739429492e-06
3.853630815166e-06
3.85328561659119e-06
3.85250271628953e-06
3.85079456245856e-06
3.84721392478551e-06
3.84001331860966e-06
3.82614308736459e-06
3.80059062712835e-06
3.7556364357429e-06
3.68021346285244e-06
3.55967660100801e-06
3.37635900061231e-06
3.11123599858124e-06
2.74678661600542e-06
2.27075867075071e-06
1.68011384949096e-06
9.84113682469203e-07
2.89908224536904e-09
1.10475151332481e-11
1.17974963636588e-11
3.11197044112443e-09
1.05842136345443e-06
1.80695400352744e-06
2.44186550486786e-06
2.95339634917253e-06
3.34490003294414e-06
3.62957223765791e-06
3.82625862381032e-06
3.95543197195234e-06
4.03611698115962e-06
4.0840902750219e-06
4.11127128097026e-06
4.12596564375658e-06
4.13355622254038e-06
4.13730842085798e-06
4.13908598070476e-06
4.13989410505363e-06
4.14024705009184e-06
4.14039519638378e-06
4.14045489947118e-06
4.14047790292504e-06
4.14048627212343e-06
4.1404890337372e-06
4.14048968383815e-06
4.14048938883711e-06
4.14048810831788e-06
4.14048453629993e-06
4.14047490113492e-06
4.14044963667932e-06
4.14038562384791e-06
4.14022918352327e-06
4.13986066852715e-06
4.13902461776645e-06
4.1371998944234e-06
4.13337372215084e-06
4.12567725699993e-06
4.11084844171454e-06
4.08352468333665e-06
4.03544594445023e-06
3.95476669771278e-06
3.82580274482999e-06
3.62961222774551e-06
3.34575010342703e-06
2.9552913686863e-06
2.44481521500759e-06
1.81059364080247e-06
1.06189939935214e-06
3.13176713072485e-09
1.1927166748163e-11
1.25678007162471e-11
3.31628404954355e-09
1.12655777454492e-06
1.92077698707237e-06
2.59323375821023e-06
3.13433054101764e-06
3.54811829302538e-06
3.8488477622503e-06
4.05658524950855e-06
4.19301818552699e-06
4.27825390395304e-06
4.32894980009302e-06
4.35768636134657e-06
4.37323028643632e-06
4.38126492809312e-06
4.38523958422591e-06
4.38712411774831e-06
4.3879817017664e-06
4.38835667345142e-06
4.38851428753222e-06
4.38857792804748e-06
4.38860252053494e-06
4.38861151361596e-06
4.3886145122993e-06
4.3886152417515e-06
4.38861494951268e-06
4.38861360164052e-06
4.38860982760138e-06
4.38859965822855e-06
4.38857301835782e-06
4.38850554597037e-06
4.38834065020537e-06
4.3879521418116e-06
4.38707049320673e-06
4.38514570068697e-06
4.38110861425572e-06
4.37298596586523e-06
4.35733288454301e-06
4.32848549652387e-06
4.27771842563553e-06
4.19251590337833e-06
4.05629882006436e-06
3.84902618253685e-06
3.54902559731746e-06
3.13615199663677e-06
2.59595436085852e-06
1.92406576728185e-06
1.12969315908687e-06
3.33482266125972e-09
1.26931946802643e-11
1.32295826958102e-11
3.49212275867054e-09
1.18513683787184e-06
2.01844627344503e-06
2.72294859953314e-06
3.28924369262555e-06
3.72201065281612e-06
4.03641498563441e-06
4.25356779592076e-06
4.39619073784728e-06
4.48531109228848e-06
4.53833438284379e-06
4.56840291367418e-06
4.58467567060037e-06
4.59309207809482e-06
4.59725843401881e-06
4.59923539201872e-06
4.6001358353093e-06
4.60052996024676e-06
4.60069584239265e-06
4.60076294133183e-06
4.60078894153074e-06
4.60079849488876e-06
4.60080171122923e-06
4.60080251691827e-06
4.60080223093753e-06
4.60080082586776e-06
4.60079687755789e-06
4.60078625027808e-06
4.60075843846994e-06
4.60068802766336e-06
4.60051595849358e-06
4.60011048949792e-06
4.59919014383702e-06
4.59718037690022e-06
4.5929640843396e-06
4.58447913175207e-06
4.56812503109429e-06
4.53798141994075e-06
4.4849267619836e-06
4.39587468696777e-06
4.25348409166753e-06
4.03677749868857e-06
3.72303492270124e-06
3.29106526078231e-06
2.72552390261276e-06
2.02146775892915e-06
1.18799205894908e-06
3.50957295698795e-09
1.3350959599635e-11
1.37899581252616e-11
3.64130132981911e-09
1.23480927163009e-06
2.1011395255716e-06
2.83266114187142e-06
3.42018075897833e-06
3.86892834199387e-06
4.19484901943252e-06
4.41993570717923e-06
4.5677796124227e-06
4.66018052030819e-06
4.71517222173219e-06
4.74636922249086e-06
4.76326066159677e-06
4.77200183842374e-06
4.77633166313875e-06
4.77838764303681e-06
4.77932483971569e-06
4.77973544633262e-06
4.77990847385683e-06
4.77997857887602e-06
4.78000581305097e-06
4.78001586409913e-06
4.78001927784307e-06
4.78002015549833e-06
4.78001987836615e-06
4.78001842539028e-06
4.78001432838127e-06
4.78000331274784e-06
4.7799745131139e-06
4.77990163386598e-06
4.7797235464683e-06
4.77930385049859e-06
4.7783510331376e-06
4.77626992275239e-06
4.77190308508123e-06
4.76311361790605e-06
4.74617007281436e-06
4.71493621794134e-06
4.65995710163761e-06
4.56766615250847e-06
4.42008096855751e-06
4.19543559591317e-06
3.87012684875487e-06
3.42207860841446e-06
2.83518307496213e-06
2.10398966957223e-06
1.23745937849048e-06
3.65789452705957e-09
1.39079208393147e-11
1.425765107684e-11
3.7660608768758e-09
1.27635056047239e-06
2.17021630452453e-06
2.92423848785447e-06
3.52942217613845e-06
3.99146896482514e-06
4.32697747450474e-06
4.55867450049744e-06
4.7108730687305e-06
4.80601386040224e-06
4.86265214918744e-06
4.8947948155444e-06
4.91220575255689e-06
4.92122023548415e-06
4.925687959456e-06
4.92781077938204e-06
4.92877915711177e-06
4.92920379541113e-06
4.92938293233343e-06
4.92945562236627e-06
4.92948392655585e-06
4.92949441475843e-06
4.92949800534276e-06
4.92949894985159e-06
4.92949868337949e-06
4.92949719093461e-06
4.92949296859978e-06
4.92948162740443e-06
4.92945200470509e-06
4.92937707586326e-06
4.92919399832172e-06
4.92876250825269e-06
4.92778276296365e-06
4.9256424574801e-06
4.92115063888381e-06
4.91210823894072e-06
4.89467489491205e-06
4.86253482828275e-06
4.80595578041886e-06
4.71097182216038e-06
4.55906723161882e-06
4.32782017205103e-06
3.99289204800711e-06
3.53146774378041e-06
2.92679729493525e-06
2.17299244692951e-06
1.27887400938469e-06
3.78205563512174e-09
1.43730002158392e-11
1.46423636993396e-11
3.86890688463519e-09
1.31061051834943e-06
2.2271382436431e-06
2.99966239948679e-06
3.61936733052921e-06
4.09234953110608e-06
4.43574651407449e-06
4.67288728246157e-06
4.8286762971162e-06
4.92607939344086e-06
4.98407951674539e-06
5.01700576997986e-06
5.03484805680005e-06
5.04408998555937e-06
5.04867275397172e-06
5.05085148813366e-06
5.05184602950261e-06
5.05228248313686e-06
5.05246678669576e-06
5.05254167537975e-06
5.05257089719439e-06
5.05258176503313e-06
5.05258551212032e-06
5.05258651781706e-06
5.05258626316639e-06
5.05258473884497e-06
5.05258041234511e-06
5.05256880167619e-06
5.05253850168425e-06
5.05246189205946e-06
5.05227472800766e-06
5.05183358155707e-06
5.0508317813576e-06
5.04864296587488e-06
5.04404866595141e-06
5.03479875742052e-06
5.01696340360917e-06
4.98407930940568e-06
4.92618638029832e-06
4.82899059983453e-06
4.67353812777801e-06
4.43686823964482e-06
4.09403765332133e-06
3.62162224201309e-06
3.0023395063691e-06
2.22993092232096e-06
1.31308218493141e-06
3.88456139846178e-09
1.47559767042602e-11
1.49541976657174e-11
3.95245916773052e-09
1.33846695303851e-06
2.27339637276425e-06
3.06093748460053e-06
3.69242921855632e-06
4.17429178552575e-06
4.5240999035474e-06
4.76566968474033e-06
4.92438373982084e-06
5.02363272374538e-06
5.08274595956793e-06
5.11631393620371e-06
5.13451023647193e-06
5.14393926879247e-06
5.14861691706559e-06
5.15084189362908e-06
5.15185814017294e-06
5.15230443080843e-06
5.15249305467982e-06
5.15256979243869e-06
5.15259979233466e-06
5.15261098607992e-06
5.15261487000555e-06
5.1526159309371e-06
5.15261568874005e-06
5.15261413930413e-06
5.15260972758998e-06
5.15259789700602e-06
5.15256704722655e-06
5.15248907773627e-06
5.15229861174862e-06
5.15184966389345e-06
5.15083003789576e-06
5.1486019895785e-06
5.14392475269234e-06
5.13450681036949e-06
5.11634576234078e-06
5.08285865588659e-06
5.02390057939272e-06
4.92491138670207e-06
4.76658186912851e-06
4.52551414420655e-06
4.17627409449454e-06
3.69494232567877e-06
3.06380100414283e-06
2.27628392406235e-06
1.34095334099765e-06
3.96801139801935e-09
1.50669368023233e-11
1.52031514598832e-11
4.0193204034476e-09
1.36078525294528e-06
2.31044815767582e-06
3.11001193440154e-06
3.75094365256845e-06
4.23992342450853e-06
4.59487481610576e-06
4.84000209880263e-06
5.00106903932768e-06
5.10180531257727e-06
5.16181708640597e-06
5.19590414437371e-06
5.21438744298145e-06
5.22396852910987e-06
5.22872348719503e-06
5.23098625149495e-06
5.23202029150245e-06
5.23247467589349e-06
5.23266687027294e-06
5.23274514509841e-06
5.2327757971406e-06
5.23278726742735e-06
5.2327912695905e-06
5.23279237976264e-06
5.23279215024928e-06
5.23279058165709e-06
5.23278610151586e-06
5.23277409433632e-06
5.2327428050943e-06
5.2326637518741e-06
5.23247065736712e-06
5.23201549888574e-06
5.23098167347578e-06
5.22872234897351e-06
5.22397894241787e-06
5.21442684092988e-06
5.19600559915912e-06
5.16203652058497e-06
5.10222679082785e-06
5.00180327841905e-06
4.84117236255545e-06
4.59658623794029e-06
4.24221768060986e-06
3.75374999914426e-06
3.11311458424731e-06
2.313493886426e-06
1.36334176504184e-06
4.03497571880313e-09
1.53158016183803e-11
1.53987095756108e-11
4.07196773987079e-09
1.37838513342428e-06
2.33966598643437e-06
3.14871286783047e-06
3.79709530513611e-06
4.29169767319416e-06
4.65071700364992e-06
4.89866191881305e-06
5.06159539198741e-06
5.16351365311785e-06
5.22424094588067e-06
5.25874226091697e-06
5.2774551459536e-06
5.28715818183365e-06
5.29197531635744e-06
5.29426856350835e-06
5.29531700532678e-06
5.29577796575986e-06
5.29597307450785e-06
5.29605261148206e-06
5.29608380357552e-06
5.2960955057582e-06
5.29609960891298e-06
5.2961007624922e-06
5.29610054558821e-06
5.29609896302631e-06
5.29609442916245e-06
5.29608228288543e-06
5.29605064873328e-06
5.29597074709839e-06
5.29577559634764e-06
5.295315577506e-06
5.29427062953592e-06
5.29198677929583e-06
5.28719142908036e-06
5.27753391011134e-06
5.25890804917861e-06
5.22455968709305e-06
5.16407939919201e-06
5.06252609602718e-06
4.90008183503035e-06
4.65272274976238e-06
4.2943113022382e-06
3.80021670375971e-06
3.15209192259383e-06
2.34291752428779e-06
1.38105513022297e-06
4.08789329185543e-09
1.55119438647892e-11
1.55495291395995e-11
4.11266919588206e-09
1.39201498231075e-06
2.36229764978199e-06
3.17869689128186e-06
3.8328612542595e-06
4.33183193858035e-06
4.69401609820236e-06
4.94415659865108e-06
5.10854714388811e-06
5.21138994576597e-06
5.27267814242133e-06
5.307504977476e-06
5.32639873851889e-06
5.33619811989111e-06
5.34106452495336e-06
5.34338200686925e-06
5.3444419399236e-06
5.34490816896973e-06
5.34510562419796e-06
5.34518618389431e-06
5.34521781753541e-06
5.3452297118395e-06
5.34523390030081e-06
5.34523509177324e-06
5.34523488719497e-06
5.3452332951304e-06
5.34522872030808e-06
5.34521646713686e-06
5.34518456853812e-06
5.3451040176222e-06
5.34490729345753e-06
5.34444355171056e-06
5.34339007104342e-06
5.34108737453533e-06
5.33625204601634e-06
5.32651327742679e-06
5.30772951479024e-06
5.27308816431767e-06
5.21208944796997e-06
5.10966207476561e-06
4.94581413621535e-06
4.69630757622405e-06
4.33476390924014e-06
3.83630807573155e-06
3.18237569351377e-06
2.36578801507709e-06
1.39483025644136e-06
4.12899379130714e-09
1.56638980170722e-11
1.5663219654977e-11
4.14342399391358e-09
1.40233350721279e-06
2.3794382581919e-06
3.20141511610257e-06
3.85997113771679e-06
4.36226456511864e-06
4.72686002397843e-06
4.97867647942327e-06
5.14418157424954e-06
5.24773321472907e-06
5.30945254167311e-06
5.34453027227669e-06
5.36356385949633e-06
5.37343795975182e-06
5.3783427075737e-06
5.38067911963825e-06
5.38174806550479e-06
5.38221844606069e-06
5.38241776054807e-06
5.38249913644319e-06
5.38253112601403e-06
5.38254317746886e-06
5.38254743720936e-06
5.38254866148762e-06
5.3825484688146e-06
5.38254687105507e-06
5.38254226626242e-06
5.38252993373271e-06
5.38249783896367e-06
5.38241680686179e-06
5.38221891555145e-06
5.38175240610491e-06
5.38069256477929e-06
5.37837578057597e-06
5.37351049100386e-06
5.3637106914243e-06
5.34480808421026e-06
5.30994584320714e-06
5.24855571774328e-06
5.14546765197073e-06
4.98055766538651e-06
4.7294249564998e-06
4.36550776388175e-06
3.86374487826568e-06
3.20540562475654e-06
2.38318807833373e-06
1.40531575031549e-06
4.16024196310385e-09
1.57791579392539e-11
1.57462037424831e-11
4.1659239012024e-09
1.40989778455842e-06
2.39201213171225e-06
3.21809075028972e-06
3.87988173722695e-06
4.38462731373438e-06
4.7510060114365e-06
5.00406479783697e-06
5.1703982282781e-06
5.27447820024905e-06
5.33651988473694e-06
5.37178585562359e-06
5.39092474052447e-06
5.40085533351483e-06
5.40578919551198e-06
5.40814004797237e-06
5.40921590383689e-06
5.40968948549495e-06
5.40989024337252e-06
5.40997225845562e-06
5.41000453015197e-06
5.4100167083548e-06
5.41002102701877e-06
5.41002227951262e-06
5.41002209825279e-06
5.41002049802176e-06
5.41001587269402e-06
5.41000348437029e-06
5.40997125157333e-06
5.40988988081554e-06
5.40969116572224e-06
5.40922269387771e-06
5.4081583194183e-06
5.40583144459555e-06
5.40094459575553e-06
5.39110070055568e-06
5.37211192338805e-06
5.33708903940194e-06
5.27541353504437e-06
5.17184272253317e-06
5.00615534022794e-06
4.75383053025541e-06
4.38817109779663e-06
3.88397793606725e-06
3.22239661190672e-06
2.39603249219139e-06
1.41306061844125e-06
4.18330138391909e-09
1.58640492416943e-11
1.58036420562592e-11
4.18153140065148e-09
1.41515644486391e-06
2.40076264759195e-06
3.22970669146223e-06
3.89376301967443e-06
4.4002303142121e-06
4.76786477748314e-06
5.02180131972006e-06
5.18872216941197e-06
5.29317835240435e-06
5.35545061211703e-06
5.39085188689349e-06
5.41006685855798e-06
5.42003850416091e-06
5.42499365140865e-06
5.42735512981637e-06
5.42843610632798e-06
5.428912078957e-06
5.42911392503802e-06
5.42919642776222e-06
5.42922891818617e-06
5.42924119688879e-06
5.42924556372115e-06
5.42924684035952e-06
5.4292466699883e-06
5.42924506999987e-06
5.42924043225405e-06
5.42922800849256e-06
5.42919568782357e-06
5.42911410103219e-06
5.42891485665547e-06
5.42844511104865e-06
5.42737776185677e-06
5.42504419610236e-06
5.42014291725835e-06
5.4102692659319e-06
5.39122193093787e-06
5.35608922678669e-06
5.29421764449607e-06
5.19031374238509e-06
5.02408806730826e-06
4.77093536449913e-06
4.40406295234711e-06
3.89817413699008e-06
3.23432636248453e-06
2.40505807367409e-06
1.41850761837266e-06
4.19951354520006e-09
1.59236596191982e-11
1.58394036250827e-11
4.19126996792033e-09
1.41844656210608e-06
2.40624778139028e-06
3.2370002366405e-06
3.90249230239821e-06
4.4100558425861e-06
4.77849400939097e-06
5.03299559619874e-06
5.20029706033077e-06
5.30499878318016e-06
5.36742272349424e-06
5.40291377242744e-06
5.42217969442092e-06
5.43217910034802e-06
5.43714879038081e-06
5.43951760852834e-06
5.44060216369142e-06
5.44107982900046e-06
5.44128245710328e-06
5.44136531683843e-06
5.44139797135666e-06
5.44141032793442e-06
5.4414147336445e-06
5.44141603086563e-06
5.44141587086161e-06
5.44141427341147e-06
5.44140963031871e-06
5.44139718905661e-06
5.44136482489348e-06
5.44128313051526e-06
5.44108361665186e-06
5.44061320271648e-06
5.43954424398313e-06
5.43720695499467e-06
5.43229744884542e-06
5.42240647899657e-06
5.40332446928675e-06
5.36812579416173e-06
5.30613501058268e-06
5.20202660493945e-06
5.03546773519639e-06
4.78179912124404e-06
4.4141666013666e-06
3.90721022883246e-06
3.24192975707276e-06
2.41081893153231e-06
1.42198996995524e-06
4.2098877143155e-09
1.59618089442504e-11
1.58560636274167e-11
4.19582190420221e-09
1.41999286440042e-06
2.40883915820738e-06
3.24046208345757e-06
3.90665321896696e-06
4.41475727073871e-06
4.78359729221702e-06
5.03838585562414e-06
5.20588401152166e-06
5.31071507611959e-06
5.37322055441768e-06
5.40876091882537e-06
5.42805547119492e-06
5.4380708466251e-06
5.44304910681193e-06
5.44542235919758e-06
5.44650913339676e-06
5.44698787833217e-06
5.44719102159157e-06
5.44727412593109e-06
5.44730689858069e-06
5.44731931470587e-06
5.44732375215533e-06
5.44732506733972e-06
5.44732491727206e-06
5.44732332399084e-06
5.44731868110971e-06
5.44730623751649e-06
5.44727386907482e-06
5.44719216504328e-06
5.44699261832314e-06
5.44652208848821e-06
5.44545276402653e-06
5.44311444780222e-06
5.43820232994684e-06
5.42830526291008e-06
5.40921005502986e-06
5.37398472067309e-06
5.31194347226523e-06
5.20774526595209e-06
5.04103579671589e-06
4.78712858091213e-06
4.41913800122304e-06
3.91167119756598e-06
3.24569719932064e-06
2.41368489173773e-06
1.42373011205841e-06
4.21509725238376e-09
1.59810420191503e-11
1.58549104481066e-11
4.19552894430515e-09
1.41990791032929e-06
2.4087226666427e-06
3.24033741362524e-06
3.90653716252414e-06
4.41466069587123e-06
4.78352579584533e-06
5.0383406765361e-06
5.20586320486201e-06
5.31071479798879e-06
5.37323623162154e-06
5.40878814932843e-06
5.42809054105817e-06
5.4381109285793e-06
5.4430922237628e-06
5.44546722654179e-06
5.44655496896081e-06
5.44703423251349e-06
5.44723764856265e-06
5.44732089661658e-06
5.44735374693813e-06
5.44736620697861e-06
5.44737067033964e-06
5.44737200141484e-06
5.44737186088798e-06
5.44737027302391e-06
5.44736563514109e-06
5.44735320316312e-06
5.44732086769473e-06
5.44723924835297e-06
5.44703989768118e-06
5.44656978597951e-06
5.44550129473803e-06
5.44316454025035e-06
5.43825518179159e-06
5.4283627084222e-06
5.40927468916645e-06
5.37405989005783e-06
5.31203302394163e-06
5.20785296400311e-06
5.04116438881657e-06
4.78727860682276e-06
4.41930653273222e-06
3.91185071838843e-06
3.2458747359649e-06
2.41384132541694e-06
1.42383938861e-06
4.21547875190432e-09
1.59826299521784e-11
1.58359590690208e-11
4.19039530320483e-09
1.41819289662232e-06
2.40589954975778e-06
3.23662710687407e-06
3.90214456962636e-06
4.40976624704942e-06
4.77827957890518e-06
5.03286027450942e-06
5.20023516547678e-06
5.30499884069221e-06
5.36747101180285e-06
5.40299701925506e-06
5.42228668311305e-06
5.43230127892934e-06
5.4372801715651e-06
5.43965429876862e-06
5.44074179079558e-06
5.44122102882941e-06
5.44142448363119e-06
5.44150777836091e-06
5.44154066753965e-06
5.44155315647569e-06
5.44155764009074e-06
5.44155898498479e-06
5.44155885357984e-06
5.44155727242831e-06
5.44155264458786e-06
5.4415402389065e-06
5.44150797544211e-06
5.44142653910255e-06
5.44122762174932e-06
5.44075847896704e-06
5.43969205168595e-06
5.43735950485797e-06
5.43245837267597e-06
5.42258133391287e-06
5.40352110698287e-06
5.3683543223432e-06
5.30640701633375e-06
5.20235337140725e-06
5.03585740565132e-06
4.78225310184775e-06
4.41467579022946e-06
3.90775171152567e-06
3.24246430270466e-06
2.41128905419761e-06
1.42231773414996e-06
4.21103045373379e-09
1.59665623644801e-11
1.57979630526295e-11
4.18009043760783e-09
1.41473820272602e-06
2.40018692029638e-06
3.2290881305531e-06
3.89318517602744e-06
4.39974823968893e-06
4.76750766230841e-06
5.02157651053121e-06
5.18862072059834e-06
5.29318135938094e-06
5.35553517133821e-06
5.39099569017974e-06
5.41025096985871e-06
5.42024844067786e-06
5.42521925032003e-06
5.42758977092801e-06
5.42867575113048e-06
5.4291544030182e-06
5.42935765645534e-06
5.42944089858662e-06
5.42947378689545e-06
5.42948628925278e-06
5.42949078719164e-06
5.42949214369786e-06
5.42949202101785e-06
5.4294904481511e-06
5.42948583617206e-06
5.42947347332926e-06
5.42944132522167e-06
5.42936018008645e-06
5.42916195559594e-06
5.42869438144574e-06
5.42763135315326e-06
5.42530587478921e-06
5.42041886271912e-06
5.41056891621942e-06
5.39155858764211e-06
5.35647995171073e-06
5.29468188877521e-06
5.1908702644937e-06
5.02475009024009e-06
4.77170450942105e-06
4.40492299214395e-06
3.8990856861653e-06
3.23522306415073e-06
2.40584382317189e-06
1.41905343846274e-06
4.20141218847251e-09
1.59315544471561e-11
1.57384062937942e-11
4.16394750347097e-09
1.4093232260037e-06