/*--------------------------------*- C++ -*----------------------------------*\
  =========                 |
  \\      /  F ield         | OpenFOAM: The Open Source CFD Toolbox
   \\    /   O peration     | Website:  https://openfoam.org
    \\  /    A nd           | Version:  10
     \\/     M anipulation  |
\*---------------------------------------------------------------------------*/
FoamFile
{
    format      ascii;
    class       volScalarField;
    location    "8";
    object      omega;
}
// * * * * * * * * * * * * * * * * * * * * * * * * * * * * * * * * * * * * * //

dimensions      [0 0 -1 0 0 0 0];

internalField   nonuniform List<scalar> 
2500
(
127885.503208674
127894.765620769
127892.093493107
127889.956889215
127888.545123955
127887.674457854
127887.155757584
127886.854487637
127886.684625264
127886.592589024
127886.543926611
127886.519359063
127886.507426152
127886.501578507
127886.498736053
127886.497206993
127886.496527426
127886.496043314
127886.49562772
127886.495366547
127886.49515815
127886.494987361
127886.494851086
127886.494770816
127886.494687417
127886.494623425
127886.494606338
127886.494610619
127886.494643432
127886.494708637
127886.494814845
127886.49501507
127886.495269521
127886.495678032
127886.496404371
127886.497821347
127886.500727585
127886.506676914
127886.519296599
127886.544485823
127886.593681258
127886.686617521
127886.856278155
127887.155935981
127887.67222181
127888.538539684
127889.950309664
127892.098854966
127894.784651237
127885.473452486
31882.7815459754
14169.1759713266
14167.8710538915
14166.8609247831
14166.1855554976
14165.7606925399
14165.5016183227
14165.3476327886
14165.2587646205
14165.2092253502
14165.1826035105
14165.1688522469
14165.1620244645
14165.1587514138
14165.1572338864
14165.1565460853
14165.1562464577
14165.1561098941
14165.1560408534
14165.1560049614
14165.1559826484
14165.1559664311
14165.1559541235
14165.1559458359
14165.1559385914
14165.1559329292
14165.1559302925
14165.1559295844
14165.1559311071
14165.1559365525
14165.1559497537
14165.1559803296
14165.1560458588
14165.1561914345
14165.1565181999
14165.15725084
14165.158860034
14165.1622895787
14165.1693731509
14165.1834506523
14165.2104262871
14165.2602496182
14165.3490659837
14165.5023872055
14165.7600909251
14166.1834666919
14166.8597239564
14167.8766012378
14169.1903097701
31882.7383549947
31798.1716509905
3532.68472339998
50.863752019001
50.8586072432405
50.8552064999362
50.8530783986573
50.8517844017445
50.8510162028592
50.8505727184252
50.8503250489663
50.8501916764386
50.8501225781397
50.8500881574463
50.85007164604
50.850064008686
50.8500605895285
50.8500591130253
50.8500584780194
50.8500581950112
50.8500580640473
50.8500579938877
50.8500579478691
50.850057914347
50.850057891245
50.8500578724411
50.850057857544
50.8500578489986
50.8500578448221
50.8500578457247
50.8500578602798
50.85005790677
50.8500580283714
50.8500583249714
50.8500590218002
50.8500606297608
50.8500642834778
50.8500723542481
50.8500895890899
50.8501251190459
50.8501956576835
50.8503306043239
50.8505794811777
50.8510227655707
50.8517881742926
50.853076608088
50.8552003531825
50.8586115871267
50.8638017850225
3532.69296673689
31798.1730424771
31719.6644878154
3523.8358597826
50.7356396639978
50.7302082353859
50.7267103210343
50.7245699432078
50.7232948121826
50.7225513641279
50.7221287542621
50.7218958012622
50.7217717583096
50.7217081115478
50.7216766745692
50.7216617187676
50.7216548600932
50.7216518230693
50.7216505264435
50.7216499833714
50.721649753846
50.721649654164
50.721649604895
50.7216495741013
50.7216495517274
50.7216495360981
50.7216495239152
50.7216495140156
50.7216495073186
50.7216495026121
50.7216495000116
50.7216495062816
50.7216495374403
50.7216496309638
50.7216498775337
50.7216504738021
50.7216518714822
50.7216550903764
50.7216622825341
50.7216778018843
50.7217101098622
50.7217749294372
50.7219003249191
50.7221344371561
50.7225572331729
50.7232989947817
50.7245707932125
50.7267111911325
50.7302284388482
50.7357237595415
3523.84916241969
31719.7634017339
31653.7137905933
3516.4875025041
50.6303374028675
50.6254691746646
50.6224204644022
50.6205999854279
50.6195390421238
50.6189321065925
50.6185924714018
50.6184076171209
50.6183101925039
50.6182606169656
50.618236296069
50.6182247947
50.6182195507458
50.6182172450594
50.6182162691849
50.6182158680142
50.6182157049421
50.6182156382257
50.6182156079276
50.6182155899189
50.6182155766627
50.6182155673346
50.6182155603506
50.6182155544491
50.6182155497753
50.6182155455416
50.6182155421162
50.6182155425536
50.6182155586315
50.6182156203657
50.6182157974711
50.6182162357791
50.618217274055
50.6182196897082
50.6182251348081
50.6182369804626
50.618261842105
50.6183121697548
50.6184105057772
50.6185962203292
50.6189361978243
50.6195424536163
50.6206023098002
50.6224265605097
50.6255001189423
50.6304421733778
3516.50422464977
31653.9060925028
31602.9425269818
3510.91019971517
50.5512726854726
50.5474080574546
50.5450549377277
50.5436841761651
50.5429028218071
50.5424641585886
50.5422223711202
50.5420923083392
50.5420243731696
50.5419900370517
50.5419732783228
50.5419653854729
50.5419618003357
50.541960231439
50.5419595720274
50.5419593051508
50.5419592003426
50.5419591601281
50.5419591438037
50.5419591348624
50.5419591280547
50.541959123219
50.5419591198008
50.5419591167007
50.5419591137427
50.5419591104124
50.5419591069823
50.5419591052307
50.5419591113542
50.5419591464297
50.5419592608591
50.5419595505606
50.5419602424186
50.5419618654239
50.5419655486543
50.5419736112693
50.5419906418217
50.5420253678266
50.5420937974542
50.5422243627674
50.5424664250284
50.5429049289712
50.5436864779054
50.5450626321329
50.5474411066695
50.551378706992
3510.92765042937
31603.1879119958
31566.8048256905
3507.00387790548
50.4965130207774
50.4937334469477
50.4920868869073
50.4911508541148
50.4906288205835
50.4903410746646
50.4901847450674
50.4901015546467
50.4900584394243
50.4900367662681
50.4900262272265
50.4900212766221
50.4900190330487
50.4900180543612
50.4900176454223
50.4900174822938
50.4900174203656
50.4900173982801
50.4900173906797
50.490017387249
50.4900173844425
50.4900173823787
50.4900173811132
50.4900173797465
50.490017378037
50.4900173756738
50.4900173727965
50.4900173706436
50.4900173716488
50.4900173890051
50.4900174565244
50.4900176324052
50.4900180556352
50.4900190554538
50.4900213361403
50.4900263514161
50.490036996646
50.4900588273602
50.4901021513462
50.4901855626528
50.4903420162225
50.4906297334426
50.4911523200893
50.4920934428929
50.4937618251351
50.4966046983909
3507.01960288949
31567.054811515
31542.8541519732
3504.45990298312
50.4612580588914
50.4594201754242
50.4583599328407
50.4577713719925
50.4574500532922
50.457276079376
50.4571828588657
50.457133744705
50.4571084628309
50.457095809229
50.4570896718932
50.4570867931515
50.4570854900517
50.4570849228202
50.4570846870201
50.4570845942713
50.4570845603182
50.457084549218
50.457084546196
50.4570845455769
50.4570845449326
50.4570845443198
50.4570845441992
50.4570845437832
50.4570845428883
50.4570845413552
50.457084539227
50.4570845372062
50.4570845364281
50.4570845440013
50.4570845805711
50.457084679878
50.4570849208975
50.4570854937487
50.4570868054288
50.4570896989336
50.4570958619355
50.4571085559641
50.4571338940616
50.4571830626036
50.4572762808297
50.4574501852571
50.4577719190958
50.4583642776933
50.4594409088008
50.4613278771658
3504.47246112543
31543.0722276945
31527.9856772495
3502.90965971007
50.440023318749
50.4388943363305
50.4382593635261
50.437914894263
50.4377307014288
50.4376326959894
50.4375808771107
50.4375538295679
50.4375399899167
50.4375330869531
50.4375297442845
50.437528177251
50.4375274681428
50.4375271598944
50.4375270323618
50.4375269829074
50.4375269654715
50.4375269605487
50.4375269599501
50.4375269603018
50.4375269604312
50.4375269604385
50.4375269606355
50.4375269605991
50.4375269601597
50.4375269592549
50.4375269578308
50.437526956265
50.4375269551816
50.4375269579628
50.437526976329
50.4375270289304
50.4375271579474
50.4375274662297
50.4375281739417
50.4375297380786
50.4375330770242
50.4375399758183
50.4375538099814
50.4375808389349
50.4376325904029
50.4377304672777
50.4379148174427
50.4382616531969
50.4389075967686
50.4400710894945
3502.9187125244
31528.1544463676
31519.2953497405
3502.0208961197
50.427991598238
50.4273420519641
50.4269854561403
50.4267962469927
50.4266970986088
50.4266452356701
50.4266181669202
50.4266041623778
50.4265970348225
50.4265934893241
50.4265917739501
50.4265909696411
50.4265906055612
50.4265904474306
50.4265903823099
50.4265903574329
50.4265903491425
50.4265903473409
50.426590347506
50.4265903479534
50.4265903482841
50.4265903485203
50.4265903487481
50.4265903487911
50.4265903486031
50.4265903480842
50.4265903472045
50.4265903461429
50.4265903452787
50.4265903460515
50.426590354653
50.4265903809559
50.4265904463427
50.4265906033197
50.4265909642397
50.4265917625314
50.4265934684816
50.4265970002406
50.4266041075452
50.4266180752749
50.4266450625396
50.4266967765067
50.4267958923807
50.4269863505804
50.4273495866175
50.4280213803128
3502.02686754054
31519.413729502
31514.4915028467
3501.53924301492
50.4215478121826
50.421195492479
50.4210064661314
50.420908285098
50.4208578385141
50.4208318886399
50.4208185154584
50.4208116549686
50.4208081802389
50.4208064554106
50.4208056211066
50.4208052296144
50.420805052256
50.4208049752633
50.4208049437051
50.4208049318401
50.4208049281906
50.4208049276726
50.4208049279461
50.4208049283233
50.4208049286255
50.4208049288605
50.4208049290357
50.4208049290991
50.4208049290232
50.4208049287333
50.4208049282259
50.4208049275739
50.4208049269744
50.4208049270789
50.4208049308981
50.4208049433585
50.4208049749115
50.4208050509855
50.4208052260044
50.4208056130197
50.4208064400923
50.4208081539159
50.4208116114966
50.4208184403331
50.4208317450405
50.4208575624142
50.4209078923377
50.4210066208876
50.4211993165179
50.4215649069658
3501.54288535586
31514.5678632633
31511.969962687
3501.29146537041
50.4182720711809
50.4180909196157
50.4179958236678
50.4179474314217
50.4179230378566
50.4179106946631
50.4179044127628
50.4179012165106
50.4178996048591
50.4178988061331
50.4178984196779
50.4178982381098
50.417898155755
50.4178981200148
50.4178981054368
50.4178981000597
50.4178980985711
50.4178980984908
50.4178980987005
50.4178980989591
50.417898099171
50.4178980993388
50.4178980994532
50.4178980995053
50.4178980994754
50.4178980993202
50.4178980990449
50.4178980986757
50.4178980983087
50.4178980982453
50.4178980998539
50.4178981054864
50.4178981200527
50.4178981553095
50.417898236411
50.4178984155421
50.4178987979887
50.4178995904085
50.4179011915683
50.4179043669167
50.4179106011075
50.4179228451951
50.4179471132704
50.4179956865797
50.418092645172
50.4182811766707
3501.29353714652
31512.0157429574
31510.7086935117
3501.17002379615
50.4166856283524
50.4165969243915
50.4165513097702
50.4165285486261
50.4165172864523
50.4165116794981
50.4165088611115
50.4165074386164
50.4165067243271
50.4165063707556
50.4165061995614
50.4165061189976
50.4165060824015
50.4165060665224
50.4165060600788
50.4165060577615
50.4165060571878
50.4165060572147
50.4165060573564
50.4165060575128
50.4165060576417
50.416506057744
50.416506057811
50.4165060578447
50.4165060578328
50.4165060577539
50.4165060576127
50.4165060574175
50.4165060572137
50.4165060571384
50.4165060577847
50.4165060602287
50.4165060666878
50.4165060823785
50.4165061184428
50.4165061979431
50.4165063673608
50.4165067180277
50.4165074270278
50.4165088377042
50.4165116267871
50.4165171684083
50.4165283308508
50.416551116068
50.4165976019186
50.4166901559071
3501.17113029364
31510.7344131658
31510.1056406295
3501.11313559888
50.4159513901887
50.4159098587554
50.4158889138983
50.4158786571147
50.4158736728051
50.4158712307105
50.4158700182345
50.4158694111284
50.4158691074753
50.4158689572996
50.4158688845084
50.4158688501862
50.4158688345687
50.4158688277934
50.4158688250593
50.4158688241055
50.4158688238976
50.4158688239347
50.4158688240187
50.4158688241051
50.4158688241763
50.4158688242327
50.4158688242688
50.4158688242878
50.4158688242833
50.4158688242452
50.4158688241763
50.4158688240793
50.4158688239746
50.4158688239236
50.4158688241728
50.4158688251947
50.4158688279558
50.4158688346853
50.4158688501315
50.4158688840905
50.415868956264
50.4158691053648
50.4158694067479
50.4158700078874
50.4158712040024
50.4158736070715
50.415878524261
50.4158887554033
50.4159100754815
50.4159535010346
3501.11369367442
31510.1192700978
31509.8293278306
3501.08760221108
50.4156258678606
50.4156072103521
50.4155979722062
50.4155935286374
50.4155914066762
50.4155903832573
50.4155898813541
50.4155896320251
50.4155895077894
50.4155894463846
50.4155894165806
50.4155894024966
50.4155893960763
50.4155893932915
50.4155893921746
50.4155893917975
50.4155893917274
50.4155893917542
50.4155893917994
50.4155893918439
50.4155893918805
50.4155893919094
50.4155893919278
50.4155893919377
50.4155893919361
50.4155893919186
50.4155893918868
50.4155893918411
50.4155893917907
50.4155893917624
50.4155893918552
50.4155893922689
50.4155893934102
50.4155893962001
50.4155894025921
50.4155894165997
50.4155894462683
50.4155895073922
50.4155896308081
50.4155898773889
50.4155903708318
50.4155913727425
50.4155934544144
50.4155978671317
50.4156072531671
50.4156267933622
3501.08786931338
31509.8361774859
31509.707812241
3501.07660684616
50.4154874724551
50.4154794057879
50.4154754798689
50.4154736234532
50.4154727517842
50.4154723378368
50.4154721373033
50.4154720384691
50.415471989402
50.4154719651601
50.4154719533751
50.415471947793
50.4154719452436
50.4154719441384
50.4154719436982
50.4154719435551
50.4154719435336
50.415471943549
50.4154719435718
50.4154719435935
50.4154719436113
50.4154719436254
50.4154719436344
50.4154719436394
50.415471943639
50.4154719436315
50.4154719436175
50.4154719435971
50.4154719435744
50.4154719435606
50.4154719435942
50.4154719437566
50.4154719442141
50.415471945335
50.4154719478977
50.4154719534929
50.4154719652961
50.4154719895294
50.4154720383667
50.4154721360313
50.4154723324607
50.4154727353313
50.415473584845
50.4154754184797
50.4154793968856
50.4154878546532
3501.07672866363
31509.7110917738
31509.6565399191
3501.07206944794
50.4154311572959
50.4154277917168
50.4154261799487
50.4154254300523
50.4154250836166
50.4154249215735
50.4154248440252
50.4154248061065
50.4154247873493
50.4154247780849
50.4154247735736
50.4154247714317
50.415424770452
50.4154247700277
50.4154247698603
50.4154247698081
50.4154247698026
50.4154247698108
50.4154247698218
50.4154247698321
50.4154247698405
50.4154247698472
50.4154247698516
50.4154247698541
50.4154247698543
50.4154247698514
50.4154247698457
50.4154247698372
50.4154247698274
50.4154247698213
50.4154247698332
50.4154247698954
50.4154247700734
50.4154247705107
50.4154247715082
50.4154247736774
50.4154247782332
50.4154247875491
50.415424806275
50.41542484373
50.4154249193926
50.4154250760543
50.415425411145
50.4154261471873
50.4154277750659
50.4154313059275
3501.07212257949
31509.658041683
31509.6358933746
3501.07028913657
50.4154094426786
50.4154080844416
50.4154074436952
50.4154071501124
50.4154070165808
50.4154069550407
50.4154069259452
50.4154069118316
50.4154069048757
50.4154069014413
50.4154068997664
50.4154068989697
50.4154068986051
50.4154068984477
50.4154068983865
50.4154068983685
50.4154068983678
50.4154068983722
50.4154068983774
50.4154068983823
50.4154068983863
50.4154068983896
50.4154068983918
50.4154068983932
50.4154068983936
50.4154068983928
50.4154068983906
50.4154068983873
50.4154068983835
50.4154068983809
50.4154068983851
50.4154068984084
50.4154068984757
50.4154068986414
50.4154068990187
50.4154068998362
50.4154069015453
50.4154069050251
50.4154069119982
50.4154069259395
50.4154069542083
50.4154070132642
50.4154071413259
50.4154074274132
50.415408071937
50.4154094969738
3501.07031136828
31509.6365533196
31509.6281119038
3501.06964326787
50.4154017841464
50.4154012528369
50.4154010056716
50.4154008940479
50.4154008440293
50.4154008213085
50.415400810696
50.4154008055902
50.4154008030839
50.4154008018476
50.4154008012443
50.4154008009573
50.4154008008263
50.4154008007703
50.4154008007492
50.4154008007437
50.4154008007443
50.4154008007468
50.4154008007494
50.4154008007519
50.4154008007539
50.4154008007557
50.4154008007569
50.4154008007578
50.4154008007583
50.4154008007583
50.4154008007577
50.4154008007567
50.4154008007553
50.4154008007544
50.4154008007558
50.4154008007642
50.4154008007888
50.4154008008497
50.4154008009882
50.4154008012876
50.4154008019112
50.4154008031756
50.4154008057013
50.4154008107469
50.4154008210115
50.4154008426364
50.4154008901521
50.415400998046
50.4154012454799
50.4154018026647
3501.06965221696
31509.6283910392
31509.6255501955
3501.06944839365
50.415399641907
50.4153994400819
50.4153993474016
50.4153993061118
50.4153992878725
50.4153992797044
50.4153992759362
50.4153992741394
50.415399273262
50.4153992728303
50.4153992726202
50.4153992725207
50.4153992724759
50.4153992724573
50.4153992724509
50.4153992724498
50.4153992724509
50.4153992724524
50.415399272454
50.4153992724554
50.4153992724567
50.4153992724577
50.4153992724586
50.4153992724593
50.4153992724598
50.4153992724601
50.4153992724602
50.41539927246
50.4153992724597
50.4153992724594
50.4153992724599
50.4153992724627
50.4153992724713
50.4153992724926
50.4153992725416
50.4153992726477
50.4153992728685
50.4153992733151
50.4153992742051
50.4153992759822
50.4153992796092
50.4153992873131
50.415399304459
50.4153993440111
50.4153994362832
50.4153996477316
3501.06945186804
31509.6256641358
31509.6250385275
3501.06942713263
50.4153995956431
50.4153995210752
50.4153994872419
50.4153994723619
50.4153994658794
50.415399463018
50.4153994617155
50.4153994611013
50.415399460804
50.415399460659
50.4153994605892
50.4153994605569
50.415399460543
50.4153994605379
50.4153994605367
50.4153994605372
50.4153994605383
50.4153994605395
50.4153994605406
50.4153994605416
50.4153994605425
50.4153994605433
50.415399460544
50.4153994605446
50.4153994605452
50.4153994605456
50.4153994605459
50.415399460546
50.415399460546
50.415399460546
50.4153994605461
50.415399460547
50.4153994605496
50.4153994605565
50.4153994605728
50.4153994606086
50.4153994606837
50.415399460836
50.4153994611402
50.4153994617484
50.4153994629955
50.4153994656677
50.415399471692
50.4153994858056
50.4153995192822
50.415399597291
3501.0694284367
31509.6250835175
31509.6253077905
3501.06947071819
50.4154003219575
50.4154002951263
50.4154002830885
50.4154002778597
50.4154002756135
50.4154002746376
50.4154002742008
50.4154002739985
50.4154002739024
50.4154002738568
50.4154002738358
50.4154002738269
50.4154002738238
50.4154002738234
50.4154002738241
50.4154002738251
50.4154002738262
50.4154002738272
50.4154002738282
50.415400273829
50.4154002738298
50.4154002738305
50.4154002738312
50.4154002738317
50.4154002738323
50.4154002738327
50.4154002738331
50.4154002738333
50.4154002738335
50.4154002738336
50.4154002738335
50.4154002738337
50.4154002738341
50.4154002738359
50.4154002738405
50.4154002738514
50.4154002738751
50.4154002739242
50.4154002740237
50.4154002742246
50.4154002746404
50.4154002755419
50.4154002776033
50.4154002825099
50.4154002943397
50.415400322355
3501.06947119271
31509.6253250158
31509.6258661115
3501.06953784727
50.4154013250286
50.4154013156189
50.4154013114429
50.4154013096518
50.4154013088945
50.4154013085722
50.415401308432
50.4154013083694
50.4154013083414
50.4154013083294
50.4154013083248
50.4154013083238
50.4154013083244
50.4154013083255
50.4154013083268
50.415401308328
50.4154013083291
50.41540130833
50.4154013083309
50.4154013083317
50.4154013083324
50.4154013083331
50.4154013083337
50.4154013083343
50.4154013083348
50.4154013083352
50.4154013083356
50.4154013083359
50.4154013083361
50.4154013083362
50.4154013083361
50.415401308336
50.4154013083357
50.4154013083357
50.4154013083362
50.4154013083385
50.4154013083446
50.4154013083585
50.4154013083884
50.4154013084509
50.4154013085836
50.4154013088776
50.4154013095631
50.4154013112244
50.415401315298
50.4154013251002
3501.06953801529
31509.6258725195
31509.6265285665
3501.06961329881
50.4154024246082
50.4154024213933
50.4154024199828
50.4154024193868
50.4154024191402
50.4154024190391
50.4154024189978
50.4154024189814
50.4154024189756
50.4154024189744
50.4154024189752
50.4154024189767
50.4154024189784
50.41540241898
50.4154024189815
50.4154024189827
50.4154024189838
50.4154024189848
50.4154024189856
50.4154024189864
50.4154024189871
50.4154024189877
50.4154024189883
50.4154024189889
50.4154024189894
50.4154024189898
50.4154024189902
50.4154024189905
50.4154024189907
50.4154024189908
50.4154024189907
50.4154024189905
50.41540241899
50.4154024189894
50.4154024189887
50.4154024189882
50.4154024189884
50.4154024189907
50.4154024189975
50.4154024190143
50.4154024190532
50.4154024191441
50.4154024193638
50.4154024199098
50.4154024212749
50.4154024246154
3501.06961335718
31509.6265308901
31509.6272275882
3501.06969161901
50.4154035569972
50.4154035559312
50.4154035554703
50.4154035552798
50.4154035552042
50.4154035551759
50.4154035551665
50.4154035551647
50.4154035551659
50.415403555168
50.4154035551704
50.4154035551726
50.4154035551745
50.4154035551762
50.4154035551777
50.4154035551789
50.41540355518
50.4154035551809
50.4154035551817
50.4154035551825
50.4154035551831
50.4154035551838
50.4154035551844
50.4154035551849
50.4154035551854
50.4154035551858
50.4154035551863
50.4154035551866
50.4154035551868
50.4154035551869
50.4154035551868
50.4154035551865
50.415403555186
50.4154035551852
50.4154035551841
50.4154035551828
50.4154035551813
50.41540355518
50.4154035551797
50.4154035551819
50.4154035551907
50.4154035552156
50.4154035552817
50.4154035554539
50.4154035558964
50.4154035570013
3501.06969163931
31509.6272284147
31509.627939143
3501.06977090469
50.4154047002752
50.415404699937
50.4154046997945
50.4154046997382
50.4154046997181
50.4154046997128
50.4154046997133
50.4154046997157
50.4154046997187
50.4154046997216
50.4154046997242
50.4154046997265
50.4154046997285
50.4154046997301
50.4154046997315
50.4154046997327
50.4154046997338
50.4154046997347
50.4154046997354
50.4154046997362
50.4154046997369
50.4154046997375
50.4154046997381
50.4154046997386
50.4154046997391
50.4154046997395
50.4154046997399
50.4154046997402
50.4154046997404
50.4154046997406
50.4154046997405
50.4154046997403
50.4154046997398
50.415404699739
50.4154046997379
50.4154046997364
50.4154046997345
50.4154046997323
50.41540469973
50.4154046997281
50.4154046997278
50.4154046997322
50.4154046997492
50.4154046997993
50.4154046999352
50.4154047002853
3501.06977091215
31509.6279394325
31509.6286548958
3501.06985050807
50.4154058470857
50.4154058469882
50.4154058469498
50.4154058469364
50.4154058469336
50.415405846935
50.415405846938
50.4154058469413
50.4154058469445
50.4154058469474
50.4154058469499
50.4154058469521
50.415405846954
50.4154058469555
50.4154058469568
50.4154058469579
50.4154058469589
50.4154058469598
50.4154058469606
50.4154058469613
50.4154058469619
50.4154058469625
50.4154058469631
50.4154058469636
50.4154058469641
50.4154058469646
50.415405846965
50.4154058469653
50.4154058469655
50.4154058469656
50.4154058469656
50.4154058469654
50.415405846965
50.4154058469643
50.4154058469633
50.4154058469619
50.4154058469601
50.4154058469579
50.4154058469553
50.4154058469525
50.4154058469499
50.4154058469484
50.4154058469505
50.4154058469622
50.4154058469988
50.4154058471002
3501.06985051126
31509.6286550003
31509.6293720244
3501.06993021375
50.4154069950177
50.4154069949977
50.415406994992
50.4154069949917
50.4154069949937
50.4154069949966
50.4154069949999
50.415406995003
50.4154069950059
50.4154069950086
50.4154069950108
50.4154069950128
50.4154069950144
50.4154069950159
50.4154069950171
50.4154069950182
50.4154069950191
50.4154069950199
50.4154069950207
50.4154069950213
50.415406995022
50.4154069950226
50.4154069950232
50.4154069950237
50.4154069950241
50.4154069950246
50.415406995025
50.4154069950253
50.4154069950256
50.4154069950257
50.4154069950258
50.4154069950256
50.4154069950253
50.4154069950247
50.4154069950238
50.4154069950226
50.4154069950211
50.4154069950191
50.4154069950168
50.4154069950141
50.4154069950113
50.4154069950087
50.4154069950068
50.4154069950071
50.4154069950127
50.4154069950343
3501.06993021562
31509.6293720657
31509.6300895946
3501.07000995171
50.4154081432983
50.4154081433024
50.4154081433064
50.4154081433095
50.4154081433123
50.4154081433151
50.415408143318
50.4154081433206
50.4154081433231
50.4154081433254
50.4154081433273
50.4154081433291
50.4154081433305
50.4154081433318
50.4154081433329
50.4154081433339
50.4154081433348
50.4154081433356
50.4154081433363
50.4154081433369
50.4154081433376
50.4154081433381
50.4154081433387
50.4154081433392
50.4154081433397
50.4154081433401
50.4154081433405
50.4154081433409
50.4154081433412
50.4154081433413
50.4154081433414
50.4154081433414
50.4154081433411
50.4154081433406
50.41540814334
50.415408143339
50.4154081433377
50.4154081433361
50.4154081433342
50.415408143332
50.4154081433296
50.4154081433272
50.4154081433248
50.4154081433223
50.4154081433188
50.4154081433157
3501.07000995314
31509.6300896159
31509.6308073037
3501.07008969965
50.4154092916852
50.4154092916962
50.4154092917026
50.415409291706
50.4154092917085
50.4154092917107
50.4154092917129
50.415409291715
50.415409291717
50.4154092917189
50.4154092917205
50.415409291722
50.4154092917233
50.4154092917244
50.4154092917254
50.4154092917263
50.4154092917271
50.4154092917278
50.4154092917285
50.4154092917291
50.4154092917297
50.4154092917303
50.4154092917308
50.4154092917313
50.4154092917318
50.4154092917323
50.4154092917327
50.415409291733
50.4154092917333
50.4154092917336
50.4154092917337
50.4154092917337
50.4154092917336
50.4154092917333
50.4154092917328
50.415409291732
50.4154092917311
50.4154092917298
50.4154092917284
50.4154092917268
50.415409291725
50.4154092917233
50.4154092917213
50.4154092917185
50.4154092917129
50.4154092917028
3501.07008970098
31509.6308073181
31509.6315250557
3501.07016945062
50.4154104401038
50.4154104401162
50.4154104401227
50.4154104401256
50.4154104401274
50.4154104401289
50.4154104401304
50.4154104401319
50.4154104401335
50.4154104401349
50.4154104401362
50.4154104401375
50.4154104401385
50.4154104401395
50.4154104401404
50.4154104401412
50.415410440142
50.4154104401426
50.4154104401432
50.4154104401439
50.4154104401444
50.415410440145
50.4154104401455
50.415410440146
50.4154104401465
50.415410440147
50.4154104401474
50.4154104401477
50.4154104401481
50.4154104401484
50.4154104401486
50.4154104401487
50.4154104401486
50.4154104401485
50.4154104401482
50.4154104401477
50.415410440147
50.4154104401462
50.4154104401452
50.4154104401441
50.4154104401431
50.415410440142
50.4154104401408
50.4154104401386
50.415410440133
50.4154104401214
3501.07016945186
31509.6315250677
31509.6322428207
3501.07024920249
50.4154115885317
50.4154115885438
50.4154115885497
50.4154115885517
50.4154115885528
50.4154115885535
50.4154115885544
50.4154115885554
50.4154115885564
50.4154115885575
50.4154115885585
50.4154115885594
50.4154115885603
50.4154115885611
50.4154115885619
50.4154115885626
50.4154115885633
50.4154115885639
50.4154115885645
50.415411588565
50.4154115885656
50.4154115885661
50.4154115885666
50.4154115885671
50.4154115885676
50.4154115885681
50.4154115885685
50.415411588569
50.4154115885693
50.4154115885696
50.4154115885699
50.4154115885701
50.4154115885702
50.4154115885702
50.41541158857
50.4154115885698
50.4154115885694
50.415411588569
50.4154115885685
50.415411588568
50.4154115885675
50.4154115885672
50.4154115885668
50.4154115885654
50.4154115885605
50.4154115885491
3501.07024920366
31509.6322428297
31509.6329605895
3501.07032895463
50.4154127369621
50.4154127369735
50.4154127369785
50.4154127369798
50.4154127369799
50.4154127369799
50.4154127369802
50.4154127369806
50.4154127369812
50.4154127369819
50.4154127369826
50.4154127369833
50.415412736984
50.4154127369846
50.4154127369853
50.4154127369859
50.4154127369865
50.415412736987
50.4154127369875
50.4154127369881
50.4154127369886
50.4154127369891
50.4154127369896
50.4154127369901
50.4154127369906
50.4154127369911
50.4154127369916
50.415412736992
50.4154127369924
50.4154127369928
50.4154127369931
50.4154127369934
50.4154127369936
50.4154127369938
50.4154127369938
50.4154127369938
50.4154127369938
50.4154127369937
50.4154127369936
50.4154127369937
50.4154127369939
50.4154127369943
50.4154127369946
50.4154127369941
50.4154127369901
50.4154127369794
3501.07032895582
31509.6329605993
31509.6336783596
3501.07040870683
50.4154138853932
50.4154138854036
50.4154138854077
50.4154138854081
50.4154138854074
50.4154138854068
50.4154138854064
50.4154138854063
50.4154138854065
50.4154138854068
50.4154138854071
50.4154138854076
50.4154138854081
50.4154138854086
50.4154138854091
50.4154138854096
50.4154138854101
50.4154138854106
50.4154138854111
50.4154138854116
50.4154138854121
50.4154138854126
50.4154138854131
50.4154138854136
50.4154138854141
50.4154138854146
50.4154138854151
50.4154138854155
50.415413885416
50.4154138854164
50.4154138854168
50.4154138854172
50.4154138854175
50.4154138854178
50.4154138854181
50.4154138854183
50.4154138854186
50.4154138854189
50.4154138854193
50.4154138854198
50.4154138854206
50.4154138854217
50.4154138854228
50.4154138854232
50.41541388542
50.4154138854104
3501.07040870805
31509.6336783702
31509.63439613
3501.07048845907
50.4154150338245
50.4154150338338
50.4154150338369
50.4154150338363
50.4154150338349
50.4154150338336
50.4154150338327
50.4154150338321
50.4154150338318
50.4154150338317
50.4154150338319
50.4154150338321
50.4154150338324
50.4154150338327
50.4154150338331
50.4154150338335
50.4154150338339
50.4154150338343
50.4154150338348
50.4154150338352
50.4154150338357
50.4154150338362
50.4154150338367
50.4154150338372
50.4154150338377
50.4154150338382
50.4154150338387
50.4154150338392
50.4154150338397
50.4154150338402
50.4154150338406
50.4154150338411
50.4154150338416