/*--------------------------------*- C++ -*----------------------------------*\
  =========                 |
  \\      /  F ield         | OpenFOAM: The Open Source CFD Toolbox
   \\    /   O peration     | Website:  https://openfoam.org
    \\  /    A nd           | Version:  10
     \\/     M anipulation  |
\*---------------------------------------------------------------------------*/
FoamFile
{
    format      ascii;
    class       volScalarField;
    location    "8";
    object      p;
}
// * * * * * * * * * * * * * * * * * * * * * * * * * * * * * * * * * * * * * //

dimensions      [1 -1 -2 0 0 0 0];

internalField   nonuniform List<scalar> 
2500
(
100100.366343469
100100.366344206
100100.366345096
100100.366345919
100100.366346521
100100.366346948
100100.366347232
100100.366347421
100100.366347545
100100.366347625
100100.366347677
100100.366347711
100100.366347732
100100.366347746
100100.366347755
100100.36634776
100100.366347763
100100.366347765
100100.366347765
100100.366347765
100100.366347764
100100.366347763
100100.366347762
100100.36634776
100100.366347758
100100.366347756
100100.366347754
100100.366347752
100100.36634775
100100.366347747
100100.366347744
100100.36634774
100100.366347736
100100.366347731
100100.366347724
100100.366347715
100100.366347703
100100.366347686
100100.366347661
100100.366347624
100100.366347569
100100.366347486
100100.366347359
100100.366347167
100100.366346881
100100.366346451
100100.366345843
100100.366345011
100100.366344109
100100.366343374
100100.364093384
100100.364093944
100100.364094671
100100.36409538
100100.364095915
100100.364096304
100100.364096568
100100.364096746
100100.364096864
100100.364096941
100100.364096991
100100.364097024
100100.364097045
100100.364097059
100100.364097067
100100.364097073
100100.364097076
100100.364097078
100100.364097078
100100.364097078
100100.364097077
100100.364097076
100100.364097075
100100.364097073
100100.364097072
100100.36409707
100100.364097067
100100.364097065
100100.364097063
100100.36409706
100100.364097057
100100.364097053
100100.364097049
100100.364097044
100100.364097037
100100.364097028
100100.364097016
100100.364096999
100100.364096974
100100.364096938
100100.364096885
100100.364096805
100100.364096685
100100.364096504
100100.364096237
100100.364095845
100100.364095304
100100.364094586
100100.364093848
100100.36409329
100100.361836825
100100.361837241
100100.361837733
100100.361838257
100100.361838663
100100.361838971
100100.361839184
100100.361839332
100100.361839431
100100.361839498
100100.361839542
100100.361839571
100100.361839591
100100.361839604
100100.361839612
100100.361839617
100100.36183962
100100.361839622
100100.361839623
100100.361839622
100100.361839622
100100.361839621
100100.361839619
100100.361839618
100100.361839616
100100.361839614
100100.361839612
100100.36183961
100100.361839607
100100.361839604
100100.361839601
100100.361839598
100100.361839593
100100.361839588
100100.361839581
100100.361839573
100100.361839561
100100.361839545
100100.361839522
100100.36183949
100100.361839443
100100.361839373
100100.361839271
100100.361839121
100100.361838904
100100.361838593
100100.361838181
100100.361837649
100100.361837148
100100.36183673
100100.359574256
100100.359574505
100100.359574761
100100.359575077
100100.359575329
100100.359575531
100100.359575677
100100.359575783
100100.359575856
100100.359575907
100100.359575943
100100.359575967
100100.359575984
100100.359575995
100100.359576002
100100.359576007
100100.35957601
100100.359576012
100100.359576012
100100.359576012
100100.359576011
100100.35957601
100100.359576009
100100.359576007
100100.359576006
100100.359576004
100100.359576001
100100.359575999
100100.359575997
100100.359575994
100100.359575991
100100.359575987
100100.359575983
100100.359575978
100100.359575972
100100.359575963
100100.359575953
100100.359575938
100100.359575918
100100.359575891
100100.359575853
100100.359575799
100100.359575723
100100.359575614
100100.359575465
100100.359575259
100100.359575002
100100.35957468
100100.359574416
100100.359574161
100100.357306445
100100.357306534
100100.357306596
100100.357306726
100100.357306839
100100.357306943
100100.357307025
100100.357307089
100100.357307137
100100.357307173
100100.357307199
100100.357307217
100100.357307231
100100.35730724
100100.357307246
100100.357307251
100100.357307253
100100.357307254
100100.357307255
100100.357307255
100100.357307254
100100.357307253
100100.357307251
100100.35730725
100100.357307248
100100.357307246
100100.357307244
100100.357307242
100100.357307239
100100.357307237
100100.357307234
100100.35730723
100100.357307226
100100.357307221
100100.357307215
100100.357307208
100100.357307198
100100.357307186
100100.357307169
100100.357307147
100100.357307119
100100.35730708
100100.35730703
100100.357306963
100100.357306878
100100.35730677
100100.357306654
100100.357306519
100100.357306452
100100.357306355
100100.355034406
100100.355034366
100100.355034291
100100.355034278
100100.355034281
100100.355034306
100100.355034335
100100.355034364
100100.35503439
100100.355034411
100100.355034428
100100.355034442
100100.355034452
100100.355034459
100100.355034464
100100.355034468
100100.35503447
100100.355034471
100100.355034471
100100.355034471
100100.35503447
100100.355034469
100100.355034467
100100.355034466
100100.355034464
100100.355034462
100100.35503446
100100.355034458
100100.355034456
100100.355034453
100100.35503445
100100.355034447
100100.355034443
100100.355034438
100100.355034433
100100.355034426
100100.355034418
100100.355034407
100100.355034394
100100.355034378
100100.355034358
100100.355034334
100100.355034305
100100.355034274
100100.355034243
100100.355034215
100100.355034209
100100.355034219
100100.355034291
100100.355034324
100100.352759244
100100.352759119
100100.352758966
100100.352758858
100100.352758788
100100.352758757
100100.352758746
100100.352758748
100100.352758756
100100.352758766
100100.352758775
100100.352758784
100100.352758791
100100.352758796
100100.3527588
100100.352758802
100100.352758804
100100.352758805
100100.352758805
100100.352758804
100100.352758803
100100.352758802
100100.352758801
100100.352758799
100100.352758797
100100.352758795
100100.352758793
100100.352758791
100100.352758789
100100.352758786
100100.352758784
100100.35275878
100100.352758777
100100.352758773
100100.352758768
100100.352758762
100100.352758755
100100.352758746
100100.352758737
100100.352758725
100100.352758713
100100.3527587
100100.35275869
100100.352758686
100100.352758695
100100.352758724
100100.352758793
100100.352758899
100100.352759051
100100.352759171
100100.35048195
100100.350481786
100100.350481603
100100.350481444
100100.350481333
100100.350481265
100100.350481228
100100.350481211
100100.350481205
100100.350481206
100100.350481209
100100.350481213
100100.350481217
100100.350481221
100100.350481223
100100.350481225
100100.350481226
100100.350481226
100100.350481226
100100.350481225
100100.350481224
100100.350481223
100100.350481221
100100.35048122
100100.350481218
100100.350481216
100100.350481214
100100.350481212
100100.35048121
100100.350481207
100100.350481205
100100.350481202
100100.350481198
100100.350481195
100100.35048119
100100.350481185
100100.35048118
100100.350481173
100100.350481166
100100.350481159
100100.350481154
100100.350481151
100100.350481154
100100.350481169
100100.350481204
100100.35048127
100100.350481382
100100.35048154
100100.350481724
100100.350481886
100100.348203306
100100.348203137
100100.348202955
100100.34820278
100100.34820265
100100.348202564
100100.348202511
100100.348202481
100100.348202466
100100.348202459
100100.348202457
100100.348202457
100100.348202459
100100.34820246
100100.348202462
100100.348202462
100100.348202463
100100.348202462
100100.348202462
100100.348202461
100100.34820246
100100.348202458
100100.348202457
100100.348202455
100100.348202454
100100.348202452
100100.34820245
100100.348202448
100100.348202445
100100.348202443
100100.348202441
100100.348202438
100100.348202435
100100.348202432
100100.348202428
100100.348202424
100100.34820242
100100.348202415
100100.348202411
100100.348202408
100100.348202407
100100.348202412
100100.348202425
100100.348202453
100100.348202505
100100.34820259
100100.348202719
100100.348202896
100100.34820308
100100.348203248
100100.345923865
100100.345923714
100100.34592355
100100.345923379
100100.345923248
100100.345923155
100100.345923094
100100.345923056
100100.345923033
100100.345923021
100100.345923015
100100.345923012
100100.345923011
100100.345923011
100100.345923011
100100.345923011
100100.34592301
100100.34592301
100100.345923009
100100.345923008
100100.345923006
100100.345923005
100100.345923003
100100.345923002
100100.345923
100100.345922998
100100.345922996
100100.345922994
100100.345922992
100100.34592299
100100.345922988
100100.345922985
100100.345922982
100100.34592298
100100.345922977
100100.345922974
100100.345922971
100100.345922968
100100.345922966
100100.345922966
100100.34592297
100100.34592298
100100.345923
100100.345923037
100100.345923096
100100.345923189
100100.345923321
100100.345923493
100100.34592366
100100.345923812
100100.343643988
100100.343643864
100100.343643725
100100.343643569
100100.343643446
100100.343643353
100100.343643289
100100.343643247
100100.34364322
100100.343643204
100100.343643194
100100.343643188
100100.343643185
100100.343643183
100100.343643182
100100.343643181
100100.34364318
100100.343643179
100100.343643178
100100.343643176
100100.343643175
100100.343643173
100100.343643172
100100.34364317
100100.343643168
100100.343643166
100100.343643164
100100.343643163
100100.343643161
100100.343643158
100100.343643156
100100.343643154
100100.343643152
100100.34364315
100100.343643147
100100.343643145
100100.343643144
100100.343643143
100100.343643143
100100.343643146
100100.343643153
100100.343643167
100100.343643192
100100.343643233
100100.343643296
100100.343643388
100100.343643512
100100.343643669
100100.34364381
100100.343643937
100100.34136389
100100.341363792
100100.341363679
100100.341363544
100100.341363432
100100.341363344
100100.341363281
100100.341363236
100100.341363207
100100.341363188
100100.341363175
100100.341363168
100100.341363163
100100.341363159
100100.341363157
100100.341363155
100100.341363153
100100.341363152
100100.34136315
100100.341363149
100100.341363147
100100.341363145
100100.341363144
100100.341363142
100100.34136314
100100.341363138
100100.341363136
100100.341363135
100100.341363133
100100.341363131
100100.341363129
100100.341363127
100100.341363125
100100.341363123
100100.341363122
100100.34136312
100100.34136312
100100.34136312
100100.341363123
100100.341363128
100100.341363138
100100.341363155
100100.341363183
100100.341363225
100100.341363288
100100.341363375
100100.341363487
100100.341363624
100100.341363739
100100.341363839
100100.339083688
100100.339083615
100100.339083524
100100.33908341
100100.339083311
100100.33908323
100100.339083169
100100.339083125
100100.339083094
100100.339083073
100100.339083059
100100.339083049
100100.339083042
100100.339083038
100100.339083034
100100.339083032
100100.33908303
100100.339083028
100100.339083026
100100.339083024
100100.339083022
100100.33908302
100100.339083019
100100.339083017
100100.339083015
100100.339083013
100100.339083011
100100.33908301
100100.339083008
100100.339083006
100100.339083004
100100.339083003
100100.339083001
100100.339083
100100.339082999
100100.339082998
100100.339082999
100100.339083001
100100.339083005
100100.339083012
100100.339083024
100100.339083043
100100.339083072
100100.339083115
100100.339083175
100100.339083255
100100.339083354
100100.339083469
100100.339083562
100100.339083637
100100.336803445
100100.33680339
100100.336803318
100100.336803223
100100.336803138
100100.336803065
100100.336803008
100100.336802964
100100.336802933
100100.336802911
100100.336802895
100100.336802884
100100.336802876
100100.33680287
100100.336802866
100100.336802863
100100.33680286
100100.336802858
100100.336802856
100100.336802854
100100.336802852
100100.33680285
100100.336802848
100100.336802846
100100.336802844
100100.336802842
100100.336802841
100100.336802839
100100.336802837
100100.336802836
100100.336802834
100100.336802833
100100.336802832
100100.336802831
100100.33680283
100100.336802831
100100.336802832
100100.336802835
100100.33680284
100100.336802849
100100.336802862
100100.336802883
100100.336802912
100100.336802954
100100.33680301
100100.336803083
100100.336803168
100100.336803264
100100.336803337
100100.336803393
100100.334523188
100100.334523149
100100.334523091
100100.334523013
100100.33452294
100100.334522874
100100.334522822
100100.33452278
100100.334522749
100100.334522726
100100.33452271
100100.334522697
100100.334522689
100100.334522682
100100.334522677
100100.334522673
100100.33452267
100100.334522667
100100.334522665
100100.334522663
100100.33452266
100100.334522658
100100.334522657
100100.334522655
100100.334522653
100100.334522651
100100.334522649
100100.334522648
100100.334522646
100100.334522645
100100.334522643
100100.334522642
100100.334522641
100100.334522641
100100.334522641
100100.334522642
100100.334522644
100100.334522648
100100.334522654
100100.334522664
100100.334522678
100100.334522699
100100.334522729
100100.334522769
100100.33452282
100100.334522885
100100.334522959
100100.334523037
100100.334523095
100100.334523136
100100.332242931
100100.332242902
100100.332242857
100100.332242792
100100.33224273
100100.332242672
100100.332242623
100100.332242584
100100.332242554
100100.332242531
100100.332242514
100100.332242501
100100.332242492
100100.332242484
100100.332242479
100100.332242474
100100.332242471
100100.332242468
100100.332242465
100100.332242463
100100.33224246
100100.332242458
100100.332242456
100100.332242454
100100.332242452
100100.332242451
100100.332242449
100100.332242447
100100.332242446
100100.332242445
100100.332242444
100100.332242443
100100.332242442
100100.332242442
100100.332242443
100100.332242444
100100.332242447
100100.332242451
100100.332242458
100100.332242469
100100.332242484
100100.332242505
100100.332242533
100100.332242571
100100.332242618
100100.332242676
100100.332242738
100100.332242803
100100.332242849
100100.332242878
100100.329962678
100100.329962657
100100.32996262
100100.329962567
100100.329962514
100100.329962463
100100.329962419
100100.329962382
100100.329962354
100100.329962331
100100.329962314
100100.3299623
100100.32996229
100100.329962283
100100.329962277
100100.329962272
100100.329962268
100100.329962264
100100.329962261
100100.329962259
100100.329962256
100100.329962254
100100.329962252
100100.32996225
100100.329962248
100100.329962247
100100.329962245
100100.329962244
100100.329962242
100100.329962241
100100.32996224
100100.329962239
100100.329962239
100100.329962239
100100.32996224
100100.329962242
100100.329962245
100100.32996225
100100.329962258
100100.329962269
100100.329962284
100100.329962305
100100.329962332
100100.329962367
100100.32996241
100100.32996246
100100.329962514
100100.329962567
100100.329962603
100100.329962625
100100.32768243
100100.327682414
100100.327682384
100100.327682341
100100.327682295
100100.32768225
100100.327682211
100100.327682177
100100.32768215
100100.327682128
100100.327682111
100100.327682097
100100.327682087
100100.327682079
100100.327682072
100100.327682067
100100.327682063
100100.327682059
100100.327682056
100100.327682053
100100.327682051
100100.327682049
100100.327682047
100100.327682045
100100.327682043
100100.327682041
100100.327682039
100100.327682038
100100.327682037
100100.327682036
100100.327682035
100100.327682034
100100.327682034
100100.327682035
100100.327682036
100100.327682038
100100.327682042
100100.327682047
100100.327682055
100100.327682067
100100.327682082
100100.327682102
100100.327682127
100100.32768216
100100.327682198
100100.327682242
100100.327682288
100100.327682331
100100.32768236
100100.327682376
100100.325402186
100100.325402174
100100.32540215
100100.325402114
100100.325402075
100100.325402036
100100.325402
100100.32540197
100100.325401944
100100.325401923
100100.325401906
100100.325401893
100100.325401882
100100.325401874
100100.325401867
100100.325401862
100100.325401857
100100.325401854
100100.32540185
100100.325401847
100100.325401845
100100.325401843
100100.32540184
100100.325401838
100100.325401837
100100.325401835
100100.325401833
100100.325401832
100100.325401831
100100.32540183
100100.325401829
100100.325401829
100100.325401829
100100.325401829
100100.325401831
100100.325401834
100100.325401838
100100.325401843
100100.325401851
100100.325401862
100100.325401877
100100.325401896
100100.32540192
100100.32540195
100100.325401984
100100.325402023
100100.325402061
100100.325402097
100100.325402121
100100.325402133
100100.323121946
100100.323121937
100100.323121917
100100.323121887
100100.323121854
100100.32312182
100100.323121789
100100.32312176
100100.323121737
100100.323121717
100100.3231217
100100.323121687
100100.323121677
100100.323121668
100100.323121662
100100.323121656
100100.323121651
100100.323121647
100100.323121644
100100.323121641
100100.323121638
100100.323121636
100100.323121634
100100.323121632
100100.32312163
100100.323121628
100100.323121627
100100.323121625
100100.323121624
100100.323121623
100100.323121623
100100.323121623
100100.323121623
100100.323121624
100100.323121625
100100.323121628
100100.323121632
100100.323121638
100100.323121646
100100.323121657
100100.323121671
100100.32312169
100100.323121712
100100.323121739
100100.323121769
100100.323121803
100100.323121835
100100.323121865
100100.323121884
100100.323121893
100100.320841709
100100.320841702
100100.320841686
100100.320841662
100100.320841633
100100.320841604
100100.320841576
100100.32084155
100100.320841528
100100.320841509
100100.320841494
100100.320841481
100100.320841471
100100.320841462
100100.320841456
100100.32084145
100100.320841445
100100.320841441
100100.320841438
100100.320841435
100100.320841432
100100.320841429
100100.320841427
100100.320841425
100100.320841423
100100.320841422
100100.32084142
100100.320841419
100100.320841418
100100.320841417
100100.320841416
100100.320841416
100100.320841417
100100.320841418
100100.32084142
100100.320841423
100100.320841427
100100.320841433
100100.320841441
100100.320841451
100100.320841465
100100.320841482
100100.320841502
100100.320841526
100100.320841553
100100.320841582
100100.32084161
100100.320841634
100100.32084165
100100.320841657
100100.318561475
100100.31856147
100100.318561457
100100.318561436
100100.318561412
100100.318561387
100100.318561362
100100.318561339
100100.318561319
100100.318561301
100100.318561286
100100.318561274
100100.318561264
100100.318561256
100100.318561249
100100.318561243
100100.318561239
100100.318561235
100100.318561231
100100.318561228
100100.318561225
100100.318561223
100100.31856122
100100.318561218
100100.318561217
100100.318561215
100100.318561213
100100.318561212
100100.318561211
100100.31856121
100100.31856121
100100.31856121
100100.31856121
100100.318561212
100100.318561213
100100.318561216
100100.318561221
100100.318561226
100100.318561234
100100.318561244
100100.318561257
100100.318561273
100100.318561291
100100.318561313
100100.318561337
100100.318561362
100100.318561385
100100.318561405
100100.318561418
100100.318561423
100100.316281244
100100.316281239
100100.316281229
100100.316281212
100100.316281191
100100.316281169
100100.316281147
100100.316281127
100100.316281108
100100.316281092
100100.316281078
100100.316281067
100100.316281057
100100.316281049
100100.316281042
100100.316281037
100100.316281032
100100.316281028
100100.316281024
100100.316281021
100100.316281018
100100.316281016
100100.316281014
100100.316281012
100100.31628101
100100.316281008
100100.316281007
100100.316281005
100100.316281004
100100.316281004
100100.316281003
100100.316281003
100100.316281004
100100.316281005
100100.316281007
100100.31628101
100100.316281014
100100.31628102
100100.316281027
100100.316281037
100100.316281049
100100.316281063
100100.31628108
100100.316281099
100100.31628112
100100.316281141
100100.316281161
100100.316281178
100100.316281188
100100.316281192
100100.314001014
100100.314001011
100100.314001002
100100.314000988
100100.314000971
100100.314000952
100100.314000932
100100.314000914
100100.314000897
100100.314000883
100100.31400087
100100.314000859
100100.31400085
100100.314000842
100100.314000835
100100.31400083
100100.314000825
100100.314000821
100100.314000817
100100.314000814
100100.314000812
100100.314000809
100100.314000807
100100.314000805
100100.314000803
100100.314000801
100100.3140008
100100.314000799
100100.314000798
100100.314000797
100100.314000797
100100.314000797
100100.314000797
100100.314000799
100100.3140008
100100.314000803
100100.314000807
100100.314000813
100100.31400082
100100.314000829
100100.314000839
100100.314000853
100100.314000868
100100.314000885
100100.314000903
100100.314000921
100100.314000938
100100.314000951
100100.31400096
100100.314000962
100100.311720785
100100.311720783
100100.311720776
100100.311720765
100100.31172075
100100.311720734
100100.311720717
100100.311720701
100100.311720686
100100.311720673
100100.311720661
100100.311720651
100100.311720642
100100.311720634
100100.311720628
100100.311720623
100100.311720618
100100.311720614
100100.31172061
100100.311720607
100100.311720605
100100.311720602
100100.3117206
100100.311720598
100100.311720596
100100.311720595
100100.311720593
100100.311720592
100100.311720591
100100.31172059
100100.31172059
100100.31172059
100100.311720591
100100.311720592
100100.311720594
100100.311720596
100100.3117206
100100.311720605
100100.311720612
100100.31172062
100100.31172063
100100.311720642
100100.311720655
100100.31172067
100100.311720686
100100.311720701
100100.311720715
100100.311720726
100100.311720733
100100.311720735
100100.309440558
100100.309440557
100100.309440552
100100.309440542
100100.30944053
100100.309440516
100100.309440502
100100.309440488
100100.309440474
100100.309440462
100100.309440451
100100.309440442
100100.309440434
100100.309440427
100100.30944042
100100.309440415
100100.309440411
100100.309440407
100100.309440403
100100.3094404
100100.309440398
100100.309440395
100100.309440393
100100.309440391
100100.309440389
100100.309440388
100100.309440386
100100.309440385
100100.309440384
100100.309440383
100100.309440383
100100.309440383
100100.309440384
100100.309440385
100100.309440387
100100.309440389
100100.309440393
100100.309440397
100100.309440404
100100.309440411
100100.30944042
100100.30944043
100100.309440442
100100.309440455
100100.309440469
100100.309440482
100100.309440493
100100.309440502
100100.309440507
100100.309440508
100100.307160332
100100.307160332
100100.307160328
100100.30716032
100100.307160311
100100.307160299
100100.307160287
100100.307160274
100100.307160262
100100.307160251
100100.307160242
100100.307160233
100100.307160225
100100.307160219
100100.307160213
100100.307160208
100100.307160203
100100.3071602
100100.307160196
100100.307160193
100100.307160191
100100.307160188
100100.307160186
100100.307160184
100100.307160182
100100.307160181
100100.307160179
100100.307160178
100100.307160177
100100.307160177
100100.307160176
100100.307160176
100100.307160177
100100.307160178
100100.307160179
100100.307160182
100100.307160185
100100.307160189
100100.307160195
100100.307160202
100100.30716021
100100.307160219
100100.307160229
100100.30716024
100100.307160252
100100.307160262
100100.307160272
100100.307160278
100100.307160282
100100.307160282
100100.304880107
100100.304880107
100100.304880105
100100.304880099
100100.304880091
100100.304880082
100100.304880071
100100.30488006
100100.30488005
100100.30488004
100100.304880031
100100.304880024
100100.304880017
100100.30488001
100100.304880005
100100.30488
100100.304879996
100100.304879992
100100.304879989
100100.304879986
100100.304879984
100100.304879981
100100.304879979
100100.304879977
100100.304879976
100100.304879974
100100.304879973
100100.304879971
100100.30487997
100100.30487997
100100.304879969
100100.304879969
100100.30487997
100100.304879971
100100.304879972
100100.304879974
100100.304879977
100100.304879981
100100.304879986
100100.304879992
100100.304879999
100100.304880007
100100.304880016
100100.304880025
100100.304880035
100100.304880043
100100.304880051
100100.304880056
100100.304880058
100100.304880058
100100.302599883
100100.302599884
100100.302599882
100100.302599878
100100.302599872
100100.302599864
100100.302599856
100100.302599847
100100.302599838
100100.302599829
100100.302599821
100100.302599814
100100.302599808
100100.302599802
100100.302599797
100100.302599793
100100.302599789
100100.302599785
100100.302599782
100100.302599779
100100.302599777
100100.302599774
100100.302599772
100100.30259977
100100.302599769
100100.302599767
100100.302599766
100100.302599765
100100.302599764
100100.302599763
100100.302599762
100100.302599762
100100.302599763
100100.302599763
100100.302599765
100100.302599767
100100.302599769
100100.302599773
100100.302599777
100100.302599782
100100.302599788
100100.302599795
100100.302599803
100100.30259981
100100.302599818
100100.302599825
100100.30259983
100100.302599834
100100.302599835
100100.302599834
100100.300319659
100100.300319661
100100.30031966
100100.300319658
100100.300319653
100100.300319647
100100.30031964
100100.300319633
100100.300319625
100100.300319618
100100.300319611
100100.300319605
100100.300319599
100100.300319594
100100.300319589
100100.300319585
100100.300319581
100100.300319578
100100.300319575
100100.300319572
100100.30031957
100100.300319567
100100.300319565
100100.300319564
100100.300319562
100100.30031956
100100.300319559
100100.300319558
100100.300319557
100100.300319556
100100.300319556
100100.300319555
100100.300319556
100100.300319556
100100.300319557
100100.300319559
100100.300319561
100100.300319564
100100.300319568
100100.300319572
100100.300319577
100100.300319583
100100.300319589
100100.300319595
100100.300319601
100100.300319607
100100.30031961
100100.300319612
100100.300319613
100100.300319611
100100.298039436
100100.298039438
100100.298039439
100100.298039438
100100.298039435
100100.298039431
100100.298039425
100100.298039419
100100.298039413
100100.298039406
100100.2980394
100100.298039395
100100.29803939
100100.298039385
100100.298039381
100100.298039377
100100.298039374
100100.29803937
100100.298039368
100100.298039365
100100.298039363
100100.29803936
100100.298039358
100100.298039357
100100.298039355
100100.298039353
100100.298039352
100100.298039351
100100.29803935
100100.298039349
100100.298039349
100100.298039348
100100.298039348
100100.298039349
100100.29803935
100100.298039351
100100.298039353
100100.298039355
100100.298039358
100100.298039362
100100.298039366
100100.298039371
100100.298039376
100100.298039381
100100.298039385
100100.298039389
100100.298039391
100100.298039391
100100.298039391
100100.298039388
100100.295759213
100100.295759216
100100.295759218
100100.295759218
100100.295759217
100100.295759214
100100.29575921
100100.295759205
100100.2957592
100100.295759195
100100.29575919
100100.295759185
100100.295759181
100100.295759176
100100.295759173
100100.295759169
100100.295759166
100100.295759163
100100.29575916
100100.295759158
100100.295759156
100100.295759154
100100.295759152
100100.29575915
100100.295759148
100100.295759147
100100.295759145
100100.295759144
100100.295759143
100100.295759142
100100.295759142
100100.295759141
100100.295759141
100100.295759141
100100.295759142
100100.295759143
100100.295759145
100100.295759147
100100.295759149
100100.295759152
100100.295759155
100100.295759159
100100.295759163
100100.295759166
100100.295759169
100100.295759171
100100.295759172
100100.295759171
100100.295759169
100100.295759166
100100.293478991
100100.293478995
100100.293478997
100100.293479
100100.293478999
100100.293478998
100100.293478995
100100.293478992
100100.293478988
100100.293478984
100100.293478979
100100.293478975
100100.293478971
100100.293478968
100100.293478964
100100.293478961
100100.293478958
100100.293478956
100100.293478953
100100.293478951
100100.293478949
100100.293478947
100100.293478945
100100.293478943
100100.293478941
100100.29347894
100100.293478939
100100.293478937
100100.293478936
100100.293478935
100100.293478935
100100.293478934
100100.293478934
100100.293478934
100100.293478934
100100.293478935
100100.293478936
100100.293478938
100100.29347894
100100.293478942
100100.293478944
100100.293478947
100100.293478949
100100.293478952
100100.293478953
100100.293478954
100100.293478954
100100.293478951
100100.293478948
100100.293478944
100100.291198769
100100.291198774
100100.291198778
100100.291198781
100100.291198782
100100.291198782
100100.291198781
100100.291198778
100100.291198776
100100.291198772
100100.291198769
100100.291198766
100100.291198762
100100.291198759
100100.291198756
100100.291198753
100100.291198751
100100.291198748
100100.291198746
100100.291198744
100100.291198742
100100.29119874
100100.291198738
100100.291198736
100100.291198735
100100.291198733
100100.291198732
100100.291198731
100100.291198729
100100.291198729
100100.291198728
100100.291198727
100100.291198727
100100.291198727
100100.291198727
100100.291198727
100100.291198728
100100.291198729
100100.29119873
100100.291198732
100100.291198733
100100.291198735
100100.291198736
100100.291198738
100100.291198738
100100.291198737
100100.291198736
100100.291198732
100100.291198728
100100.291198723
100100.288918547
100100.288918553
100100.288918558
100100.288918563
100100.288918566
100100.288918567
100100.288918567
100100.288918565
100100.288918563
100100.288918561
100100.288918559
100100.288918556
100100.288918553
100100.288918551
100100.288918548
100100.288918546
100100.288918543
100100.288918541
100100.288918539
100100.288918537
100100.288918535
100100.288918533
100100.288918531
100100.28891853
100100.288918528
100100.288918527
100100.288918525
100100.288918524
100100.288918523
100100.288918522
100100.288918521
100100.28891852
100100.28891852
100100.288918519
100100.288918519
100100.288918519
100100.28891852
100100.28891852