/*--------------------------------*- C++ -*----------------------------------*\
  =========                 |
  \\      /  F ield         | OpenFOAM: The Open Source CFD Toolbox
   \\    /   O peration     | Website:  https://openfoam.org
    \\  /    A nd           | Version:  10
     \\/     M anipulation  |
\*---------------------------------------------------------------------------*/
FoamFile
{
    format      ascii;
    class       volScalarField;
    location    "8";
    object      p_rgh;
}
// * * * * * * * * * * * * * * * * * * * * * * * * * * * * * * * * * * * * * //

dimensions      [1 -1 -2 0 0 0 0];

internalField   nonuniform List<scalar> 
2500
(
100.479857600236
100.479859403233
100.479863851448
100.479867518879
100.479870001087
100.47987158646
100.479872560885
100.479873150878
100.479873499949
100.479873702745
100.479873819088
100.479873885037
100.479873922304
100.479873943623
100.479873955919
100.479873963064
100.479873966979
100.479873969045
100.479873969947
100.479873969962
100.479873969365
100.479873968376
100.479873967051
100.479873965465
100.479873963719
100.479873961798
100.479873959703
100.479873957433
100.47987395493
100.479873952165
100.479873949007
100.479873945282
100.479873940771
100.479873935095
100.479873927543
100.47987391692
100.479873901058
100.479873876131
100.479873834774
100.479873764751
100.479873644435
100.479873437565
100.479873085787
100.479872495052
100.479871521529
100.479869938339
100.479867450311
100.479863758053
100.479859279178
100.47985753922
100.480149589654
100.48015792403
100.480169340983
100.480178327052
100.480184395856
100.480188266869
100.48019065398
100.480192094285
100.48019293994
100.480193423078
100.480193691474
100.480193836833
100.480193913987
100.480193954485
100.480193975673
100.480193986747
100.480193992422
100.480193995216
100.480193996395
100.480193996511
100.480193995987
100.480193995012
100.480193993717
100.480193992145
100.480193990385
100.480193988478
100.480193986383
100.480193984113
100.480193981624
100.48019397883
100.4801939756
100.480193971758
100.480193966912
100.480193960408
100.480193950949
100.480193936004
100.480193910669
100.480193865558
100.480193783078
100.480193631884
100.480193357551
100.48019286916
100.480192021088
100.480190583563
100.480188204849
100.480184342581
100.480178260899
100.480169211223
100.480157711107
100.480149653406
100.480461353232
100.480476727011
100.480493331546
100.480505859203
100.48051420055
100.480519474455
100.480522707978
100.480524648752
100.480525783045
100.48052642768
100.480526783183
100.480526973799
100.480527073567
100.480527124892
100.480527151027
100.480527164254
100.480527170861
100.480527174019
100.480527175285
100.480527175459
100.48052717495
100.480527173975
100.48052717268
100.480527171123
100.480527169377
100.480527167456
100.480527165375
100.48052716309
100.480527160602
100.480527157823
100.480527154592
100.480527150707
100.480527145701
100.480527138803
100.480527128369
100.480527111125
100.48052708061
100.480527024352
100.480526918822
100.48052672176
100.480526359592
100.480525709281
100.480524572646
100.480522635597
100.480519412027
100.480514144569
100.480505773288
100.480493132156
100.480476356912
100.480461252664
100.48075749047
100.480777386489
100.480795789961
100.480809084562
100.480817696211
100.480823014805
100.480826208746
100.480828091473
100.480829175198
100.480829783366
100.480830115237
100.480830291679
100.480830383458
100.480830430446
100.480830454326
100.480830466375
100.480830472385
100.480830475251
100.480830476357
100.480830476445
100.480830475892
100.480830474888
100.480830473578
100.480830472006
100.48083047026
100.480830468339
100.480830466258
100.480830464003
100.480830461529
100.480830458779
100.480830455606
100.480830451837
100.480830447021
100.480830440458
100.480830430708
100.480830414788
100.480830386805
100.480830335262
100.480830238317
100.480830056069
100.480829718072
100.48082910433
100.480828017404
100.480826135885
100.480822946818
100.480817624484
100.4808089617
100.480795508105
100.480776839919
100.480757017678
100.481011992262
100.481032900338
100.481050270144
100.481062299557
100.481069865142
100.481074420633
100.481077096236
100.481078644603
100.481079522957
100.481080010592
100.481080274782
100.481080414771
100.481080487589
100.48108052506
100.481080544254
100.481080554062
100.481080558995
100.481080561309
100.481080562138
100.481080562095
100.48108056144
100.481080560392
100.481080559053
100.481080557467
100.481080555735
100.481080553815
100.481080551734
100.481080549493
100.481080547062
100.48108054437
100.4810805413
100.481080537691
100.48108053318
100.481080527228
100.481080518686
100.48108050524
100.481080482277
100.481080440804
100.481080363636
100.481080218888
100.481079949663
100.481079457211
100.481078575351
100.481077025921
100.481074350057
100.481069782036
100.481062151783
100.481049937196
100.481032229422
100.481011150638
100.48121216349
100.481231093814
100.481245583927
100.481255219944
100.481261099616
100.481264548085
100.481266527757
100.481267652649
100.481268282136
100.481268628588
100.481268815536
100.481268914707
100.481268966658
100.481268993681
100.481269007796
100.481269015116
100.481269018826
100.481269020544
100.481269021053
100.48126902082
100.481269020078
100.481269018957
100.48126901759
100.481269016003
100.481269014243
100.481269012322
100.481269010284
100.481269008058
100.481269005671
100.481269003052
100.481269000098
100.481268996693
100.481268992546
100.481268987278
100.481268980046
100.481268969233
100.481268951669
100.481268921096
100.481268865493
100.481268762509
100.481268571588
100.481268221251
100.481267588519
100.481266461487
100.481264478702
100.481261014094
100.481255068371
100.481245247269
100.481230391655
100.481211101986
100.481357525234
100.481372760376
100.481383669146
100.481390641726
100.481394766335
100.481397119467
100.481398438336
100.481399173732
100.481399579774
100.481399801647
100.481399921206
100.481399984958
100.481400018747
100.481400036675
100.481400046236
100.4814000513
100.481400053861
100.481400054952
100.481400055141
100.481400054705
100.481400053861
100.481400052668
100.481400051256
100.481400049641
100.48140004788
100.481400045974
100.481400043951
100.481400041768
100.48140003944
100.481400036908
100.481400034099
100.481400030912
100.481400027144
100.481400022531
100.481400016521
100.48140000811
100.481399995275
100.481399974116
100.481399937111
100.481399870157
100.481399747412
100.481399522454
100.481399113662
100.481398375996
100.481397053474
100.481394685354
100.48139050357
100.48138336862
100.481372116206
100.481356434582
100.4814556809
100.481466791243
100.481474303524
100.481478916452
100.481481557115
100.481483017924
100.481483814685
100.481484249322
100.48148448563
100.481484613687
100.481484682678
100.481484719741
100.481484739707
100.481484750548
100.481484756427
100.48148475957
100.481484761112
100.481484761636
100.481484761476
100.481484760836
100.481484759832
100.48148475858
100.481484757111
100.481484755466
100.481484753705
100.481484751814
100.481484749806
100.481484747681
100.481484745425
100.481484742995
100.481484740347
100.481484737393
100.481484734002
100.481484730015
100.481484725111
100.481484718679
100.481484709599
100.481484695716
100.481484672782
100.481484632895
100.481484561169
100.481484430507
100.481484191914
100.481483755342
100.481482955627
100.481481483497
100.481478799658
100.481474059561
100.481466260477
100.4814547118
100.481517681692
100.481525119671
100.481529895711
100.481532704682
100.48153425366
100.481535078114
100.481535511775
100.481535740939
100.481535862433
100.481535927218
100.481535961895
100.48153598058
100.481535990781
100.481535996398
100.481535999483
100.481536001054
100.48153600168
100.481536001651
100.481536001142
100.481536000283
100.481535999133
100.481535997795
100.481535996267
100.481535994593
100.481535992818
100.481535990941
100.481535988976
100.48153598691
100.481535984742
100.481535982413
100.48153597994
100.481535977247
100.481535974235
100.481535970845
100.481535966872
100.48153596207
100.4815359559
100.4815359473
100.481535934261
100.481535912899
100.481535875704
100.481535808605
100.481535685118
100.481535454383
100.481535018727
100.481534186998
100.481532609003
100.481529709985
100.481524718009
100.481516910862
100.481554504731
100.481559118401
100.481561938301
100.481563514404
100.481564342408
100.481564758098
100.481564963498
100.481565065114
100.481565115653
100.48156514109
100.481565154056
100.481565160808
100.481565164388
100.481565166279
100.481565167182
100.481565167473
100.481565167283
100.48156516673
100.481565165872
100.48156516478
100.4815651635
100.481565162045
100.481565160444
100.481565158741
100.481565156966
100.481565155103
100.481565153168
100.481565151174
100.481565149079
100.481565146896
100.481565144597
100.481565142167
100.481565139533
100.481565136695
100.481565133581
100.481565130118
100.481565126145
100.481565121328
100.481565114984
100.481565105656
100.48156509026
100.481565062655
100.481565010268
100.481564907299
100.481564700618
100.481564280883
100.481563435358
100.481561801018
100.481558832587
100.481553942067
100.481575156431
100.481577825252
100.481579375075
100.481580183652
100.481580577165
100.481580752894
100.481580826847
100.481580855543
100.48158086538
100.481580867825
100.481580867694
100.481580866879
100.481580866006
100.481580865191
100.481580864405
100.481580863605
100.481580862688
100.48158086164
100.481580860447
100.481580859123
100.481580857653
100.481580856096
100.481580854437
100.481580852706
100.481580850916
100.481580849068
100.481580847176
100.48158084524
100.481580843247
100.48158084121
100.481580839099
100.481580836931
100.48158083469
100.481580832391
100.481580830048
100.48158082772
100.481580825464
100.481580823383
100.481580821535
100.481580819789
100.481580817548
100.481580813022
100.48158080141
100.481580771448
100.481580696636
100.481580518885
100.481580115782
100.4815792726
100.481577628496
100.481574770762
100.481586131209
100.481587576636
100.481588367082
100.48158873606
100.481588888913
100.481588935392
100.481588939758
100.48158892995
100.481588917915
100.481588907554
100.48158889974
100.481588894152
100.481588890238
100.481588887429
100.481588885275
100.481588883515
100.481588881943
100.48158888043
100.481588878887
100.48158887733
100.4815888757
100.481588874027
100.481588872295
100.48158887052
100.48158886873
100.481588866896
100.481588865048
100.481588863171
100.481588861294
100.481588859388
100.481588857481
100.48158885559
100.481588853727
100.481588851937
100.481588850293
100.481588848925
100.481588848081
100.481588848052
100.481588849274
100.481588852344
100.481588857831
100.48158886614
100.481588876442
100.481588884999
100.48158887992
100.481588832496
100.481588674898
100.481588286901
100.481587440809
100.481585876449
100.481591669944
100.481592403492
100.481592772441
100.481592909171
100.481592939861
100.481592923039
100.481592893993
100.481592865588
100.481592842625
100.481592825439
100.481592813157
100.481592804514
100.481592798445
100.481592794094
100.481592790849
100.481592788259
100.481592786076
100.481592784126
100.481592782264
100.481592780474
100.481592778669
100.48159277688
100.48159277509
100.481592773271
100.481592771466
100.481592769647
100.481592767843
100.481592766038
100.481592764278
100.481592762517
100.481592760814
100.481592759184
100.481592757686
100.481592756361
100.481592755357
100.481592754863
100.481592755168
100.481592756711
100.481592760116
100.481592766286
100.481592776283
100.481592791461
100.481592812692
100.48159283986
100.481592868164
100.48159288452
100.481592851676
100.481592705313
100.481592305572
100.481591502219
100.481594325247
100.481594672572
100.481594823679
100.481594848068
100.481594823039
100.481594779165
100.481594736339
100.481594700163
100.481594672325
100.481594651646
100.481594636803
100.481594626181
100.48159461857
100.481594613026
100.481594608835
100.481594605546
100.481594602825
100.481594600438
100.481594598285
100.481594596262
100.481594594297
100.481594592406
100.481594590528
100.48159458868
100.481594586861
100.481594585057
100.481594583296
100.481594581579
100.481594579906
100.481594578305
100.481594576791
100.481594575424
100.481594574259
100.481594573386
100.481594572964
100.481594573226
100.481594574492
100.481594577272
100.481594582277
100.48159459047
100.481594603087
100.481594621757
100.481594647936
100.481594682831
100.481594724857
100.481594768382
100.481594792494
100.481594763594
100.481594596436
100.481594210607
100.481595529884
100.481595680991
100.481595727644
100.481595703721
100.481595657475
100.481595604957
100.481595558347
100.481595520003
100.481595490433
100.481595468227
100.481595451944
100.481595440026
100.481595431294
100.481595424804
100.481595419842
100.481595415942
100.481595412726
100.481595409976
100.481595407546
100.481595405305
100.481595403195
100.481595401186
100.481595399251
100.481595397359
100.48159539554
100.48159539375
100.481595392033
100.481595390374
100.481595388803
100.481595387348
100.481595386038
100.481595384903
100.481595384059
100.481595383608
100.48159538371
100.481595384612
100.481595386693
100.481595390462
100.481595396603
100.481595406149
100.481595420235
100.481595440506
100.481595468402
100.48159550548
100.481595551231
100.481595603342
100.48159564918
100.48159567111
100.48159561654
100.481595445279
100.481596040147
100.481596097961
100.481596098893
100.481596058293
100.481596007317
100.481595954843
100.481595909165
100.481595871373
100.481595841818
100.481595819147
100.481595802135
100.481595789402
100.481595779871
100.481595772668
100.48159576708
100.481595762656
100.481595759033
100.481595755948
100.481595753256
100.481595750825
100.48159574857
100.48159574646
100.481595744466
100.481595742545
100.481595740712
100.481595738951
100.481595737263
100.481595735677
100.481595734207
100.481595732883
100.481595731748
100.481595730846
100.481595730293
100.481595730205
100.481595730758
100.481595732228
100.481595734964
100.481595739489
100.481595746503
100.481595756879
100.481595771722
100.481595792487
100.481595820413
100.481595856909
100.481595901685
100.481595953694
100.481596004378
100.481596044119
100.481596039419
100.481595971534
100.481596233731
100.48159625032
100.481596233949
100.481596190977
100.481596142388
100.48159609361
100.481596050886
100.481596014957
100.481595986304
100.481595963822
100.481595946592
100.481595933408
100.481595923353
100.481595915597
100.481595909529
100.481595904683
100.481595900696
100.481595897334
100.481595894424
100.481595891819
100.481595889447
100.48159588725
100.481595885183
100.481595883233
100.481595881385
100.481595879653
100.481595878009
100.481595876496
100.481595875113
100.481595873905
100.48159587293
100.481595872232
100.481595871941
100.481595872174
100.48159587312
100.481595875055
100.481595878329
100.481595883422
100.481595890989
100.48159590186
100.481595916979
100.481595937585
100.481595964637
100.481595999256
100.481596041049
100.481596089274
100.481596137543
100.481596180092
100.481596194688
100.481596173224
100.481596290003
100.481596290061
100.481596269106
100.481596229482
100.481596185884
100.48159614201
100.481596102967
100.481596069512
100.481596042213
100.48159602037
100.481596003243
100.481595989884
100.481595979509
100.481595971374
100.481595964942
100.481595959762
100.481595955498
100.481595951889
100.48159594879
100.481595946039
100.481595943551
100.481595941281
100.481595939156
100.481595937192
100.481595935344
100.481595933612
100.481595932011
100.481595930556
100.481595929261
100.48159592817
100.48159592734
100.481595926831
100.481595926758
100.481595927267
100.481595928548
100.481595930847
100.481595934514
100.481595940029
100.48159594796
100.481595959049
100.481595974081
100.48159599409
100.481596019788
100.481596051963
100.481596090031
100.48159613325
100.481596176469
100.481596215817
100.481596235841
100.481596233454
100.481596290047
100.481596284531
100.481596264188
100.481596229656
100.481596191574
100.481596152793
100.481596117592
100.481596086771
100.481596061116
100.481596040161
100.481596023397
100.481596010111
100.48159599959
100.481595991238
100.481595984558
100.48159597913
100.481595974634
100.48159597085
100.481595967576
100.481595964709
100.481595962134
100.481595959791
100.481595957637
100.481595955644
100.481595953795
100.481595952078
100.481595950521
100.481595949124
100.481595947902
100.481595946912
100.481595946199
100.481595945865
100.481595945981
100.481595946709
100.481595948237
100.481595950827
100.481595954785
100.481595960562
100.481595968668
100.481595979712
100.481595994424
100.48159601356
100.481596037658
100.481596067169
100.481596101381
100.481596139449
100.481596177066
100.481596211321
100.481596231097
100.481596235448
100.481596268932
100.481596262325
100.481596244383
100.481596215017
100.481596182188
100.481596148209
100.48159611669
100.481596088575
100.481596064696
100.481596044789
100.481596028592
100.481596015525
100.481596005047
100.481595996607
100.481595989782
100.48159598418
100.481595979538
100.481595975594
100.481595972218
100.481595969235
100.481595966587
100.4815959642
100.481595962003
100.481595960009
100.481595958146
100.481595956458
100.481595954931
100.481595953577
100.481595952428
100.481595951525
100.481595950929
100.481595950725
100.481595951002
100.481595951904
100.481595953635
100.481595956415
100.481595960562
100.481595966456
100.481595974561
100.481595985417
100.48159599959
100.481596017693
100.48159604003
100.481596066849
100.481596097321
100.481596130572
100.481596162863
100.481596191865
100.481596209414
100.481596215395
100.481596240992
100.481596234938
100.481596219717
100.481596195066
100.481596166952
100.481596137339
100.481596109297
100.481596083802
100.481596061712
100.481596043013
100.481596027545
100.481596014855
100.481596004523
100.481595996112
100.481595989229
100.481595983554
100.481595978796
100.481595974765
100.481595971301
100.48159596826
100.481595965553
100.481595963109
100.481595960911
100.481595958889
100.481595957041
100.481595955367
100.481595953868
100.481595952559
100.481595951467
100.481595950638
100.481595950143
100.481595950027
100.481595950434
100.481595951467
100.48159595333
100.48159595624
100.481595960475
100.481595966383
100.481595974357
100.481595984864
100.481595998353
100.481596015277
100.48159603581
100.481596059995
100.481596087004
100.481596115831
100.481596143378
100.481596167607
100.481596182493
100.481596188125
100.481596211786
100.481596206766
100.48159619412
100.481596173544
100.481596149548
100.481596123835
100.481596099009
100.481596076032
100.481596055775
100.481596038342
100.481596023688
100.481596011494
100.481596001438
100.481595993158
100.481595986304
100.4815959806
100.481595975813
100.481595971738
100.481595968202
100.481595965117
100.481595962381
100.481595959907
100.481595957681
100.481595955658
100.481595953825
100.481595952166
100.481595950696
100.48159594943
100.481595948382
100.481595947625
100.481595947189
100.48159594716
100.481595947655
100.481595948775
100.481595950725
100.481595953679
100.481595957914
100.48159596372
100.481595971447
100.481595981488
100.481595994192
100.481596009864
100.481596028578
100.481596050275
100.481596074038
100.481596098936
100.481596122307
100.481596142432
100.481596154757
100.481596159472
100.481596183221
100.481596179292
100.481596168887
100.481596151818
100.481596131431
100.481596109195
100.481596087309
100.481596066718
100.481596048267
100.481596032128
100.481596018377
100.481596006764
100.481595997073
100.481595989011
100.481595982259
100.481595976613
100.481595971825
100.481595967722
100.481595964186
100.481595961071
100.481595958307
100.481595955833
100.481595953606
100.481595951584
100.48159594975
100.48159594812
100.481595946665
100.481595945428
100.481595944439
100.481595943711
100.481595943333
100.481595943362
100.4815959439
100.481595945079
100.481595947043
100.481595949983
100.481595954145
100.481595959776
100.481595967183
100.481595976657
100.481595988473
100.481596002865
100.481596019803
100.481596039099
100.481596059923
100.481596081328
100.481596101061
100.481596117665
100.48159612772
100.481596131416
100.481596155878
100.481596152938
100.481596144498
100.481596130412
100.481596113139
100.481596094003
100.481596074824
100.481596056474
100.481596039768
100.481596024969
100.481596012149
100.481596001206
100.481595991951
100.481595984165
100.481595977602
100.481595972044
100.481595967314
100.48159596324
100.481595959718
100.481595956604
100.481595953839
100.481595951365
100.481595949139
100.481595947116
100.481595945297
100.481595943682
100.481595942256
100.481595941033
100.481595940073
100.481595939389
100.48159593904
100.481595939098
100.481595939666
100.481595940844
100.481595942794
100.481595945676
100.481595949692
100.481595955061
100.481595962046
100.481595970894
100.481595981793
100.48159599489
100.481596010082
100.481596027123
100.48159604524
100.481596063531
100.481596080135
100.481596093741
100.481596101847
100.481596104582
100.481596129757
100.481596127691
100.481596120953
100.481596109443
100.481596094935
100.481596078564
100.481596061843
100.481596045618
100.481596030615
100.481596017111
100.48159600528
100.48159599505
100.481595986304
100.481595978854
100.481595972509
100.48159596711
100.481595962468
100.481595958467
100.48159595496
100.481595951875
100.481595949139
100.48159594668
100.481595944453
100.48159594246
100.481595940655
100.48159593904
100.481595937628
100.48159593645
100.481595935489
100.481595934834
100.4815959345
100.481595934572
100.481595935125
100.48159593629
100.481595938167
100.481595940932
100.481595944744
100.481595949808
100.481595956313
100.481595964477
100.481595974416
100.481595986217
100.481595999721
100.481596014666
100.481596030324
100.481596045836
100.481596059661
100.481596070706
100.481596077123
100.481596078986
100.481596104742
100.481596103491
100.481596098238
100.481596088968
100.48159607689
100.481596063008
100.481596048558
100.481596034311
100.481596020923
100.481596008714
100.481595997873
100.481595988385
100.481595980193
100.481595973135
100.481595967067
100.481595961857
100.481595957361
100.481595953432
100.481595949997
100.481595946956
100.481595944249
100.481595941819
100.481595939622
100.481595937628
100.481595935838
100.481595934252
100.481595932855
100.481595931677
100.481595930745
100.481595930076
100.481595929756
100.481595929814
100.481595930338
100.481595931429
100.481595933219
100.481595935809
100.481595939375
100.481595944075
100.481595950085
100.481595957521
100.481595966485
100.481595976991
100.481595988895
100.481596001875
100.481596015263
100.481596028287
100.481596039681
100.481596048485
100.481596053432
100.481596054524
100.481596080674
100.481596080164
100.48159607625
100.481596068974
100.481596059064
100.481596047437
100.481596035053
100.481596022655
100.481596010824
100.481595999881
100.481595990044
100.481595981328
100.481595973702
100.481595967081
100.481595961333
100.481595956357
100.48159595202
100.481595948222
100.481595944861
100.481595941892
100.481595939214
100.481595936813
100.48159593466
100.481595932695
100.48159593092
100.481595929348
100.481595927966
100.481595926787
100.481595925856
100.481595925186
100.481595924852
100.481595924881
100.481595925346
100.481595926351
100.481595927995
100.481595930396
100.481595933685
100.481595937978
100.48159594342
100.481595950114
100.481595958103
100.481595967358
100.481595977719
100.481595988866
100.481596000172
100.481596010941
100.481596020181
100.481596027006
100.481596030615
100.481596031008
100.48159605742
100.481596057609
100.481596054902
100.481596049416
100.481596041456
100.481596031881
100.481596021418
100.481596010752
100.481596000391
100.481595990699
100.481595981837
100.481595973906
100.481595966892
100.481595960722
100.481595955323
100.481595950609
100.481595946461
100.481595942809
100.481595939564
100.481595936668
100.481595934049
100.481595931706
100.481595929567
100.481595927631
100.481595925885
100.481595924328
100.481595922945
100.481595921781
100.481595920835
100.481595920166
100.481595919788
100.481595919759
100.481595920151
100.481595921054
100.481595922538
100.481595924706
100.48159592766
100.481595931531
100.481595936391
100.481595942314
100.481595949343
100.48159595739
100.481595966281
100.481595975682
100.481595985111
100.481595993828
100.481596001133
100.481596006153
100.481596008598
100.481596008307
100.481596034791
100.481596035694
100.481596034107
100.48159603028
100.48159602411
100.481596016412
100.48159600771
100.481595998674
100.481595989724
100.481595981226
100.481595973339
100.481595966194
100.481595959805
100.481595954116
100.481595949095
100.481595944657
100.481595940728
100.481595937235
100.481595934107
100.481595931313
100.481595928781
100.481595926482
100.481595924386
100.48159592248
100.481595920748
100.481595919206
100.481595917838
100.481595916674
100.481595915713
100.481595915015
100.481595914593
100.481595914505
100.481595914811
100.481595915568
100.481595916848
100.481595918769
100.481595921388
100.481595924794
100.481595929057
100.481595934223
100.481595940291
100.481595947145
100.481595954654
100.481595962454
100.481595970108
100.481595976962
100.481595982477
100.481595985868
100.481595987221
100.481595986246
100.481596012716
100.481596014331
100.481596013822
100.481596011537
100.481596007026
100.48159600106
100.481595994002
100.481595986494
100.481595978883
100.48159597152
100.481595964608
100.481595958248
100.481595952471
100.481595947291
100.481595942649
100.481595938516
100.48159593482
100.481595931516
100.481595928533
100.481595925841
100.481595923382
100.481595921156
100.481595919104
100.481595917241
100.481595915538
100.481595913996
100.481595912628
100.481595911464
100.481595910489
100.481595909747
100.481595909267
100.481595909107
100.481595909296
100.481595909892
100.481595910984
100.481595912614
100.481595914869
100.481595917809
100.481595921461
100.48159592587
100.481595930993
100.481595936726
100.481595942911
100.481595949183
100.481595955207
100.481595960329
100.481595964229
100.481595966092
100.481595966383
100.481595964724
100.481595991048
100.48159599342
100.481595993959
100.481595993158
100.481595990175
100.481595985839
100.481595980324
100.481595974226
100.481595967896
100.481595961639
100.481595955658
100.48159595007
100.481595944933
100.481595940248
100.481595936028
100.4815959322
100.481595928766
100.481595925652
100.481595922814
100.481595920239
100.481595917881
100.481595915713
100.48159591372
100.481595911886
100.481595910212
100.481595908685
100.481595907331
100.481595906138
100.481595905148
100.481595904363
100.481595903824
100.481595903562
100.48159590362
100.481595904057
100.48159590493
100.481595906269
100.481595908132
100.481595910591
100.481595913632
100.481595917285
100.48159592149
100.481595926147
100.481595931065
100.481595935926
100.481595940422
100.481595943958
100.481595946316
100.481595946723
100.481595945996
100.481595943609
100.481595969744
100.481595972946
100.481595974503
100.481595975158
100.481595973644
100.481595970821
100.481595966732
100.481595961988
100.481595956851
100.481595951671
100.481595946592
100.481595941761
100.48159593725
100.481595933088
100.481595929261
100.481595925783
100.481595922596
100.481595919686
100.481595917023
100.481595914564
100.481595912308
100.481595910212
100.481595908277
100.481595906487
100.481595904843
100.481595903329
100.481595901962
100.481595900768
100.481595899735
100.481595898906
100.481595898294
100.481595897931
100.481595897858
100.48159589812
100.481595898731
100.481595899779
100.481595901263
100.481595903213
100.481595905658
100.481595908568
100.481595911886
100.481595915495
100.48159591922
100.481595922756
100.481595925827
100.481595927849
100.481595928781
100.481595927748
100.481595926016
100.481595922829
100.481595948673
100.481595952791
100.481595955425
100.481595957506
100.48159595739
100.481595955993
100.481595953257
100.481595949779
100.481595945792
100.481595941601
100.48159593741
100.481595933321
100.481595929421
100.481595925768
100.481595922378
100.48159591922
100.48159591631
100.481595913618
100.481595911129
100.481595908801
100.481595906647
100.481595904639
100.481595902762
100.481595901001
100.481595899386
100.481595897887
100.481595896519
100.481595895297
100.481595894234
100.481595893347
100.481595892663
100.481595892183
100.481595891964
100.481595892037
100.481595892415
100.481595893129
100.48159589422
100.48159589569
100.481595897538
100.481595899721
100.48159590218
100.481595904785
100.481595907389
100.48159590966
100.481595911406
100.481595912017
100.481595911566
100.481595909136
100.481595906356
100.481595902296
100.48159592782
100.481595932972
100.481595936712
100.481595940233
100.481595941455
100.481595941426
100.481595939957
100.481595937672
100.481595934762
100.481595931546
100.481595928184
100.481595924808
100.481595921534
100.481595918391
100.481595915408
100.481595912599
100.481595909951
100.481595907491
100.481595905163
100.48159590298
100.481595900928
100.481595899008
100.481595897189
100.481595895486
100.481595893885
100.481595892401
100.481595891033
100.481595889796
100.48159588869
100.481595887744
100.481595886959
100.481595886376
100.481595885998
100.481595885867
100.481595885984
100.481595886391
100.481595887089
100.481595888064
100.48159588933
100.481595890815
100.481595892445
100.481595894104
100.481595895631
100.481595896737
100.481595897232
100.481595896475
100.481595894715
100.481595890858
100.481595887017
100.481595881938
100.481595907084
100.481595913443
100.481595918362
100.481595923324
100.481595925856
100.481595927122
100.481595926831
100.481595925667
100.481595923775
100.481595921476
100.481595918915
100.481595916252
100.481595913559
100.481595910911
100.48159590835
100.481595905876
100.481595903519
100.481595901278
100.481595899124
100.481595897087
100.481595895151
100.481595893303
100.481595891557
100.481595889898
100.481595888326
100.481595886857
100.481595885474
100.481595884208
100.481595883073
100.481595882055
100.481595881181
100.481595880483
100.481595879945
100.48159587961
100.481595879479
100.481595879566