/*--------------------------------*- C++ -*----------------------------------*\
  =========                 |
  \\      /  F ield         | OpenFOAM: The Open Source CFD Toolbox
   \\    /   O peration     | Website:  https://openfoam.org
    \\  /    A nd           | Version:  10
     \\/     M anipulation  |
\*---------------------------------------------------------------------------*/
FoamFile
{
    format      ascii;
    class       surfaceScalarField;
    location    "8";
    object      phi;
}
// * * * * * * * * * * * * * * * * * * * * * * * * * * * * * * * * * * * * * //

dimensions      [1 0 -1 0 0 0 0];

internalField   nonuniform List<scalar> 
4900
(
-5.31324339743715e-12
5.33537521174033e-12
-7.93455399778197e-12
2.65546310884057e-12
-7.68217122988769e-12
-2.15946321958339e-13
-6.07329596273181e-12
-1.57318778212257e-12
-4.35541405193417e-12
-1.68281819127807e-12
-2.98630862715461e-12
-1.33428082159991e-12
-2.01445872104657e-12
-9.37140488010378e-13
-1.35575926649235e-12
-6.24138985694982e-13
-9.17199915173806e-13
-4.04228152958159e-13
-6.25806850154437e-13
-2.57369003235809e-13
-4.30808728128379e-13
-1.6133552956721e-13
-2.98403942685518e-13
-9.91365369842993e-14
-2.06612494697292e-13
-5.89285825260224e-14
-1.41360487591102e-13
-3.27921461516035e-14
-9.37046902998336e-14
-1.55838961868691e-14
-5.79671555999445e-14
-4.03456990318464e-15
-3.05189489590098e-14
3.91003961476049e-15
-8.98966641926023e-15
9.50850842851078e-15
8.22331380028431e-15
1.35303515834943e-14
2.2221944160268e-14
1.64747542387248e-14
3.38053061599745e-14
1.86454513711895e-14
4.35802248449474e-14
2.02327175242209e-14
5.20312943058411e-14
2.1358692092854e-14
5.9552589830982e-14
2.21124638580153e-14
6.65064993608344e-14
2.25257266140041e-14
7.32219387224397e-14
2.26298657313158e-14
8.00354607566064e-14
2.24167076044325e-14
8.72948481059158e-14
2.18740433794189e-14
9.54008851594788e-14
2.09478734113502e-14
1.048297610374e-13
1.95625905707257e-14
1.1617785429428e-13
1.75975364458521e-14
1.30241799588663e-13
1.48525973777066e-14
1.48110533031862e-13
1.10364979742952e-14
1.71378035565224e-13
5.64481711493708e-15
2.02424313910086e-13
-2.10781993064082e-15
2.44901713607718e-13
-1.3493296194716e-14
3.04502305351209e-13
-3.05527305302522e-14
3.90174992640262e-13
-5.65458641798974e-14
5.15961079288439e-13
-9.65711092511166e-14
7.03837385105944e-13
-1.58571782829784e-13
9.87576359051958e-13
-2.54355056595425e-13
1.4180469506783e-12
-4.01027446735561e-13
2.06890644249185e-12
-6.21380503758669e-13
3.03543559042007e-12
-9.37014658505555e-13
4.40705898646982e-12
-1.34199467498462e-12
6.14296254555262e-12
-1.70591739791025e-12
7.7835502071015e-12
-1.60980096399783e-12
8.04460724921662e-12
-2.28915390424838e-13
5.3644892199209e-12
2.71267430751966e-12
5.38726422738315e-12
-8.50931742992245e-12
1.38756928894167e-11
-1.40667932744741e-11
8.25754291399841e-12
-1.41558369200005e-11
-8.00686717232627e-14
-1.15481736720892e-11
-4.13497251030381e-12
-8.50106568032664e-12
-4.68487899313286e-12
-5.97918708502314e-12
-3.8115264469224e-12
-4.1375057801221e-12
-2.73445339914593e-12
-2.86240625391026e-12
-1.85515517402749e-12
-1.99499373854417e-12
-1.22791558208981e-12
-1.40524823379975e-12
-8.03818655952992e-13
-9.99936598885724e-13
-5.23830007491997e-13
-7.16309626163401e-13
-3.40452706523962e-13
-5.13163297821736e-13
-2.20275248465524e-13
-3.63850757449437e-13
-1.40807656189578e-13
-2.51206459824723e-13
-8.74136863303877e-14
-1.64131100291572e-13
-5.07521655961144e-14
-9.53594321831353e-14
-2.49307290645902e-14
-4.00097928572466e-14
-6.30626092627441e-15
5.28939970235392e-15
7.40237071357501e-15
4.29499885523616e-14
1.76523159992585e-14
7.47750462130795e-14
2.53566346417944e-14
1.02160174692614e-13
3.11109748971109e-14
1.26254368757685e-13
3.52847487065813e-14
1.48018477822918e-13
3.81522628768097e-14
1.68328735781973e-13
3.98297166883649e-14
1.88007811315426e-13
4.04004233461315e-14
2.07876069333171e-13
3.98580746764596e-14
2.28803937433677e-13
3.8137692474545e-14
2.51749627636151e-13
3.50973362393943e-14
2.77835086386606e-13
3.04971369254507e-14
3.08450366350889e-13
2.39485599196889e-14
3.45371313645504e-13
1.48651849703472e-14
3.90986386651017e-13
2.34462378254404e-15
4.48652859923241e-13
-1.50857368364534e-14
5.23259904613522e-13
-3.97419024533824e-14
6.22105354208317e-13
-7.53047663329916e-14
7.5631055309486e-13
-1.27640290788221e-13
9.43055133430606e-13
-2.06070288261701e-13
1.20898708452531e-12
-3.25168290727971e-13
1.59533049182781e-12
-5.07464307205848e-13
2.16490307219244e-12
-7.86370750803837e-13
3.01131662217422e-12
-1.20979983956271e-12
4.26612389088482e-12
-1.83848156873926e-12
6.09276242496382e-12
-2.72586156653844e-12
8.61515543165571e-12
-3.82636902220442e-12
1.16925669215468e-11
-4.74470822452404e-12
1.43578870342796e-11
-4.23528465173294e-12
1.42881441676893e-11
-1.17735681400511e-13
8.62942175227549e-12
8.41184195436092e-12
1.40431813599161e-11
-7.31876191805262e-12
2.12279211392202e-11
-1.34630473684374e-11
1.44482899740525e-11
-1.41507147780973e-11
6.55652130473083e-13
-1.1978461020455e-11
-6.26033936673865e-12
-9.12870799527542e-12
-7.4887966383057e-12
-6.65141685131988e-12
-6.24362783876836e-12
-4.772380670163e-12
-4.56875958079745e-12
-3.42750893273145e-12
-3.15572455495853e-12
-2.48153437909501e-12
-2.13003899878105e-12
-1.81559247332809e-12
-1.42639311486141e-12
-1.340874200805e-12
-9.5568615112447e-13
-9.96072776632227e-13
-6.42905898233282e-13
-7.399827880582e-13
-4.34526159390577e-13
-5.45290131441682e-13
-2.94156074548155e-13
-3.93898848209048e-13
-1.97933146792892e-13
-2.73734850296613e-13
-1.30490926773561e-13
-1.76605794245653e-13
-8.20509757245652e-14
-9.6817591958678e-14
-4.64729500292328e-14
-3.03009194086902e-14
-1.98482987563695e-14
2.59595336228336e-14
3.32410202908977e-16
7.4284905411576e-14
1.56764194539589e-14
1.1651746992234e-13
2.7257224345249e-14
1.54195025191049e-13
3.57482071970936e-14
1.8864821261438e-13
4.16291392132667e-14
2.21083513437634e-13
4.51399133140325e-14
2.52655833265397e-13
4.64133693518403e-14
2.84504569478989e-13
4.54576768147098e-14
3.17835846474376e-13
4.21404617962744e-14
3.53962234220127e-13
3.62119843779621e-14
3.94404877406698e-13
2.72232939707922e-14
4.40990004980071e-13
1.44800847793789e-14
4.96003997590449e-13
-3.06268654674798e-15
5.62429482227428e-13
-2.70036119816735e-14
6.44319565476677e-13
-5.98844261143977e-14
7.47366738718176e-13
-1.05659513803103e-13
8.79778872920961e-13
-1.70524856043248e-13
1.053647181717e-12
-2.64231051447662e-13
1.2870877926779e-12
-4.02127740150317e-13
1.6074488040397e-12
-6.08026487942879e-13
2.05600512072248e-12
-9.18390567585173e-13
2.69426181257858e-12
-1.38687300876944e-12
3.61160686719214e-12
-2.0892754256044e-12
4.92869896958143e-12
-3.11759287403377e-12
6.78567462529767e-12
-4.54470305712504e-12
9.25751849175025e-12
-6.25975031347174e-12
1.21341678719553e-11
-7.58213334161143e-12
1.43669635622203e-11
-6.42741334725499e-12
1.37123592750447e-11
5.79119467116829e-13
7.47501397303462e-12
1.46898480144555e-11
2.15442771104839e-11
-4.50534335180634e-12
2.57680904500232e-11
-9.49264428419766e-12
1.94829876122039e-11
-1.06966295885971e-11
1.90818148323431e-12
-9.61320843221655e-12
-7.29661310508398e-12
-7.75123737906373e-12
-9.30490813324621e-12
-5.96684989634564e-12
-7.98303027530893e-12
-4.51487514703783e-12
-5.97639360318537e-12
-3.41116486746225e-12
-4.21564918936473e-12
-2.58991373210116e-12
-2.90803303765749e-12
-1.97997534321171e-12
-1.99359588715586e-12
-1.52268757068658e-12
-1.3707547148569e-12
-1.17485322263194e-12
-9.49030252912647e-13
-9.05763102509523e-13
-6.62400965050337e-13
-6.93942759365122e-13
-4.65237513280624e-13
-5.24383191903776e-13
-3.27207036083154e-13
-3.86527110147341e-13
-2.28489247842397e-13
-2.72822490193866e-13
-1.56297086252349e-13
-1.77776634026986e-13
-1.02431483297068e-13
-9.72878577908802e-14
-6.15910240855269e-14
-2.82106750988013e-14
-3.03119550093085e-14
3.19482165663764e-14
-6.33302668619532e-15
8.5228842164422e-14
1.18702084961875e-14
1.33352031739289e-13
2.52902169363428e-14
1.77848801876413e-13
3.45950244081824e-14
2.20103452499845e-13
4.0170632290516e-14
2.61451832532287e-13
4.21962401251892e-14
3.03219233535753e-13
4.06906955487815e-14
3.46791713833461e-13
3.54587595057443e-14
3.93673824834174e-13
2.61315448840528e-14
4.45571770095271e-13
1.20583767070149e-14
5.0449943709041e-13
-7.76411231045761e-15
5.72921559781849e-13
-3.4830086496889e-14
6.53955548139711e-13
-7.13908884744574e-14
7.51672248058165e-13
-1.20940346686124e-13
8.71553620530366e-13
-1.88842748137164e-13
1.02113557466111e-12
-2.83347358431342e-13
1.21098149139616e-12
-4.1723363297844e-13
1.4561054039687e-12
-6.10302693684872e-13
1.77802224103177e-12
-8.92872087258081e-13
2.20753340723212e-12
-1.31069621727874e-12
2.78807965008271e-12
-1.93007378334888e-12
3.57890390874854e-12
-2.84261328706397e-12
4.65267419986173e-12
-4.15372845156742e-12
6.07913679421221e-12
-5.93332954296011e-12
7.85145929460903e-12
-7.99384648928178e-12
9.72924754435687e-12
-9.42084477905933e-12
1.08625509921099e-11
-7.52006451305425e-12
9.70219548427735e-12
1.78173638148338e-12
4.6558641521732e-12
1.97765601673551e-11
2.62258141675146e-11
-1.63009438862551e-12
2.7433329532647e-11
-4.77510992610175e-12
2.26750782483238e-11
-6.28351212838729e-12
3.46417607240016e-12
-6.34774567002875e-12
-7.18636964792982e-12
-5.64837720889482e-12
-9.95973508358473e-12
-4.7347901232023e-12
-8.85313401977612e-12
-3.8564725165006e-12
-6.81201544222738e-12
-3.1036918315029e-12
-4.92638278425035e-12
-2.48701293384393e-12
-3.48324236348583e-12
-1.99099815162532e-12
-2.44867985283096e-12
-1.59369191971281e-12
-1.7276420790742e-12
-1.2746433225299e-12
-1.22815214238707e-12
-1.01680898294398e-12
-8.80780173438538e-13
-8.06689386315578e-13
-6.36353778630505e-13
-6.33824814325653e-13
-4.61496796032405e-13
-4.90182325705202e-13
-3.33961533637522e-13
-3.69575107011821e-13
-2.39112424929965e-13
-2.67226776638733e-13
-1.67340478643047e-13
-1.79384193431548e-13
-1.12318610445664e-13
-1.03048040692519e-13
-6.98309936189144e-14
-3.57736562867205e-14
-3.70600848450171e-14
2.44974546761839e-14
-1.20977874359257e-14
7.95264093274425e-14
6.346828799178e-15
1.30904077804303e-13
1.91099223297377e-14
1.80081941228665e-13
2.67166812272202e-14
2.28465880240893e-13
2.93900013960956e-14
2.7745561679756e-13
2.71542831763362e-14
3.28497542583644e-13
1.97659354914905e-14
3.83157316375348e-13
6.73637919082248e-15
4.43186473453897e-13
-1.27720326199766e-14
5.10610752846528e-13
-4.00357043428261e-14
5.8784712599568e-13
-7.69418035644248e-14
6.77863484197887e-13
-1.26290324963172e-13
7.84374451757074e-13
-1.92321199437501e-13
9.1213811641661e-13
-2.81441211196655e-13
1.06729945324315e-12
-4.0328560197363e-13
1.25786629838394e-12
-5.72497097064337e-13
1.4942801349297e-12
-8.11311305582964e-13
1.7900489282777e-12
-1.15311462044948e-12
2.16226689295537e-12
-1.6472518127616e-12
2.63155597826759e-12
-2.36355324544838e-12
3.22023989519476e-12
-3.39533349708873e-12
3.94467597842758e-12
-4.84203465479274e-12
4.79674840599605e-12
-6.74905303713125e-12
5.6924166009663e-12
-8.85276471151584e-12
6.39398699355912e-12
-1.00848028697459e-11
6.36209281902968e-12
-7.44895452193697e-12
4.89983323269604e-12
3.28476147949723e-12
1.73796689569413e-12
2.29772116969995e-11
2.79879979509824e-11
5.26335691338083e-13
2.69418566101093e-11
-8.57015914452432e-13
2.41043939630709e-11
-2.43532400412169e-12
5.08853120004861e-12
-3.36107002497526e-12
-6.21632336117185e-12
-3.62016145834221e-12
-9.65796299706536e-12
-3.46249590881175e-12
-8.96932216796314e-12
-3.10643529394654e-12
-7.12749714282768e-12
-2.68934122236952e-12
-5.30361424551217e-12
-2.28032326281498e-12
-3.85300666311671e-12
-1.90941742902119e-12
-2.78087610023483e-12
-1.58601086136531e-12
-2.01283944938021e-12
-1.30972210870673e-12
-1.46670302360227e-12
-1.07598193905825e-12
-1.07722885775625e-12
-8.78859515103872e-13
-7.96610412107308e-13
-7.12420163176149e-13
-5.91474085911915e-13
-5.71301982029281e-13
-4.38999841376891e-13
-4.50888841278073e-13
-3.23803261362458e-13
-3.47313929539205e-13
-2.35526871888748e-13
-2.5735767050931e-13
-1.67194311147277e-13
-1.78329434855325e-13
-1.14061774421739e-13
-1.07963584750141e-13
-7.28855239947336e-14
-4.43039165226738e-14
-4.14485669380013e-14
1.43609385673406e-14
-1.82160685350363e-14
6.95856621392261e-14
-2.19613944104224e-15
1.22815873874913e-13
7.24433024707153e-15
1.75442031347163e-13
1.03832971801995e-14
2.28855804819462e-13
7.24180155035549e-15
2.84489526227717e-13
-2.46551632936431e-15
3.4387936377102e-13
-1.93312182607281e-14
4.08721308472578e-13
-4.43540061240836e-14
4.80934007084757e-13
-7.90330280941737e-14
5.62760545278392e-13
-1.25578809349749e-13
6.56853953211832e-13
-1.87202419944296e-13
7.66397309066409e-13
-2.68670988018448e-13
8.95210258843297e-13
-3.77028385027727e-13
1.04785406965966e-12
-5.22649637832339e-13
1.22963939569868e-12
-7.20927341865524e-13
1.44644680698761e-12
-9.94666655905067e-13
1.70416637982937e-12
-1.37726475489322e-12
2.00733791777278e-12
-1.91671903641482e-12
2.35635414945722e-12
-2.67871584762004e-12
2.74187654982188e-12
-3.74684285747495e-12
3.13406784016177e-12
-5.20004033772442e-12
3.46475044401175e-12
-7.04533099366019e-12
3.60008727529092e-12
-8.95330982103132e-12
3.33055665858308e-12
-9.77964751766917e-12
2.41829072964701e-12
-6.4994965636389e-12
8.80870367955772e-13
4.86088023734181e-12
-4.8048858705753e-13
2.43752081849889e-11
2.75301970790523e-11
1.77722609789431e-12
2.51980325305142e-11
1.6866537408647e-12
2.42381568542218e-11
2.257178635059e-13
6.59210451013252e-12
-1.16759705073043e-12
-4.78218828785265e-12
-2.03511314230467e-12
-8.75129838342004e-12
-2.39723350952995e-12
-8.56932716141539e-12
-2.42536913362218e-12
-7.06243947173872e-12
-2.27123966721886e-12
-5.42156478008215e-12
-2.03571328128864e-12
-4.05296559409314e-12
-1.77690398846484e-12
-3.00464692736862e-12
-1.52524809618404e-12
-2.22993407964087e-12
-1.29469874715964e-12
-1.66313357235081e-12
-1.09010796501348e-12
-1.24811787713383e-12
-9.1157830838826e-13
-9.41835070220194e-13
-7.56986219710846e-13
-7.13138415740387e-13
-6.23362148617844e-13
-5.40054222589984e-13
-5.07593568501017e-13
-4.07338716909944e-13
-4.06751719313229e-13
-3.04449991231535e-13
-3.18215286611021e-13
-2.24103042746339e-13
-2.39672675733822e-13
-1.6124393758679e-13
-1.69106404056878e-13
-1.1233444121031e-13
-1.04729750746699e-13
-7.49273643793027e-14
-4.49388006982186e-14
-4.73050312821654e-14
1.1732858296198e-14
-2.83393658600233e-14
6.66696413928233e-14
-1.73157110578426e-14
1.21201044727137e-13
-1.39025089592409e-14
1.76662621652071e-13
-1.80856138146629e-14
2.3441932972031e-13
-3.01814604296346e-14
2.95922918549529e-13
-5.08694878101401e-14
3.6275445382641e-13
-8.12788396074914e-14
4.36667280533437e-13
-1.23080944940955e-13
5.19651776463761e-13
-1.78723935459084e-13
6.1397759086236e-13
-2.51696550121244e-13
7.22225749775211e-13
-3.470773811704e-13
8.47264504742513e-13
-4.72196123200333e-13
9.92137279618721e-13
-6.37602610934826e-13
1.15974109266293e-12
-8.58541895748187e-13
1.35210698569137e-12
-1.15695359296103e-12
1.56904669099534e-12
-1.56401562477711e-12
1.80558554390525e-12
-2.12294114463077e-12
2.04761060810966e-12
-2.89028173110403e-12
2.26441739227402e-12
-3.93303731437875e-12
2.39746154673923e-12
-5.30231060932794e-12
2.34562593683134e-12
-6.96252472869357e-12
1.95864912583594e-12
-8.53501884459955e-12
1.07140348952785e-12
-8.86032548137601e-12
-3.23982882056469e-13
-5.07055837584294e-12
-1.7529841681306e-12
6.32479221718047e-12
-1.79217800631223e-12
2.44473185355853e-11
2.57579260287752e-11
2.27607071169746e-12
2.2953161103231e-11
2.93104813645389e-12
2.36226733236793e-11
1.69878619288636e-12
7.86294567675172e-12
1.81188264115963e-13
-3.2278531399976e-12
-9.61882564062418e-13
-7.57316480977833e-12
-1.60647465355544e-12
-7.8909661957079e-12
-1.87133861563196e-12
-6.76477431619456e-12
-1.89629907553105e-12
-5.36454586766371e-12
-1.78972920611081e-12
-4.12807421924358e-12
-1.62121668623501e-12
-3.14220476330883e-12
-1.43196503516334e-12
-2.38867993733377e-12
-1.24432451402997e-12
-1.82068081977303e-12
-1.0692559627789e-12
-1.39348132030317e-12
-9.11126127786549e-13
-1.07062975632039e-12
-7.70724278484904e-13
-8.24557828144812e-13
-6.47038099600221e-13
-6.35093306457533e-13
-5.38273329579468e-13
-4.87773068866395e-13
-4.42375645297039e-13
-3.72314125888358e-13
-3.5731283484232e-13
-2.81407085726222e-13
-2.81176763907194e-13
-2.09874618650975e-13
-2.12220875632044e-13
-1.54014885251223e-13
-1.48856382466184e-13
-1.11224528065792e-13
-8.96224484296575e-14
-7.96571397198693e-14
-3.31660234465822e-14
-5.8078343844802e-14
2.1803542120616e-14
-4.5711061916099e-14
7.65332464691288e-14
-4.21821628454575e-14
1.3227342056897e-13
-4.74809570009827e-14
1.90297211401124e-13
-6.1948199427311e-14
2.51943942424438e-13
-8.63304432687559e-14
3.18646815103562e-13
-1.21851098842976e-13
3.91966895056082e-13
-1.70310016327869e-13
4.73609184808621e-13
-2.34299485643259e-13
5.65446216859705e-13
-3.17474797608112e-13
6.69461481002657e-13
-4.25025765829127e-13
7.87639404910754e-13
-5.64281265898169e-13
9.21699637940278e-13
-7.45525817178596e-13
1.0725631356362e-12
-9.83205914098827e-13
1.23932490453572e-12
-1.29743408807301e-12
1.41749041267712e-12
-1.71579903352701e-12
1.59590214426736e-12
-2.27485272356163e-12
1.75192094833794e-12
-3.01966809338378e-12
1.8438322113984e-12
-3.9981768411985e-12
1.80122089957628e-12
-5.23278398473919e-12
1.51475376253836e-12
-6.64897556216312e-12
8.44830645697025e-13
-7.83772198488933e-12
-3.22826786165518e-13
-7.6646165198664e-12
-1.85213957434273e-12
-3.5118405580378e-12
-3.06073854206759e-12
7.56406335635215e-12
-2.33629207886218e-12
2.37516030661579e-11
2.34388126147581e-11
2.28289472829282e-12
2.06979320171279e-11
3.24173217710603e-12
2.26979152464461e-11
2.27790987501025e-12
8.85946909085285e-12
8.63002131473382e-13
-1.78197462509572e-12
-3.15442049956383e-13
-6.36530835906564e-12
-1.06179283857019e-12
-7.11643151459827e-12
-1.44488259919925e-12
-6.354423120495e-12
-1.57760969345578e-12
-5.20525919018313e-12
-1.55940211274368e-12
-4.12027840423187e-12
-1.45925189019552e-12
-3.21681811211849e-12
-1.3212439089874e-12
-2.50156173946843e-12
-1.17134314140489e-12
-1.94583322427469e-12
-1.02384772987243e-12
-1.51658465807799e-12
-8.85826712598436e-13
-1.18460043158291e-12
-7.60138418404315e-13
-9.26522916437962e-13
-6.47283145057212e-13
-7.24537773313112e-13
-5.46555263500104e-13
-5.65386384915641e-13
-4.56676375520629e-13
-4.39356854138885e-13
-3.76157349223456e-13
-3.39348412929835e-13
-3.03482672926964e-13
-2.60210403141296e-13
-2.37180955117953e-13
-1.98194627136818e-13
-1.75872146187704e-13
-1.50607113562788e-13
-1.18251467832746e-13
-1.15526490963499e-13
-6.30875044497748e-14
-9.16455629527677e-14
-9.19474406491676e-15
-7.81419862537719e-14
4.45773692661216e-14
-7.46088094727471e-14
9.93785128128642e-14
-8.10352775415047e-14
1.56377853498578e-13
-9.77830762009618e-14
2.16792962568794e-13
-1.25647647059816e-13
2.81896718133432e-13
-1.65908610473639e-13
3.53046460470117e-13
-2.20450885666174e-13
4.31664338154687e-13
-2.91931090504277e-13
5.19233433391484e-13
-3.84065925624273e-13
6.17186265433555e-13
-5.01993632518524e-13
7.26728103840761e-13
-6.52816334019373e-13
8.48487410795376e-13
-8.46239664104523e-13
9.81856906509763e-13
-1.0954751439513e-12
1.12385980011624e-12
-1.41826472876591e-12
1.26726307735019e-12
-1.83794171363243e-12
1.39753195151895e-12
-2.38375775334038e-12
1.48833481138537e-12
-3.08899333216507e-12
1.49496043793463e-12
-3.98320841169509e-12
1.34743032063054e-12
-5.06354840878848e-12
9.45097237919523e-13
-6.22481499168572e-12
1.74791646393885e-13
-7.04536673175643e-12
-1.02888855717202e-12
-6.43831590570161e-12
-2.45895596239516e-12
-2.05795227944268e-12
-3.40417483777327e-12
8.53417525543695e-12
-2.36799931641672e-12
2.27386086348452e-11
2.10841751290196e-11
2.03168735251853e-12
1.86898124105588e-11
3.01610613631064e-12
2.17416452660621e-11
2.30980873338757e-12
9.59240876099883e-12
1.10941511310411e-12
-5.56516085714783e-13
3.33373932359847e-14
-5.26557213952742e-12
-7.01742579590434e-13
-6.35881660567897e-12
-1.12305360893748e-12
-5.91142616668301e-12
-1.31189713621944e-12
-4.99537258560176e-12
-1.35048228216056e-12
-4.06115664516177e-12
-1.30023415536084e-12
-3.24695191483414e-12
-1.20309325972083e-12
-2.5789607323088e-12
-1.08536603957033e-12
-2.04416331805148e-12
-9.62658059372484e-13
-1.62022243869461e-12
-8.43526780695479e-13
-1.28497651194097e-12
-7.32190430700385e-13
-1.01940782498834e-12
-6.30268148385935e-13
-8.08300729376957e-13
-5.37924240529543e-13
-6.39848594953119e-13
-4.54538000796389e-13
-5.05123282305436e-13
-3.79106857254452e-13
-3.97403215928028e-13
-3.10474461839764e-13
-3.1169133376002e-13
-2.47439230872276e-13
-2.44283024372619e-13
-1.88821298946986e-13
-1.924630524955e-13
-1.33474848021826e-13
-1.54275739112205e-13
-8.0295683653927e-14
-1.2837300016147e-13
-2.82148656597113e-14
-1.13898125708785e-13
2.38219441654934e-14
-1.10430207023755e-13
7.68600154444672e-14
-1.17950437624053e-13
1.31959536601787e-13
-1.36836472719045e-13
1.90208826348962e-13
-1.67913128028794e-13
2.52723292705835e-13
-2.12487241694006e-13
3.2065458727483e-13
-2.72481046284148e-13
3.9516056787168e-13
-3.50558034379348e-13
4.77358099868672e-13
-4.50392146116637e-13
5.68190979395914e-13
-5.76949929586531e-13
6.6821081789669e-13
-7.36940523759642e-13
7.77170307316306e-13
-9.39270537235885e-13
8.93341499281035e-13
-1.19567041789532e-12
1.01238483323305e-12
-1.52127015563726e-12
1.12556366202694e-12
-1.93500695350586e-12
1.21702448897631e-12
-2.45901775449485e-12
1.2600708847771e-12
-3.115745656889e-12
1.21212963754667e-12
-3.91888251711195e-12
1.01081980644237e-12
-4.84577564219932e-12
5.72793682668137e-13
-5.77024889612277e-12
-1.8350991470152e-13
-6.27236585998213e-12
-1.28234623275846e-12
-5.32231716575534e-12
-2.49657134197516e-12
-8.25533127612434e-13
-3.18583075230857e-12
9.24259210334872e-12
-2.1239150412789e-12
2.1694326158161e-11
1.89701808634097e-11
1.68498059142444e-12
1.70233405173842e-11
2.55908334883994e-12
2.08886622041616e-11
2.07167873462288e-12
1.00992712401348e-11
1.11450938393129e-12
4.18814181612012e-13
1.99135724000897e-13
-4.33319449948759e-12
-4.666437475205e-13
-5.67698611945009e-12
-8.7918049905462e-13
-5.48356894026692e-12
-1.09046766360212e-12
-4.76931985823096e-12
-1.16333098050361e-12
-3.97396588070077e-12
-1.1486892537337e-12
-3.24763481761842e-12
-1.08368361732133e-12
-2.6303366001235e-12
-9.93000868868909e-13
-2.12152451967274e-12
-8.92193349871086e-13
-1.70800433864144e-12
-7.90433078691343e-13
-1.37400014759584e-12
-6.92743075110677e-13
-1.10464130016186e-12
-6.01528474177321e-13
-8.87329705189404e-13
-5.17614583526384e-13
-7.11835302490317e-13
-4.40926205730404e-13
-5.70129306890044e-13
-3.70882571578733e-13
-4.55992520794301e-13
-3.06648860341441e-13
-3.64681150297289e-13
-2.47275526985801e-13
-2.92604197676156e-13
-1.91775741568691e-13
-2.37083978118004e-13
-1.39160367807421e-13
-1.96166344084943e-13
-8.84517651353264e-14
-1.68492921986581e-13
-3.86908075179349e-14
-1.53188677000563e-13
1.10699612133176e-14
-1.49822512608157e-13
6.17717617402717e-14
-1.58369445021643e-13
1.14365070518405e-13
-1.79218625398976e-13
1.69807046002906e-13
-2.13201314512297e-13
2.29062272560734e-13
-2.61632813849834e-13
2.93084628600726e-13
-3.26426115561525e-13
3.62784717970489e-13
-4.10200415781974e-13
4.38952008266364e-13
-5.16509848951389e-13
5.22113230145843e-13
-6.5005772014662e-13
6.122753170381e-13
-8.17033368390401e-13
7.08523948522042e-13
-1.02542179586628e-12
8.08354365499e-13
-1.28536390897555e-12
9.06618823418719e-13
-1.60934659329232e-12
9.93973335417038e-13
-2.01211264059612e-12
1.05462028741777e-12
-2.50934780717771e-12
1.06350748381164e-12
-3.11424735492547e-12
9.82931148194838e-13
-3.82786213898999e-12
7.61165155339701e-13
-4.61352763743253e-12
3.3451152649693e-13
-5.33308835572465e-12
-3.4901687212581e-13
-5.57824808963152e-12
-1.28290733727859e-12
-4.37749255975924e-12
-2.24983184898819e-12
1.53170145296978e-13
-2.71934485526777e-12
9.72462526499882e-12
-1.772430878253e-12
2.07587529727825e-11
1.72035559740838e-11
1.33638457923573e-12
1.5700411166431e-11
2.05753821254839e-12
2.0181896927948e-11
1.74096812464045e-12
1.042871569714e-11
1.00883013682192e-12
1.16281192262282e-12
2.63356904605904e-13
-3.57677038236541e-12
-3.1127226479834e-13
-5.09218014339468e-12
-6.91112182976554e-13
-5.09415749674962e-12
-9.04496205979358e-13
-4.54682996185827e-12
-9.96296488137455e-13
-3.87343122963301e-12
-1.00657189001085e-12
-3.22894250190051e-12
-9.66632708079921e-13
-2.66214750772404e-12
-8.98528399007302e-13
-2.18177616939584e-12
-8.16921653225171e-13
-1.78202728636215e-12
-7.30989750227382e-13
-1.45261313765447e-12
-6.46136323997036e-13
-1.18243532590538e-12
-5.65272897274479e-13
-9.61386096529552e-13
-4.89714891174872e-13
-7.808279330711e-13
-4.19818379072982e-13
-6.33689202011505e-13
-3.55355296385542e-13
-5.14332943428084e-13
-2.95776970724854e-13
-4.18334485622908e-13
-2.40361088404283e-13
-3.42274838365875e-13
-1.88302468337235e-13
-2.83559421935916e-13
-1.38759834313812e-13
-2.4027018091436e-13
-9.08838496172537e-14
-2.11057332894483e-13
-4.3825609752198e-14
-1.95045555997267e-13
3.25734336392774e-15
-1.91798879893194e-13
5.12033406709753e-14
-2.01288751017693e-13
1.00850607133016e-13
-2.23904905752837e-13
1.53031153057581e-13
-2.60473764776187e-13
2.08561255095778e-13
-3.12295582807643e-13
2.68212767347841e-13
-3.81239490431098e-13
3.32671703855819e-13
-4.69839569165845e-13
4.02439920423028e-13
-5.81465709214781e-13
4.77690516960109e-13
-7.20493025512123e-13
5.58000980861183e-13
-8.92515269963703e-13
6.41972348095323e-13
-1.10454139002542e-12
7.26598354706974e-13
-1.36510520997282e-12
8.06356644048194e-13
-1.68417897764983e-12
8.71910865077886e-13
-2.07269362133057e-12
9.08374205254292e-13
-2.54078818046514e-12
8.9338269453442e-13
-3.09418782837005e-12
7.95165267276808e-13
-3.72454779856056e-12
5.73064449030734e-13
-4.38632792288943e-12
1.81663655949915e-13
-4.93660904830273e-12
-4.07027714182255e-13
-4.9844593329185e-12
-1.16619355391047e-12
-3.61299638209461e-12
-1.90309118355814e-12
8.9604300013195e-13
-2.19991641649775e-12
1.00280403338153e-11
-1.41306388023127e-12
1.99775662501117e-11
1.57929117458096e-11
1.03006546659601e-12
1.46784644663797e-11
1.60376050317822e-12
1.96156559743773e-11
1.41196740436504e-12
1.06265700598354e-11
8.67294806149914e-13
1.71289181262314e-12
2.76352425431285e-13
-2.98102960248704e-12
-2.05436020244797e-13
-4.60615683074684e-12
-5.42771516896015e-13
-4.75304741020037e-12
-7.46729870348273e-13
-4.33946044295954e-12
-8.47246117342351e-13
-3.76980174182497e-12
-8.74509100078817e-13
-3.19882962040171e-12
-8.53965108870681e-13
-2.68008860624583e-12
-8.04618292357344e-13
-2.22876312418348e-12
-7.3976487739176e-13
-1.84476244581122e-12
-6.68179358196431e-13
-1.52232205117811e-12
-5.95334932604906e-13
-1.25364154379995e-12
-5.24414718957153e-13
-1.03090153551679e-12
-4.5707805809941e-13
-8.46983851920178e-13
-3.94004640872571e-13
-6.95794720031767e-13
-3.35256359472571e-13
-5.72312051306892e-13
-2.80531148998647e-13
-4.72474522282231e-13
-2.29308849205251e-13
-3.93079057036788e-13
-1.80953173768603e-13
-3.3164762573387e-13
-1.34762146441931e-13
-2.86327477061898e-13
-9.00084374335515e-14
-2.5579516317744e-13
-4.59548670793698e-14
-2.3918510361262e-13
-1.86209724277164e-15
-2.36064481616914e-13
4.30056632672512e-14
-2.46402366962125e-13
8.93783431107218e-14
-2.70583506300674e-13
1.37965114358837e-13
-3.09414757299491e-13
1.89441292028046e-13
-3.64162728083318e-13
2.44413942277025e-13
-4.36629188712744e-13
3.03361488030258e-13
-5.29220429864141e-13
3.66546023731463e-13
-6.45090371401449e-13
4.33852633578652e-13
-7.88237153879572e-13
5.04535086700247e-13
-9.63624188212885e-13
5.76857142442969e-13
-1.17727056264108e-12
6.4754422315374e-13
-1.43617336799709e-12
7.11016630317103e-13
-1.74800108478696e-12
7.58359484436799e-13
-2.12035203390441e-12
7.76084451547004e-13
-2.55879704744772e-12
7.44932151140103e-13
-3.06329890905551e-12
6.39112895637429e-13
-3.61899359675523e-12
4.28050664787758e-13
-4.1755669584995e-12
8.15678896017578e-14
-4.59049467417115e-12
-4.10764913884056e-13
-4.49254412652308e-12
-1.01078763174878e-12
-3.01327981398998e-12
-1.55550733775714e-12
1.4408915930409e-12
-1.72579730558214e-12
1.01988271937812e-11
-1.09420700832732e-12
1.93459083687678e-11
1.46975026589303e-11
7.80296903223328e-13
1.39015707617065e-11
1.23026694978003e-12
1.91672448871624e-11
1.12487498472077e-12
1.07324549061039e-11
7.2717628558808e-13
2.11074235697676e-12
2.66514071150313e-13
-2.52056701790925e-12
-1.30206586726552e-13
-4.21001161102951e-12
-4.23046663151996e-13
-4.46111313418295e-12
-6.11533408782323e-13
-4.15215339115764e-12
-7.14035539966034e-13
-3.66871386341973e-12
-7.52410569906229e-13
-3.16208568052705e-12
-7.46713927728085e-13
-2.68762853778338e-12
-7.12864354164193e-13
-2.26467129817418e-12
-6.62568217804582e-13
-1.89733586103186e-12
-6.03935070397808e-13
-1.5834537595203e-12
-5.42270372876396e-13
-1.31802489397128e-12
-4.8085654643708e-13
-1.09525056809925e-12
-4.21559027642991e-13
-9.09424811280047e-13
-3.65290813018618e-13
-7.55404746934991e-13
-3.12344695370394e-13
-6.28784810730736e-13
-2.62624143344404e-13
-5.2589297909212e-13
-2.15785551852617e-13
-4.43771214708651e-13
-1.71345355614897e-13
-3.80081264441296e-13
-1.28733621632373e-13
-3.33056691065387e-13
-8.73417876372794e-14
-3.0141338572952e-13
-4.65387114300967e-14
-2.84308336823548e-13
-5.68551174612338e-15
-2.81317749553282e-13
3.58528905082333e-14
-2.92407560590823e-13
7.86967754279173e-14
-3.17949060643357e-13
1.23441341303318e-13
-3.5872406962163e-13
1.70629588075541e-13
-4.15948723795902e-13
2.20716176564563e-13
-4.91336734454096e-13
2.74005974050884e-13
-5.87145445841599e-13
3.30555325605057e-13
-7.06280239159871e-13
3.90019611850996e-13
-8.52339472467296e-13
4.51424546698811e-13
-1.02965742719266e-12
5.12829526609372e-13
-1.24328767682396e-12
5.7087435885541e-13
-1.49880932259802e-12
6.20155232132753e-13
-1.80184939464795e-12