/*--------------------------------*- C++ -*----------------------------------*\
  =========                 |
  \\      /  F ield         | OpenFOAM: The Open Source CFD Toolbox
   \\    /   O peration     | Website:  https://openfoam.org
    \\  /    A nd           | Version:  10
     \\/     M anipulation  |
\*---------------------------------------------------------------------------*/
FoamFile
{
    format      ascii;
    class       volScalarField;
    location    "8";
    object      rho;
}
// * * * * * * * * * * * * * * * * * * * * * * * * * * * * * * * * * * * * * //

dimensions      [1 -3 0 0 0 0 0];

internalField   nonuniform List<scalar> 
2500
(
1.14567002054143
1.1456807801552
1.14571669163682
1.1457454039396
1.14576437297511
1.14577606902134
1.14578303700293
1.14578708038983
1.14578935697891
1.14579059135953
1.14579124045906
1.14579156748987
1.14579172597947
1.14579180199883
1.14579183793817
1.14579185588123
1.14579186386678
1.14579186882724
1.14579187265351
1.14579187505261
1.14579187690924
1.1457918784191
1.1457918796177
1.14579188035719
1.14579188109019
1.14579188165666
1.14579188183485
1.1457918818195
1.14579188156564
1.14579188102444
1.14579188008471
1.14579187829225
1.14579187574429
1.14579187130802
1.14579186279731
1.14579184522218
1.14579180787636
1.14579172920127
1.14579156258609
1.14579122666703
1.14579056844719
1.14578932282299
1.14578704664574
1.14578302173853
1.14577608907502
1.14576444702525
1.14574547525421
1.14571660385526
1.14568050684327
1.14567036542437
1.14858234521331
1.14865928607926
1.14876508218114
1.14884699172021
1.14890176270773
1.14893622085022
1.14895723385494
1.1489697236856
1.14897693194322
1.14898095020218
1.14898310958038
1.14898422499029
1.14898477881484
1.14898504430321
1.14898516739516
1.14898522318509
1.14898524748893
1.14898525856609
1.14898526416621
1.14898526707755
1.14898526888744
1.14898527020288
1.14898527120116
1.14898527187343
1.14898527246105
1.14898527292031
1.14898527313421
1.14898527319165
1.1489852730681
1.14898527262645
1.14898527155564
1.14898526907552
1.14898526376022
1.14898525195208
1.148985225447
1.14898516601998
1.14898503549269
1.14898475731053
1.14898418273806
1.14898304086605
1.14898085279076
1.14897681149163
1.14896960743733
1.14895717149124
1.14893626964515
1.14890193211344
1.14884708910004
1.14876463238913
1.14865812369909
1.14858390117747
1.15163854079199
1.15178375866297
1.15194018675838
1.15205671519421
1.15213375448733
1.15218196901816
1.15221128794823
1.15222869423611
1.15223874319846
1.15224435524412
1.15224737741055
1.15224894315572
1.15224972311911
1.15225009726339
1.15225027032398
1.15225034780127
1.15225038125849
1.15225039564757
1.15225040206047
1.15225040502808
1.15225040661788
1.15225040766065
1.15225040842026
1.15225040894374
1.15225040936983
1.1522504097074
1.15225040990103
1.15225040999567
1.15225040997522
1.15225040964541
1.15225040859195
1.15225040583649
1.1522503991156
1.15225038332563
1.15225034688962
1.15225026409726
1.15225008121557
1.15224969067844
1.15224888557952
1.15224728719695
1.15224422936235
1.15223858995919
1.15222854553223
1.15221120246899
1.15218200958723
1.15213389374315
1.15205661679586
1.15193905968022
1.15178107104147
1.15163849039636
1.15448888225369
1.15467605495675
1.1548489461852
1.15497259006184
1.15505223242723
1.15510097109943
1.15513000913985
1.15514694005392
1.15515656458083
1.15516186992644
1.15516469493992
1.15516614446705
1.15516686043182
1.1551672010446
1.15516735724841
1.15516742641554
1.15516745594573
1.155167468314
1.15516747354136
1.15516747581158
1.15516747693366
1.15516747763498
1.15516747814454
1.15516747850049
1.15516747877795
1.15516747900341
1.15516747915593
1.15516747926312
1.15516747932235
1.15516747917955
1.15516747846992
1.15516747633996
1.15516747072442
1.15516745714462
1.15516742531295
1.1551673520038
1.15516718820503
1.15516683475765
1.15516609895626
1.15516462271897
1.15516176690278
1.15515643515741
1.15514680639328
1.15512991388884
1.1551009517431
1.15505221261501
1.15497213009062
1.15484703199846
1.15467169601974
1.15448528213163
1.15689426657047
1.15708896618896
1.15725083034271
1.15736211348185
1.15743181504334
1.15747344000006
1.15749769967763
1.15751157840742
1.15751934495419
1.15752357212008
1.15752579999553
1.15752693367662
1.15752748984165
1.15752775285266
1.1575278727704
1.15752792549641
1.15752794781252
1.15752795698642
1.15752796071552
1.15752796224118
1.15752796293403
1.15752796334585
1.15752796364899
1.1575279638623
1.15752796402201
1.15752796415697
1.15752796426385
1.15752796436066
1.15752796443899
1.15752796442899
1.15752796406132
1.1575279626496
1.15752795859959
1.15752794857644
1.15752792483334
1.15752786959264
1.15752774507514
1.15752747419107
1.15752690566041
1.1575257547803
1.15752350606333
1.1575192592257
1.15751148485255
1.15749762166833
1.15747338685175
1.15743167566186
1.15736140605704
1.15724843562217
1.15708346384658
1.15688723827591
1.15875285881164
1.15892707515532
1.15906082848906
1.15914944507939
1.15920340916013
1.15923484714298
1.15925276802107
1.15926282929448
1.15926837505823
1.1592713582681
1.15927291648222
1.15927370404384
1.15927408843631
1.15927426947352
1.15927435170534
1.15927438769092
1.15927440281575
1.15927440893707
1.15927441134104
1.15927441226343
1.15927441263786
1.15927441284295
1.1592744129991
1.15927441311001
1.15927441318842
1.15927441325952
1.15927441332737
1.15927441340376
1.15927441348243
1.15927441352261
1.15927441338216
1.15927441257763
1.15927440995298
1.15927440330814
1.15927438743908
1.15927435021242
1.15927426573065
1.15927408079956
1.15927369017233
1.15927289366796
1.15927132411264
1.15926832937655
1.15926277731048
1.15925271969113
1.15923479435187
1.15920323269619
1.15914868719772
1.15905839758819
1.15892131482439
1.15874386159945
1.16007939993334
1.16021796112726
1.1603177426507
1.16038161570209
1.16041945604734
1.16044096854301
1.16045296659316
1.16045958004828
1.16046317310661
1.16046508515306
1.16046607611469
1.16046657425183
1.16046681648195
1.16046693026706
1.16046698183354
1.16046700432778
1.16046701372687
1.16046701747623
1.16046701889959
1.16046701940721
1.16046701958189
1.16046701966074
1.16046701972525
1.16046701977268
1.16046701980177
1.16046701983318
1.16046701987247
1.16046701992679
1.16046701999292
1.1604670200424
1.1604670200193
1.16046701962038
1.16046701806851
1.16046701402605
1.1604670042985
1.16046698131858
1.16046692889909
1.16046681362757
1.16046656895681
1.16046606719835
1.16046507143852
1.16046315431528
1.16045955840771
1.16045294561243
1.16044093485043
1.16041930537636
1.16038096355169
1.16031563607022
1.16021275887265
1.16007021303238
1.16096025500943
1.16106019230676
1.16112840333112
1.16117069511109
1.16119509389495
1.16120863856707
1.1612160332739
1.161220037083
1.16122218245692
1.16122331277188
1.16122389461064
1.16122418582171
1.16122432706693
1.16122439331857
1.16122442330824
1.16122443636257
1.16122444178929
1.16122444392382
1.16122444470522
1.16122444496069
1.16122444503023
1.16122444504448
1.16122444505931
1.16122444507341
1.16122444507619
1.16122444508576
1.16122444510636
1.16122444514164
1.16122444519062
1.16122444523712
1.16122444525503
1.16122444508074
1.16122444423912
1.16122444195366
1.16122443640681
1.16122442322316
1.16122439303602
1.16122432644462
1.16122418460872
1.16122389246727
1.16122330933458
1.1612221777681
1.16122003244676
1.16121603023689
1.16120862597632
1.16119499390713
1.16117021799544
1.16112679679429
1.1610560316922
1.16095222861166
1.1615077593246
1.16157402963845
1.16161722665622
1.16164322733373
1.16165785138831
1.16166578501175
1.16167002728258
1.16167228452534
1.16167347801151
1.16167410096823
1.16167441972216
1.16167457871083
1.161674655699
1.16167469179084
1.16167470812299
1.16167471522255
1.16167471815988
1.16167471929891
1.16167471970049
1.16167471981387
1.16167471982766
1.16167471981956
1.16167471981658
1.16167471981641
1.16167471981187
1.16167471981271
1.16167471982283
1.16167471984367
1.16167471987647
1.16167471991253
1.16167471993749
1.16167471987343
1.16167471945042
1.16167471823891
1.16167471526739
1.16167470816705
1.16167469186706
1.16167465584194
1.16167457893952
1.16167442004688
1.16167410141935
1.16167347889077
1.16167228695719
1.16167003267549
1.16166578678105
1.16165779865425
1.16164292193659
1.16161612651262
1.16157102770923
1.16150154181379
1.16182800388339
1.16186882077068
1.16189437935195
1.16190934552177
1.16191756199588
1.16192192169048
1.16192420624781
1.16192540126691
1.1619260249825
1.16192634767412
1.16192651190678
1.16192659360194
1.16192663312749
1.16192665166033
1.16192666004944
1.16192666369307
1.16192666519358
1.16192666576679
1.16192666595782
1.16192666599933
1.16192666599553
1.16192666598522
1.1619266659776
1.16192666597216
1.16192666596691
1.16192666596592
1.16192666597025
1.16192666598221
1.16192666600248
1.16192666602694
1.16192666604685
1.16192666602904
1.16192666583085
1.16192666522478
1.16192666371814
1.16192666010109
1.16192665178479
1.16192663339059
1.16192659408219
1.16192651270361
1.16192634893757
1.16192602709419
1.16192540525616
1.16192421366964
1.16192192986136
1.16191754138656
1.16190917191391
1.16189369315359
1.16186683963006
1.16182364032117
1.16200510475291
1.16202864126277
1.16204286743144
1.16205098724285
1.16205534372578
1.16205760651315
1.16205876916367
1.16205936723549
1.16205967545006
1.1620598335653
1.16205991364818
1.1620599534007
1.16205997262909
1.1620599816519
1.16205998573952
1.16205998751399
1.16205998824132
1.16205998851478
1.16205998859889
1.16205998861083
1.16205998860452
1.16205998859583
1.16205998858887
1.16205998858345
1.16205998857941
1.16205998857795
1.1620599885797
1.16205998858638
1.16205998859808
1.1620599886131
1.16205998862692
1.16205998862451
1.16205998853649
1.16205998824931
1.1620599875221
1.16205998576881
1.16205998173511
1.16205997281548
1.16205995375374
1.16205991425486
1.16205983456721
1.16205967718149
1.16205937054506
1.16205877552699
1.16205761556515
1.16205534015911
1.16205089911071
1.16204247345575
1.16202743250862
1.1620022891917
1.16209808664331
1.16211087512488
1.1621183668746
1.16212254235124
1.16212473428972
1.1621258497224
1.16212641199055
1.16212669649959
1.16212684129664
1.16212691496989
1.16212695211827
1.16212697052882
1.16212697943657
1.16212698362169
1.16212698551996
1.16212698634377
1.16212698667979
1.16212698680373
1.16212698683804
1.16212698683989
1.16212698683506
1.1621269868291
1.16212698682422
1.16212698682035
1.16212698681771
1.16212698681651
1.1621269868172
1.16212698682078
1.16212698682712
1.16212698683563
1.16212698684409
1.16212698684556
1.16212698680848
1.16212698667865
1.1621269863429
1.16212698553023
1.16212698366085
1.1621269795319
1.16212697071655
1.16212695245136
1.1621269155448
1.16212684235339
1.16212669865603
1.16212641643137
1.16212585705573
1.16212473744957
1.16212250257767
1.16211815699722
1.16211018748372
1.16209639836142
1.16214460157605
1.16215118409965
1.16215493481488
1.16215697953333
1.16215803100054
1.16215855567066
1.16215881527669
1.16215894452346
1.16215900949053
1.1621590422807
1.16215905874589
1.16215906689613
1.16215907084235
1.16215907269944
1.16215907354303
1.16215907390906
1.16215907405759
1.16215907411101
1.16215907412423
1.16215907412361
1.16215907412034
1.16215907411674
1.16215907411377
1.16215907411141
1.16215907410986
1.16215907410909
1.16215907410936
1.16215907411118
1.16215907411444
1.16215907411893
1.16215907412363
1.16215907412537
1.16215907411047
1.16215907405413
1.16215907390524
1.16215907354356
1.16215907271223
1.16215907087966
1.16215906697438
1.1621590588911
1.16215904254783
1.1621590100301
1.1621589457385
1.16215881799774
1.16215856069063
1.16215803546559
1.16215696391559
1.16215483045023
1.16215081681758
1.16214365301174
1.16216684315973
1.16217006743282
1.16217185998403
1.1621728173537
1.16217330016863
1.16217353660525
1.16217365150225
1.16217370779678
1.16217373574647
1.16217374974132
1.16217375674106
1.16217376020287
1.16217376188083
1.16217376267202
1.16217376303203
1.16217376318821
1.16217376325124
1.16217376327323
1.16217376327802
1.16217376327716
1.16217376327523
1.16217376327324
1.16217376327159
1.1621737632703
1.16217376326946
1.16217376326902
1.16217376326913
1.16217376327001
1.16217376327159
1.16217376327383
1.16217376327624
1.16217376327742
1.16217376327168
1.16217376324812
1.16217376318447
1.16217376302934
1.16217376267328
1.16217376189047
1.16217376022674
1.16217375678971
1.1621737498423
1.16217373598499
1.16217370841245
1.16217365301752
1.16217353966776
1.16217330382221
1.16217281235779
1.16217181132551
1.16216988218357
1.16216634047306
1.16217703431532
1.16217854312449
1.16217936386567
1.16217979395811
1.16218000691574
1.16218010934887
1.16218015826432
1.16218018185617
1.16218019342604
1.16218019917357
1.16218020203745
1.16218020345296
1.16218020414
1.16218020446466
1.16218020461266
1.16218020467686
1.16218020470261
1.1621802047113
1.16218020471291
1.1621802047123
1.16218020471126
1.16218020471023
1.16218020470939
1.16218020470872
1.1621802047083
1.16218020470807
1.1621802047081
1.16218020470851
1.16218020470924
1.16218020471029
1.16218020471146
1.16218020471211
1.16218020470997
1.16218020470043
1.16218020467412
1.16218020460981
1.16218020446246
1.16218020413956
1.16218020345564
1.16218020204661
1.16218019920163
1.16218019351745
1.1621801821426
1.16218015904655
1.16218011105986
1.16218000933792
1.16217979297114
1.16217934253104
1.16217845446046
1.16217678167951
1.16218151619209
1.16218219302383
1.16218255416081
1.16218274011441
1.1621828306151
1.16218287340939
1.16218289350319
1.16218290304555
1.16218290766827
1.16218290994661
1.16218291107771
1.16218291163654
1.16218291190821
1.16218291203689
1.16218291209565
1.16218291212113
1.16218291213128
1.16218291213458
1.16218291213507
1.16218291213472
1.16218291213419
1.16218291213369
1.16218291213328
1.16218291213296
1.16218291213275
1.16218291213264
1.16218291213264
1.16218291213282
1.16218291213314
1.16218291213361
1.16218291213413
1.16218291213445
1.16218291213368
1.16218291212993
1.16218291211939
1.16218291209355
1.16218291203447
1.16218291190549
1.1621829116334
1.16218291107477
1.16218290994897
1.1621829076976
1.16218290316948
1.16218289388247
1.16218287429939
1.16218283203025
1.16218274031962
1.16218254535034
1.16218215258651
1.16218139523209
1.1621834072868
1.16218369921488
1.1621838523446
1.16218392992842
1.16218396708314
1.16218398436986
1.16218399235595
1.16218399609139
1.16218399787905
1.16218399875316
1.16218399918555
1.16218399939912
1.16218399950311
1.16218399955249
1.16218399957507
1.16218399958485
1.16218399958871
1.16218399958991
1.16218399959004
1.16218399958985
1.1621839995896
1.16218399958936
1.16218399958917
1.16218399958901
1.16218399958891
1.16218399958885
1.16218399958885
1.16218399958892
1.16218399958905
1.16218399958924
1.16218399958947
1.16218399958961
1.16218399958934
1.1621839995879
1.1621839995838
1.16218399957372
1.16218399955072
1.16218399950072
1.1621839993957
1.16218399918095
1.16218399874927
1.16218399788586
1.16218399614167
1.16218399253028
1.16218398480572
1.16218396783836
1.16218393031226
1.16218384891832
1.16218368157782
1.16218335189657
1.16218416880215
1.16218429019097
1.16218435291333
1.16218438422363
1.16218439899423
1.16218440576195
1.16218440884014
1.16218441025877
1.16218441092949
1.16218441125484
1.16218441141519
1.16218441149435
1.16218441153297
1.16218441155133
1.16218441155974
1.16218441156336
1.16218441156478
1.16218441156519
1.16218441156521
1.1621844115651
1.16218441156498
1.16218441156487
1.16218441156478
1.1621844115647
1.16218441156465
1.16218441156462
1.16218441156461
1.16218441156463
1.16218441156468
1.16218441156476
1.16218441156484
1.1621844115649
1.16218441156481
1.16218441156427
1.16218441156272
1.1621844115589
1.1621844115502
1.16218441153136
1.16218441149196
1.16218441141174
1.162184411251
1.16218441092962
1.16218441027796
1.16218440891659
1.16218440596449
1.16218439936956
1.16218438451189
1.16218435166171
1.16218428281113
1.16218414446112
1.16218445580974
1.16218450458787
1.16218452945911
1.16218454170695
1.16218454740464
1.16218454997781
1.16218455113085
1.16218455165461
1.16218455189925
1.16218455201695
1.16218455207473
1.16218455210323
1.16218455211713
1.16218455212375
1.16218455212677
1.16218455212806
1.16218455212855
1.16218455212868
1.16218455212866
1.16218455212861
1.16218455212854
1.16218455212849
1.16218455212844
1.1621845521284
1.16218455212837
1.16218455212835
1.16218455212834
1.16218455212834
1.16218455212835
1.16218455212838
1.16218455212841
1.16218455212843
1.1621845521284
1.1621845521282
1.16218455212764
1.16218455212623
1.16218455212304
1.16218455211614
1.16218455210176
1.16218455207261
1.16218455201439
1.16218455189808
1.16218455166146
1.16218455116296
1.16218455006762
1.16218454758043
1.16218454187654
1.16218452903222
1.16218450161719
1.16218444551418
1.16218455029444
1.16218456927661
1.16218457884238
1.16218458349489
1.16218458563137
1.16218458658319
1.16218458700365
1.16218458719194
1.1621845872788
1.16218458732022
1.16218458734045
1.1621845873504
1.16218458735524
1.16218458735754
1.16218458735857
1.162184587359
1.16218458735915
1.16218458735917
1.16218458735915
1.16218458735911
1.16218458735908
1.16218458735904
1.16218458735901
1.16218458735899
1.16218458735897
1.16218458735895
1.16218458735894
1.16218458735893
1.16218458735893
1.16218458735894
1.16218458735895
1.16218458735895
1.16218458735894
1.16218458735887
1.16218458735868
1.16218458735819
1.16218458735706
1.16218458735461
1.16218458734952
1.16218458733923
1.16218458731871
1.16218458727774
1.16218458719413
1.16218458701654
1.16218458662129
1.16218458570953
1.16218458358246
1.16218457870811
1.1621845681233
1.1621845460919
1.16218456916653
1.16218457633424
1.16218457990886
1.16218458162782
1.16218458240775
1.16218458275076
1.1621845829002
1.16218458296616
1.16218458299619
1.16218458301034
1.1621845830172
1.16218458302054
1.16218458302215
1.1621845830229
1.16218458302322
1.16218458302333
1.16218458302336
1.16218458302335
1.16218458302332
1.1621845830233
1.16218458302327
1.16218458302325
1.16218458302323
1.16218458302321
1.16218458302319
1.16218458302318
1.16218458302317
1.16218458302316
1.16218458302315
1.16218458302315
1.16218458302315
1.16218458302315
1.16218458302314
1.16218458302312
1.16218458302306
1.1621845830229
1.16218458302253
1.1621845830217
1.16218458301997
1.16218458301646
1.16218458300945
1.16218458299543
1.16218458296668
1.16218458290508
1.16218458276621
1.16218458244086
1.16218458166915
1.16218457987088
1.16218457590135
1.16218456750708
1.16218455923517
1.16218456186595
1.16218456316574
1.16218456378426
1.16218456406175
1.16218456418229
1.16218456423407
1.16218456425657
1.16218456426663
1.1621845642713
1.16218456427351
1.16218456427456
1.16218456427505
1.16218456427525
1.16218456427532
1.16218456427533
1.16218456427532
1.1621845642753
1.16218456427527
1.16218456427525
1.16218456427522
1.1621845642752
1.16218456427519
1.16218456427517
1.16218456427516
1.16218456427514
1.16218456427513
1.16218456427512
1.16218456427511
1.1621845642751
1.1621845642751
1.1621845642751
1.1621845642751
1.1621845642751
1.16218456427509
1.16218456427505
1.16218456427494
1.16218456427469
1.16218456427414
1.16218456427301
1.16218456427072
1.16218456426609
1.1621845642565
1.16218456423572
1.1621845641882
1.16218456407509
1.16218456380239
1.16218456315658
1.16218456170845
1.16218455859986
1.16218453864235
1.16218453958237
1.16218454004277
1.16218454025968
1.16218454035595
1.16218454039724
1.1621845404147
1.16218454042212
1.16218454042536
1.1621845404268
1.16218454042745
1.16218454042772
1.16218454042783
1.16218454042785
1.16218454042784
1.16218454042781
1.16218454042778
1.16218454042776
1.16218454042773
1.16218454042771
1.16218454042769
1.16218454042767
1.16218454042765
1.16218454042764
1.16218454042762
1.16218454042761
1.1621845404276
1.16218454042759
1.16218454042758
1.16218454042757
1.16218454042757
1.16218454042757
1.16218454042757
1.16218454042757
1.16218454042758
1.16218454042758
1.16218454042756
1.16218454042751
1.16218454042737
1.16218454042705
1.16218454042636
1.16218454042492
1.16218454042186
1.16218454041509
1.16218454039928
1.16218454036099
1.16218454026708
1.16218454004112
1.1621845395266
1.16218453840598
1.16218451420871
1.16218451453613
1.16218451469507
1.16218451476918
1.1621845148017
1.16218451481544
1.16218451482112
1.16218451482345
1.1621845148244
1.16218451482478
1.16218451482491
1.16218451482494
1.16218451482492
1.16218451482489
1.16218451482485
1.16218451482481
1.16218451482478
1.16218451482475
1.16218451482473
1.1621845148247
1.16218451482468
1.16218451482467
1.16218451482465
1.16218451482464
1.16218451482462
1.16218451482461
1.1621845148246
1.16218451482459
1.16218451482458
1.16218451482457
1.16218451482457
1.16218451482456
1.16218451482457
1.16218451482457
1.16218451482458
1.1621845148246
1.16218451482461
1.16218451482463
1.16218451482462
1.16218451482457
1.16218451482441
1.16218451482402
1.16218451482313
1.16218451482103
1.16218451481597
1.16218451480338
1.16218451477191
1.16218451469491
1.16218451451676
1.16218451412298
1.16218448842636
1.16218448853764
1.16218448859105
1.16218448861562
1.16218448862624
1.16218448863064
1.16218448863238
1.16218448863303
1.16218448863325
1.16218448863329
1.16218448863326
1.16218448863321
1.16218448863316
1.16218448863311
1.16218448863306
1.16218448863302
1.16218448863299
1.16218448863296
1.16218448863294
1.16218448863292
1.1621844886329
1.16218448863288
1.16218448863286
1.16218448863285
1.16218448863284
1.16218448863282
1.16218448863281
1.1621844886328
1.16218448863279
1.16218448863279
1.16218448863278
1.16218448863278
1.16218448863278
1.16218448863279
1.1621844886328
1.16218448863282
1.16218448863284
1.16218448863287
1.16218448863291
1.16218448863294
1.16218448863294
1.16218448863289
1.16218448863269
1.16218448863212
1.16218448863059
1.16218448862662
1.16218448861642
1.16218448859095
1.16218448853091
1.16218448839589
1.16218446218175
1.16218446221866
1.16218446223601
1.1621844622438
1.16218446224709
1.16218446224839
1.16218446224885
1.16218446224897
1.16218446224896
1.16218446224891
1.16218446224884
1.16218446224877
1.16218446224871
1.16218446224866
1.16218446224861
1.16218446224857
1.16218446224854
1.16218446224851
1.16218446224849
1.16218446224847
1.16218446224845
1.16218446224843
1.16218446224842
1.1621844622484
1.16218446224839
1.16218446224838
1.16218446224837
1.16218446224836
1.16218446224835
1.16218446224834
1.16218446224833
1.16218446224833
1.16218446224833
1.16218446224834
1.16218446224835
1.16218446224837
1.16218446224839
1.16218446224843
1.16218446224847
1.16218446224852
1.16218446224857
1.16218446224862
1.16218446224863
1.16218446224853
1.16218446224813
1.16218446224698
1.16218446224385
1.16218446223577
1.16218446221619
1.16218446217101
1.1621844357823
1.16218443579423
1.16218443579954
1.16218443580178
1.16218443580267
1.16218443580298
1.16218443580304
1.16218443580301
1.16218443580294
1.16218443580287
1.16218443580279
1.16218443580273
1.16218443580267
1.16218443580262
1.16218443580258
1.16218443580254
1.16218443580251
1.16218443580248
1.16218443580246
1.16218443580244
1.16218443580242
1.16218443580241
1.16218443580239
1.16218443580238
1.16218443580236
1.16218443580235
1.16218443580234
1.16218443580233
1.16218443580232
1.16218443580231
1.16218443580231
1.16218443580231
1.16218443580231
1.16218443580231
1.16218443580232
1.16218443580234
1.16218443580236
1.16218443580239
1.16218443580243
1.16218443580248
1.16218443580254
1.16218443580261
1.16218443580267
1.1621844358027
1.16218443580265
1.16218443580238
1.16218443580154
1.1621844357992
1.16218443579315
1.16218443577842
1.16218440933211
1.16218440933583
1.16218440933722
1.16218440933768
1.16218440933781
1.16218440933782
1.16218440933777
1.1621844093377
1.16218440933763
1.16218440933755
1.16218440933749
1.16218440933743
1.16218440933737
1.16218440933733
1.16218440933729
1.16218440933726
1.16218440933723
1.16218440933721
1.16218440933718
1.16218440933717
1.16218440933715
1.16218440933713
1.16218440933712
1.1621844093371
1.16218440933709
1.16218440933708
1.16218440933707
1.16218440933706
1.16218440933705
1.16218440933704
1.16218440933703
1.16218440933703
1.16218440933703
1.16218440933703
1.16218440933704
1.16218440933706
1.16218440933707
1.1621844093371
1.16218440933714
1.16218440933718
1.16218440933724
1.1621844093373
1.16218440933736
1.16218440933742
1.16218440933747
1.16218440933746
1.16218440933733
1.16218440933683
1.16218440933521
1.16218440933056
1.16218438286564
1.16218438286671
1.16218438286686
1.16218438286677
1.16218438286667
1.1621843828666
1.16218438286654
1.16218438286647
1.16218438286641
1.16218438286635
1.16218438286629
1.16218438286624
1.16218438286619
1.16218438286615
1.16218438286612
1.16218438286609
1.16218438286606
1.16218438286604
1.16218438286602
1.162184382866
1.16218438286598
1.16218438286597
1.16218438286596
1.16218438286594
1.16218438286593
1.16218438286592
1.16218438286591
1.1621843828659
1.16218438286589
1.16218438286588
1.16218438286587
1.16218438286587
1.16218438286587
1.16218438286587
1.16218438286587
1.16218438286588
1.1621843828659
1.16218438286592
1.16218438286595
1.16218438286599
1.16218438286603
1.16218438286608
1.16218438286614
1.16218438286619
1.16218438286625
1.16218438286631
1.16218438286639
1.16218438286646
1.16218438286624
1.16218438286487
1.16218435639404
1.16218435639429
1.16218435639405
1.1621843563938
1.16218435639365
1.16218435639358
1.16218435639352
1.16218435639347
1.16218435639342
1.16218435639337
1.16218435639332
1.16218435639328
1.16218435639324
1.16218435639321
1.16218435639318
1.16218435639315
1.16218435639313
1.16218435639311
1.16218435639309
1.16218435639307
1.16218435639306
1.16218435639304
1.16218435639303
1.16218435639302
1.162184356393
1.16218435639299
1.16218435639298
1.16218435639297
1.16218435639296
1.16218435639295
1.16218435639294
1.16218435639294
1.16218435639294
1.16218435639294
1.16218435639294
1.16218435639295
1.16218435639296
1.16218435639297
1.162184356393
1.16218435639303
1.16218435639306
1.1621843563931
1.16218435639314
1.16218435639318
1.16218435639322
1.16218435639329
1.16218435639341
1.16218435639365
1.16218435639386
1.16218435639352
1.16218432992086
1.16218432992086
1.16218432992052
1.16218432992023
1.16218432992008
1.16218432992002
1.16218432991998
1.16218432991994
1.16218432991991
1.16218432991987
1.16218432991984
1.1621843299198
1.16218432991977
1.16218432991974
1.16218432991972
1.1621843299197
1.16218432991968
1.16218432991966
1.16218432991964
1.16218432991962
1.16218432991961
1.1621843299196
1.16218432991958
1.16218432991957
1.16218432991956
1.16218432991955
1.16218432991954
1.16218432991953
1.16218432991952
1.16218432991951
1.1621843299195
1.16218432991949
1.16218432991949
1.16218432991949
1.16218432991949
1.16218432991949
1.1621843299195
1.16218432991951
1.16218432991952
1.16218432991954
1.16218432991957
1.16218432991959
1.16218432991962
1.16218432991964
1.16218432991967
1.16218432991972
1.16218432991985
1.16218432992011
1.16218432992045
1.16218432992043
1.1621843034472
1.16218430344714
1.16218430344677
1.16218430344649
1.16218430344636
1.16218430344631
1.16218430344629
1.16218430344627
1.16218430344625
1.16218430344623
1.1621843034462
1.16218430344618
1.16218430344615
1.16218430344613
1.16218430344611
1.16218430344609
1.16218430344608
1.16218430344606
1.16218430344604
1.16218430344603
1.16218430344602
1.162184303446
1.16218430344599
1.16218430344598
1.16218430344597
1.16218430344595
1.16218430344594
1.16218430344593
1.16218430344592
1.16218430344591
1.1621843034459
1.1621843034459
1.16218430344589
1.16218430344589
1.16218430344588
1.16218430344588
1.16218430344589
1.16218430344589
1.1621843034459
1.16218430344591
1.16218430344592
1.16218430344593
1.16218430344595
1.16218430344595
1.16218430344596
1.16218430344599
1.16218430344611
1.16218430344637
1.16218430344673
1.1621843034468
1.1621842769734
1.16218427697332
1.16218427697297
1.1621842769727
1.16218427697259
1.16218427697256
1.16218427697256
1.16218427697256
1.16218427697255
1.16218427697254
1.16218427697253
1.16218427697251
1.16218427697249
1.16218427697248
1.16218427697246
1.16218427697245
1.16218427697243
1.16218427697242
1.16218427697241
1.16218427697239
1.16218427697238
1.16218427697237
1.16218427697236
1.16218427697234
1.16218427697233
1.16218427697232
1.16218427697231
1.1621842769723
1.16218427697229
1.16218427697228
1.16218427697227
1.16218427697226
1.16218427697225
1.16218427697225
1.16218427697224
1.16218427697224
1.16218427697224
1.16218427697224
1.16218427697224
1.16218427697224
1.16218427697224
1.16218427697224
1.16218427697223
1.16218427697223
1.16218427697222
1.16218427697223
1.16218427697232
1.16218427697257
1.16218427697293
1.16218427697301
1.16218425049956
1.16218425049949
1.16218425049915
1.16218425049891
1.16218425049881
1.16218425049881
1.16218425049882
1.16218425049884
1.16218425049884
1.16218425049885
1.16218425049884
1.16218425049883
1.16218425049883
1.16218425049881
1.1621842504988
1.16218425049879
1.16218425049878
1.16218425049877
1.16218425049876
1.16218425049875
1.16218425049873
1.16218425049872
1.16218425049871
1.1621842504987
1.16218425049869
1.16218425049868
1.16218425049867
1.16218425049865
1.16218425049864
1.16218425049863
1.16218425049862
1.16218425049861
1.1621842504986
1.16218425049859
1.16218425049859
1.16218425049858
1.16218425049857
1.16218425049857
1.16218425049856
1.16218425049856
1.16218425049855
1.16218425049853
1.16218425049852
1.16218425049849
1.16218425049847
1.16218425049846
1.16218425049853
1.16218425049875
1.1621842504991
1.16218425049918
1.1621842240257
1.16218422402565
1.16218422402532
1.16218422402511
1.16218422402504
1.16218422402505
1.16218422402508
1.16218422402511
1.16218422402514
1.16218422402515
1.16218422402516
1.16218422402516
1.16218422402515
1.16218422402515
1.16218422402514
1.16218422402513
1.16218422402513
1.16218422402512
1.16218422402511
1.1621842240251
1.16218422402509
1.16218422402508
1.16218422402507
1.16218422402505
1.16218422402504
1.16218422402503
1.16218422402502
1.16218422402501
1.162184224025
1.16218422402499
1.16218422402497
1.16218422402496
1.16218422402495
1.16218422402494
1.16218422402493