/*--------------------------------*- C++ -*----------------------------------*\
  =========                 |
  \\      /  F ield         | OpenFOAM: The Open Source CFD Toolbox
   \\    /   O peration     | Website:  https://openfoam.org
    \\  /    A nd           | Version:  10
     \\/     M anipulation  |
\*---------------------------------------------------------------------------*/
FoamFile
{
    format      ascii;
    class       volScalarField;
    location    "8";
    object      T;
}
// * * * * * * * * * * * * * * * * * * * * * * * * * * * * * * * * * * * * * //

dimensions      [0 0 0 1 0 0 0];

internalField   nonuniform List<scalar> 
2500
(
304.324570457291
304.321712407962
304.312173714388
304.30454767429
304.299509673615
304.296403395032
304.294552843315
304.293479013817
304.292874408103
304.292546588202
304.292374204291
304.292287353528
304.292245262903
304.292225074195
304.292215529672
304.292210764482
304.292208643741
304.292207326376
304.292206310222
304.292205673084
304.292205180008
304.292204779027
304.292204460706
304.292204264313
304.292204069643
304.2922039192
304.292203871871
304.292203875944
304.292203943357
304.292204087078
304.292204336637
304.292204812661
304.292205489319
304.292206667462
304.292208927667
304.292213595136
304.29222351317
304.292244407163
304.292288655722
304.292377866965
304.292552672993
304.292883478908
304.29348797528
304.294556897038
304.296398068984
304.299490006724
304.304528733272
304.312197029703
304.321785006263
304.324478845735
303.552923744143
303.532590802007
303.504636816601
303.482997797124
303.468530013913
303.459428585724
303.453878689419
303.450580006371
303.448676269665
303.447615037879
303.447044744033
303.446750164066
303.446603899127
303.446533783768
303.446501275256
303.446486541174
303.446480122551
303.446477197083
303.446475718095
303.446474949212
303.446474471221
303.44647412381
303.44647386016
303.446473682611
303.446473527415
303.446473406121
303.446473349627
303.446473334449
303.446473367073
303.446473483707
303.4464737665
303.446474421489
303.446475825247
303.446478943757
303.44648594372
303.446501638345
303.446536110518
303.446609578296
303.446761322761
303.447062891393
303.447640764247
303.44870808119
303.450610708165
303.453895160289
303.459415697736
303.468485267267
303.482972072773
303.504755651827
303.532897960387
303.552512526679
302.747354174924
302.709183533604
302.668077042248
302.63746271979
302.617226375951
302.604562971272
302.596862958794
302.592291741609
302.589652758821
302.588178985729
302.587385343924
302.586974170069
302.586769347542
302.586671095376
302.586625648827
302.586605302922
302.586596516902
302.586592738263
302.586591054206
302.586590274896
302.586589857405
302.586589583566
302.586589384087
302.586589246613
302.586589134715
302.586589046064
302.586588995209
302.586588970351
302.586588975716
302.586589062321
302.586589338956
302.586590062545
302.586591827472
302.586595973983
302.58660554224
302.586627283898
302.586675309512
302.586777866518
302.586989289778
302.587409034454
302.588212043112
302.589693000878
302.592330793301
302.596885407429
302.604552316205
302.617189799114
302.637488568174
302.668373177991
302.709889889564
302.747367422876
301.999888148739
301.950934042289
301.905729284365
301.873409215486
301.852594648986
301.839858191876
301.832270442061
301.827846506282
301.825331738955
301.8239455371
301.82320741153
301.822828677397
301.822641609655
301.822552614215
301.822511801247
301.822493729252
301.822486013604
301.822482782022
301.822481416218
301.822480823054
301.822480529874
301.822480346632
301.822480213491
301.822480120484
301.822480047984
301.822479989071
301.822479949216
301.822479921204
301.822479905724
301.822479943027
301.822480128432
301.822480684941
301.82248215216
301.822485700281
301.822494017251
301.822513171469
301.822555968842
301.822648317706
301.822840568379
301.823226281405
301.823972455281
301.825365555245
301.827881430267
301.832295330733
301.839863249719
301.852599826386
301.873529437314
301.906229700167
301.95207392026
302.000829898439
301.371971047632
301.321260160909
301.279114491777
301.250145783714
301.232004235401
301.221171357205
301.214858145329
301.211246536174
301.209225515027
301.208125527712
301.207545796269
301.207250793858
301.207106070819
301.207037631202
301.207006426729
301.206992706604
301.206986899607
301.206984512418
301.206983542049
301.206983145048
301.206982964755
301.20698285759
301.206982778706
301.206982723194
301.206982681631
301.20698264651
301.206982618693
301.206982593495
301.206982573106
301.206982575703
301.206982671368
301.206983038713
301.20698409258
301.206986700748
301.20699287906
301.207007253541
301.207039654936
301.207110143239
301.207258084013
301.207557561904
301.208142716718
301.209247823125
301.211270881169
301.214878445483
301.221185188372
301.232040510515
301.250329919468
301.279737935314
301.322693050191
301.373801935414
300.888575889515
300.843344650346
300.808627921439
300.785631201617
300.771628810003
300.763472004452
300.758822504726
300.756212210865
300.754773438919
300.753999491964
300.753595239378
300.753390920119
300.753291196243
300.753244229349
300.753222895771
300.753213559959
300.753209636094
300.75320804803
300.753207424363
300.753207185063
300.753207087922
300.753207034713
300.753206994201
300.753206965422
300.753206945077
300.753206926625
300.753206909019
300.753206889196
300.75320686878
300.753206858351
300.753206894782
300.753207103493
300.753207784403
300.753209508279
300.753213625211
300.753223282991
300.75324520027
300.753293177356
300.753394518726
300.753601158026
300.754008352909
300.754785290208
300.756225697319
300.758835043392
300.76348570095
300.771674595895
300.785827862941
300.809258809187
300.844839969297
300.890912176424
300.544505480098
300.508612391589
300.482770153207
300.466230118827
300.456432156477
300.450862232639
300.447755838273
300.446043587555
300.445113338185
300.444618308228
300.444361748333
300.444232780837
300.444170067608
300.44414060873
300.444127258212
300.444121434476
300.444119001063
300.444118030358
300.444117661851
300.444117530428
300.444117485199
300.444117464782
300.444117448078
300.444117435794
300.444117428259
300.444117420122
300.444117409945
300.444117395877
300.44411737875
300.444117365934
300.444117371909
300.44411747518
300.44411787695
300.444118923529
300.444121441974
300.444127391444
300.444140962798
300.444170806499
300.444234151602
300.44436405665
300.444621858799
300.445118203146
300.446049190216
300.447761270153
300.450870955862
300.456471168135
300.466398984905
300.483315686614
300.509959835932
300.546885570857
300.316466592013
300.29061709962
300.272976388057
300.262039943254
300.255730900917
300.252228631357
300.250316603555
300.249281360473
300.248726645785
300.248434388799
300.248283947382
300.248208651318
300.248172130716
300.248155000587
300.248147246414
300.248143871071
300.24814246793
300.248141916023
300.248141713982
300.248141647928
300.248141629943
300.248141626256
300.248141622418
300.248141618768
300.248141618046
300.248141615567
300.248141610237
300.248141601109
300.24814158844
300.248141576409
300.248141571773
300.248141616831
300.248141834434
300.248142425357
300.248143859548
300.248147268323
300.248155073546
300.248172291517
300.248208964839
300.248284501458
300.248435277429
300.248727858008
300.249282559098
300.250317388677
300.252231886782
300.25575675509
300.262163318396
300.273391846055
300.291693183205
300.318542869724
300.174898447465
300.157772818942
300.146610862156
300.139892778954
300.136114331951
300.134064545132
300.132968493637
300.13238530586
300.132076954235
300.131916006067
300.131833652324
300.131792575794
300.131772685032
300.131763360303
300.131759140712
300.131757306462
300.131756547571
300.131756253289
300.131756149535
300.131756120239
300.131756116674
300.131756118763
300.13175611953
300.13175611957
300.131756120738
300.131756120516
300.131756117898
300.131756112508
300.131756104029
300.131756094706
300.131756088254
300.131756104798
300.13175621408
300.13175652708
300.131757294795
300.131759129239
300.131763340514
300.131772648
300.131792516601
300.131833568313
300.131915889392
300.132076726937
300.132384677426
300.132967100165
300.134064087864
300.136127956637
300.139971685899
300.146895124913
300.158548537524
300.176505281764
300.092151847073
300.081609496804
300.075008500267
300.071143332859
300.069021386074
300.067895484589
300.06730549557
300.066996881702
300.066835807298
300.066752472331
300.066710059335
300.066688961611
300.066678754163
300.06667396807
300.066671801588
300.066670860622
300.066670473116
300.066670325082
300.066670275747
300.066670265023
300.066670266002
300.066670268661
300.066670270625
300.066670272027
300.066670273379
300.06667027363
300.066670272507
300.066670269414
300.066670264175
300.066670257852
300.066670252705
300.066670257298
300.066670308476
300.066670464987
300.066670854068
300.066671788163
300.066673935833
300.066678686114
300.066688837477
300.066709853438
300.066752145924
300.066835261829
300.066995851346
300.067303578742
300.067893374307
300.069026708355
300.071188168157
300.075185720282
300.082121176538
300.093278929173
300.046408053096
300.040330710913
300.03665750319
300.03456100171
300.033436187925
300.032851955106
300.032551769279
300.032397352761
300.032317774707
300.032276950873
300.032256274242
300.032246010523
300.032241045934
300.032238716329
300.032237660942
300.032237202789
300.032237014997
300.032236944391
300.032236922671
300.032236919585
300.032236921209
300.03223692345
300.032236925244
300.032236926638
300.032236927676
300.032236928049
300.032236927593
300.032236925864
300.03223692284
300.032236918956
300.032236915384
300.032236916001
300.032236938722
300.032237012863
300.032237200617
300.032237653295
300.032238694753
300.032240997712
300.032245919263
300.032256117491
300.03227669207
300.032317327543
300.032396498133
300.032550126194
300.032849617823
300.033437108672
300.034583756761
300.036759226662
300.040642816151
300.04713507308
300.022393880498
300.019092275395
300.017158162307
300.016080207911
300.01551433305
300.015226371627
300.015081215968
300.015007766873
300.014970385935
300.014951366374
300.014941776102
300.014937023208
300.014934723567
300.014933643124
300.01493315306
300.01493294038
300.014932853628
300.014932821627
300.014932812765
300.014932812283
300.014932813527
300.014932815061
300.014932816318
300.014932817312
300.014932817989
300.014932818295
300.014932818112
300.014932817185
300.014932815542
300.014932813342
300.014932811154
300.014932810772
300.01493282034
300.014932853853
300.014932940528
300.014933150324
300.014933632924
300.014934698858
300.014936974639
300.014941690001
300.014951217836
300.014970113001
300.015007210036
300.015080069391
300.015224478313
300.015513517163
300.01609047581
300.017212344978
300.019269801876
300.022829749878
300.010378625619
300.008679340981
300.007711098794
300.007183259865
300.006911826854
300.006776384971
300.006709368505
300.006676003834
300.006659232754
300.006650768043
300.006646517576
300.006644413597
300.006643394876
300.006642915462
300.006642697684
300.006642603187
300.006642564838
300.006642551043
300.006642547624
300.00664254778
300.006642548618
300.006642549544
300.006642550307
300.006642550911
300.006642551306
300.006642551502
300.006642551428
300.006642550954
300.00664255011
300.006642548945
300.006642547729
300.006642547277
300.00664255112
300.006642565661
300.006642604095
300.006642697464
300.00664291207
300.006643385148
300.006644393292
300.00664647998
300.006650698967
300.006659093345
300.006675690049
300.006708665947
300.006775088952
300.006910674084
300.007187291402
300.00773804017
300.008774154548
300.01062349982
300.004630184051
300.003797864347
300.003335133801
300.003087998076
300.002963364116
300.002902330254
300.002872670633
300.002858138665
300.002850923656
300.002847310967
300.002845504013
300.00284461035
300.002844177179
300.002843972925
300.00284387998
300.002843839653
300.002843823376
300.002843817694
300.002843816451
300.002843816666
300.002843817161
300.00284381767
300.002843818089
300.00284381842
300.002843818631
300.00284381874
300.002843818709
300.002843818478
300.002843818065
300.002843817484
300.002843816858
300.002843816553
300.002843818033
300.002843824113
300.002843840544
300.00284388059
300.002843972509
300.002844174595
300.002844604085
300.002845491345
300.002847284786
300.002850861966
300.002857979613
300.002872279354
300.00290153957
300.002962420851
300.003089287589
300.003347694398
300.003845684667
300.004759948769
300.001992602978
300.001603122465
300.001391258551
300.001280235627
300.001225263235
300.001198821302
300.00118619428
300.001180104239
300.00117711754
300.001175633824
300.001174894503
300.001174529074
300.001174351697
300.00117426787
300.001174229651
300.001174213069
300.001174206413
300.001174204162
300.001174203738
300.001174203891
300.001174204155
300.001174204414
300.001174204627
300.001174204795
300.0011742049
300.001174204955
300.001174204942
300.001174204834
300.001174204641
300.001174204366
300.001174204064
300.001174203894
300.001174204445
300.001174206907
300.0011742137
300.001174230306
300.00117426835
300.001174351715
300.00117452828
300.001174892032
300.00117562647
300.001177093827
300.001180030179
300.001185992231
300.001198379506
300.001224637854
300.001280490272
300.001396765681
300.001626009833
300.002057817759
300.000828831034
300.000654116445
300.00056089401
300.000512892603
300.000489530987
300.000478484097
300.000473297032
300.000470833696
300.00046964032
300.000469052132
300.000468760105
300.000468615814
300.000468545659
300.000468512421
300.000468497234
300.000468490645
300.000468488015
300.000468487155
300.00046848702
300.000468487105
300.000468487234
300.000468487358
300.00046848746
300.000468487539
300.000468487588
300.000468487613
300.000468487608
300.00046848756
300.000468487473
300.00046848735
300.000468487212
300.000468487129
300.000468487329
300.000468488297
300.000468491022
300.000468497698
300.000468512957
300.000468546266
300.000468616524
300.000468760758
300.000469051413
300.000469632635
300.000470801586
300.000473199005
300.000478254231
300.000489165561
300.000512839503
300.000563168179
300.000664554634
300.000860055037
300.000333838382
300.000258481452
300.000218953213
300.000198925963
300.000189334876
300.00018487242
300.000182810802
300.000181846447
300.000181384906
300.000181159201
300.000181047534
300.000180992367
300.000180965492
300.000180952725
300.000180946877
300.000180944339
300.000180943331
300.000180943011
300.00018094297
300.000180943012
300.000180943071
300.000180943127
300.000180943172
300.000180943207
300.000180943229
300.00018094324
300.000180943237
300.000180943217
300.00018094318
300.000180943127
300.000180943068
300.00018094303
300.000180943102
300.000180943474
300.000180944538
300.000180947147
300.000180953093
300.000180966018
300.000180993151
300.00018104862
300.000181160095
300.000181383035
300.000181833352
300.000182765682
300.000184759787
300.000189139804
300.000198826756
300.00021983753
300.000263034071
300.000348136422
300.00013043077
300.000099096051
300.000082905147
300.000074822741
300.000071009804
300.000069262689
300.000068467984
300.000068101686
300.000067928471
300.000067844422
300.00006780298
300.000067782504
300.000067772507
300.000067767743
300.000067765555
300.000067764603
300.000067764227
300.000067764109
300.000067764097
300.000067764116
300.00006776414
300.000067764164
300.000067764182
300.000067764197
300.000067764206
300.00006776421
300.000067764209
300.000067764201
300.000067764186
300.000067764164
300.000067764141
300.000067764125
300.000067764151
300.000067764292
300.000067764698
300.000067765692
300.000067767949
300.000067772831
300.000067783027
300.000067803767
300.000067845306
300.000067928325
300.000068096617
300.00006844813
300.000069210283
300.000070912795
300.000074748209
300.000083228111
300.000101000921
300.000136713914
300.000049510273
300.000036918912
300.000030498714
300.000027337015
300.000025866127
300.000025201788
300.000024904044
300.000024768752
300.000024705526
300.000024675081
300.000024660118
300.000024652723
300.000024649102
300.00002464737
300.000024646571
300.000024646222
300.000024646083
300.00002464604
300.000024646035
300.000024646042
300.000024646051
300.00002464606
300.000024646067
300.000024646072
300.000024646075
300.000024646077
300.000024646076
300.000024646073
300.000024646068
300.00002464606
300.000024646051
300.000024646046
300.000024646056
300.000024646109
300.000024646262
300.000024646632
300.00002464747
300.00002464927
300.000024653005
300.000024660563
300.000024675637
300.000024705719
300.000024766871
300.000024895639
300.000025178487
300.000025820631
300.000027293116
300.000030608787
300.000037685624
300.000052167789
300.000018286634
300.000013386649
300.000010917337
300.000009716274
300.000009164676
300.000008918877
300.00000881025
300.000008761562
300.000008739069
300.000008728318
300.00000872305
300.000008720443
300.000008719162
300.000008718545
300.000008718259
300.000008718132
300.000008718081
300.000008718064
300.000008718061
300.000008718062
300.000008718064
300.000008718067
300.000008718069
300.00000871807
300.000008718071
300.000008718072
300.000008718071
300.00000871807
300.000008718069
300.000008718066
300.000008718064
300.000008718063
300.000008718068
300.000008718089
300.000008718146
300.000008718282
300.000008718587
300.000008719237
300.000008720576
300.000008723266
300.000008728605
300.000008739234
300.000008760884
300.000008806807
300.000008908925
300.000009144382
300.00000969355
300.000010951876
300.000013684238
300.000019371333
300.000006581236
300.000004730981
300.000003808199
300.000003364404
300.000003162993
300.000003074361
300.000003035704
300.000003018601
300.000003010786
300.000003007076
300.000003005262
300.000003004361
300.000003003916
300.000003003699
300.000003003597
300.00000300355
300.00000300353
300.000003003522
300.000003003519
300.000003003518
300.000003003518
300.000003003517
300.000003003517
300.000003003517
300.000003003517
300.000003003517
300.000003003517
300.000003003517
300.000003003517
300.000003003516
300.000003003516
300.000003003517
300.00000300352
300.000003003529
300.000003003552
300.000003003603
300.000003003713
300.000003003945
300.000003004416
300.000003005355
300.000003007205
300.000003010875
300.000003018358
300.000003034331
300.000003070259
300.000003154329
300.000003353616
300.000003817886
300.000004842604
300.000007009478
300.000002311012
300.0000016319
300.000001296343
300.00000113662
300.000001064917
300.000001033727
300.000001020287
300.000001014412
300.000001011754
300.000001010499
300.000001009884
300.000001009577
300.000001009423
300.000001009346
300.000001009308
300.000001009289
300.00000100928
300.000001009275
300.000001009272
300.00000100927
300.000001009269
300.000001009267
300.000001009267
300.000001009266
300.000001009265
300.000001009265
300.000001009265
300.000001009265
300.000001009266
300.000001009266
300.000001009267
300.000001009269
300.000001009271
300.000001009276
300.000001009286
300.000001009306
300.000001009347
300.00000100943
300.000001009595
300.000001009918
300.000001010548
300.000001011791
300.000001014321
300.00000101975
300.000001032087
300.000001061358
300.000001131823
300.00000129859
300.00000167244
300.00000247489
300.000000792888
300.000000550225
300.000000431348
300.000000375304
300.000000350394
300.00000033967
300.000000335099
300.000000333121
300.000000332233
300.000000331813
300.000000331606
300.000000331501
300.000000331446
300.000000331417
300.000000331401
300.000000331391
300.000000331386
300.000000331382
300.000000331379
300.000000331376
300.000000331374
300.000000331373
300.000000331372
300.000000331371
300.00000033137
300.00000033137
300.00000033137
300.00000033137
300.000000331371
300.000000331372
300.000000331373
300.000000331375
300.000000331377
300.00000033138
300.000000331386
300.000000331395
300.000000331412
300.000000331443
300.000000331502
300.000000331614
300.000000331827
300.000000332242
300.000000333082
300.00000033489
300.000000339031
300.000000348981
300.00000037328
300.000000431658
300.000000564505
300.000000853788
300.000000266219
300.000000181691
300.000000140638
300.000000121465
300.000000113021
300.000000109418
300.000000107894
300.000000107238
300.000000106944
300.000000106803
300.000000106731
300.000000106693
300.000000106671
300.000000106657
300.000000106649
300.000000106643
300.000000106638
300.000000106635
300.000000106632
300.000000106629
300.000000106627
300.000000106625
300.000000106624
300.000000106623
300.000000106622
300.000000106622
300.000000106622
300.000000106622
300.000000106623
300.000000106624
300.000000106625
300.000000106627
300.00000010663
300.000000106633
300.000000106637
300.000000106642
300.000000106651
300.000000106664
300.000000106687
300.000000106728
300.000000106802
300.000000106941
300.000000107217
300.000000107809
300.000000109171
300.000000112474
300.000000120647
300.000000140566
300.000000186576
300.000000288233
300.000000087702
300.00000005897
300.000000045165
300.000000038787
300.000000036002
300.00000003482
300.000000034321
300.000000034105
300.000000034005
300.000000033955
300.000000033928
300.000000033911
300.0000000339
300.000000033892
300.000000033886
300.000000033881
300.000000033876
300.000000033873
300.00000003387
300.000000033867
300.000000033865
300.000000033864
300.000000033862
300.000000033861
300.000000033861
300.00000003386
300.00000003386
300.000000033861
300.000000033861
300.000000033862
300.000000033864
300.000000033866
300.000000033868
300.000000033871
300.000000033874
300.000000033879
300.000000033884
300.000000033892
300.000000033903
300.00000003392
300.000000033948
300.000000033997
300.00000003409
300.000000034283
300.000000034723
300.000000035794
300.000000038468
300.000000045076
300.000000060596
300.000000095454
300.000000028515
300.000000018983
300.00000001449
300.00000001245
300.000000011567
300.000000011191
300.000000011029
300.000000010956
300.000000010919
300.000000010899
300.000000010885
300.000000010875
300.000000010867
300.000000010861
300.000000010856
300.000000010851
300.000000010847
300.000000010844
300.000000010841
300.000000010838
300.000000010836
300.000000010834
300.000000010833
300.000000010832
300.000000010831
300.000000010831
300.000000010831
300.000000010831
300.000000010832
300.000000010833
300.000000010835
300.000000010836
300.000000010839
300.000000010842
300.000000010845
300.000000010849
300.000000010854
300.000000010859
300.000000010867
300.000000010876
300.000000010889
300.000000010909
300.000000010943
300.000000011008
300.000000011149
300.000000011487
300.000000012329
300.000000014439
300.00000001951
300.000000031177
300.0000000093
300.000000006222
300.000000004839
300.000000004237
300.000000003979
300.000000003865
300.000000003812
300.000000003785
300.000000003768
300.000000003756
300.000000003747
300.00000000374
300.000000003733
300.000000003727
300.000000003722
300.000000003718
300.000000003714
300.00000000371
300.000000003707
300.000000003705
300.000000003703
300.000000003701
300.0000000037
300.000000003699
300.000000003698
300.000000003698
300.000000003698
300.000000003698
300.000000003699
300.0000000037
300.000000003701
300.000000003703
300.000000003706
300.000000003708
300.000000003711
300.000000003715
300.00000000372
300.000000003725
300.000000003731
300.000000003738
300.000000003747
300.000000003758
300.000000003773
300.000000003798
300.000000003844
300.000000003946
300.000000004191
300.000000004815
300.000000006388
300.000000010192
300.000000003187
300.000000002229
300.000000001862
300.000000001727
300.00000000167
300.000000001641
300.000000001622
300.000000001608
300.000000001598
300.000000001589
300.000000001581
300.000000001574
300.000000001568
300.000000001562
300.000000001557
300.000000001553
300.000000001549
300.000000001546
300.000000001543
300.00000000154
300.000000001538
300.000000001537
300.000000001535
300.000000001534
300.000000001534
300.000000001533
300.000000001533
300.000000001534
300.000000001534
300.000000001535
300.000000001537
300.000000001539
300.000000001541
300.000000001544
300.000000001547
300.000000001551
300.000000001555
300.00000000156
300.000000001565
300.000000001572
300.000000001579
300.000000001587
300.000000001597
300.000000001609
300.000000001627
300.000000001654
300.000000001709
300.000000001853
300.000000002281
300.000000003478
300.00000000128
300.000000001005
300.000000000963
300.000000000976
300.000000000982
300.000000000978
300.00000000097
300.000000000961
300.000000000952
300.000000000943
300.000000000936
300.000000000929
300.000000000923
300.000000000918
300.000000000913
300.000000000908
300.000000000905
300.000000000901
300.000000000898
300.000000000896
300.000000000894
300.000000000892
300.000000000891
300.00000000089
300.000000000889
300.000000000889
300.000000000889
300.000000000889
300.00000000089
300.000000000891
300.000000000892
300.000000000894
300.000000000897
300.000000000899
300.000000000902
300.000000000906
300.00000000091
300.000000000915
300.000000000921
300.000000000927
300.000000000934
300.000000000941
300.000000000949
300.000000000958
300.000000000967
300.000000000972
300.000000000968
300.00000000096
300.00000000102
300.000000001372
300.000000000698
300.000000000637
300.000000000697
300.000000000756
300.000000000781
300.000000000785
300.000000000779
300.000000000771
300.000000000762
300.000000000754
300.000000000747
300.00000000074
300.000000000734
300.000000000729
300.000000000724
300.00000000072
300.000000000716
300.000000000713
300.00000000071
300.000000000707
300.000000000705
300.000000000704
300.000000000702
300.000000000702
300.000000000701
300.000000000701
300.000000000701
300.000000000701
300.000000000702
300.000000000703
300.000000000704
300.000000000706
300.000000000708
300.000000000711
300.000000000714
300.000000000717
300.000000000722
300.000000000726
300.000000000732
300.000000000738
300.000000000745
300.000000000752
300.00000000076
300.000000000768
300.000000000774
300.000000000773
300.000000000751
300.000000000697
300.000000000642
300.000000000725
300.000000000525
300.000000000531
300.000000000621
300.000000000693
300.000000000724
300.000000000729
300.000000000724
300.000000000716
300.000000000707
300.000000000699
300.000000000692
300.000000000685
300.000000000679
300.000000000674
300.000000000669
300.000000000665
300.000000000661
300.000000000658
300.000000000655
300.000000000653
300.000000000651
300.000000000649
300.000000000648
300.000000000647
300.000000000646
300.000000000646
300.000000000646
300.000000000646
300.000000000647
300.000000000648
300.000000000649
300.000000000651
300.000000000653
300.000000000656
300.000000000659
300.000000000663
300.000000000667
300.000000000672
300.000000000677
300.000000000683
300.00000000069
300.000000000697
300.000000000705
300.000000000713
300.000000000719
300.000000000717
300.000000000691
300.000000000622
300.000000000533
300.000000000532
300.000000000477
300.000000000503
300.000000000602
300.000000000677
300.000000000708
300.000000000713
300.000000000708
300.0000000007
300.000000000691
300.000000000683
300.000000000675
300.000000000668
300.000000000662
300.000000000657
300.000000000652
300.000000000648
300.000000000645
300.000000000641
300.000000000639
300.000000000637
300.000000000635
300.000000000633
300.000000000632
300.000000000631
300.00000000063
300.00000000063
300.00000000063
300.000000000631
300.000000000631
300.000000000632
300.000000000633
300.000000000635
300.000000000637
300.00000000064
300.000000000643
300.000000000646
300.00000000065
300.000000000655
300.000000000661
300.000000000667
300.000000000674
300.000000000681
300.00000000069
300.000000000698
300.000000000704
300.000000000702
300.000000000675
300.000000000604
300.000000000505
300.000000000478
300.000000000467
300.000000000499
300.0000000006
300.000000000675
300.000000000705
300.000000000709
300.000000000703
300.000000000694
300.000000000685
300.000000000677
300.000000000669
300.000000000662
300.000000000656
300.000000000651
300.000000000647
300.000000000643
300.000000000639
300.000000000636
300.000000000633
300.000000000631
300.000000000629
300.000000000628
300.000000000627
300.000000000626
300.000000000625
300.000000000625
300.000000000625
300.000000000625
300.000000000626
300.000000000627
300.000000000628
300.00000000063
300.000000000632
300.000000000634
300.000000000637
300.000000000641
300.000000000645
300.00000000065
300.000000000655
300.000000000661
300.000000000668
300.000000000676
300.000000000684
300.000000000693
300.0000000007
300.000000000699
300.000000000673
300.000000000602
300.000000000501
300.000000000466
300.000000000468
300.000000000503
300.000000000603
300.000000000676
300.000000000705
300.000000000708
300.000000000701
300.000000000692
300.000000000682
300.000000000674
300.000000000666
300.000000000659
300.000000000653
300.000000000648
300.000000000644
300.00000000064
300.000000000636
300.000000000633
300.000000000631
300.000000000629
300.000000000627
300.000000000626
300.000000000624
300.000000000624
300.000000000623
300.000000000623
300.000000000623
300.000000000623
300.000000000624
300.000000000625
300.000000000626
300.000000000628
300.00000000063
300.000000000632
300.000000000635
300.000000000638
300.000000000642
300.000000000647
300.000000000652
300.000000000658
300.000000000665
300.000000000673
300.000000000682
300.000000000692
300.000000000699
300.000000000699
300.000000000675
300.000000000605
300.000000000504
300.000000000467
300.000000000474
300.000000000509
300.000000000608
300.000000000679
300.000000000706
300.000000000707
300.0000000007
300.00000000069
300.00000000068
300.000000000671
300.000000000663
300.000000000657
300.000000000651
300.000000000646
300.000000000641
300.000000000638
300.000000000634
300.000000000632
300.000000000629
300.000000000627
300.000000000625
300.000000000624
300.000000000623
300.000000000622
300.000000000622
300.000000000621
300.000000000621
300.000000000622
300.000000000622
300.000000000623
300.000000000624
300.000000000626
300.000000000628
300.00000000063
300.000000000633
300.000000000636