/*--------------------------------*- C++ -*----------------------------------*\
  =========                 |
  \\      /  F ield         | OpenFOAM: The Open Source CFD Toolbox
   \\    /   O peration     | Website:  https://openfoam.org
    \\  /    A nd           | Version:  10
     \\/     M anipulation  |
\*---------------------------------------------------------------------------*/
FoamFile
{
    format      ascii;
    class       volVectorField;
    location    "8";
    object      U;
}
// * * * * * * * * * * * * * * * * * * * * * * * * * * * * * * * * * * * * * //

dimensions      [0 1 -1 0 0 0 0];

internalField   nonuniform List<vector> 
2500
(
(-1.26574647833603e-06 -1.58435904481695e-06 2.27496602055468e-25)
(-3.30387088284869e-06 -2.19927901221266e-06 2.6210896265684e-24)
(-3.62502579160189e-06 -2.42497377296989e-06 3.11123935928694e-25)
(-3.07091264677301e-06 -2.53069854753014e-06 -1.61747239207359e-26)
(-2.24698768828633e-06 -2.54490884446322e-06 -6.34666539146127e-25)
(-1.56079455251859e-06 -2.52946829452344e-06 -7.67695101736314e-25)
(-1.05229395470893e-06 -2.50742009396226e-06 -2.7181976325228e-25)
(-7.07752578406101e-07 -2.4888684665461e-06 -2.58012481957259e-25)
(-4.76654686876903e-07 -2.4746932532644e-06 -4.66227058434794e-25)
(-3.2398981799062e-07 -2.46472582610291e-06 2.95919320672619e-24)
(-2.2224067927758e-07 -2.45797642095487e-06 1.74391714412252e-24)
(-1.53731164197054e-07 -2.45359933539086e-06 4.02004551799562e-24)
(-1.06703619368118e-07 -2.45085769151947e-06 3.54716416234519e-24)
(-7.36382687541122e-08 -2.44917906418083e-06 1.36890615792185e-24)
(-4.97658496296323e-08 -2.44817270897579e-06 3.30798708183808e-24)
(-3.20543710365171e-08 -2.4475646928603e-06 9.48991329863899e-25)
(-1.85825998145705e-08 -2.44720264359315e-06 3.72805031542449e-24)
(-8.10843897452632e-09 -2.44697600989252e-06 3.43833971292147e-24)
(1.98739578170845e-10 -2.44683871951794e-06 7.02512873133184e-25)
(6.90009227458993e-09 -2.44675003680496e-06 2.63046686371217e-24)
(1.23989479918615e-08 -2.44668869956486e-06 6.53346484372669e-26)
(1.6993462675869e-08 -2.44665624597829e-06 -2.5426124527091e-25)
(2.0914976697367e-08 -2.44663439463014e-06 3.2392248614618e-24)
(2.43530667684576e-08 -2.44662842319487e-06 3.61416883855667e-25)
(2.74671601720603e-08 -2.44662665206947e-06 -1.31390615602885e-25)
(3.0406816065676e-08 -2.44663398692853e-06 2.9767499724008e-24)
(3.33163429874148e-08 -2.44665290876722e-06 1.09389829154419e-25)
(3.63417930952736e-08 -2.44668028538146e-06 1.06390023228082e-24)
(3.96425585954025e-08 -2.4467223049815e-06 3.32281941747219e-24)
(4.34068818575511e-08 -2.44677616461156e-06 -1.13677149699129e-25)
(4.78650785185228e-08 -2.44684835700908e-06 2.47305499825803e-25)
(5.33087954760614e-08 -2.44696212607142e-06 -3.30686688057087e-25)
(6.01366642592038e-08 -2.44712277359972e-06 8.08628016187172e-25)
(6.89075369277412e-08 -2.44737191633485e-06 8.10336517157181e-25)
(8.04486827763671e-08 -2.44776459938554e-06 -5.88134507643609e-26)
(9.60129895146239e-08 -2.44840055989947e-06 2.69122512747187e-24)
(1.17529295965059e-07 -2.44943964655214e-06 -2.74659584568619e-24)
(1.4803759222533e-07 -2.45114266587013e-06 -2.88570386327353e-25)
(1.92300456333413e-07 -2.45389963022003e-06 1.95354106858794e-26)
(2.57832855160807e-07 -2.45827404109091e-06 -1.82375310081553e-24)
(3.56375146540433e-07 -2.46498643674616e-06 -5.14567629248632e-24)
(5.05609893537154e-07 -2.4748880699292e-06 -4.77260563330068e-24)
(7.33114785997144e-07 -2.48898858120177e-06 -2.60552225022224e-24)
(1.07446592533867e-06 -2.50759369433359e-06 -4.64093210584285e-24)
(1.58153829735157e-06 -2.53005124760498e-06 -4.86571138189265e-24)
(2.27150731533461e-06 -2.54647080548879e-06 -2.7462819955376e-24)
(3.10716152036401e-06 -2.53318106026587e-06 -4.72142288615781e-24)
(3.67723427837747e-06 -2.42593601454445e-06 -4.7062380245379e-24)
(3.34462037089302e-06 -2.19447150644372e-06 -2.1702903012677e-24)
(1.27240537023002e-06 -1.58218729819194e-06 -2.36548691801507e-24)
(-1.7578100006692e-06 -1.77135924737602e-06 -2.40881797845473e-26)
(-5.7850973938393e-06 -3.2751639507548e-06 -2.13925093005442e-25)
(-6.60544706939245e-06 -4.55351132850166e-06 9.75912198554579e-26)
(-5.766757781414e-06 -5.15437063788235e-06 -2.83147403716745e-25)
(-4.32951906637596e-06 -5.22069338846852e-06 -2.37741163755422e-24)
(-3.07982927132781e-06 -5.07959543637773e-06 -2.42844668247397e-24)
(-2.12808875449802e-06 -4.9110022283339e-06 -8.11076001343068e-25)
(-1.46844021334021e-06 -4.77389043675452e-06 -8.41026388322932e-25)
(-1.01763080509909e-06 -4.67556707120748e-06 -2.30583585242775e-24)
(-7.13386296029598e-07 -4.60882173039849e-06 2.1409104614359e-25)
(-5.05720472752871e-07 -4.56481205399853e-06 3.38183603208868e-24)
(-3.61863618727481e-07 -4.53625811015462e-06 3.20134322803124e-24)
(-2.59921453901687e-07 -4.51788903284034e-06 1.45660941538685e-24)
(-1.85782005294639e-07 -4.50606797664673e-06 2.3462201337477e-24)
(-1.30416650266007e-07 -4.49837998411091e-06 7.83427101078023e-25)
(-8.80062943472932e-08 -4.4932819957631e-06 9.96507865774867e-25)
(-5.47792094297896e-08 -4.48981529512431e-06 2.27813185438967e-24)
(-2.82322314194621e-08 -4.48738866005873e-06 1.05728315040435e-24)
(-6.65517499033954e-09 -4.48565296301939e-06 3.70249615807627e-25)
(1.11616263005574e-08 -4.48438260175118e-06 -2.81751467957548e-25)
(2.60951659922244e-08 -4.48343874812199e-06 -6.57779319475989e-25)
(3.88302307454143e-08 -4.48275006729945e-06 -1.71275093915162e-24)
(4.99076029768284e-08 -4.48225500353998e-06 1.33226137599315e-24)
(5.97773835127366e-08 -4.48191713791029e-06 1.30824191350375e-25)
(6.88334528730419e-08 -4.48172909652821e-06 -1.35315855946969e-24)
(7.74345167183484e-08 -4.48166918136508e-06 8.94538139077351e-25)
(8.59409041656013e-08 -4.48175105953594e-06 -6.7665094779624e-25)
(9.47114717258311e-08 -4.48197000372646e-06 2.39753704337804e-24)
(1.04138911431266e-07 -4.48235721457763e-06 1.82553987035386e-24)
(1.14671912506854e-07 -4.48293377007444e-06 -1.15693553887034e-24)
(1.26834033459985e-07 -4.48376276175782e-06 7.98855560458407e-25)
(1.41299976385926e-07 -4.4849234132888e-06 -1.02186937018974e-24)
(1.58948999564214e-07 -4.48654506071915e-06 2.38954026480117e-24)
(1.80968754228549e-07 -4.48885923568787e-06 2.31960261396934e-24)
(2.09073068995081e-07 -4.49222644061066e-06 -9.95037944671397e-25)
(2.45777304326748e-07 -4.49723386135977e-06 7.39933878766819e-25)
(2.94863110771957e-07 -4.50484062319379e-06 -1.21563492147974e-24)
(3.62165835562739e-07 -4.5165855444201e-06 -1.2721151281082e-25)
(4.56712156553109e-07 -4.53484713192951e-06 6.28883054559709e-25)
(5.92634735565233e-07 -4.56327484056681e-06 -3.85566423233615e-24)
(7.91809462364343e-07 -4.60711046321774e-06 -4.91237468311799e-24)
(1.08709716378952e-06 -4.67366880659018e-06 -4.89304998896821e-24)
(1.52866930400734e-06 -4.77203329635186e-06 -5.49015520376648e-24)
(2.17992072241597e-06 -4.91012668000639e-06 -4.81205811456833e-24)
(3.12679430363603e-06 -5.08196283330678e-06 -5.13549242690833e-24)
(4.38162039001295e-06 -5.22953568450594e-06 -5.78855356741385e-24)
(5.83967892814951e-06 -5.16890820004323e-06 -4.97010878785252e-24)
(6.70907214768128e-06 -4.55776831517405e-06 -4.79857446849592e-24)
(5.87298697440459e-06 -3.24907362744643e-06 -4.37143807250365e-24)
(1.77592338471281e-06 -1.74596157762092e-06 -2.31118519482058e-24)
(-1.15502089868744e-06 9.67195170372309e-07 -4.39404981407803e-25)
(-5.45532531060802e-06 -8.27669976012819e-07 -3.47130164050858e-24)
(-6.47469426064267e-06 -3.24396449705951e-06 -3.29064460780807e-25)
(-5.8742757353078e-06 -4.39928697046896e-06 -5.20318474056958e-25)
(-4.56094347730784e-06 -4.53696853204925e-06 -4.12073600282896e-24)
(-3.35902143080975e-06 -4.25657281986632e-06 -4.27843293366287e-24)
(-2.40534053573504e-06 -3.91990124181984e-06 -1.08348925833887e-24)
(-1.72230908208364e-06 -3.64530428176236e-06 -1.17499004757643e-24)
(-1.24006826365813e-06 -3.44943399219771e-06 -4.55024029697389e-24)
(-9.03378569387235e-07 -3.31704108353632e-06 -3.10636916094503e-24)
(-6.65170139499509e-07 -3.22980669208155e-06 4.42878265146199e-24)
(-4.93831553490914e-07 -3.17283509976036e-06 1.74324555634329e-24)
(-3.67796310195054e-07 -3.1356055140182e-06 -1.75296039389723e-24)
(-2.72824877382231e-07 -3.11104530225218e-06 3.03163857392494e-24)
(-1.99583616508093e-07 -3.09455956474799e-06 -2.44665231159441e-24)
(-1.41874302991643e-07 -3.0832397103952e-06 2.99168013153044e-25)
(-9.55352858495724e-08 -3.07524364019644e-06 4.15616465332249e-25)
(-5.77074453518525e-08 -3.06946714049357e-06 -2.20802787072689e-24)
(-2.63638064009704e-08 -3.06519599320625e-06 -4.91870227844721e-25)
(-2.19786823617915e-11 -3.06198907375504e-06 -3.50743513520073e-24)
(2.24341182014451e-08 -3.05956827626215e-06 -1.40139965235918e-24)
(4.18875063709052e-08 -3.05774913423254e-06 -3.22262896948575e-24)
(5.90640238342911e-08 -3.05642391469068e-06 -4.98104711454277e-25)
(7.4568316975969e-08 -3.05550722463443e-06 -3.51242727841859e-25)
(8.89455089725057e-08 -3.05497026414494e-06 -3.23753243203079e-24)
(1.02699640159199e-07 -3.05477674835555e-06 -9.04800927323971e-25)
(1.16325938383717e-07 -3.05493025058185e-06 -2.35191937124528e-24)
(1.30326724615848e-07 -3.05546084456514e-06 3.68292383134268e-24)
(1.45237833831007e-07 -3.05639835353787e-06 3.14509789827736e-25)
(1.61667434509696e-07 -3.0578213627039e-06 -2.89454053154532e-24)
(1.80322876167587e-07 -3.05985409187693e-06 1.41891058166837e-24)
(2.02079933736392e-07 -3.06266757934245e-06 -2.28759022408434e-24)
(2.28041422118541e-07 -3.06653294753355e-06 4.08710506799973e-24)
(2.59670027733424e-07 -3.07191563223995e-06 3.94644870498799e-24)
(2.98995147294436e-07 -3.079506779883e-06 -2.69906498156563e-24)
(3.48883109745893e-07 -3.09046075223056e-06 -7.41732530347e-25)
(4.13494955613732e-07 -3.10658947290906e-06 -1.27777663170637e-26)
(4.99052718825196e-07 -3.13081658977312e-06 3.04492909107401e-25)
(6.14891727686431e-07 -3.16771003598986e-06 2.13196020712951e-24)
(7.75286201104604e-07 -3.22435720841251e-06 -5.44309562392953e-24)
(1.0018279085997e-06 -3.31127875731072e-06 -3.44097991280902e-24)
(1.32629037979711e-06 -3.4434779967127e-06 -3.57742111661652e-24)
(1.79600266450513e-06 -3.63976558265195e-06 -7.19359506531833e-24)
(2.4674638397269e-06 -3.91667594399945e-06 -3.64320582966388e-24)
(3.41331774533608e-06 -4.26014090585672e-06 -3.90178667971345e-24)
(4.61797478205502e-06 -4.55366796488465e-06 -7.08092326209137e-24)
(5.95155752689788e-06 -4.42796515637594e-06 -3.78364627504562e-24)
(6.58661695171901e-06 -3.25444629418274e-06 -3.4844458722336e-24)
(5.56337001529544e-06 -7.80086308796181e-07 -6.42615993276824e-24)
(1.18583897801181e-06 1.02907348188374e-06 -1.57161323439385e-24)
(-4.55092922327842e-07 3.62643877311358e-06 -4.5881328957701e-25)
(-3.72190583491192e-06 2.05993834356218e-06 -3.3140256781269e-24)
(-4.71751181302282e-06 -1.31515724793013e-06 -2.74716265732023e-25)
(-4.56868905284245e-06 -3.00602603058723e-06 -1.84723325004814e-25)
(-3.75401012533197e-06 -3.28930627745401e-06 -1.75646803145627e-24)
(-2.92593547653098e-06 -2.95295881390211e-06 -2.40636797442673e-24)
(-2.21319564959794e-06 -2.51281874175632e-06 -7.13668422281903e-25)
(-1.67058617293109e-06 -2.14272684864482e-06 -8.04285341338568e-25)
(-1.26433970272583e-06 -1.87447623781786e-06 -2.93278777061065e-24)
(-9.64548922102885e-07 -1.69054812510262e-06 -3.0208333259736e-24)
(-7.40903703217984e-07 -1.56748438169209e-06 2.51171637393552e-24)
(-5.7192069618168e-07 -1.48559178434863e-06 -1.55835086827571e-25)
(-4.42028394917922e-07 -1.43085675067427e-06 -2.60665142640473e-24)
(-3.4037970026328e-07 -1.39379118847682e-06 1.22875567327426e-24)
(-2.59482011084548e-07 -1.36822180679469e-06 -3.03112247173449e-24)
(-1.94059020314562e-07 -1.35017509233575e-06 -4.4253153159548e-26)
(-1.40385351974436e-07 -1.33712218668804e-06 -9.94045461474671e-25)
(-9.57612096241115e-08 -1.32746810406295e-06 -2.73419574071296e-24)
(-5.81795938823566e-08 -1.32020241878888e-06 -5.50289321406576e-25)
(-2.61244526956228e-08 -1.3146661121725e-06 -3.18154641837485e-24)
(1.59025053942143e-09 -1.31044265517014e-06 -1.12569780615122e-24)
(2.59271151037776e-08 -1.30724239823887e-06 -2.26190214518146e-24)
(4.76892163724366e-08 -1.30488948334568e-06 -2.0563038355029e-24)
(6.75676440136168e-08 -1.30325669737067e-06 -3.18557785236797e-25)
(8.61882285151997e-08 -1.30227814094923e-06 -1.80417750615077e-24)
(1.04132968039625e-07 -1.301920718917e-06 -1.98780647381301e-24)
(1.21965307580841e-07 -1.30217462407679e-06 -1.19447825771273e-24)
(1.40271470812809e-07 -1.3030874999325e-06 1.91512630179171e-24)
(1.59672909881863e-07 -1.30471039020036e-06 -1.55686113338123e-24)
(1.8084743358161e-07 -1.30717953939317e-06 -1.79665086433318e-24)
(2.04583159531307e-07 -1.31066515674626e-06 6.55754946435981e-25)
(2.31840989428151e-07 -1.31545708436318e-06 -1.2262629452485e-24)
(2.6378828479071e-07 -1.32196261606798e-06 2.39769431711417e-24)
(3.01931366583829e-07 -1.33085346881998e-06 2.31327679089397e-24)
(3.48264710010262e-07 -1.3431510992897e-06 -1.56407576403643e-24)
(4.05480645603698e-07 -1.36046978677212e-06 -1.87498379490786e-24)
(4.7730953353452e-07 -1.38531870704238e-06 1.59154894979105e-24)
(5.69027975503721e-07 -1.42168344832682e-06 3.90402305253886e-25)
(6.88136412353007e-07 -1.47574756754008e-06 8.16628662334821e-25)
(8.4552573148041e-07 -1.55700710198669e-06 -3.7783430582145e-24)
(1.05679657413884e-06 -1.67951696075267e-06 -6.53205291660945e-25)
(1.3436308730539e-06 -1.86319082400604e-06 -7.02254726751974e-25)
(1.73659022260553e-06 -2.13219525401521e-06 -4.70385036234463e-24)
(2.2666166020073e-06 -2.50591281593759e-06 -8.38434617534796e-25)
(2.96964614097326e-06 -2.95631425030504e-06 -1.0049708038495e-24)
(3.79660970945555e-06 -3.31247993518259e-06 -5.10518994235998e-24)
(4.62585147587074e-06 -3.04873567866374e-06 -8.85117604852333e-25)
(4.80574129774022e-06 -1.33652323523014e-06 -5.43715685928732e-25)
(3.82215302622958e-06 2.1204586820265e-06 -4.50086326022883e-24)
(4.92687950878823e-07 3.71879809749895e-06 1.72404511909747e-25)
(8.14784673367452e-08 5.54842901456382e-06 -5.97406528447822e-26)
(-1.69837516313234e-06 4.44070875979378e-06 -1.48390213449248e-24)
(-2.55387234699352e-06 4.84154551086606e-07 2.56791787655389e-25)
(-2.84243235692414e-06 -1.63303049695894e-06 3.12395281636048e-25)
(-2.60025947145626e-06 -2.1155353033605e-06 5.60552417303142e-25)
(-2.22648487970901e-06 -1.82283034420679e-06 -9.96760705886884e-25)
(-1.82525921753059e-06 -1.36482351794076e-06 -1.80851848997569e-25)
(-1.47627513672289e-06 -9.58593389163653e-07 -2.15128989706416e-25)
(-1.18492686607427e-06 -6.5487540299824e-07 -1.35460022974066e-24)
(-9.50106220364178e-07 -4.41070416125342e-07 -1.34378342313e-24)
(-7.61570414377337e-07 -2.94368047664216e-07 1.81247345306908e-24)
(-6.10238645520333e-07 -1.94150706922569e-07 5.98216607401068e-25)
(-4.88119393828018e-07 -1.2533748228258e-07 -6.98071692099658e-25)
(-3.88800607929629e-07 -7.74674006402264e-08 9.42113470513066e-25)
(-3.07338300108315e-07 -4.35801916985319e-08 -1.01599845028132e-24)
(-2.39878008351743e-07 -1.90882338967857e-08 3.9806322678894e-25)
(-1.83459898267651e-07 -1.01415340406011e-09 4.00105111541108e-27)
(-1.35799423290848e-07 1.25777519781813e-08 -5.76705972508293e-25)
(-9.51040716811488e-08 2.29443301408727e-08 2.24369636074108e-25)
(-5.99501488686132e-08 3.09187643399299e-08 -1.24382330172603e-24)
(-2.91856980642594e-08 3.70473271463258e-08 -2.36145517572511e-25)
(-1.85498723712137e-09 4.17131603215217e-08 -8.79135822310902e-25)
(2.28593179079181e-08 4.51579248793019e-08 -4.67092479090936e-25)
(4.56691373724473e-08 4.75470581282598e-08 1.84095930928725e-25)
(6.72233488074678e-08 4.89825542127977e-08 -6.04757390505746e-25)
(8.81381387761928e-08 4.94958385744744e-08 -5.61171214248944e-25)
(1.09007575490164e-07 4.9101667432721e-08 -3.90333384158824e-25)
(1.30445632356661e-07 4.77525692622442e-08 1.11874396196566e-24)
(1.53091970888026e-07 4.53533001164053e-08 -4.57208892844133e-25)
(1.77654498803542e-07 4.17375981404758e-08 -9.54266390807519e-25)
(2.04937035341906e-07 3.66634485483713e-08 2.19707943680442e-25)
(2.35887126390981e-07 2.97697489771136e-08 -8.35948835826968e-25)
(2.7164072987289e-07 2.04942525458751e-08 1.20244460018842e-24)
(3.13601640526337e-07 8.01400955420702e-09 1.22705684829719e-24)
(3.63554150264275e-07 -8.96226275838484e-09 -8.39265990627312e-25)
(4.23777231494582e-07 -3.23657122711665e-08 -8.17876234323574e-25)
(4.97207362243485e-07 -6.5180285397438e-08 5.3915901974539e-25)
(5.87686155603137e-07 -1.11982332134093e-07 1.39182206641317e-25)
(7.00157159382068e-07 -1.79749599278385e-07 1.53216518934435e-25)
(8.41066101734644e-07 -2.78980507879728e-07 -3.24657154167644e-24)
(1.01840633482521e-06 -4.24836074140382e-07 -9.34937707958713e-25)
(1.2414162545057e-06 -6.38214238804423e-07 -9.05254331324651e-25)
(1.52046690375386e-06 -9.42833376706127e-07 -3.50020986250722e-24)
(1.85731519403335e-06 -1.3536300881006e-06 -1.00606606354046e-24)
(2.2478467912799e-06 -1.82452503265506e-06 -1.12593768423115e-24)
(2.61645347409627e-06 -2.1425576916641e-06 -3.86928415054656e-24)
(2.86545648925651e-06 -1.68698419047463e-06 -1.07800779386338e-24)
(2.59989684659838e-06 4.49666700802093e-07 -9.17863583129918e-25)
(1.76816315901816e-06 4.50424657212939e-06 -3.92336577502553e-24)
(-4.74725324385089e-08 5.66060126755562e-06 -3.19250984187518e-25)
(3.90407867530089e-07 6.56520941926218e-06 3.02828844879593e-25)
(-4.04394847935268e-08 5.95414901587885e-06 -3.91961822057782e-25)
(-7.18494466593822e-07 1.81988117074267e-06 7.04990398321556e-25)
(-1.30567337562383e-06 -5.62468163934173e-07 4.85105579949367e-25)
(-1.52521526595036e-06 -1.24205796960027e-06 7.1264404403398e-26)
(-1.53486689613017e-06 -1.05301714220049e-06 -4.63106005677837e-25)
(-1.40976262539442e-06 -6.38060866129155e-07 2.01545326306005e-25)
(-1.24010576289114e-06 -2.41528923562852e-07 2.29844721654476e-25)
(-1.06100044896072e-06 6.74322545732602e-08 -4.44816650139252e-25)
(-8.94062553400086e-07 2.92245043044747e-07 -2.68143185489511e-25)
(-7.45887479388119e-07 4.5121665733765e-07 1.6990075077832e-24)
(-6.18079096714475e-07 5.63024376678496e-07 1.06375474913792e-24)
(-5.09404702755408e-07 6.41992249659093e-07 2.39551316465363e-25)
(-4.17533571846725e-07 6.98396125103737e-07 1.24536610420932e-24)
(-3.39968486484146e-07 7.39310341401283e-07 -1.1185086526152e-26)
(-2.74294651735324e-07 7.69514098935485e-07 8.50058050247284e-25)
(-2.18410150114602e-07 7.92202177527536e-07 8.93885530167057e-25)
(-1.70521336208776e-07 8.09497487982205e-07 4.63757028261483e-25)
(-1.2912142495228e-07 8.22834320291065e-07 8.96769162087557e-25)
(-9.29603406410896e-08 8.33171193663808e-07 3.78606842446719e-27)
(-6.09807290489913e-08 8.41168150909528e-07 4.95354215300819e-25)
(-3.22828002106423e-08 8.4727163831693e-07 -1.00731731739609e-25)
(-6.08869841613522e-09 8.51782250711303e-07 4.73439107561163e-25)
(1.83041815388727e-08 8.54897862449161e-07 6.08436698649168e-25)
(4.15319161138678e-08 8.56749010919207e-07 2.03404014068138e-27)
(6.42034069350252e-08 8.57385814160399e-07 3.53817347488093e-25)
(8.69127965594307e-08 8.56816515986645e-07 -8.24002444061639e-26)
(1.10263444562345e-07 8.54981375794529e-07 9.66761030359382e-25)
(1.34891792450276e-07 8.51761854993546e-07 1.31920664015134e-25)
(1.61482655072907e-07 8.46965069064278e-07 -5.62346484784571e-25)
(1.90810351536197e-07 8.40284354526133e-07 2.9093059775536e-25)
(2.23761310018811e-07 8.31278900334975e-07 -8.13744229077124e-25)
(2.61373310867876e-07 8.19295277111452e-07 6.39158296601444e-25)
(3.04887417157741e-07 8.03374771305769e-07 7.32253749091839e-25)
(3.55786395530999e-07 7.82073226293461e-07 -6.3349124075001e-25)
(4.15843828275511e-07 7.53248677915807e-07 -1.90148974426135e-25)
(4.87143585117741e-07 7.13710452092628e-07 6.16061477794028e-26)
(5.72073010245154e-07 6.58680934233615e-07 -7.60422965694198e-26)
(6.73100346223454e-07 5.8108599691401e-07 2.14679870155e-25)
(7.92564501426017e-07 4.70593120927738e-07 -1.72135077858342e-24)
(9.31662546534521e-07 3.12764844356706e-07 -7.72869491637259e-25)
(1.0888564965647e-06 8.86239456699515e-08 -7.56486381502263e-25)
(1.25748489145691e-06 -2.21136435085141e-07 -1.86850140846859e-24)
(1.41616703432303e-06 -6.22523605654735e-07 -7.76570295204958e-25)
(1.53021814749233e-06 -1.0517372580559e-06 -8.6220945176594e-25)
(1.51195321512322e-06 -1.26968022591555e-06 -2.15587216764353e-24)
(1.29166363180989e-06 -6.23007066509907e-07 -8.48445559036489e-25)
(7.17824074811455e-07 1.77358905257762e-06 -7.56412984959509e-25)
(6.83124469110908e-08 6.01293194383023e-06 -2.17419798864281e-24)
(-3.68258863979405e-07 6.6855648054496e-06 -1.95567819143311e-25)
(5.10475060484397e-07 6.74899591052535e-06 5.30149081653126e-25)
(1.0101644937422e-06 6.56356638459786e-06 7.9500336135126e-25)
(5.02750320063976e-07 2.56944325332423e-06 9.43646387148487e-25)
(-2.14478736421297e-07 7.6792163356826e-08 5.3218385038903e-25)
(-7.15934082229818e-07 -7.63299429634194e-07 2.60569233394908e-25)
(-9.78245306765411e-07 -6.99306019466569e-07 2.88147961531296e-25)
(-1.04940800061427e-06 -3.59352653455598e-07 4.12644904155767e-25)
(-1.01523179871366e-06 -1.45558229371034e-10 4.71138364030691e-25)
(-9.26594407879424e-07 2.94323260235926e-07 4.99160643601988e-25)
(-8.181602078545e-07 5.16948844319405e-07 6.60468773054415e-25)
(-7.07532562835941e-07 6.79700682815394e-07 1.11100712804384e-24)
(-6.03661431080351e-07 7.97693232825423e-07 1.14123288028834e-24)
(-5.10275394341981e-07 8.8340068677753e-07 9.71060903264749e-25)
(-4.28183742415831e-07 9.46194370015637e-07 9.7574641446349e-25)
(-3.56883633957834e-07 9.92782401199592e-07 7.98825519230386e-25)
(-2.95220247177862e-07 1.02783421830283e-06 1.05092731690028e-24)
(-2.4187112779915e-07 1.05457099697464e-06 1.24246040223863e-24)
(-1.95536024592172e-07 1.07521200655517e-06 1.25328061237455e-24)
(-1.55022508391326e-07 1.0912727789891e-06 1.23762572345435e-24)
(-1.19274855214891e-07 1.10380607292158e-06 9.90684484235015e-25)
(-8.73655859878706e-08 1.11354270147486e-06 8.99657536538242e-25)
(-5.84861034288312e-08 1.12098208668563e-06 7.07382462129522e-25)
(-3.19117206543408e-08 1.12648043944673e-06 8.68093066514297e-25)
(-6.98285574887344e-09 1.13026592560671e-06 8.09476737751637e-25)
(1.69072983918555e-08 1.13247954029323e-06 7.186759517401e-25)
(4.03411597168683e-08 1.13319698245763e-06 8.08223828310942e-25)
(6.38851737901366e-08 1.13241474526339e-06 4.50549880875132e-25)
(8.81186403877813e-08 1.13006910437379e-06 4.75585702435878e-25)
(1.13644456670705e-07 1.12602391925602e-06 3.63819594895099e-25)
(1.4110829414578e-07 1.12004723116439e-06 6.72386947329141e-26)
(1.71221131003291e-07 1.11179682698011e-06 -2.00627886412909e-26)
(2.04784922157218e-07 1.10076856184776e-06 -3.73307944172596e-25)
(2.42712122524665e-07 1.08624360619281e-06 -1.03678235627347e-25)
(2.86039183167251e-07 1.06716775463467e-06 2.1542200575811e-26)
(3.35931908562785e-07 1.04200449124646e-06 1.10982713379341e-28)
(3.93669556418139e-07 1.00854441241885e-06 1.24470379639849e-25)
(4.60540243606993e-07 9.6356532144007e-07 -1.15780214729644e-25)
(5.37664846124173e-07 9.0238747519923e-07 -2.1287224574625e-25)
(6.25504398216349e-07 8.18309149958202e-07 -7.86748269651004e-26)
(7.23216341405564e-07 7.01907256954998e-07 -4.06505616039679e-25)
(8.26993415585221e-07 5.40602817070055e-07 -4.92687864229142e-25)
(9.27857155945884e-07 3.18969444177326e-07 -4.83469937878683e-25)
(1.00796172684983e-06 2.40536252433551e-08 -4.74165295537228e-25)
(1.03251484026812e-06 -3.39734709929943e-07 -4.50899861362644e-25)
(9.50414846773988e-07 -6.94165791298709e-07 -4.91109795005746e-25)
(6.77203811727692e-07 -7.8883251608542e-07 -5.68515641320947e-25)
(1.69148101017879e-07 1.40197676883919e-08 -4.65673856113876e-25)
(-5.43228629759278e-07 2.51411566897917e-06 -3.44849301977136e-25)
(-1.02298530024989e-06 6.61212198314633e-06 -2.7307703793554e-25)
(-5.02911681133138e-07 6.8670343684263e-06 1.61905511594975e-25)
(5.15578951475717e-07 6.36041980860461e-06 5.77524619736778e-25)
(1.49125033214205e-06 6.50653701788062e-06 1.40351564168989e-24)
(1.12993069593455e-06 2.84623442197432e-06 9.40596557589467e-25)
(4.19801410092049e-07 3.62421388651678e-07 4.83073651047297e-25)
(-1.96013689180647e-07 -5.87952437836708e-07 2.92944533334559e-25)
(-5.83963048858561e-07 -6.42755419196748e-07 6.43436943029229e-25)
(-7.6935290577915e-07 -3.86686814367654e-07 4.61832202920556e-25)
(-8.22886376474056e-07 -7.71078423314355e-08 5.16846485740091e-25)
(-7.98716000748481e-07 1.92146737027628e-07 8.62201794433174e-25)
(-7.35628080721505e-07 4.04383637792628e-07 9.59312198403052e-25)
(-6.56526740538963e-07 5.65035228472335e-07 6.19560869333383e-25)
(-5.74369348242658e-07 6.85113668318568e-07 9.51714640204286e-25)
(-4.95944427122592e-07 7.74745736616401e-07 1.09942371978682e-24)
(-4.241944339733e-07 8.420248477506e-07 6.68625865037683e-25)
(-3.60089925144367e-07 8.92977618583442e-07 1.02295816442227e-24)
(-3.03470565431976e-07 9.31991062816938e-07 9.61254847843412e-25)
(-2.53680552477251e-07 9.62173243650071e-07 1.17420989133089e-24)
(-2.09867788803654e-07 9.85729328912672e-07 1.41693160699399e-24)
(-1.71140107110579e-07 1.00421693128171e-06 1.20343167048774e-24)
(-1.36645699161599e-07 1.0187252848338e-06 1.29563468604666e-24)
(-1.05600217636696e-07 1.03003944475045e-06 9.50110689052302e-25)
(-7.72850602396332e-08 1.03869328890919e-06 9.57000195402911e-25)
(-5.10509974518547e-08 1.04508877379126e-06 8.96063358866882e-25)
(-2.62951651375992e-08 1.04946585872417e-06 7.68347516789895e-25)
(-2.44944587590561e-09 1.05199628902849e-06 9.40769758721158e-25)
(2.10284824243262e-08 1.05274978603634e-06 8.85211201087447e-25)
(4.46685773850913e-08 1.05173217539669e-06 6.05304083517537e-25)
(6.90146068931456e-08 1.04887013281064e-06 1.58553928345818e-25)
(9.46257581983095e-08 1.04401398444391e-06 3.83936531026757e-25)
(1.22091557732649e-07 1.03690288896528e-06 3.3121365386453e-25)
(1.52055712260925e-07 1.02716428900981e-06 -1.78566013696267e-25)
(1.85218164933825e-07 1.01426342820415e-06 -1.05277468419944e-25)
(2.2234824676754e-07 9.97418689692038e-07 -4.60252105790361e-25)
(2.64278511999032e-07 9.75536512144457e-07 -3.33891416894731e-25)
(3.11875606830987e-07 9.47056130008705e-07 2.87547903187395e-25)
(3.6596512592547e-07 9.09776773022697e-07 2.62979717109827e-25)
(4.27158205500077e-07 8.60577367399011e-07 -1.58548946290935e-25)
(4.95577979654533e-07 7.95102700235875e-07 -2.45954937229409e-25)
(5.70197999209949e-07 7.07302373061417e-07 -2.07024181103217e-25)
(6.48022218994152e-07 5.89052170904413e-07 3.05410005912794e-25)
(7.22139429270567e-07 4.30146773207131e-07 -2.30013910587569e-25)
(7.79486702939041e-07 2.19280643328326e-07 -2.21657352714611e-25)
(7.96787654908162e-07 -4.98984607641516e-08 3.52273403292037e-25)
(7.34922331961997e-07 -3.63389030324295e-07 -1.78965593339197e-25)
(5.39138939093369e-07 -6.33402491222806e-07 -1.83309175750355e-25)
(1.39384020780248e-07 -6.09788837487715e-07 4.22906124464117e-25)
(-4.86378411239109e-07 3.00336318578286e-07 -1.78521148251779e-25)
(-1.19724305391767e-06 2.78434631792187e-06 -4.48550531617312e-26)
(-1.53456285547948e-06 6.54101753188598e-06 8.04256110264496e-25)
(-5.20346062970109e-07 6.46770587825367e-06 2.0961670932821e-25)
(4.659106816834e-07 5.69189356462482e-06 5.16372653891754e-25)
(1.56702814344881e-06 6.0941750881759e-06 1.61852881852522e-24)
(1.32370941529318e-06 2.84359761415736e-06 8.03811775759246e-25)
(7.03628236658187e-07 4.41722868306529e-07 4.41034216915072e-25)
(9.15987622449066e-08 -5.72125488907429e-07 7.56981877189948e-25)
(-3.28426108595642e-07 -7.25885497131644e-07 9.5292432883212e-25)
(-5.64120378082466e-07 -5.48797471613968e-07 4.34968891016086e-25)
(-6.66248399411835e-07 -2.91126924725876e-07 4.67126105475782e-25)
(-6.83897913383315e-07 -5.15747989887373e-08 1.05110738576312e-24)
(-6.53730371292683e-07 1.4568880488961e-07 1.04758047542341e-24)
(-5.99680712128223e-07 3.00348026596101e-07 8.01772622262434e-26)
(-5.36106764816576e-07 4.19485119042642e-07 6.35668269377053e-25)
(-4.71322884346389e-07 5.10783392666834e-07 1.0573759393672e-24)
(-4.09547081055028e-07 5.80889177071689e-07 2.35291894568323e-25)
(-3.52741432318534e-07 6.35029052544289e-07 1.04825460687153e-24)
(-3.0148714326518e-07 6.77153696711658e-07 7.41464536223006e-25)
(-2.55674121607083e-07 7.10178070340294e-07 8.99441288706716e-25)
(-2.1482946696945e-07 7.36218418770761e-07 1.35524332517821e-24)
(-1.78340653450356e-07 7.5681265016547e-07 9.90718043920007e-25)
(-1.45547374279652e-07 7.73067438345937e-07 1.34860717007284e-24)
(-1.15803893788931e-07 7.85785393456095e-07 8.25484371935234e-25)
(-8.8495322597062e-08 7.95536143395361e-07 1.05153586307065e-24)
(-6.30457546950584e-08 8.02724771650235e-07 7.10970161900338e-25)
(-3.89122134369331e-08 8.07631202977392e-07 6.1691025448118e-25)
(-1.55740934465703e-08 8.10425281501546e-07 1.03689644497771e-24)
(7.46564998249572e-09 8.11190326871963e-07 7.51288683131685e-25)
(3.06995037876435e-08 8.09924744581075e-07 6.9849624436482e-25)
(5.46274133928109e-08 8.06564191255608e-07 -2.10719752996504e-25)
(7.97570378970151e-08 8.00931259473955e-07 2.70225778640245e-25)
(1.06621108757423e-07 7.9275968263264e-07 5.23722977449046e-25)
(1.35790256182813e-07 7.81651340251731e-07 -4.14905412438875e-25)
(1.67856472165347e-07 7.6704126525524e-07 1.74587621167057e-25)
(2.03450976075208e-07 7.48137930112551e-07 -7.38598608953558e-25)
(2.43215903240047e-07 7.23827179014449e-07 -6.21828877845412e-25)
(2.87736602537103e-07 6.92580331409759e-07 5.1925665955028e-25)
(3.37448914430726e-07 6.52269200228803e-07 2.59962298000978e-25)
(3.92430077141927e-07 5.99997137879714e-07 -1.11163731494809e-25)
(4.52051830522412e-07 5.31826325074624e-07 -2.28784221632353e-25)
(5.14279673370993e-07 4.42524272046925e-07 -4.11689073220928e-25)
(5.74837567690528e-07 3.25434857494094e-07 6.25599497642237e-25)
(6.25256972113241e-07 1.72799461352169e-07 -2.67130348167926e-26)
(6.5103329446764e-07 -2.2681301183684e-08 -7.39520682711618e-27)
(6.27815849280304e-07 -2.6155829178027e-07 6.99613617977814e-25)