/*--------------------------------*- C++ -*----------------------------------*\
  =========                 |
  \\      /  F ield         | OpenFOAM: The Open Source CFD Toolbox
   \\    /   O peration     | Website:  https://openfoam.org
    \\  /    A nd           | Version:  10
     \\/     M anipulation  |
\*---------------------------------------------------------------------------*/
FoamFile
{
    format      ascii;
    class       volScalarField;
    location    "8";
    object      wallHeatFlux;
}
// * * * * * * * * * * * * * * * * * * * * * * * * * * * * * * * * * * * * * //

dimensions      [1 0 -3 0 0 0 0];

internalField   uniform 0;

boundaryField
{
    back
    {
        type            calculated;
        value           uniform 0;
    }
    bottom
    {
        type            calculated;
        value           nonuniform List<scalar> 
50
(
74.9797126283698
75.7248479214402
78.2122131576263
80.2003051417956
81.5132206597905
82.322325343235
82.804337008724
83.0835131573246
83.2402596186981
83.3253672803965
83.3696271344917
83.3918323931891
83.4025440259799
83.407450826485
83.4096254854394
83.4105064449692
83.4109002517885
83.4110294346702
83.4110505310285
83.4110626423213
83.411060319882
83.4110559937801
83.4110512690955
83.4110554228825
83.4110524307032
83.4110509610969
83.4110561599595
83.4110609426
83.4110693039489
83.4110782841203
83.4110808137675
83.4110812507618
83.4110256655073
83.4108646045627
83.410448765638
83.4094355158416
83.4070873354456
83.4018180147305
83.3906968698163
83.3678023397165
83.3226398768422
83.2368719052452
83.0798352074018
82.8014968240596
82.322328159353
81.5163467795679
80.2028719809651
78.2039545605543
75.7034821936862
75.0014002740441
)
;
    }
    left
    {
        type            calculated;
        value           uniform 0;
    }
    front
    {
        type            calculated;
        value           uniform 0;
    }
    right
    {
        type            calculated;
        value           uniform 0;
    }
    top
    {
        type            calculated;
        value           uniform 0;
    }
}


// ************************************************************************* //
