/*--------------------------------*- C++ -*----------------------------------*\
  =========                 |
  \\      /  F ield         | OpenFOAM: The Open Source CFD Toolbox
   \\    /   O peration     | Website:  https://openfoam.org
    \\  /    A nd           | Version:  10
     \\/     M anipulation  |
\*---------------------------------------------------------------------------*/
FoamFile
{
    format      ascii;
    class       volScalarField;
    location    "0";
    object      T;
}
// * * * * * * * * * * * * * * * * * * * * * * * * * * * * * * * * * * * * * //

dimensions      [0 0 0 1 0 0 0];

internalField   uniform 300;

boundaryField
{
    inlet
    {
        type            fixedValue;
        value           uniform 300;
    }
    outlet
    {
        type            zeroGradient;
    }
    top
    {
        type            zeroGradient;
    }
    slip-bottom
    {
        type            zeroGradient;
    }
    bottom
    {
        type            zeroGradient;
    }
    interface
    {
        type            fixedValue;
        value           nonuniform List<scalar>
161
(
300.853075855743
300.853075844221
300.853075820878
300.853075785403
300.853075737501
300.862138437965
300.862138439673
300.862138439654
300.853075774308
300.853075813375
300.853075839146
300.85307585115
300.853075848935
300.853075832071
300.853075800153
300.853075752807
300.862138434611
300.862138436326
300.862138436314
300.853075777103
300.853075818675
300.85307584357
300.8530758512
300.853075841013
300.853075812496
300.853075765179
300.862138434469
300.86213843441
300.862138434403
300.853075783578
300.853075825275
300.853075846457
300.853075846417
300.853075824506
300.853075780138
300.862138435298
300.862138435172
300.862138435165
300.853075788864
300.853075831934
300.853075850328
300.853075843211
300.853075809834
300.853075749543
300.862138434282
300.862138434556
300.853075774928
300.853075826131
300.853075848378
300.853075840669
300.853075802125
300.853075732009
300.862138433502
300.853075728409
300.853075801629
300.853075841797
300.853075847666
300.85307581815
300.853075752348
300.862138432722
300.862138433787
300.853075798827
300.853075841344
300.853075844332
300.853075806562
300.853075727049
300.862138433089
300.853075757269
300.853075825719
300.853075849909
300.853075828297
300.853075759651
300.862138433788
300.85307573635
300.853075816761
300.853075847322
300.853075826245
300.853075752136
300.862138432259
300.853075753877
300.853075828347
300.853075846304
300.853075805844
300.862138431718
300.862138431479
300.853075800189
300.853075845954
300.853075827391
300.853075742737
300.862138431193
300.853075783474
300.853075842976
300.85307583147
300.853075746924
300.862138431269
300.853075789422
300.853075845342
300.853075822618
300.86213843055
300.862138430297
300.853075814687
300.853075845874
300.853075789781
300.862138430931
300.853075768771
300.85307584376
300.853075824633
300.862138432505
300.853075725182
300.853075831752
300.853075836772
300.853075737055
300.862138432108
300.853075826282
300.853075840125
300.853075740503
300.862138432978
300.853075831365
300.853075835957
300.862138434044
300.853075739343
300.85307584329
300.853075817489
300.862138434384
300.853075788535
300.853075849122
300.853075768454
300.862138432771
300.853075834294
300.853075824187
300.86213843386
300.853075797739
300.853075848522
300.85307573661
300.853075749963
300.85307585023
300.853075778109
300.862138434762
300.853075844069
300.853075798136
300.862138435761
300.853075841204
300.853075805873
300.862138435155
300.853075841515
300.853075799122
300.862138433557
300.853075847264
300.85307577793
300.853075736342
300.853075851013
300.853075732532
300.853075786944
300.853075842694
300.862138436861
300.853075832756
300.853075802824
300.862138436812
300.853075853623
300.862138440263
300.853075822382
)
;
    }
    defaultFaces
    {
        type            empty;
    }
}


// ************************************************************************* //
