/*--------------------------------*- C++ -*----------------------------------*\
  =========                 |
  \\      /  F ield         | OpenFOAM: The Open Source CFD Toolbox
   \\    /   O peration     | Website:  https://openfoam.org
    \\  /    A nd           | Version:  10
     \\/     M anipulation  |
\*---------------------------------------------------------------------------*/
FoamFile
{
    format      ascii;
    class       volScalarField;
    location    "0";
    object      T;
}
// * * * * * * * * * * * * * * * * * * * * * * * * * * * * * * * * * * * * * //

dimensions      [0 0 0 1 0 0 0];

internalField   uniform 300;

boundaryField
{
    inlet
    {
        type            fixedValue;
        value           uniform 300;
    }
    outlet
    {
        type            zeroGradient;
    }
    top
    {
        type            zeroGradient;
    }
    slip-bottom
    {
        type            zeroGradient;
    }
    bottom
    {
        type            zeroGradient;
    }
    interface
    {
        type            fixedValue;
        value           nonuniform List<scalar> 
161
(
301.914472166362
301.914472156441
301.914472136343
301.914472105797
301.914472064551
301.922275382436
301.922275382436
301.922275382436
301.914472100683
301.914472134321
301.914472156511
301.914472166847
301.914472164939
301.914472150418
301.914472122936
301.91447208217
301.922275382436
301.922275382436
301.922275382436
301.914472103758
301.914472139554
301.914472160989
301.914472167559
301.914472158788
301.914472134233
301.914472093492
301.922275382437
301.922275382437
301.922275382437
301.914472111149
301.914472147052
301.914472165291
301.914472165256
301.91447214639
301.914472108188
301.922275382438
301.922275382438
301.922275382438
301.914472114109
301.914472151194
301.914472167033
301.914472160905
301.914472132165
301.914472080253
301.922275382437
301.922275382437
301.914472103558
301.914472147647
301.914472166802
301.914472160164
301.914472126976
301.914472066604
301.922275382435
301.91447206325
301.914472126295
301.914472160881
301.914472165934
301.914472140521
301.914472083862
301.922275382436
301.922275382436
301.914472125274
301.914472161882
301.914472164455
301.914472131933
301.91447206347
301.922275382437
301.914472087806
301.914472146744
301.914472167572
301.914472148963
301.914472089857
301.922275382438
301.914472071832
301.914472141069
301.914472167384
301.914472149236
301.914472085424
301.922275382439
301.914472087123
301.914472151245
301.914472166706
301.914472131868
301.922275382439
301.922275382437
301.91447212689
301.914472166295
301.914472150312
301.914472077421
301.922275382437
301.914472112766
301.914472163999
301.914472154092
301.914472081295
301.922275382437
301.914472117861
301.91447216601
301.914472146444
301.922275382437
301.922275382437
301.914472140025
301.914472166877
301.914472118579
301.922275382438
301.914472099332
301.9144721639
301.914472147431
301.922275382437
301.914472062428
301.914472154188
301.914472158511
301.91447207265
301.922275382437
301.914472148824
301.914472160744
301.914472074966
301.922275382438
301.914472152457
301.914472156411
301.922275382437
301.914472072845
301.914472162347
301.914472140132
301.922275382437
301.914472115158
301.914472167326
301.914472097867
301.922275382438
301.91447215533
301.914472146628
301.922275382438
301.914472121506
301.914472165232
301.914472068872
301.914472080699
301.914472167033
301.914472104934
301.922275382438
301.914472162518
301.914472122968
301.922275382439
301.914472158881
301.914472128459
301.922275382438
301.914472159634
301.914472123133
301.922275382438
301.914472164224
301.914472104525
301.914472068855
301.914472167591
301.914472065575
301.91447211171
301.914472159712
301.922275382437
301.914472150911
301.914472125138
301.922275382437
301.91447216752
301.922275382434
301.914472136837
)
;
    }
    defaultFaces
    {
        type            empty;
    }
}


// ************************************************************************* //
