/*--------------------------------*- C++ -*----------------------------------*\
  =========                 |
  \\      /  F ield         | OpenFOAM: The Open Source CFD Toolbox
   \\    /   O peration     | Website:  https://openfoam.org
    \\  /    A nd           | Version:  10
     \\/     M anipulation  |
\*---------------------------------------------------------------------------*/
FoamFile
{
    format      ascii;
    class       volScalarField;
    location    "5.8";
    object      alphat;
}
// * * * * * * * * * * * * * * * * * * * * * * * * * * * * * * * * * * * * * //

dimensions      [1 -1 -1 0 0 0 0];

internalField   nonuniform List<scalar> 
2500
(
1.00689801377147e-14
1.97028252150573e-13
8.37225571592716e-13
1.43642744518575e-12
1.93116253387549e-12
2.3052382633649e-12
2.56546474433991e-12
2.73256642865354e-12
2.83196461142534e-12
2.88693874354308e-12
2.91531570621336e-12
2.92903798302358e-12
2.93527683592788e-12
2.93795273514394e-12
2.93903864920799e-12
2.93945652449143e-12
2.93960907353392e-12
2.93966170609162e-12
2.9396785881981e-12
2.9396833244183e-12
2.93968418994282e-12
2.93968394754802e-12
2.93968347186404e-12
2.93968303237844e-12
2.93968269904689e-12
2.93968249406418e-12
2.93968242682622e-12
2.93968243338569e-12
2.93968233966902e-12
2.93968178519069e-12
2.9396795150664e-12
2.93967182004923e-12
2.93964814878773e-12
2.9395797047807e-12
2.93939152657742e-12
2.938897828819e-12
2.93766189053095e-12
2.93471443820522e-12
2.92803536572698e-12
2.91369697449821e-12
2.88463373874024e-12
2.82921184592448e-12
2.73015886920644e-12
2.56488208969881e-12
2.30841625085079e-12
1.9396842122823e-12
1.45013954233984e-12
8.52446928971078e-13
2.03703182266779e-13
1.06332936820303e-14
9.9707477693755e-13
5.11928224543329e-11
2.22126531933067e-10
3.81517159610762e-10
5.1348919748786e-10
6.13699766279414e-10
6.83779123518892e-10
7.2905498883195e-10
7.56169476854631e-10
7.71275122927059e-10
7.79132240509129e-10
7.82961775107179e-10
7.84716907266864e-10
7.85475803291197e-10
7.85786282209172e-10
7.85906736594523e-10
7.85951080118728e-10
7.85966519796974e-10
7.8597153075025e-10
7.85972968563302e-10
7.8597325536698e-10
7.85973206856428e-10
7.85973083294602e-10
7.85972966478435e-10
7.85972877086085e-10
7.85972821908762e-10
7.8597280350806e-10
7.85972804330393e-10
7.85972772889947e-10
7.85972597925043e-10
7.85971914821258e-10
7.85969638344673e-10
7.85962701677786e-10
7.85942803035952e-10
7.85888492529542e-10
7.8574701723041e-10
7.85395359449971e-10
7.84562729488521e-10
7.82689515486358e-10
7.78697113737888e-10
7.70662452669072e-10
7.55447862543578e-10
7.28438534795723e-10
6.83657516538339e-10
6.14572975892303e-10
5.15754987428849e-10
3.85116245557411e-10
2.26089972673304e-10
5.28853195947357e-11
1.05055640871045e-12
3.53689209009863e-12
9.19880814179741e-10
3.13227542128326e-07
5.36453991672582e-07
7.19942393964981e-07
8.58830737019635e-07
9.55900008506267e-07
1.01870957391494e-06
1.05644570988659e-06
1.07756249484964e-06
1.08860470559421e-06
1.09401837483646e-06
1.09651510504403e-06
1.09760170487824e-06
1.09804923831621e-06
1.09822406463731e-06
1.09828889284833e-06
1.09831164946071e-06
1.098319115338e-06
1.09832130158463e-06
1.0983217700304e-06
1.09832172934733e-06
1.09832157004649e-06
1.09832141409657e-06
1.098321293284e-06
1.09832121786036e-06
1.09832119133386e-06
1.09832118916767e-06
1.09832113674963e-06
1.09832086672171e-06
1.0983198500647e-06
1.0983165067724e-06
1.09830639334827e-06
1.09827754261601e-06
1.09819918475103e-06
1.09799602763304e-06
1.09749341439337e-06
1.09630896963164e-06
1.09365686637197e-06
1.08803090761026e-06
1.07676006925657e-06
1.05550703165889e-06
1.01791388704692e-06
9.55749399178361e-07
8.59965461277249e-07
7.22870854132946e-07
5.41098847833378e-07
3.18337593624873e-07
9.47305285084478e-10
3.69576049844438e-12
6.25660478437699e-12
1.63866430342936e-09
5.58893318892832e-07
9.52488572954227e-07
1.27346967705486e-06
1.51509127495672e-06
1.68337017390977e-06
1.79205852967624e-06
1.85732576430817e-06
1.89386578202762e-06
1.91299524731046e-06
1.92238946587401e-06
1.92673079051559e-06
1.92862456265326e-06
1.92940655209061e-06
1.92971289789814e-06
1.92982685723734e-06
1.92986701268147e-06
1.92988025704702e-06
1.92988417531457e-06
1.92988504200078e-06
1.92988499541145e-06
1.92988473619857e-06
1.92988447499761e-06
1.92988427050556e-06
1.92988414080278e-06
1.92988409117355e-06
1.92988408067823e-06
1.9298839900493e-06
1.9298835269408e-06
1.92988178224021e-06
1.92987605186367e-06
1.92985870344609e-06
1.92980915457531e-06
1.9296744133345e-06
1.92932465542593e-06
1.92845842444062e-06
1.92641521280376e-06
1.92183673913301e-06
1.91211816630018e-06
1.89263728052139e-06
1.85588014330627e-06
1.79080706135758e-06
1.68305408805851e-06
1.51665683694151e-06
1.27766830339514e-06
9.59198118578813e-07
5.66244141011916e-07
1.67751086784928e-09
6.478179377408e-12
8.90688428698059e-12
2.33409461218853e-09
7.93117083339132e-07
1.34565183876793e-06
1.79330909186792e-06
2.12875644767491e-06
2.36171688050956e-06
2.51196276362882e-06
2.60215065412569e-06
2.65266356836618e-06
2.67913462961142e-06
2.69215287634647e-06
2.69817962943098e-06
2.70081401700227e-06
2.70190434148376e-06
2.70233258458751e-06
2.7024923628866e-06
2.70254887030131e-06
2.7025676083324e-06
2.70257321243009e-06
2.7025744931874e-06
2.70257446623694e-06
2.70257413388329e-06
2.70257378817803e-06
2.70257351404516e-06
2.70257333625446e-06
2.70257325702492e-06
2.70257322676959e-06
2.70257310220342e-06
2.70257247000918e-06
2.70257007808945e-06
2.70256223608017e-06
2.70253848509342e-06
2.70247057504992e-06
2.70228566207182e-06
2.70180504416742e-06
2.70061327409148e-06
2.69779916341232e-06
2.69148734745622e-06
2.67807873185912e-06
2.65118203085068e-06
2.6003965027184e-06
2.51041150137349e-06
2.3612268857901e-06
2.1304225841999e-06
1.79799807357408e-06
1.3532164890693e-06
8.01410254791599e-07
2.37828927054793e-09
9.162687570222e-12
1.13969421630937e-11
2.98718846415868e-09
1.01092472594133e-06
1.70842512677682e-06
2.27040527551598e-06
2.68993269244886e-06
2.98061640126143e-06
3.16788085822006e-06
3.28026567452479e-06
3.34323973575933e-06
3.37627276355449e-06
3.39253996090246e-06
3.40008321880133e-06
3.40338679507606e-06
3.40475704103288e-06
3.40529654374306e-06
3.40549840646544e-06
3.40557005509756e-06
3.40559394378265e-06
3.40560116999527e-06
3.4056028780906e-06
3.40560290032003e-06
3.40560252250906e-06
3.40560211510376e-06
3.40560178703608e-06
3.40560156890102e-06
3.40560145969916e-06
3.40560140846131e-06
3.40560124471266e-06
3.40560045092541e-06
3.40559748417138e-06
3.4055877861193e-06
3.40555842379505e-06
3.40547441016914e-06
3.40524540395144e-06
3.4046495036563e-06
3.40317026541988e-06
3.39967393465505e-06
3.39182527476602e-06
3.37513970783376e-06
3.34164841406533e-06
3.27837242961073e-06
3.16617667467817e-06
2.97998711698077e-06
2.69150478185117e-06
2.27506606887648e-06
1.7160225946711e-06
1.01929694862475e-06
3.03280302757717e-09
1.16681662140686e-11
1.36741491496475e-11
3.58502234529709e-09
1.20884854055811e-06
2.03588819096022e-06
2.6991304356621e-06
3.19271647967311e-06
3.53408791344648e-06
3.7538229637641e-06
3.88568505656379e-06
3.95960998099565e-06
3.99842338130329e-06
4.01756132833852e-06
4.02644944528622e-06
4.03034894259181e-06
4.03196963388189e-06
4.03260921241168e-06
4.03284916913395e-06
4.03293463694186e-06
4.0329632876069e-06
4.03297205383777e-06
4.03297419777544e-06
4.03297429850291e-06
4.03297390316148e-06
4.03297345680934e-06
4.03297309065406e-06
4.0329728406889e-06
4.03297270454281e-06
4.03297262725032e-06
4.03297241457025e-06
4.03297146790125e-06
4.03296799181232e-06
4.03295667573697e-06
4.03292244990896e-06
4.03282448805418e-06
4.0325572398465e-06
4.03186115944043e-06
4.03013159876548e-06
4.02604007147151e-06
4.01684839510417e-06
3.99729524477687e-06
3.95802669595034e-06
3.88379770085721e-06
3.75210579700381e-06
3.53339258006344e-06
3.19411905079682e-06
2.70347099445271e-06
2.04302041569015e-06
1.21676612380642e-06
3.62956497351132e-09
1.39481663271673e-11
1.57077398099533e-11
4.11978851157276e-09
1.38491592559104e-06
2.32556655618126e-06
3.07698620282465e-06
3.6347831369437e-06
4.02000791444432e-06
4.26782163257728e-06
4.41653949570643e-06
4.49995785381409e-06
4.54379485366587e-06
4.56543548928095e-06
4.57550031996347e-06
4.57992339246728e-06
4.58176515017324e-06
4.58249353373233e-06
4.58276750837996e-06
4.58286542036025e-06
4.58289841571101e-06
4.58290862329704e-06
4.58291120413333e-06
4.58291141034836e-06
4.58291102270423e-06
4.58291055827565e-06
4.58291016876542e-06
4.58290989519718e-06
4.58290973438623e-06
4.58290962658118e-06
4.58290935885885e-06
4.58290826681002e-06
4.58290433925455e-06
4.58289162409611e-06
4.58285322892954e-06
4.58274333227819e-06
4.58244333966753e-06
4.58166134353107e-06
4.57971671437296e-06
4.57511294077154e-06
4.56476371118054e-06
4.542735994565e-06
4.49847724869323e-06
4.41478013022652e-06
4.26622291906123e-06
4.01934957384011e-06
3.63603856065516e-06
3.08090226441054e-06
2.33200121297585e-06
1.39210554616947e-06
4.16184972337499e-09
1.59765791782105e-11
1.74841718360832e-11
4.587962257791e-09
1.53843537628176e-06
2.57699420279292e-06
3.40397412432704e-06
4.01661764375753e-06
4.43924932501477e-06
4.71101506154716e-06
4.8741274250043e-06
4.96566878682085e-06
5.01381545932727e-06
5.03760993752951e-06
5.04869117720954e-06
5.05356836821512e-06
5.0556027547806e-06
5.05640892805112e-06
5.05671288933733e-06
5.05682186277917e-06
5.05685877072599e-06
5.05687030834655e-06
5.0568733195247e-06
5.05687365327462e-06
5.05687329346221e-06
5.05687282876058e-06
5.05687242867606e-06
5.05687213890261e-06
5.05687195574059e-06
5.05687181508328e-06
5.05687148890005e-06
5.0568702585594e-06
5.05686593147165e-06
5.05685201686088e-06
5.05681008635618e-06
5.05669010068016e-06
5.05636242459068e-06
5.05550769754716e-06
5.05338071347371e-06
5.04834194025019e-06
5.03700840603606e-06
5.01287423372117e-06
4.96436416581135e-06
4.8725958947609e-06
4.70965428972754e-06
4.4387486493397e-06
4.01781950510037e-06
3.40750372764784e-06
2.58270226287323e-06
1.54482267594874e-06
4.62696281197771e-09
1.77435553247054e-11
1.90036368343023e-11
4.98947297497015e-09
1.66973456541193e-06
2.79124570560946e-06
3.68196617469881e-06
4.34077293019206e-06
4.79486773201041e-06
5.086789710161e-06
5.26203257928605e-06
5.36043401891347e-06
5.41223028651867e-06
5.43785464212699e-06
5.44980260675302e-06
5.45506864374245e-06
5.45726873454508e-06
5.458142176183e-06
5.45847223137603e-06
5.45859091064843e-06
5.45863129618812e-06
5.45864404219325e-06
5.45864747079462e-06
5.45864795025339e-06
5.45864762997477e-06
5.45864717909138e-06
5.45864677882293e-06
5.45864647920561e-06
5.45864627623444e-06
5.45864610214646e-06
5.45864571653973e-06
5.45864435565313e-06
5.45863967700653e-06
5.45862474365593e-06
5.458579849824e-06
5.45845144170401e-06
5.45810066344397e-06
5.45718517973702e-06
5.45490564761635e-06
5.44950246889116e-06
5.43734337082301e-06
5.41144076282293e-06
5.35935907188073e-06
5.260806754125e-06
5.08577024185818e-06
4.79464958194901e-06
4.34205757607689e-06
3.68524231971685e-06
2.79633886109905e-06
1.67538614390583e-06
5.02544355396663e-09
1.92521312373526e-11
2.02769383197101e-11
5.32694663342134e-09
1.77991976771496e-06
2.97053570325511e-06
3.91418789923509e-06
4.6112759432622e-06
5.09145944300193e-06
5.40010982572372e-06
5.58543729573858e-06
5.68955509096021e-06
5.74440119031684e-06
5.7715597913383e-06
5.78423717868876e-06
5.78983182616419e-06
5.79217260053355e-06
5.7931034528136e-06
5.79345591740854e-06
5.79358300099494e-06
5.79362643610065e-06
5.79364026371958e-06
5.79364408552267e-06
5.79364471421225e-06
5.79364445069058e-06
5.79364402419872e-06
5.79364363176378e-06
5.79364332756738e-06
5.79364310752627e-06
5.79364290089995e-06
5.79364245700213e-06
5.79364097473862e-06
5.79363598966778e-06
5.79362020027852e-06
5.79357285316615e-06
5.79343750629253e-06
5.79306771032688e-06
5.79210217262995e-06
5.78969680685018e-06
5.7839926541388e-06
5.77115094179671e-06
5.7437848419094e-06
5.68874558871196e-06
5.58457336564721e-06
5.39951492300286e-06
5.09164011941047e-06
4.61279567890458e-06
3.91739437650892e-06
2.97520874317631e-06
1.78499027507627e-06
5.36032528493227e-09
2.05151419290741e-11
2.13226574229383e-11
5.60501737416778e-09
1.8706637290662e-06
3.11788267291986e-06
4.10479761141978e-06
4.83315317349494e-06
5.3346545735975e-06
5.65699164203819e-06
5.85058610010354e-06
5.95940170395202e-06
6.01676169921582e-06
6.04518925493579e-06
6.05847223702655e-06
6.06434085704707e-06
6.06679946902822e-06
6.06777866118183e-06
6.06815011214929e-06
6.06828437457495e-06
6.06833044699367e-06
6.06834523018297e-06
6.06834941355588e-06
6.06835019151133e-06
6.06834999272368e-06
6.06834959768164e-06
6.06834921886835e-06
6.06834891432199e-06
6.06834868007299e-06
6.06834844296877e-06
6.06834794375318e-06
6.06834635090733e-06
6.06834110211364e-06
6.06832460213609e-06
6.06827525087072e-06
6.06813426717834e-06
6.06774903930806e-06
6.0667428616447e-06
6.06423521390001e-06
6.05828613155652e-06
6.04488834512801e-06
6.01632909931214e-06
5.95887729140222e-06
5.85011924827333e-06
5.65688151448622e-06
5.33533131700258e-06
4.83505366683805e-06
4.10813153275493e-06
3.12236451529093e-06
1.8753504357307e-06
5.63646919597764e-09
2.15524423665207e-11
2.21645460694782e-11
5.82968483521096e-09
1.944013062456e-06
3.23681329386158e-06
4.25852337401583e-06
5.01202589501558e-06
5.53068739293873e-06
5.86405932198049e-06
6.06433357006548e-06
6.176955212659e-06
6.23635824565715e-06
6.26582069886751e-06
6.27959949258297e-06
6.28569337451942e-06
6.28824932729198e-06
6.28926866106193e-06
6.28965597633183e-06
6.28979628561864e-06
6.28984460636098e-06
6.2898602219889e-06
6.2898647320349e-06
6.28986565253385e-06
6.289865520947e-06
6.28986516141235e-06
6.28986480002689e-06
6.28986449839791e-06
6.28986425281124e-06
6.28986398817079e-06
6.28986343815897e-06
6.28986174688456e-06
6.28985627454266e-06
6.28983919271703e-06
6.28978822738102e-06
6.28964273169034e-06
6.28924516883308e-06
6.2882064932966e-06
6.28561697236872e-06
6.27947161756906e-06
6.26562779692012e-06
6.23611079905154e-06
6.17672141449158e-06
6.06427930435733e-06
5.86446976931448e-06
5.53193115151685e-06
5.01442936545063e-06
4.26216647676763e-06
3.24132888591544e-06
1.94851975325148e-06
5.85995245178247e-09
2.23884022062733e-11
2.28291523197352e-11
6.0077169733255e-09
2.0022123724056e-06
3.33109749990952e-06
4.38034079943537e-06
5.15375260673974e-06
5.68601755906874e-06
6.02815380682149e-06
6.23374616191498e-06
6.34940661259181e-06
6.41044614252097e-06
6.44074055898739e-06
6.45491952194102e-06
6.4611959992645e-06
6.46383122921613e-06
6.46488342829905e-06
6.46528381274214e-06
6.46542914325519e-06
6.46547935282382e-06
6.46549568192961e-06
6.46550048050788e-06
6.46550153308711e-06
6.46550146872209e-06
6.46550114635536e-06
6.4655008045751e-06
6.4655005083121e-06
6.46550025420972e-06
6.46549996561905e-06
6.46549937051765e-06
6.46549759382251e-06
6.46549193525068e-06
6.46547438410444e-06
6.46542213836618e-06
6.46527308640366e-06
6.46486581715356e-06
6.46380156147915e-06
6.46114753526176e-06
6.45484738341407e-06
6.44065145979791e-06
6.41037786481124e-06
6.34945709862705e-06
6.2341024286898e-06
6.0290967120452e-06
5.68786946348347e-06
5.15674743493438e-06
4.38444030484034e-06
3.3358414183063e-06
2.00672346998043e-06
6.03750818789714e-09
2.3049670982604e-11
2.33437549585772e-11
6.14612115875896e-09
2.04754995558109e-06
3.4045186883305e-06
4.47519500374389e-06
5.26412100419566e-06
5.80700388266526e-06
6.15599578426054e-06
6.36575896496209e-06
6.48380984840362e-06
6.54614106236867e-06
6.57709459557189e-06
6.59159187791124e-06
6.59801424269298e-06
6.60071311607825e-06
6.60179183973992e-06
6.60220283723927e-06
6.60235227746434e-06
6.60240405053153e-06
6.60242098127483e-06
6.60242602977937e-06
6.602427201774e-06
6.60242720176063e-06
6.60242691621404e-06
6.60242659490272e-06
6.60242630576571e-06
6.60242604584677e-06
6.60242573728736e-06
6.60242510355014e-06
6.6024232546961e-06
6.60241744395069e-06
6.60239952038478e-06
6.60234627499109e-06
6.60219446465678e-06
6.60177967990673e-06
6.60069561361736e-06
6.59799158695161e-06
6.59157132617961e-06
6.57710195761962e-06
6.54624037347145e-06
6.4841289132484e-06
6.36650898556993e-06
6.15746137495349e-06
5.80947529780146e-06
5.26775753765881e-06
4.47985366349538e-06
3.4096399999157e-06
2.0522147052348e-06
6.17603562255207e-09
2.3563270237432e-11
2.37346994095935e-11
6.25171091455645e-09
2.08223200357886e-06
3.46068806837906e-06
4.54777687386117e-06
5.34860046099809e-06
5.89964219852498e-06
6.25391477156425e-06
6.46689964685762e-06
6.58680286425843e-06
6.65013852664641e-06
6.68160658055605e-06
6.69635338535671e-06
6.70289062138945e-06
6.70563985119542e-06
6.70673967450872e-06
6.70715916675786e-06
6.70731192204522e-06
6.70736497024042e-06
6.70738240038994e-06
6.70738766149973e-06
6.70738893890461e-06
6.70738899823908e-06
6.70738874772048e-06
6.70738844678176e-06
6.70738816597816e-06
6.70738790277578e-06
6.70738757838934e-06
6.70738691278954e-06
6.70738500473359e-06
6.70737907228095e-06
6.70736085839305e-06
6.70730684552236e-06
6.70715293098905e-06
6.70673242310365e-06
6.70563326771557e-06
6.70289112409878e-06
6.69637920937237e-06
6.68170099106387e-06
6.65038999762508e-06
6.58736800880747e-06
6.46801527548173e-06
6.2558753000282e-06
5.90271777075739e-06
5.35289210809766e-06
4.55305093183836e-06
3.46628497294632e-06
2.08715757777941e-06
6.28220293198921e-09
2.39550820215428e-11
2.4026190784392e-11
6.33078578749779e-09
2.108289888575e-06
3.50290927446911e-06
4.60236085773024e-06
5.41216309051338e-06
5.96937607808431e-06
6.32765351676552e-06
6.54308909755241e-06
6.66440608635151e-06
6.72851119657932e-06
6.76037496231786e-06
6.77531449334863e-06
6.78194086105494e-06
6.78472935706537e-06
6.78584572246574e-06
6.7862719159733e-06
6.78642730659659e-06
6.78648137938885e-06
6.78649921758342e-06
6.78650465635226e-06
6.78650602487932e-06
6.78650613760018e-06
6.78650591934178e-06
6.78650563801617e-06
6.78650536632785e-06
6.78650510215565e-06
6.78650476602877e-06
6.78650407527116e-06
6.78650212019957e-06
6.78649609271959e-06
6.78647765687598e-06
6.78642306520521e-06
6.78626757311977e-06
6.78584278125863e-06
6.78473232788201e-06
6.78196161768145e-06
6.77538094204626e-06
6.76054589343288e-06
6.72889717325696e-06
6.66519054947683e-06
6.54453441258168e-06
6.33006784117488e-06
5.97301890604633e-06
5.41709135271282e-06
4.60826405948333e-06
3.50903135247498e-06
2.11354158056094e-06
6.36215681236808e-09
2.424877185114e-11
2.42395426357854e-11
6.38892642828604e-09
2.12752098952444e-06
3.53409354596152e-06
4.64270459000772e-06
5.45917385776849e-06
6.02098105905846e-06
6.38224857949813e-06
6.59951977171505e-06
6.72189942854788e-06
6.78658511160836e-06
6.81874868455338e-06
6.833834876357e-06
6.8405293906451e-06
6.8433480595606e-06
6.8444772062039e-06
6.84490860983331e-06
6.84506606513723e-06
6.84512094914659e-06
6.84513911560624e-06
6.84514470028937e-06
6.84514614641072e-06
6.84514630637489e-06
6.84514611684497e-06
6.84514585397265e-06
6.84514559187398e-06
6.84514532880338e-06
6.84514498479844e-06
6.84514427522626e-06
6.84514228421812e-06
6.84513618459281e-06
6.84511758276305e-06
6.84506256300801e-06
6.84490590988355e-06
6.84447796870099e-06
6.84335920528167e-06
6.84056746041115e-06
6.83393609436457e-06
6.81898530994348e-06
6.78708714496578e-06
6.72287451841095e-06
6.60125459781176e-06
6.38506708057698e-06
6.02513901646126e-06
5.46469578460256e-06
4.64921614087609e-06
3.54074914776155e-06
2.13312734448446e-06
6.42133893470809e-09
2.4465134577937e-11
2.4392829248859e-11
6.43089335500533e-09
2.14145978539719e-06
3.5567203834113e-06
4.67200414325209e-06
5.49334291096935e-06
6.05851524661188e-06
6.42197979994947e-06
6.64060437812285e-06
6.76377044959572e-06
6.8288875000979e-06
6.86127478557633e-06
6.87647091325591e-06
6.88321675745777e-06
6.8860582711038e-06
6.88719714914711e-06
6.88763254482647e-06
6.88779159432608e-06
6.88784711129528e-06
6.88786553790991e-06
6.88787124028694e-06
6.8878727521947e-06
6.88787295403747e-06
6.88787278856804e-06
6.88787254276164e-06
6.88787229050043e-06
6.88787203033592e-06
6.88787168196312e-06
6.8878709593392e-06
6.88786894216331e-06
6.88786278961692e-06
6.88784406687815e-06
6.88778873752698e-06
6.8876312473819e-06
6.88720103633162e-06
6.88607627698268e-06
6.88326933247348e-06
6.8766012836935e-06
6.86156663723439e-06
6.82948753140333e-06
6.76490755193312e-06
6.64258747577502e-06
6.42514911991582e-06
6.06312755150596e-06
5.49939954355357e-06
4.67907861129646e-06
3.5638867872591e-06
2.14742055595563e-06
6.46439758647339e-09
2.46218087458926e-11
2.45008565805206e-11
6.46060891207462e-09
2.15137339492495e-06
3.57283486759729e-06
4.69289413979119e-06
5.51772815580027e-06
6.08532358893629e-06
6.45037555053831e-06
6.66998159129903e-06
6.7937202263026e-06
6.8591526743588e-06
6.8917042672212e-06
6.90698152424209e-06
6.91376544000101e-06
6.91662398875182e-06
6.91777016555098e-06
6.91820857487586e-06
6.91836883736078e-06
6.91842484110371e-06
6.91844347097467e-06
6.91844926686186e-06
6.9184508327982e-06
6.91845106951581e-06
6.91845092689021e-06
6.9184506968342e-06
6.91845045452173e-06
6.91845019880042e-06
6.91844984914692e-06
6.91844911853091e-06
6.91844708357e-06
6.91844089395669e-06
6.9184220861127e-06
6.91836653909068e-06
6.91820846054021e-06
6.91777665147742e-06
6.9166476615365e-06
6.91382996749271e-06
6.90713592038485e-06
6.89204172871534e-06
6.85983395207875e-06
6.79499241678595e-06
6.67217333230965e-06
6.45384276931083e-06
6.09032690550564e-06
5.52425279433422e-06
4.70047164738434e-06
3.5804692202987e-06
2.15766852026771e-06
6.49517511622322e-09
2.47332782498744e-11
2.45753549411904e-11
6.4811982949218e-09
2.15827463934496e-06
3.58407118534176e-06
4.70747990364715e-06
5.53477372525414e-06
6.10408053286759e-06
6.47025791471081e-06
6.69056261413728e-06
6.8147106038764e-06
6.88036958745039e-06
6.91303977155325e-06
6.92837588658314e-06
6.93518757247008e-06
6.93805861823801e-06
6.9392101824466e-06
6.93965083156247e-06
6.93981200307775e-06
6.93986837576404e-06
6.93988716231359e-06
6.93989303189149e-06
6.93989464128583e-06
6.93989490788611e-06
6.93989478574366e-06
6.93989457018524e-06
6.93989433783405e-06
6.93989408782408e-06
6.93989373950738e-06
6.93989300519753e-06
6.93989095945635e-06
6.93988474564138e-06
6.93986588084344e-06
6.93981018688598e-06
6.93965170908278e-06
6.93921881046858e-06
6.9380869226707e-06
6.93526183461022e-06
6.92854983998783e-06
6.91341441723048e-06
6.88111732033257e-06
6.81609384393234e-06
6.69292705532571e-06
6.47397393640619e-06
6.10941414082467e-06
5.54169921853457e-06
4.71549542830732e-06
3.5921207797479e-06
2.16487291422371e-06
6.51674888807512e-09
2.48110716212744e-11
2.4625300050196e-11
6.49506589669807e-09
2.16294570625165e-06
3.59169188168881e-06
4.71738874802233e-06
5.54636984032948e-06
6.1168555392026e-06
6.48381165720825e-06
6.70460210214447e-06
6.82903614200309e-06
6.89485427197185e-06
6.92760823821748e-06
6.94298618057787e-06
6.94981772311541e-06
6.95269776266719e-06
6.95385323092468e-06
6.95429551566437e-06
6.9544573572189e-06
6.95451400535124e-06
6.95453291116914e-06
6.95453883853207e-06
6.95454048306092e-06
6.95454077487159e-06
6.95454067080435e-06
6.9545404685938e-06
6.95454024614725e-06
6.95454000286212e-06
6.95453965802719e-06
6.95453892355896e-06
6.95453687276032e-06
6.95453064505961e-06
6.95451174538342e-06
6.95445595899419e-06
6.95429722608066e-06
6.95386362286376e-06
6.95272984204705e-06
6.94989988271004e-06
6.94317598020665e-06
6.9280130413012e-06
6.89565604893636e-06
6.83051008756822e-06
6.70710846135241e-06
6.48773373856542e-06
6.12246536119811e-06
5.55363447285869e-06
4.72577985525021e-06
3.60010290079052e-06
2.16981230781403e-06
6.5315040234348e-09
2.48640738440489e-11
2.46572828792995e-11
6.50398639241091e-09
2.16596631021329e-06
3.5966335458083e-06
4.72382889916883e-06
5.55392108070146e-06
6.12518752063667e-06
6.49266246003343e-06
6.71377857959619e-06
6.83840569720875e-06
6.90433200232244e-06
6.93714333522053e-06
6.95255013596022e-06
6.95939548676857e-06
6.96228183197041e-06
6.9634400611887e-06
6.96388351377351e-06
6.96404583931989e-06
6.96410268963422e-06
6.96412168516704e-06
6.96412765774467e-06
6.96412933088144e-06
6.96412964387243e-06
6.96412955568906e-06
6.96412936578976e-06
6.96412915313425e-06
6.96412891732516e-06
6.96412857764399e-06
6.96412784581636e-06
6.96412579451445e-06
6.96411956114135e-06
6.96410064405619e-06
6.96404480796823e-06
6.9638859319379e-06
6.96345192085163e-06
6.96231701649396e-06
6.95948410703152e-06
6.95275287452726e-06
6.93757277365734e-06
6.90517802480748e-06
6.83995418325301e-06
6.71640218547345e-06
6.49675593632889e-06
6.13102900631816e-06
5.56147294968128e-06
4.73254165846677e-06
3.60535789955722e-06
2.1730687921942e-06
6.54121913905982e-09
2.48988787315361e-11
2.46758666328331e-11
6.50919428109642e-09
2.16774142155352e-06
3.59955137938773e-06
4.72764666584274e-06
5.5584124202778e-06
6.13015673602917e-06
6.49795244512287e-06
6.71927206470142e-06
6.84402118887918e-06
6.91001663763048e-06
6.94286507545322e-06
6.9582907698888e-06
6.96514527328988e-06
6.96803585094317e-06
6.96919595766327e-06
6.96964021574172e-06
6.96980288083513e-06
6.96985987633285e-06
6.96987893855192e-06
6.96988494647067e-06
6.96988664305559e-06
6.96988697414713e-06
6.96988690002863e-06
6.96988672157628e-06
6.96988651854873e-06
6.9698862907187e-06
6.9698859574076e-06
6.96988523032616e-06
6.96988318205433e-06
6.96987694956234e-06
6.96985802928713e-06
6.96980217847053e-06
6.96964325055742e-06
6.969209071223e-06
6.96807365869569e-06
6.96523932131268e-06
6.95850435568827e-06
6.94331516820589e-06
6.91089981869817e-06
6.84563247186645e-06
6.7219948935844e-06
6.50219179010013e-06
6.13619674346346e-06
5.56621241792782e-06
4.73663981005578e-06
3.60855162480879e-06
2.1750541099431e-06
6.54715011813099e-09
2.49201257783026e-11
2.46838874167308e-11
6.51146018455893e-09
2.16852494001786e-06
3.60085704925084e-06
4.72937472189075e-06
5.56046486624024e-06
6.13244533914423e-06
6.5004037987393e-06
6.72182949955975e-06
6.84664402840402e-06
6.91267756952382e-06
6.94554701952415e-06
6.96098370922188e-06
6.96784368421452e-06
6.97073686086921e-06
6.97189815293757e-06
6.97234293560898e-06
6.97250583069535e-06
6.97256293014333e-06
6.97258204395921e-06
6.97258808177846e-06
6.97258979954056e-06
6.97259014763948e-06
6.9725900872738e-06
6.97258992003352e-06
6.9725897264659e-06
6.97258950652202e-06
6.97258917960196e-06
6.97258845755588e-06
6.97258641335918e-06
6.97258018500581e-06
6.97256127121368e-06
6.97250543344425e-06
6.97234653072746e-06
6.97191238917771e-06
6.97077699704751e-06
6.96794252871255e-06
6.96120686352428e-06
6.94601533024137e-06
6.91359356431784e-06
6.84831089202061e-06
6.72464045795221e-06
6.50477323793728e-06
6.13866329614709e-06
5.56848859365114e-06
4.7386223559967e-06
3.61010958081206e-06
2.17603184993987e-06
6.55010095739322e-09
2.49307813619858e-11
2.46826632700006e-11
6.51114418762449e-09
2.16843660307068e-06
3.60074598772516e-06
4.72926719592849e-06
5.56037593985814e-06
6.13238133828526e-06
6.50036484804437e-06
6.72181203675062e-06
6.84664298100987e-06
6.91268790628165e-06
6.94556461727514e-06
6.96100559975235e-06
6.96786794706706e-06
6.97076236018568e-06
6.97192426731773e-06
6.97236934750799e-06
6.97253238707924e-06
6.97258956062882e-06
6.97260871697567e-06
6.97261478282912e-06
6.9726165218486e-06
6.972616887544e-06
6.97261684155235e-06
6.97261668570826e-06
6.97261650136193e-06
6.97261628865208e-06
6.97261596709326e-06
6.97261524883269e-06
6.97261320774087e-06
6.97260698432259e-06
6.97258808385228e-06
6.97253228373087e-06
6.97237347932266e-06
6.97193957430574e-06
6.97080471116249e-06
6.96797134761763e-06
6.96123783810166e-06
6.94605022481635e-06
6.91363507229384e-06
6.84836268532189e-06
6.72470686554458e-06
6.50485835717201e-06
6.13876945887466e-06
5.56861430136359e-06
4.73875993649952e-06
3.61024277184847e-06
2.1761333139997e-06
6.55047421180102e-09
2.49323380573899e-11
2.46721170949461e-11
6.50822792304083e-09
2.16747162071216e-06
3.59921206352943e-06
4.72731808411932e-06
5.55814068111408e-06
6.12996131678826e-06
6.49783386314593e-06
6.71921949721584e-06
6.84401911375458e-06
6.91004962999784e-06
6.94292044518693e-06
6.95835937554178e-06
6.96522119456815e-06
6.96811558390473e-06
6.96927758468132e-06
6.96972275685864e-06
6.969885863984e-06
6.96994308464347e-06
6.96996227499441e-06
6.96996836676483e-06
6.96997012668106e-06
6.96997051001105e-06
6.96997047847833e-06
6.96997033388605e-06
6.96997015836032e-06
6.96996995222477e-06
6.9699696351665e-06
6.9699689198164e-06
6.96996688152502e-06
6.96996066504456e-06
6.96994178707587e-06
6.96988605413311e-06
6.96972743198578e-06
6.96929398607072e-06
6.96816021131662e-06
6.96532929154182e-06
6.9586009902403e-06
6.94342391399153e-06
6.91102898171656e-06
6.84579335641066e-06
6.72220079012653e-06
6.5024552131346e-06
6.13652469575737e-06
5.56660005914931e-06
4.73706333195486e-06
3.60896096135444e-06
2.17536534765239e-06
6.5482942024648e-09
2.49248968070324e-11
2.46507987795541e-11
6.50231910252719e-09
2.16550138105931e-06
3.59604817801127e-06
4.72326157329743e-06
5.55345177724345e-06
6.12485045784762e-06
6.4924590334214e-06
6.71369033267529e-06
6.83840578331238e-06
6.90439356688323e-06
6.93724419285879e-06
6.95267426095746e-06
6.959532479451e-06
6.96242552879141e-06
6.96358708619274e-06
6.96403214121389e-06
6.96419523805919e-06
6.96425247819232e-06
6.96427169326041e-06
6.96427780805476e-06
6.96427958783032e-06
6.96427998820017e-06
6.96427997069574e-06
6.96427983689837e-06
6.96427966967055e-06
6.96427946953192e-06
6.96427915641337e-06
6.96427844367387e-06
6.96427640888064e-06
6.9642702031684e-06
6.96425136064312e-06
6.96419573294226e-06
6.96403739735997e-06
6.96360468194208e-06
6.96247266963055e-06
6.95964579233117e-06
6.95292631512067e-06
6.93776755767188e-06
6.90540874154225e-06
6.84024062219051e-06
6.71676748803992e-06
6.49722167195425e-06
6.13160683886585e-06
5.56215364361793e-06
4.73328290716321e-06
3.60607207477688e-06
2.17361016477457e-06
6.54320854670837e-09
2.49071925599918e-11
2.46157614376022e-11
6.49262089669936e-09
2.16226495934272e-06
3.59083317337382e-06