/*--------------------------------*- C++ -*----------------------------------*\
  =========                 |
  \\      /  F ield         | OpenFOAM: The Open Source CFD Toolbox
   \\    /   O peration     | Website:  https://openfoam.org
    \\  /    A nd           | Version:  10
     \\/     M anipulation  |
\*---------------------------------------------------------------------------*/
FoamFile
{
    format      ascii;
    class       volScalarField;
    location    "5.8";
    object      h;
}
// * * * * * * * * * * * * * * * * * * * * * * * * * * * * * * * * * * * * * //

dimensions      [0 2 -2 0 0 0 0];

internalField   nonuniform List<scalar> 
2500
(
6523.15428665586
6514.74683355108
6500.38615186255
6490.75390543515
6485.28188286563
6482.35044643387
6480.8346419235
6480.0784736746
6479.71706135705
6479.5531667781
6479.48107653838
6479.45093974651
6479.43880501345
6479.43346735495
6479.43087874054
6479.4291782961
6479.42836516215
6479.42754483656
6479.42667559925
6479.42606776922
6479.42554901123
6479.42509811651
6479.424725898
6479.42449601366
6479.4242601213
6479.42405709227
6479.42398087771
6479.42394701755
6479.42396992955
6479.4240675786
6479.42424351371
6479.42457353689
6479.42498168648
6479.42552615098
6479.42626542237
6479.42748993256
6479.42994206177
6479.43533821827
6479.4489843936
6479.48119050885
6479.55651697174
6479.72640344001
6480.09349304465
6480.85250208855
6482.36394750739
6485.27422096606
6490.72566463336
6500.39901707368
6514.89413392368
6523.0301591962
5477.23413257888
5438.83774935281
5397.78089052357
5370.50246895189
5354.49140459272
5345.56031847599
5340.74222462101
5338.23822006128
5336.9939790943
5336.40597883136
5336.14140255928
5336.02827705582
5335.98220489824
5335.96397935463
5335.95684997354
5335.95389637784
5335.95270508511
5335.95199162247
5335.95140373748
5335.95097867377
5335.95061090175
5335.95027173777
5335.94998281879
5335.94979123815
5335.9496212903
5335.94947215497
5335.94939871555
5335.94935154368
5335.94932442883
5335.94935785361
5335.94944417766
5335.94962821094
5335.95001214491
5335.95068829377
5335.95196382359
5335.95503147588
5335.96293679419
5335.9831205524
5336.0336174733
5336.1542316978
5336.43044706471
5337.03436749145
5338.29358367175
5340.80116620537
5345.59555721508
5354.46702503936
5370.43794047109
5397.87617935384
5439.41105892499
5476.90532880699
4443.83280252607
4381.84785363778
4325.64891868755
4289.37264360537
4268.253153167
4256.51192668058
4250.1835848608
4246.89110926715
4245.25060081585
4244.47200915992
4244.12046785421
4243.96960807967
4243.90802348538
4243.88391892386
4243.87479156963
4243.87136434953
4243.87011111828
4243.86954936518
4243.86919078148
4243.86894115618
4243.86871814496
4243.86849411515
4243.8682925021
4243.8681560733
4243.86804827833
4243.86795164048
4243.86789728672
4243.86785327268
4243.86780751043
4243.86779626297
4243.86780244762
4243.86787723323
4243.86821183496
4243.86889839298
4243.8703366813
4243.87413068395
4243.88434537793
4243.91092891505
4243.97754737726
4244.13702915982
4244.5018831312
4245.29806082841
4246.95494789124
4250.25049635685
4256.55136349813
4268.23308035097
4289.34759619052
4325.93873001744
4383.01539196251
4444.56797760664
3562.97159697997
3493.69342993718
3438.63172037645
3404.45090551795
3385.18021880081
3374.7804153989
3369.31920111248
3366.53772041908
3365.17488617846
3364.53646003101
3364.25123564449
3364.12988263963
3364.08072528512
3364.06168149371
3364.05459389033
3364.05204151417
3364.05116767551
3364.05083612764
3364.05066170179
3364.05054614965
3364.0504343293
3364.05030489931
3364.0501773747
3364.05009034965
3364.050029982
3364.04997523387
3364.04994175679
3364.04990904484
3364.04986568649
3364.04984185501
3364.04981884522
3364.04979753598
3364.05000423657
3364.05050340615
3364.05152239294
3364.05433512394
3364.06212380453
3364.08275431517
3364.13510979742
3364.26204249458
3364.55612541325
3365.20671327529
3366.58188396709
3369.36809505104
3374.81571894376
3385.19058808942
3404.52056256412
3439.13036034082
3495.32829073511
3565.17310871641
2899.27220239984
2837.22011210277
2792.59222523528
2765.94871671957
2751.42096860493
2743.81866237708
2739.93091541797
2737.9915704549
2737.05580334096
2736.62216847316
2736.42990528267
2736.34853637595
2736.31571388329
2736.30306582151
2736.2984090585
2736.29678391095
2736.29626558341
2736.29610184816
2736.29603630748
2736.29599938102
2736.29595827803
2736.29589556281
2736.29582308888
2736.29577327108
2736.29574480673
2736.29571910303
2736.29570177573
2736.2956811269
2736.29564925277
2736.29562467331
2736.29559156166
2736.29553460981
2736.29564328616
2736.29594579945
2736.29655571912
2736.2983225017
2736.30332099236
2736.31672692158
2736.35107447935
2736.43512143641
2736.63174053887
2737.07159556361
2738.01406369221
2739.9567583767
2743.83993231994
2751.44149620759
2766.06030726564
2793.14928646617
2838.97027725435
2902.38787331363
2449.70567616378
2402.35936795939
2370.96729755743
2352.90878168141
2343.37512124961
2338.53253244358
2336.11836456964
2334.93731339233
2334.37510504571
2334.11683153424
2334.00290370009
2333.9548180701
2333.93545295378
2333.92800878945
2333.92528935348
2333.92436529724
2333.92409348654
2333.92402620952
2333.924010131
2333.92401040216
2333.92400790221
2333.92398549701
2333.92394871017
2333.92392334536
2333.92391345452
2333.92390441434
2333.92389690861
2333.92388558275
2333.92386574306
2333.92384608762
2333.92381549514
2333.9237593865
2333.92380631161
2333.92396291627
2333.92428396878
2333.92527507831
2333.92812766211
2333.93584340934
2333.95575068665
2334.00477536447
2334.12026121182
2334.38084250263
2334.94554788146
2336.12762270338
2338.53999053879
2343.38944312758
2353.00838539848
2371.44443960543
2403.89107084057
2452.90149101831
2172.38530279654
2140.55728363097
2120.85907196512
2109.91503515738
2104.31065886772
2101.54286804853
2100.19595796552
2099.54889869502
2099.2445696723
2099.10573025548
2099.04468118537
2099.01893393524
2099.00856288447
2099.00457898108
2099.00313297031
2099.00265229204
2099.00252499364
2099.00251086917
2099.00251766851
2099.00252217262
2099.00252697832
2099.0025251169
2099.00250851457
2099.00249736687
2099.00249684651
2099.00249510643
2099.00249248209
2099.00248735005
2099.00247636605
2099.00246290317
2099.00244026965
2099.00239926442
2099.00241363717
2099.00248229708
2099.00263441756
2099.00314475952
2099.00463223542
2099.00867626886
2099.01916162504
2099.04508718681
2099.10643545383
2099.24573143174
2099.55039824331
2100.19688546754
2101.54195489291
2104.31498546567
2109.98016577491
2121.19661046609
2141.70094457024
2175.05614940701
2014.96001011112
1995.69540369619
1984.46276190438
1978.42159087712
1975.41470502637
1973.96831068521
1973.28032023168
1972.95540705772
1972.80424237761
1972.73566269642
1972.70555925857
1972.69285464596
1972.68772954139
1972.68576025676
1972.68504975897
1972.68482085897
1972.68476922135
1972.68477081219
1972.68477956508
1972.68478635957
1972.6847903966
1972.68479172297
1972.68478690681
1972.68478365555
1972.68478617376
1972.68478664412
1972.68478578597
1972.68478356779
1972.68477791945
1972.68476969513
1972.68475543696
1972.68473243103
1972.68473088567
1972.68475358412
1972.68482207631
1972.68506693482
1972.68578705183
1972.68775057786
1972.69285786774
1972.7055107499
1972.7355228572
1972.80395327565
1972.95472379168
1973.27850645448
1973.96434191412
1975.41242216621
1978.45480785616
1984.66814298011
1996.44534426741
2016.87940130097
1932.00144641768
1921.33940393601
1915.4384330926
1912.35963376518
1910.86728707815
1910.16686469084
1909.84081661283
1909.68930970152
1909.61952104114
1909.58800370184
1909.57417747791
1909.56833222199
1909.56596856553
1909.56505963159
1909.56473351044
1909.56463216261
1909.56461340748
1909.56461779054
1909.56462473376
1909.56463016891
1909.56463285331
1909.56463406746
1909.56463383762
1909.56463429072
1909.56463631384
1909.56463727788
1909.56463706812
1909.5646359477
1909.56463318372
1909.56462858754
1909.56462057546
1909.56460857652
1909.56460477225
1909.56461047379
1909.56463785096
1909.56474813022
1909.56507531912
1909.56596907172
1909.56829776727
1909.57406799676
1909.58776131541
1909.61905525396
1909.68839081399
1909.8388598903
1910.162923494
1910.86274148345
1912.37255487099
1915.54861212806
1921.78034310269
1933.22507288221
1891.11686099235
1885.65778311456
1882.77138238574
1881.30755679014
1880.61532314101
1880.29780179462
1880.15298713708
1880.08672865395
1880.05649125367
1880.04288765347
1880.03691876831
1880.03438901469
1880.03336298876
1880.03296805237
1880.03282713816
1880.03278525784
1880.03277930333
1880.0327825575
1880.03278691183
1880.0327903615
1880.03279242473
1880.03279362111
1880.03279403901
1880.03279473538
1880.03279599993
1880.03279673824
1880.03279670474
1880.03279613677
1880.0327948204
1880.03279243807
1880.03278832337
1880.03278246809
1880.03278012896
1880.03278072762
1880.0327902948
1880.03283707235
1880.03297770599
1880.03336251996
1880.03436552663
1880.03684747321
1880.04273029073
1880.05618255075
1880.08610725302
1880.15164255856
1880.29497488377
1880.61115049556
1881.31063822436
1882.82431223326
1885.89388104927
1891.8231829671
1872.15275036845
1869.54303240639
1868.21727340457
1867.56253300934
1867.25996716327
1867.12412766515
1867.06336454029
1867.03597366497
1867.02358398892
1867.01802821836
1867.01558861621
1867.01455152833
1867.01412948808
1867.01396688178
1867.01390919445
1867.01389297769
1867.01389142152
1867.01389320398
1867.01389557458
1867.01389748
1867.01389873121
1867.01389950862
1867.01389992921
1867.01390045668
1867.01390113385
1867.01390155238
1867.01390154749
1867.01390127311
1867.01390066919
1867.01389951274
1867.01389754971
1867.01389484745
1867.01389352624
1867.0138932581
1867.01389643104
1867.01391504774
1867.01397258456
1867.01413041122
1867.01454143374
1867.01555577413
1867.01795357565
1867.02343146325
1867.03564801713
1867.06261195043
1867.12242956844
1867.25705116173
1867.56206856105
1868.24025041108
1869.65954429051
1872.5273633225
1863.8279982993
1862.65443109696
1862.07865694602
1861.80126984681
1861.67581864024
1861.62061421173
1861.59637070212
1861.58559799087
1861.58076658522
1861.57860640868
1861.57765674862
1861.57725168758
1861.57708626272
1861.57702247235
1861.57700001577
1861.57699400297
1861.57699369044
1861.57699463055
1861.57699579971
1861.57699675153
1861.57699741081
1861.57699783972
1861.57699811541
1861.57699842194
1861.57699874719
1861.57699894955
1861.57699894906
1861.57699882356
1861.576998553
1861.57699802315
1861.57699714399
1861.57699595978
1861.57699527419
1861.5769949908
1861.57699598155
1861.57700306549
1861.5770255951
1861.57708760213
1861.57724877917
1861.57764502703
1861.5785780334
1861.58070459337
1861.58545271585
1861.59600150447
1861.61971118853
1861.67408645063
1861.80011113394
1862.08769754845
1862.70792807966
1864.01258118666
1860.3529606577
1859.85344033726
1859.61564452533
1859.50369981077
1859.45408261541
1859.43265417291
1859.42340630281
1859.4193535477
1859.41755094004
1859.41674713657
1859.41639327101
1859.41624180088
1859.41617971646
1859.41615575711
1859.41614740027
1859.41614526103
1859.4161452467
1859.41614569854
1859.41614623099
1859.41614666949
1859.41614698473
1859.41614719719
1859.41614734538
1859.41614749811
1859.41614764172
1859.41614772983
1859.4161477299
1859.41614767496
1859.41614755723
1859.41614732739
1859.41614695525
1859.41614646153
1859.41614613591
1859.41614596241
1859.41614625705
1859.41614885048
1859.4161573335
1859.41618077702
1859.41624154457
1859.41639023858
1859.41673861331
1859.41752985711
1859.41929635885
1859.42324194776
1859.43221645787
1859.45316591516
1859.50277823808
1859.61885415426
1859.87647004213
1860.43819232537
1858.96772883922
1858.76542842697
1858.67158658032
1858.62834645108
1858.60953925964
1858.601557906
1858.59816963639
1858.59670447132
1858.5960580266
1858.59577050118
1858.59564372684
1858.59558926512
1858.59556686093
1858.59555820813
1858.59555521878
1858.59555448613
1858.59555451639
1858.59555471576
1858.59555494204
1858.59555513032
1858.59555526948
1858.59555536595
1858.59555543609
1858.59555550444
1858.59555556351
1858.5955555989
1858.59555559888
1858.59555557583
1858.59555552656
1858.59555543203
1858.59555528253
1858.59555508643
1858.59555494372
1858.59555485739
1858.59555494188
1858.59555585976
1858.5955589441
1858.59556750554
1858.59558961966
1858.59564344103
1858.59576880938
1858.5960522607
1858.59668429022
1858.59810182411
1858.60136092864
1858.60909564972
1858.62779233849
1858.67259670356
1858.77478167703
1859.00487047341
1858.43847060655
1858.3601683408
1858.32463971346
1858.30858948154
1858.30173028749
1858.29886656492
1858.29766952587
1858.29715848506
1858.29693477479
1858.29683551633
1858.29679168193
1858.29677278212
1858.29676497855
1858.29676196188
1858.29676092839
1858.29676068483
1858.29676070655
1858.29676078784
1858.29676087789
1858.29676095348
1858.29676101051
1858.29676105092
1858.29676108095
1858.29676110896
1858.2967611317
1858.29676114491
1858.29676114478
1858.29676113557
1858.29676111596
1858.29676107913
1858.29676102208
1858.29676094794
1858.29676088997
1858.29676085484
1858.29676087922
1858.29676119287
1858.29676228004
1858.29676530989
1858.2967731032
1858.29679195912
1858.29683560018
1858.29693374096
1858.29715206816
1858.29764319658
1858.29878320127
1858.30153067894
1858.30830262836
1858.32490773186
1858.36377078492
1858.45383414304
1858.2440163903
1858.21493901551
1858.20199002136
1858.19624530828
1858.19383013528
1858.19283700997
1858.19242785245
1858.192255292
1858.1921803262
1858.192147143
1858.19213246461
1858.19212611223
1858.19212347905
1858.19212245935
1858.19212211153
1858.19212203143
1858.19212204126
1858.19212207159
1858.19212210482
1858.19212213292
1858.19212215441
1858.19212216986
1858.19212218146
1858.19212219195
1858.19212220005
1858.19212220457
1858.19212220446
1858.19212220101
1858.19212219366
1858.19212218018
1858.19212215966
1858.1921221332
1858.1921221115
1858.19212209818
1858.19212210573
1858.19212221201
1858.19212258582
1858.19212362827
1858.19212629582
1858.19213270874
1858.19214744916
1858.19218039758
1858.19225345861
1858.19241811252
1858.19280350661
1858.19374563642
1858.19611110666
1858.20204019412
1858.21626050533
1858.25007829926
1858.17511374562
1858.16471953328
1858.16016291928
1858.15817448073
1858.15735109037
1858.15701725075
1858.15688155232
1858.15682497696
1858.15680057743
1858.15678980092
1858.15678502527
1858.15678294994
1858.15678208533
1858.15678174901
1858.15678163345
1858.15678160603
1858.15678160874
1858.15678161849
1858.15678162931
1858.15678163852
1858.15678164557
1858.15678165064
1858.15678165446
1858.15678165785
1858.15678166037
1858.15678166171
1858.15678166161
1858.15678166043
1858.15678165794
1858.15678165348
1858.15678164676
1858.15678163818
1858.15678163104
1858.15678162671
1858.15678163016
1858.15678166699
1858.1567817935
1858.15678214386
1858.1567830337
1858.15678515706
1858.15679000131
1858.15680075729
1858.15682451034
1858.15687808079
1858.15700436585
1858.15731714366
1858.15811632844
1858.1601619702
1858.16518290349
1858.17740472107
1858.1515061584
1858.14791895824
1858.14636694907
1858.14569968999
1858.14542721699
1858.14531817323
1858.14527439659
1858.14525633955
1858.14524860461
1858.14524519428
1858.14524367903
1858.1452430167
1858.14524273826
1858.14524262838
1858.14524258938
1858.14524257848
1858.14524257756
1858.14524257951
1858.14524258193
1858.145242584
1858.14524258549
1858.14524258649
1858.14524258722
1858.14524258789
1858.14524258838
1858.14524258862
1858.14524258851
1858.14524258818
1858.14524258754
1858.14524258643
1858.14524258473
1858.14524258259
1858.145242581
1858.14524258057
1858.1452425833
1858.14524259699
1858.14524264002
1858.14524275635
1858.14524304738
1858.14524373451
1858.14524528813
1858.14524871152
1858.14525623337
1858.14527319054
1858.14531340059
1858.14541418625
1858.14567600364
1858.14635969572
1858.14807473359
1858.15233845762
1858.14366688684
1858.1424685848
1858.14195579815
1858.14173825911
1858.1416505537
1858.14161587028
1858.1416021026
1858.14159647808
1858.14159408248
1858.14159302651
1858.14159255476
1858.14159234609
1858.1415922564
1858.14159221938
1858.14159220474
1858.14159219911
1858.14159219688
1858.14159219581
1858.14159219516
1858.1415921946
1858.14159219406
1858.14159219353
1858.14159219309
1858.14159219278
1858.14159219256
1858.1415921924
1858.14159219229
1858.14159219228
1858.14159219233
1858.14159219241
1858.14159219248
1858.1415921926
1858.14159219309
1858.14159219422
1858.14159219665
1858.1415922028
1858.14159221856
1858.14159225791
1858.14159235269
1858.14159257182
1858.14159306052
1858.14159412651
1858.14159645297
1858.1416016878
1858.14161415676
1858.14164574711
1858.14172909983
1858.14195092998
1858.14251891823
1858.14395845367
1858.14113864953
1858.14075031616
1858.14058566852
1858.14051664475
1858.14048913415
1858.14047837107
1858.14047414046
1858.14047242541
1858.14047169703
1858.14047137443
1858.14047122811
1858.14047116134
1858.14047113084
1858.14047111663
1858.14047110955
1858.14047110551
1858.14047110278
1858.14047110068
1858.14047109894
1858.14047109746
1858.14047109619
1858.14047109511
1858.14047109424
1858.14047109358
1858.14047109312
1858.14047109283
1858.14047109273
1858.14047109284
1858.14047109313
1858.14047109362
1858.1404710943
1858.1404710952
1858.14047109643
1858.1404710981
1858.14047110045
1858.14047110424
1858.14047111131
1858.140471126
1858.14047115809
1858.14047122856
1858.14047138123
1858.14047170831
1858.14047241422
1858.14047399502
1858.14047776942
1858.14048742074
1858.14051325728
1858.1405832566
1858.14076597848
1858.14123740827
1858.1403452368
1858.14022291479
1858.14017147601
1858.1401501361
1858.14014171493
1858.14013844997
1858.14013717589
1858.14013666097
1858.14013644101
1858.14013634151
1858.1401362943
1858.14013627086
1858.14013625847
1858.14013625124
1858.14013624645
1858.14013624286
1858.14013623995
1858.14013623749
1858.14013623538
1858.14013623358
1858.14013623205
1858.14013623077
1858.14013622975
1858.14013622897
1858.14013622842
1858.1401362281
1858.14013622801
1858.14013622815
1858.14013622853
1858.14013622916
1858.14013623005
1858.14013623121
1858.1401362327
1858.14013623457
1858.14013623692
1858.14013623998
1858.14013624434
1858.14013625133
1858.14013626388
1858.14013628825
1858.14013633737
1858.14013643827
1858.14013665069
1858.14013712042
1858.14013823949
1858.14014111993
1858.14014892996
1858.14017043977
1858.14022761439
1858.14037765669
1858.14010254031
1858.1400650369
1858.14004940262
1858.14004297505
1858.14004045746
1858.14003948685
1858.14003910837
1858.14003895373
1858.14003888547
1858.14003885239
1858.14003883471
1858.14003882422
1858.14003881726
1858.14003881212
1858.140038808
1858.14003880454
1858.14003880155
1858.14003879897
1858.14003879673
1858.14003879481
1858.14003879319
1858.14003879184
1858.14003879076
1858.14003878994
1858.14003878936
1858.14003878903
1858.14003878894
1858.1400387891
1858.14003878951
1858.1400387902
1858.14003879116
1858.14003879241
1858.140038794
1858.14003879594
1858.14003879829
1858.14003880114
1858.14003880468
1858.14003880932
1858.14003881592
1858.14003882631
1858.14003884422
1858.14003887739
1858.14003894289
1858.14003908252
1858.14003941002
1858.14004025276
1858.1400425582
1858.14004899497
1858.14006639668
1858.14011287457
1858.14003006561
1858.14001887256
1858.14001427085
1858.14001239317
1858.14001165881
1858.14001137459
1858.1400112616
1858.14001121291
1858.14001118901
1858.14001117533
1858.14001116629
1858.14001115959
1858.14001115422
1858.1400111497
1858.14001114577
1858.14001114234
1858.14001113933
1858.1400111367
1858.14001113442
1858.14001113246
1858.1400111308
1858.14001112943
1858.14001112833
1858.14001112749
1858.1400111269
1858.14001112657
1858.14001112648
1858.14001112665
1858.14001112708
1858.14001112778
1858.14001112877
1858.14001113006
1858.14001113168
1858.14001113366
1858.14001113602
1858.14001113881
1858.1400111421
1858.14001114603
1858.14001115085
1858.14001115709
1858.14001116578
1858.14001117909
1858.14001120174
1858.1400112454
1858.14001134222
1858.14001158601
1858.1400122511
1858.14001411963
1858.1400192505
1858.14003326805
1858.14000890729
1858.14000566847
1858.14000438395
1858.14000386257
1858.14000365504
1858.14000357184
1858.14000353597
1858.14000351785
1858.14000350668
1858.14000349856
1858.14000349201
1858.14000348642
1858.14000348151
1858.14000347717
1858.14000347331
1858.14000346988
1858.14000346686
1858.14000346422
1858.14000346192
1858.14000345995
1858.14000345828
1858.1400034569
1858.14000345579
1858.14000345495
1858.14000345436
1858.14000345403
1858.14000345394
1858.14000345412
1858.14000345455
1858.14000345526
1858.14000345626
1858.14000345757
1858.1400034592
1858.14000346119
1858.14000346356
1858.14000346633
1858.14000346955
1858.14000347327
1858.14000347756
1858.14000348258
1858.1400034886
1858.14000349619
1858.14000350659
1858.14000352291
1858.14000355392
1858.14000362554
1858.14000381293
1858.14000432961
1858.14000576765
1858.1400098712
1858.14000286093
1858.14000196967
1858.14000165972
1858.1400015338
1858.14000147865
1858.14000145312
1858.14000143921
1858.14000142973
1858.14000142216
1858.14000141561
1858.14000140976
1858.14000140449
1858.14000139973
1858.14000139544
1858.1400013916
1858.14000138818
1858.14000138517
1858.14000138252
1858.14000138022
1858.14000137825
1858.14000137658
1858.1400013752
1858.14000137409
1858.14000137325
1858.14000137266
1858.14000137233
1858.14000137225
1858.14000137243
1858.14000137287
1858.14000137358
1858.14000137459
1858.1400013759
1858.14000137754
1858.14000137953
1858.14000138189
1858.14000138466
1858.14000138786
1858.14000139151
1858.14000139565
1858.14000140031
1858.14000140557
1858.14000141154
1858.1400014185
1858.1400014272
1858.14000143984
1858.14000146303
1858.14000151434
1858.14000163994
1858.14000199243
1858.14000314063
1858.14000116796
1858.14000095408
1858.14000092417
1858.14000091107
1858.14000089903
1858.14000088968
1858.14000088186
1858.14000087475
1858.14000086815
1858.14000086204
1858.14000085639
1858.14000085121
1858.14000084649
1858.14000084223
1858.14000083841
1858.140000835
1858.14000083199
1858.14000082936
1858.14000082707
1858.1400008251
1858.14000082344
1858.14000082207
1858.14000082097
1858.14000082013
1858.14000081955
1858.14000081922
1858.14000081914
1858.14000081932
1858.14000081976
1858.14000082048
1858.14000082148
1858.14000082279
1858.14000082443
1858.14000082642
1858.14000082878
1858.14000083154
1858.14000083472
1858.14000083835
1858.14000084244
1858.140000847
1858.14000085205
1858.14000085758
1858.14000086362
1858.14000087026
1858.14000087792
1858.14000088782
1858.14000090125
1858.14000091622
1858.14000095668
1858.14000124372
1858.14000070347
1858.14000068096
1858.14000072973
1858.14000074801
1858.14000074781
1858.1400007428
1858.14000073656
1858.14000073004
1858.14000072367
1858.14000071765
1858.14000071205
1858.14000070689
1858.1400007022
1858.14000069796
1858.14000069415
1858.14000069077
1858.14000068778
1858.14000068516
1858.14000068288
1858.14000068093
1858.14000067928
1858.14000067792
1858.14000067683
1858.140000676
1858.14000067542
1858.1400006751
1858.14000067503
1858.14000067521
1858.14000067565
1858.14000067637
1858.14000067737
1858.14000067868
1858.14000068031
1858.14000068229
1858.14000068464
1858.14000068739
1858.14000069056
1858.14000069417
1858.14000069824
1858.14000070278
1858.14000070778
1858.14000071321
1858.14000071905
1858.1400007252
1858.14000073161
1858.14000073804
1858.14000074127
1858.14000072576
1858.14000067854
1858.14000071993
1858.1400005791
1858.14000060961
1858.14000067985
1858.14000070646
1858.14000070925
1858.14000070524
1858.1400006993
1858.14000069284
1858.14000068647
1858.14000068044
1858.14000067483
1858.14000066969
1858.14000066501
1858.14000066079
1858.14000065701
1858.14000065365
1858.14000065068
1858.14000064809
1858.14000064583
1858.1400006439
1858.14000064227
1858.14000064092
1858.14000063985
1858.14000063903
1858.14000063846
1858.14000063815
1858.14000063807
1858.14000063826
1858.1400006387
1858.14000063941
1858.14000064041
1858.14000064171
1858.14000064333
1858.14000064529
1858.14000064763
1858.14000065036
1858.14000065352
1858.14000065712
1858.14000066118
1858.14000066572
1858.14000067072
1858.14000067617
1858.14000068201
1858.14000068814
1858.14000069435
1858.14000070005
1858.14000070079
1858.14000067727
1858.1400006061
1858.14000057879
1858.14000054739
1858.14000059234
1858.14000066805
1858.14000069652
1858.14000069979
1858.1400006958
1858.14000068975
1858.14000068319
1858.14000067673
1858.14000067065
1858.14000066502
1858.14000065987
1858.14000065521
1858.14000065101
1858.14000064726
1858.14000064393
1858.140000641
1858.14000063844
1858.14000063622
1858.14000063431
1858.1400006327
1858.14000063138
1858.14000063032
1858.14000062951
1858.14000062896
1858.14000062865
1858.14000062858
1858.14000062877
1858.14000062921
1858.14000062991
1858.1400006309
1858.14000063218
1858.14000063379
1858.14000063574
1858.14000063805
1858.14000064077
1858.1400006439
1858.14000064749
1858.14000065155
1858.14000065609
1858.14000066112
1858.14000066663
1858.14000067256
1858.14000067881
1858.14000068515
1858.14000069091
1858.14000069132
1858.14000066606
1858.14000058874
1858.14000054254
1858.14000054071
1858.14000058957
1858.14000066629
1858.14000069474
1858.14000069772
1858.14000069342
1858.14000068712
1858.14000068036
1858.14000067378
1858.14000066762
1858.14000066196
1858.14000065681
1858.14000065217
1858.140000648
1858.14000064429
1858.140000641
1858.14000063811
1858.14000063558
1858.1400006334
1858.14000063152
1858.14000062995
1858.14000062865
1858.14000062761
1858.14000062682
1858.14000062628
1858.14000062598
1858.14000062592
1858.1400006261
1858.14000062654
1858.14000062723
1858.14000062821
1858.14000062948
1858.14000063106
1858.14000063298
1858.14000063528
1858.14000063796
1858.14000064108
1858.14000064465
1858.1400006487
1858.14000065325
1858.14000065832
1858.14000066391
1858.14000066997
1858.14000067641
1858.14000068303
1858.14000068912
1858.14000068986
1858.14000066465
1858.14000058613
1858.14000053479
1858.14000054098
1858.14000059089
1858.14000066731
1858.14000069512
1858.1400006975
1858.14000069274
1858.1400006861
1858.1400006791
1858.14000067236
1858.14000066611
1858.14000066041
1858.14000065526
1858.14000065064
1858.14000064651
1858.14000064284
1858.1400006396
1858.14000063676
1858.14000063428
1858.14000063214
1858.14000063031
1858.14000062876
1858.14000062749
1858.14000062648
1858.14000062571
1858.14000062519
1858.1400006249
1858.14000062484
1858.14000062502
1858.14000062545
1858.14000062614
1858.1400006271
1858.14000062834
1858.1400006299
1858.1400006318
1858.14000063406
1858.14000063671
1858.1400006398
1858.14000064334
1858.14000064738
1858.14000065195
1858.14000065707
1858.14000066275
1858.14000066898
1858.14000067567
1858.14000068263
1858.14000068919
1858.14000069054
1858.14000066598
1858.1400005877
1858.14000053494
1858.14000054346
1858.14000059368
1858.14000066931
1858.14000069615
1858.14000069775
1858.14000069241
1858.14000068534
1858.14000067806
1858.14000067115
1858.1400006648
1858.14000065906
1858.14000065391
1858.14000064931
1858.14000064522
1858.14000064161
1858.14000063843
1858.14000063565
1858.14000063322
1858.14000063113
1858.14000062935
1858.14000062785
1858.14000062661
1858.14000062563
1858.14000062488
1858.14000062437
1858.14000062409
1858.14000062404
1858.14000062422
1858.14000062465
1858.14000062532
1858.14000062626
1858.14000062748
1858.14000062901
1858.14000063087
1858.14000063309
1858.14000063571
1858.14000063875
1858.14000064227
1858.1400006463
1858.14000065088
1858.14000065605
1858.14000066183
1858.14000066824
1858.14000067522
1858.14000068261
1858.14000068975
1858.14000069189
1858.14000066828
1858.14000059075
1858.14000053759
1858.14000054703
1858.14000059731
1858.14000067184
1858.14000069748
1858.14000069811
1858.14000069207
1858.14000068452
1858.14000067691
1858.1400006698
1858.14000066335
1858.14000065757
1858.14000065243
1858.14000064787
1858.14000064384
1858.14000064029
1858.14000063718
1858.14000063446
1858.1400006321
1858.14000063007
1858.14000062833
1858.14000062688
1858.14000062568
1858.14000062473
1858.14000062402
1858.14000062353
1858.14000062326
1858.14000062321
1858.14000062339
1858.14000062381
1858.14000062446
1858.14000062538
1858.14000062657
1858.14000062806
1858.14000062988
1858.14000063206
1858.14000063462
1858.14000063763
1858.14000064111
1858.14000064511
1858.1400006497
1858.14000065491
1858.14000066082
1858.14000066743
1858.14000067473
1858.1400006826
1858.14000069045
1858.14000069355
1858.14000067115
1858.14000059468
1858.14000054139
1858.14000055147
1858.14000060172
1858.14000067486
1858.140000699
1858.14000069847
1858.14000069161
1858.14000068351
1858.14000067555
1858.14000066823
1858.14000066167
1858.14000065587
1858.14000065074
1858.14000064623
1858.14000064227
1858.1400006388
1858.14000063576
1858.14000063312
1858.14000063084
1858.14000062887
1858.1400006272
1858.14000062579
1858.14000062464
1858.14000062373
1858.14000062304
1858.14000062257
1858.14000062231
1858.14000062227
1858.14000062245
1858.14000062285
1858.14000062349
1858.14000062438
1858.14000062554
1858.14000062699
1858.14000062876
1858.14000063089
1858.1400006334
1858.14000063634
1858.14000063978
1858.14000064375
1858.14000064833
1858.14000065359
1858.1400006596
1858.14000066643
1858.14000067409
1858.14000068252
1858.14000069118
1858.14000069544
1858.14000067452
1858.1400005994
1858.14000054611
1858.14000055687
1858.140000607
1858.14000067838
1858.14000070069
1858.14000069879
1858.14000069099
1858.14000068228
1858.14000067394
1858.1400006664
1858.14000065975
1858.14000065392
1858.14000064883
1858.14000064439
1858.14000064051
1858.14000063712
1858.14000063418
1858.14000063163
1858.14000062942
1858.14000062753
1858.14000062592
1858.14000062458
1858.14000062348
1858.1400006226
1858.14000062194
1858.1400006215
1858.14000062126
1858.14000062122
1858.14000062139
1858.14000062179
1858.14000062241
1858.14000062327
1858.14000062439
1858.14000062579
1858.14000062751
1858.14000062957
1858.14000063201
1858.14000063489