/*--------------------------------*- C++ -*----------------------------------*\
  =========                 |
  \\      /  F ield         | OpenFOAM: The Open Source CFD Toolbox
   \\    /   O peration     | Website:  https://openfoam.org
    \\  /    A nd           | Version:  10
     \\/     M anipulation  |
\*---------------------------------------------------------------------------*/
FoamFile
{
    format      ascii;
    class       volScalarField;
    location    "5.8";
    object      k;
}
// * * * * * * * * * * * * * * * * * * * * * * * * * * * * * * * * * * * * * //

dimensions      [0 2 -2 0 0 0 0];

internalField   nonuniform List<scalar> 
2500
(
1.12662577666759e-09
2.204702977587e-08
9.36763800311835e-08
1.60712080476565e-07
2.16058178156598e-07
2.57905596053155e-07
2.8701686061825e-07
3.05710458914962e-07
3.1683017250975e-07
3.22980194837222e-07
3.26154777001109e-07
3.27689920309641e-07
3.28387877964122e-07
3.28687237547096e-07
3.28808720470336e-07
3.28855467211175e-07
3.28872532132072e-07
3.28878418669811e-07
3.28880305444243e-07
3.28880833986449e-07
3.2888092968302e-07
3.28880901583473e-07
3.28880847556323e-07
3.28880797898138e-07
3.28880760090778e-07
3.28880736715877e-07
3.28880729036974e-07
3.28880729704298e-07
3.28880719284024e-07
3.28880657479089e-07
3.28880403904881e-07
3.28879543767358e-07
3.28876896405988e-07
3.28869240316596e-07
3.28848189198436e-07
3.28792958600071e-07
3.28654691135243e-07
3.28324951022021e-07
3.27577746119256e-07
3.25973677732898e-07
3.22722323036018e-07
3.16522216968151e-07
3.05441131715389e-07
2.86951699905437e-07
2.58261159943625e-07
2.17011570710762e-07
1.62246206433668e-07
9.53794888092166e-08
2.27939577887257e-08
1.18976638825913e-09
2.76914700451906e-08
6.3173576217325e-07
2.74037410612276e-06
4.70593334680885e-06
6.33311514270612e-06
7.5686178978506e-06
8.43262387767768e-06
8.99083532200294e-06
9.32513985960635e-06
9.51138714528704e-06
9.60826466608959e-06
9.65548334837848e-06
9.67712470981898e-06
9.6864822531183e-06
9.69031062369314e-06
9.69179587844598e-06
9.69234264668043e-06
9.69253300329393e-06
9.69259476093748e-06
9.692612464999e-06
9.69261597846539e-06
9.69261535865865e-06
9.69261381651542e-06
9.69261236375066e-06
9.69261125055169e-06
9.69261056061554e-06
9.69261032902304e-06
9.69261033615929e-06
9.69260994670638e-06
9.692607791162e-06
9.69259937261696e-06
9.69257131082574e-06
9.69248579231841e-06
9.69224044542266e-06
9.69157076979719e-06
9.6898262925532e-06
9.68549015386345e-06
9.67522344831001e-06
9.6521261812999e-06
9.60289948773749e-06
9.5038332036873e-06
9.31624332553821e-06
8.9832363648788e-06
8.43112743484797e-06
7.57938874332768e-06
6.36105922822837e-06
4.75032529834997e-06
2.78927280177363e-06
6.52624171140497e-07
2.91767370499946e-08
9.75644431350629e-08
2.8182637551401e-06
1.38137578921104e-05
2.3652696070919e-05
3.17384361430827e-05
3.78583583426565e-05
4.2135540150083e-05
4.49031772353728e-05
4.65660259688992e-05
4.74965683278185e-05
4.79831734409347e-05
4.8221747532827e-05
4.83317779056649e-05
4.83796649623896e-05
4.83993882596651e-05
4.84070930938779e-05
4.84099501670041e-05
4.84109530449987e-05
4.84112820086938e-05
4.84113782936205e-05
4.84113988704739e-05
4.84113970058193e-05
4.84113899199227e-05
4.84113830025071e-05
4.84113776429898e-05
4.84113742876646e-05
4.84113731010882e-05
4.84113729915524e-05
4.84113706664777e-05
4.84113587606828e-05
4.84113139508201e-05
4.84111666103043e-05
4.84107209413884e-05
4.84094494889084e-05
4.84059961199348e-05
4.83970426487469e-05
4.8374891911508e-05
4.83226928710147e-05
4.82058156128538e-05
4.79578869849218e-05
4.74612085212158e-05
4.65246654394799e-05
4.48681234233787e-05
4.21289199372301e-05
3.79083882846114e-05
3.18675321846897e-05
2.38574876501808e-05
1.40391448549149e-05
2.9023071535593e-06
1.01947288842456e-07
1.71588140832722e-07
4.99111330015485e-06
2.45042247153412e-05
4.17516651821497e-05
5.58145422394413e-05
6.63999463053179e-05
7.3772227206558e-05
7.85339567667017e-05
8.13934511582182e-05
8.29943917407601e-05
8.3832539444707e-05
8.42441515673373e-05
8.44343723943432e-05
8.45173518024406e-05
8.45516166585574e-05
8.4565040103606e-05
8.4570033610259e-05
8.4571793141075e-05
8.45723734461718e-05
8.45725450902741e-05
8.45725830082264e-05
8.4572580894231e-05
8.45725694635818e-05
8.45725579684297e-05
8.45725489732981e-05
8.45725432587652e-05
8.45725410651436e-05
8.4572540586899e-05
8.4572536591044e-05
8.45725162830725e-05
8.45724398128607e-05
8.45721886809114e-05
8.45714285435376e-05
8.45692574618923e-05
8.45633533192584e-05
8.45480275882984e-05
8.45100714392658e-05
8.44205440856923e-05
8.4219932537503e-05
8.37941094018783e-05
8.29405662072981e-05
8.13301169093014e-05
7.84791361577247e-05
7.37583988367583e-05
6.64685736625532e-05
5.59985664795353e-05
4.20457927248647e-05
2.48265972944225e-05
5.10948896006906e-06
1.77667432290908e-07
2.43203524754624e-07
7.0785079927153e-06
3.46254024160753e-05
5.87372575404742e-05
7.82698233006609e-05
9.29059074115714e-05
0.000103070412157884
0.000109626059110713
0.00011356129912042
0.000115765417332159
0.000116920497397061
0.000117488565294771
0.000117751553967504
0.00011786651169895
0.00011791409103152
0.000117932778765306
0.000117939751262139
0.000117942217180274
0.000117943034877442
0.000117943279417584
0.000117943335279116
0.000117943334053964
0.000117943319493061
0.000117943304367162
0.000117943292381428
0.000117943284602326
0.00011794328113108
0.000117943279794528
0.000117943274333386
0.000117943246724487
0.000117943142312566
0.00011794280003411
0.000117941763599596
0.000117938800166381
0.000117930730835803
0.00011790975751829
0.000117857751254107
0.00011773495079625
0.000117459522840696
0.000116874420845595
0.000115700768587538
0.000113484757490425
0.000109558375860938
0.000103049045356006
9.29786361563508e-05
7.84744867839949e-05
5.90674956410078e-05
3.49875893984346e-05
7.21261874001983e-06
2.50193419676532e-07
3.10270148553584e-07
9.03307339536605e-06
4.40112692880357e-05
7.43685058773789e-05
9.88255081332006e-05
0.000117082812165969
0.000129733122367916
0.000137882841355034
0.000142773887883618
0.000145514591067074
0.000146952243458891
0.000147660226031841
0.000147988527171631
0.000148132307928983
0.000148191945172341
0.000148215426103481
0.000148224211905147
0.000148227330343487
0.000148228370081911
0.000148228684602798
0.000148228758945078
0.000148228759890542
0.00014822874341013
0.000148228725652843
0.000148228711363923
0.000148228701860651
0.000148228697100199
0.000148228694858876
0.000148228687712159
0.000148228653143213
0.000148228523985214
0.000148228101822613
0.000148226823874392
0.000148223167337712
0.000148213200164514
0.000148187264595967
0.000148122883597433
0.000147970713471915
0.000147629120244481
0.000146902929038625
0.000145445332055482
0.000142691489635109
0.000137808673839853
0.000129705740347049
0.000117151245186352
9.90283911217872e-05
7.4699276337893e-05
4.43758997789014e-05
9.17110208767308e-06
3.17660672176623e-07
3.71581235189296e-07
1.08220905104909e-05
5.2540832095302e-05
8.84804777097962e-05
0.0001173008788352
0.000138748972447972
0.000153582909547918
0.000163131363096586
0.000168861405178556
0.000172073824806602
0.000173760478720647
0.000174592131428469
0.00017497837243443
0.000175147829189713
0.000175218258274785
0.00017524605203154
0.000175256479739536
0.000175260193917791
0.000175261439004353
0.000175261819965687
0.000175261913140808
0.000175261917515907
0.000175261900316086
0.000175261880905818
0.000175261864993035
0.000175261854128135
0.000175261848208466
0.000175261844843498
0.000175261835588156
0.000175261794432803
0.000175261643345191
0.000175261151532081
0.000175259664188806
0.00017525540711705
0.000175243793425234
0.000175213544287411
0.000175138384087668
0.000174960582308794
0.000174561149578639
0.000173711453476916
0.000172005020369344
0.00016877938708205
0.000163056741123807
0.000153552692984003
0.00013880992449721
0.000117489517534925
8.87904852693105e-05
5.28850766395591e-05
1.09566342313396e-05
3.79034088377265e-07
4.26396605093404e-07
1.24244435408753e-05
6.01389111940832e-05
0.000100981895310134
0.000133607743415891
0.000157826678529608
0.000174552807340625
0.000185312729995664
0.000191770003686695
0.000195392012771665
0.000197295413333305
0.000198235051314018
0.000198672067977192
0.000198864118902905
0.000198944088630896
0.000198975715354165
0.000198987611495074
0.000198991862917467
0.000198993295614773
0.000198993738845619
0.000198993850912945
0.000198993859868642
0.000198993843030361
0.000198993822860099
0.00019899380595047
0.000198993794072434
0.000198993787088658
0.000198993782404647
0.000198993770772363
0.000198993723343729
0.000198993552787052
0.000198993000653729
0.000198991333501237
0.000198986561726275
0.00019897353588567
0.000198939581280203
0.000198855144799911
0.000198655247672851
0.000198205882145533
0.000197249436710303
0.000195327723449313
0.000191693610130223
0.00018524331154612
0.000174524219423444
0.000157881186385461
0.000133777783148421
0.00010126132645904
6.04511973220386e-05
1.25513540418077e-05
4.3369994338623e-07
4.74357836264712e-07
1.38295361176742e-05
6.67747882505544e-05
0.00011185047423148
0.000147742804004947
0.000174332581054389
0.000192675576036789
0.00020447074755276
0.000211550165657443
0.000215523260500645
0.000217612934447086
0.000218645669644946
0.000219126621482183
0.000219338303217104
0.000219426600527963
0.000219461590443549
0.000219474783144095
0.000219479512887495
0.000219481114800542
0.00021948161557178
0.000219481746268738
0.000219481760756047
0.000219481745138799
0.000219481724970073
0.000219481707608186
0.000219481695032547
0.000219481687082416
0.000219481680975776
0.000219481666814422
0.000219481613407564
0.000219481425588674
0.000219480821639989
0.000219479001738963
0.00021947379404983
0.00021945957207616
0.000219422474810577
0.000219330158523062
0.000219111463667947
0.000218619561525816
0.000217572082590205
0.000215466636122336
0.000211483692492506
0.000204411685139951
0.000192653842837239
0.000174384740676939
0.000147895995033685
0.000112098233420309
6.70520738693325e-05
1.39471366512642e-05
4.81399000933137e-07
5.15442140470123e-07
1.50362531854197e-05
7.24580371980984e-05
0.000121124773039226
0.000159776427919841
0.000188364503831081
0.000208069398635837
0.000220737019183003
0.000228341492272607
0.000232611519247157
0.000234859165348719
0.000235971108671364
0.000236489578893029
0.000236718093497711
0.000236813564357167
0.000236851466552925
0.000236865789009631
0.000236870939001384
0.000236872691504504
0.000236873244611955
0.00023687339339636
0.000236873414203848
0.00023687340030618
0.000236873380741463
0.000236873363374029
0.000236873350373436
0.000236873341565506
0.000236873334010096
0.000236873317274832
0.000236873258216446
0.000236873055183945
0.000236872407154496
0.000236870459020811
0.000236864886859802
0.000236849665148611
0.000236809938580318
0.000236711020431385
0.000236476554660891
0.000235948922445578
0.000234824904520408
0.00023256487258031
0.000228288298146766
0.000220692779288688
0.000208059930331186
0.000188420246513723
0.000159918589582553
0.000121345790566834
7.27033126667243e-05
1.51446776902247e-05
5.22184586954623e-07
5.49909139161437e-07
1.60515461361266e-05
7.7232060621468e-05
0.00012889322355373
0.000169838484759264
0.000200085287948294
0.000220920571749027
0.000234312999381694
0.000242354415046646
0.000246872119780282
0.000249251910401973
0.000250430331452618
0.000250980407753137
0.000251223161515237
0.000251324728572384
0.000251365118604871
0.000251380412184545
0.000251385926396014
0.000251387811066807
0.000251388411055906
0.000251388576887484
0.00025138860416777
0.000251388592734048
0.000251388574229157
0.000251388557202257
0.00025138854400363
0.000251388534455826
0.000251388525489644
0.000251388506227605
0.000251388441909533
0.000251388225601879
0.000251387540489215
0.000251385486076395
0.000251379613319848
0.000251363567727437
0.000251321672684396
0.000251217302979204
0.000250969797732157
0.000250412591284786
0.000249225166735924
0.00024683699502167
0.000242316928517217
0.000234287185797006
0.000220928410267963
0.000200151227686457
0.000169977612049322
0.00012909598899797
7.74520855691864e-05
1.61521376264107e-05
5.5637058759977e-07
5.78237043482858e-07
1.68886778527406e-05
8.11662061213554e-05
0.000135281524858993
0.000178102538158862
0.000209704987575844
0.000231464522415558
0.000245450339294596
0.00025385017128563
0.000258571550906883
0.000261060333148096
0.000262293771215747
0.000262870104159783
0.000263124736684362
0.000263231412975666
0.000263273898980239
0.000263290015807522
0.000263295841300457
0.000263297840331371
0.000263298481758419
0.000263298663271176
0.0002632986970264
0.000263298688401599
0.000263298671261597
0.000263298654825771
0.000263298641612083
0.000263298631448161
0.000263298621160134
0.000263298599499143
0.000263298530386347
0.000263298302645592
0.000263297586728448
0.000263295445432789
0.000263289328312794
0.000263272613722606
0.000263228956849645
0.000263120152953206
0.000262862029258188
0.000262280715079126
0.000261041563115063
0.000258548797200654
0.00025382991501638
0.000245445560747248
0.000231493884962591
0.000209787446547671
0.000178247191193031
0.000135475986061989
8.13695624621005e-05
1.69834524895348e-05
5.84469166983704e-07
6.01053907655179e-07
1.75653056321488e-05
8.43473843889297e-05
0.000140439659335361
0.000184769809272669
0.000217462922154793
0.000239966710739635
0.000254431120265862
0.00026312066108433
0.000268007112668558
0.000270584504099108
0.000271862827324431
0.000272460664589959
0.000272725067256345
0.000272835965490596
0.000272880192567796
0.000272896997489074
0.000272903085260457
0.000272905181812477
0.000272905859347515
0.000272906055030856
0.000272906094969938
0.000272906089260765
0.000272906073661346
0.000272906057981604
0.000272906044894487
0.000272906034238785
0.000272906022756271
0.000272905998891887
0.000272905925509943
0.000272905688073941
0.000272904946922848
0.000272902735626747
0.000272896422826794
0.000272879173281199
0.000272834106999731
0.000272721752302895
0.000272455116319312
0.000271854457648127
0.000270573767821858
0.000267996968562937
0.000263118306551418
0.00025444892874679
0.000240020674951906
0.000217567203842787
0.000184927875940017
0.000140635582102919
8.45429237538992e-05
1.76565070749843e-05
6.07124738874055e-07
6.19070908640801e-07
1.81016007732445e-05
8.68720119890959e-05
0.000144529652740456
0.000190054195536349
0.000223610969700175
0.000246704870905048
0.000261549472332164
0.000270469710056393
0.000275487983895265
0.000278136366110835
0.000279450779815352
0.000280065976460774
0.000280338300172962
0.000280452637495174
0.000280498290295844
0.000280515662171579
0.00028052196777054
0.000280524146263064
0.000280524854750366
0.000280525062951171
0.000280525108620526
0.000280525105827862
0.000280525091841016
0.000280525077011835
0.000280525064157509
0.000280525053132381
0.00028052504061083
0.000280525014790346
0.000280524937702801
0.00028052469218833
0.000280523930678887
0.000280521663840972
0.00028051519677578
0.000280497526182105
0.000280451350270309
0.000280336197415902
0.000280062846513361
0.000279446913978189
0.000278133403674468
0.000275490174376265
0.00027048516774144
0.000261590383055278
0.000246785221200101
0.000223740908982061
0.000190232064284903
0.000144735481329452
8.70677401217459e-05
1.81913645650982e-05
6.25050990802151e-07
6.33023481667784e-07
1.85185716670181e-05
8.88389190014896e-05
0.000147714944363829
0.00019416934122458
0.000228399184220707
0.000251953733201262
0.000267095759791977
0.000276196944322521
0.000281318924636435
0.000284023345333256
0.000285366354249824
0.000285995360941148
0.000286274013887169
0.000286391112346672
0.000286437915905679
0.000286455748226012
0.00028646223212433
0.000286464478449307
0.000286465213038818
0.000286465432082842
0.000286465482933187
0.000286465482932536
0.000286465470543188
0.00028646545660207
0.000286465444056908
0.000286465432779429
0.000286465419391522
0.000286465391894812
0.000286465311676695
0.000286465059560374
0.000286464281894119
0.000286461971687793
0.00028645538495525
0.000286437388313903
0.000286390352949388
0.000286273030899738
0.000285994469242124
0.000285366673671005
0.000284027654231046
0.000281332768188183
0.000276229486139798
0.000267159348686637
0.00025206096267903
0.000228556965660927
0.000194371470456737
0.000147937147076977
8.90413129099428e-05
1.86087058931986e-05
6.3897624493093e-07
6.43624103139416e-07
1.88367016036931e-05
9.03436312458009e-05
0.00015015191114528
0.000197318384273347
0.000232064418155117
0.000255972948510604
0.000271344082930799
0.000280585044297084
0.000285787390242782
0.000288535390122413
0.000289900722151737
0.000290540554694326
0.000290824191482935
0.000290943474725905
0.000290991193723928
0.00029100939460182
0.000291016022329346
0.000291018323977854
0.000291019080234971
0.000291019308503275
0.000291019363927064
0.000291019366501352
0.000291019355631767
0.000291019342574552
0.000291019330390948
0.000291019318971012
0.000291019304896422
0.0002910192760173
0.000291019193230632
0.000291018935833922
0.000291018145571804
0.000291015802067845
0.000291009124042888
0.000290990879098495
0.000290943189080158
0.00029082421329173
0.000290541675140684
0.000289904818420243
0.000288546300911213
0.000285811910661754
0.000280633449050696
0.000271429146091063
0.000256106391039402
0.000232250623556024
0.000197547214339233
0.000150394748820727
9.05573414944471e-05
1.89285756646834e-05
6.49600339814599e-07
6.51528332460098e-07
1.90749524584309e-05
9.14742063917016e-05
0.000151983768196132
0.000199686628207056
0.000234822220565808
0.000258998504173589
0.000274543398458871
0.000283890689054208
0.000289154374584953
0.00029193575866538
0.000293318259537535
0.000293966453942885
0.00029425395791252
0.000294374944810302
0.000294423381525303
0.000294441873153059
0.0002944486152209
0.00029445096132401
0.000294451735285151
0.00029445197126163
0.000294452030638984
0.000294452035529576
0.000294452026059679
0.000294452013853424
0.000294452002065307
0.000294451990603293
0.000294451976019315
0.000294451946048662
0.000294451861222116
0.000294451599702446
0.000294450799810324
0.000294448431193933
0.000294441684723629
0.000294423253910099
0.000294375073704999
0.000294254858495404
0.000293969337007168
0.000293325675871066
0.000291952505367426
0.000289188410764576
0.000283953398189188
0.000274648150844192
0.000259156558704504
0.000235036047334674
0.00019994275550115
0.000152249392052722
9.17020661158859e-05
1.91694748762597e-05
6.57564166960748e-07
6.5731381140183e-07
1.92501316476234e-05
9.23085986413169e-05
0.000153336781567241
0.00020143704999709
0.000236861909952596
0.000261237526076207
0.000276912153211963
0.000286339086811456
0.000291648879091907
0.000294455452909117
0.000295850961736319
0.000296505519420809
0.000296795980116795
0.000296918276148966
0.000296967267413364
0.000296985985096612
0.000296992816746316
0.000296995198046316
0.000296995986250139
0.000296996228557508
0.000296996291301501
0.000296996298241872
0.000296996290018435
0.000296996278612825
0.000296996267240778
0.000296996255826559
0.000296996240900769
0.000296996210113795
0.000296996123728046
0.000296995859078161
0.000296995051984289
0.000296992664794317
0.000296985867949223
0.000296967300493922
0.000296918759735242
0.000296797631879749
0.000296509911051085
0.000295861228403953
0.000294477235062254
0.00029169118615779
0.000286414357212024
0.000277034441958248
0.000261417930973705
0.000237101494569434
0.00020171957228075
0.000153625553908074
9.25518464212237e-05
1.93477920524812e-05
6.63431286064625e-07
6.61470544290311e-07
1.93765801260563e-05
9.29133747813609e-05
0.000154318514759375
0.000202708299274713
0.000238344437294214
0.000262866059986415
0.000278636012050424
0.000288121666391773
0.000293465579644487
0.000296290869637187
0.000297696084904908
0.000298355412487004
0.00029864810028485
0.000298771387503829
0.000298820800993981
0.00029883969188416
0.000298846592702755
0.000298849001465575
0.000298849800956979
0.000298850048370834
0.000298850113969157
0.000298850122726547
0.00029885011554704
0.000298850104881881
0.000298850093936658
0.000298850082648526
0.000298850067533223
0.000298850036179962
0.00029884994865885
0.000298849681712828
0.000298848869372959
0.000298846468750223
0.000298839635588444
0.000298820969648026
0.000298772168737692
0.000298650381399644
0.000298361068979097
0.000297708747722708
0.000296316903712715
0.000293514916086977
0.000288207708767274
0.000278773522083016
0.00026306617805806
0.000238607221663371
0.000203015245351258
0.000154629449732361
9.3171999903909e-05
1.94775299365589e-05
6.67679878281845e-07
6.64399985706646e-07
1.94661151434014e-05
9.33435085680088e-05
0.000155017693678713
0.000203614679394771
0.000239402470178245
0.000264029226857341
0.000279868053791851
0.000289396292068589
0.000294765047838225
0.00029760402236721
0.000299016366636131
0.000299679214272761
0.000299973553925563
0.00030009758026616
0.000300147310435664
0.00030016633208222
0.000300173285529923
0.000300175715412907
0.000300176523723197
0.000300176775194266
0.000300176843136773
0.000300176853407307
0.000300176847218943
0.000300176837237158
0.000300176826723588
0.000300176815628235
0.000300176800457364
0.000300176768757341
0.000300176680464572
0.000300176411910286
0.000300175595877852
0.000300173185810751
0.000300166327119057
0.000300147591843567
0.000300098607374996
0.000299976353632882
0.000299685913189197
0.000299031008367992
0.000297633581552516
0.000294820245469385
0.000289491387038124
0.000280018489024259
0.000264246310100658
0.000239685560340279
0.000203943451301459
0.000155348931973119
9.36166406433101e-05
1.95702647259577e-05
6.70702661852288e-07
6.66420215795085e-07
1.95281527328779e-05
9.36429428705906e-05
0.00015550522027518
0.000204247533450479
0.000240142051523102
0.000264843062169774
0.000280730719381542
0.000290289271384556
0.000295675788417953
0.000298524591964104
0.00029994208171582
0.000300607483104941
0.000300903027657257
0.000301027596222205
0.000301077560142092
0.000301096678969234
0.000301103671858129
0.000301106117748883
0.000301106932857157
0.000301107187525518
0.000301107257353576
0.000301107268920655
0.00030110726362101
0.000301107254268242
0.000301107244186869
0.000301107233339319
0.000301107218226447
0.000301107186366154
0.000301107097605648
0.000301106828001291
0.000301106009497712
0.000301103593055291
0.000301096717040573
0.000301077934490956
0.000301028824288414
0.000300906249730352
0.000300615030569611
0.000299958336790846
0.000298557034498698
0.000295735804256053
0.000290391859451293
0.000280891949649707
0.000265074476062938
0.00024044253393225
0.000204595310001128
0.000155854475039855
9.39292279715637e-05
1.96352683283719e-05
6.72812244088829e-07
6.67774627628467e-07
1.95699373348623e-05
9.38456147210929e-05
0.000155835873058362
0.000204677466304829
0.000240645193079985
0.000265397354422187
0.0002813188000542
0.000290898427951504
0.000296297356333339
0.000299153065031131
0.000300574189975541
0.000301241406193479
0.000301537812296914
0.000301662771088612
0.000301712904399121
0.000301732094193359
0.000301739116154143
0.000301741573996024
0.000301742394279133
0.000301742651454673
0.000301742722807145
0.000301742735468048
0.000301742730952647
0.000301742722179014
0.000301742712527381
0.000301742701971606
0.0003017426870098
0.000301742655142633
0.00030174256616269
0.000301742295955849
0.000301741475938939
0.000301739055485992
0.000301732168402272
0.000301713355280598
0.00030166416294179
0.000301541377023892
0.000301249641192435
0.000300591753517015
0.000299187852424965
0.000296361307693265
0.000291007173543897
0.000281488970820126
0.000265640752665537
0.000240960390033648
0.000205041538600542
0.000156200809288479
9.41435419594709e-05
1.96797271148867e-05
6.74249557145582e-07
6.68641949609496e-07
1.95968160924775e-05
9.3976676563259e-05
0.000156050288433882
0.000204956900066535
0.000240972836275496
0.000265758873437187
0.000281702830349712
0.000291296589011902
0.000296703894872286
0.000299564297189383
0.000300987911215453
0.000301656379567431
0.000301953384795848
0.000302078617181973
0.000302128870286977
0.000302148110752402
0.000302155153712882
0.00030215762032712
0.000302158444502804
0.000302158703640125
0.000302158776233836
0.000302158789813708
0.000302158785987472
0.000302158777747997
0.000302158768521176
0.000302158758289769
0.000302158743551573
0.000302158711798974
0.000302158622797191
0.000302158352344225
0.00030215753157194
0.000302155108962561
0.000302148215668994
0.000302129384849882
0.000302080143760788
0.000301957229837646
0.000301665175959787
0.000301006543633337
0.000299601004303913
0.000296771080388121
0.000291410421693098
0.000281880437585582
0.000266012323086741
0.000241300495822867
0.000205334928178894
0.000156428819605482
9.4284838165522e-05
1.97090001044103e-05
6.75193406335124e-07
6.69145923491211e-07
1.96125085971834e-05
9.40536991518451e-05
0.000156176894140262
0.000205122554185789
0.000241167716932526
0.000265974489239621
0.000281932364394056
0.000291534952926594
0.000296947552638951
0.00029981095508189
0.000301236179076665
0.000301905467216422
0.000302202869569923
0.000302328285598829
0.000302378620166936
0.000302397895581894
0.000302404953274917
0.000302407426188464
0.00030240825325756
0.000302408513928267
0.000302408587539346
0.000302408601904561
0.00030240859868857
0.000302408590945752
0.000302408582136667
0.000302408572251454
0.00030240855778964
0.000302408526242968
0.000302408437372649
0.0003024081669579
0.000302407346047169
0.000302404922798636
0.000302398027253672
0.000302379189133774
0.000302329925994039
0.000302206950110862
0.000301914734247556
0.000301255707642308
0.000299849274430105
0.000297017462783894
0.000291653090688564
0.000282116300570482
0.00026623655233818
0.000241506142271152
0.000205512747621734
0.000156567395683234
9.43709811780821e-05
1.97268713195298e-05
6.75769602154594e-07
6.69363456952745e-07
1.96193367642668e-05
9.40876986397704e-05
0.000156233551499652
0.00020519754021538
0.000241256779194337
0.000266073798989333
0.000282038736269698
0.000291645927879711
0.000297061365608361
0.000299926420928799
0.000301352556662307
0.000302022321893651
0.000302319961661447
0.000302445490461221
0.000302495876461365
0.000302515174638175
0.000302522242310425
0.000302524719734264
0.000302525549042072
0.00030252581101011
0.000302525885540024
0.000302525900643153
0.000302525898023867
0.000302525890767516
0.000302525882368876
0.000302525872825825
0.000302525858641304
0.000302525827313104
0.000302525738619592
0.000302525468384397
0.000302524647754916
0.000302522225072362
0.000302515330620301
0.000302496494138943
0.000302447231881953
0.00030232425031145
0.000302032004082246
0.000301372875667677
0.000299966163996747
0.000297133687282118
0.000291767889399579
0.00028222831696685
0.000266343582954243
0.000241604911708261
0.000205598775445893
0.000156634999221062
9.44134075409053e-05
1.97357632356913e-05
6.76058584899184e-07
6.69330291732357e-07
1.961838554425e-05
9.40838701728358e-05
0.000156228739892489
0.000205192884239403
0.000241252931857422
0.000266071034248592
0.000282037059129776
0.000291645183491274
0.000297061333696694
0.000299926883081877
0.000301353333919456
0.000302023285435913
0.000302321028147294
0.000302446610600333
0.00030249702328908
0.000302516334375479
0.000302523408316941
0.000302525888956004
0.000302526720109176
0.000302526983293569
0.000302527058745798
0.000302527074612402
0.000302527072616773
0.000302527065854878
0.000302527057856329
0.000302527048627147
0.000302527034675238
0.000302527003511281
0.00030252691495248
0.000302526644931396
0.000302525824879884
0.000302523403830688
0.000302516513643715
0.000302497687424159
0.000302448448116549
0.000302325514474949
0.000302033361762489
0.000301374403398288
0.000299967978604741
0.000297135948019559
0.000291770783975719
0.000282232022966945
0.000266348201263292
0.000241610376905836
0.00020560475413843
0.000156640785233388
9.44178141523932e-05
1.97368887678839e-05
6.76100829263211e-07
6.69044337090759e-07
1.96095995944147e-05
9.40420059170131e-05
0.000156162193285767
0.00020510832575162
0.000241155959702602
0.000265966046759638
0.000281927257901063
0.000291532711974891
0.000296947503183564
0.000299812427522038
0.000301238622618123
0.00030190848512785
0.000302206204931477
0.000302331786358382
0.000302382203112462
0.000302401518190861
0.000302408595063674
0.000302411077746846
0.000302411910375421
0.000302412174684306
0.000302412251043203
0.000302412267674935
0.000302412266306647
0.000302412260032943
0.000302412252417102
0.000302412243473164
0.000302412229716523
0.000302412198678844
0.000302412110241545
0.000302411840521466
0.000302411021446215
0.000302408603311649
0.000302401721032277
0.000302382914731323
0.000302333722644374
0.000302210895027187
0.000301918968274821
0.000301260467060317
0.000299854919516445
0.00029702448381313
0.00029166206396006
0.000282127768491474
0.000266250817877096
0.000241522994206712
0.00020553115142515
0.000156585177325322
9.4384498019502e-05
1.97303211954466e-05
6.75899072498943e-07
6.68466269680831e-07
1.95917969303589e-05
9.39565256692225e-05
0.000156024926098107
0.000204932331669515
0.000240952529065657
0.000265744309514784
0.000281694068249253
0.000291292826499374
0.000296703966174235
0.000299567036562931
0.000300992355756702
0.000301661833782386
0.000301959397380067
0.000302084920673089
0.000302135318192348
0.000302154628188467
0.00030216170461557
0.000302164188143774
0.00030216502184481
0.000302165287152666
0.00030216536437322
0.000302165381744274
0.000302165380984645
0.000302165375179308
0.000302165367923495
0.000302165359239749
0.000302165345654045
0.000302165314729633
0.000302165226444107
0.000302164957191227
0.000302164139653754
0.000302161726085303
0.00030215485623907
0.000302136081631988
0.000302086966011457
0.000301964313783136
0.000301672769876125
0.00030101506344562
0.000299611082840892
0.000296783575949235
0.00029142633775959
0.000281900709059947
0.000266037454595988
0.000241330084642744
0.000205367136151331
0.000156459841779437
9.43083486460134e-05
1.97149987714816e-05
6.75419009640775e-07
6.67516177481923e-07
1.95625766658623e-05
9.38161084489374e-05
0.000155798665172711