/*--------------------------------*- C++ -*----------------------------------*\
  =========                 |
  \\      /  F ield         | OpenFOAM: The Open Source CFD Toolbox
   \\    /   O peration     | Website:  https://openfoam.org
    \\  /    A nd           | Version:  10
     \\/     M anipulation  |
\*---------------------------------------------------------------------------*/
FoamFile
{
    format      ascii;
    class       volScalarField;
    location    "5.8";
    object      nut;
}
// * * * * * * * * * * * * * * * * * * * * * * * * * * * * * * * * * * * * * //

dimensions      [0 2 -1 0 0 0 0];

internalField   nonuniform List<scalar> 
2500
(
8.7987807636017e-15
1.72168455729547e-13
7.31555332539896e-13
1.25508956136067e-12
1.68733798275201e-12
2.01416439241161e-12
2.24152193673439e-12
2.3875176878166e-12
2.4743616634071e-12
2.52239265140662e-12
2.54718573353007e-12
2.55917498488931e-12
2.5646259276322e-12
2.56696388395975e-12
2.5679126529153e-12
2.56827774687993e-12
2.56841102602213e-12
2.5684570055358e-12
2.56847174856251e-12
2.56847588161482e-12
2.56847663348989e-12
2.56847641791745e-12
2.56847599917485e-12
2.5684756132546e-12
2.56847532003339e-12
2.5684751392297e-12
2.56847507984172e-12
2.56847508528801e-12
2.5684750035971e-12
2.56847451995449e-12
2.56847253796574e-12
2.56846581740412e-12
2.56844513864855e-12
2.56838534195403e-12
2.56822093209047e-12
2.56778958611356e-12
2.56670973605015e-12
2.56413451738793e-12
2.5582989562911e-12
2.54577140725287e-12
2.52037873699434e-12
2.47195657554806e-12
2.38541425466721e-12
2.24101298506205e-12
2.01694119621686e-12
1.69478368937353e-12
1.26707049506392e-12
7.44855561001491e-13
1.78001270471071e-13
9.29190252327921e-15
8.68315794459129e-13
4.45763349107145e-11
1.93391434430397e-10
3.32132988297055e-10
4.46998881965192e-10
5.34217804567167e-10
5.95211580890916e-10
6.34617806579468e-10
6.58217367984632e-10
6.71364975157981e-10
6.78203701493834e-10
6.81536906463757e-10
6.83064575553073e-10
6.83725123202463e-10
6.83995366625153e-10
6.84100210695532e-10
6.84138807276127e-10
6.8415224529355e-10
6.84156605807139e-10
6.84157856411331e-10
6.84158105236747e-10
6.84158062248822e-10
6.84157954044558e-10
6.84157851930602e-10
6.84157773736529e-10
6.84157725371974e-10
6.84157709189895e-10
6.84157709799652e-10
6.84157682370979e-10
6.84157530145927e-10
6.84156935725159e-10
6.84154954556783e-10
6.84148917328901e-10
6.84131597879072e-10
6.84084325630349e-10
6.83961183955971e-10
6.83655097729437e-10
6.82930372032522e-10
6.81299927287721e-10
6.77824969430256e-10
6.70831723392728e-10
6.57589316733476e-10
6.34081319278499e-10
5.95105840316872e-10
5.34977984222181e-10
4.48971245034818e-10
3.3526613201805e-10
1.96842211560246e-10
4.60501694924364e-11
9.14889996359001e-13
3.06971120845462e-12
7.98212791001086e-10
2.71748233740954e-07
4.65358236394658e-07
6.24485666270832e-07
7.44930089998017e-07
8.29108474633804e-07
8.83577337649024e-07
9.1630281043449e-07
9.34615950400287e-07
9.44192238237297e-07
9.48887267891969e-07
9.5105259214636e-07
9.5199496925859e-07
9.52383104739472e-07
9.52534728023309e-07
9.525909522559e-07
9.52610688235951e-07
9.52617162572252e-07
9.52619058010344e-07
9.52619463612847e-07
9.5261942762385e-07
9.52619288823109e-07
9.52619153133211e-07
9.52619048009186e-07
9.52618982287829e-07
9.52618959109587e-07
9.52618957092475e-07
9.52618911484392e-07
9.526186772426e-07
9.52617795473504e-07
9.52614895933483e-07
9.52606125195759e-07
9.52581103927035e-07
9.52513145451487e-07
9.52336950856576e-07
9.51901045812232e-07
9.5087381152741e-07
9.48573741479249e-07
9.43694610782624e-07
9.33920064288787e-07
9.15488795707157e-07
8.82887384539626e-07
8.28978024906328e-07
7.45914420651441e-07
6.27025802228716e-07
4.69387475321326e-07
2.76181847676147e-07
8.22013123259068e-10
3.20760277133981e-12
5.41444349225913e-12
1.41777004305208e-09
4.83465825717131e-07
8.23849014106496e-07
1.10140952125763e-06
1.3103403098513e-06
1.45585157382115e-06
1.54983574501087e-06
1.6062739344161e-06
1.63787144186705e-06
1.65441361400151e-06
1.66253733966017e-06
1.66629157077015e-06
1.6679292538696e-06
1.66860550147319e-06
1.66887042394869e-06
1.66896897439984e-06
1.66900370013869e-06
1.66901515327981e-06
1.66901854127148e-06
1.66901929018965e-06
1.66901924918417e-06
1.66901902430631e-06
1.6690187979323e-06
1.66901862074867e-06
1.6690185082759e-06
1.66901846517022e-06
1.66901845591288e-06
1.66901837729503e-06
1.66901797665392e-06
1.66901646766017e-06
1.66901151175027e-06
1.66899650948582e-06
1.66895366096855e-06
1.66883713853915e-06
1.66853467348171e-06
1.66778557525629e-06
1.66601866134618e-06
1.66205935446116e-06
1.65365514798225e-06
1.63680910351881e-06
1.60502388443047e-06
1.54875365669951e-06
1.45557844406305e-06
1.31169445311158e-06
1.10504090352271e-06
8.29652584298764e-07
4.89825397090203e-07
1.45138786794881e-09
5.60623408537225e-12
7.69110370977949e-12
2.01507945990786e-09
6.84615780785601e-07
1.16145938059662e-06
1.54776702750636e-06
1.837238305231e-06
2.03827023230706e-06
2.16792542350693e-06
2.24575426525704e-06
2.28934553242861e-06
2.31218955393209e-06
2.32342414353327e-06
2.32862519390914e-06
2.33089866672637e-06
2.3318396196448e-06
2.33220919614402e-06
2.33234708650181e-06
2.33239585314758e-06
2.33241202422898e-06
2.33241686047926e-06
2.33241796550068e-06
2.33241794175693e-06
2.33241765436403e-06
2.33241735562306e-06
2.3324171188164e-06
2.33241696517776e-06
2.33241689666555e-06
2.33241687039419e-06
2.33241676264257e-06
2.33241621684616e-06
2.33241415227819e-06
2.33240738390498e-06
2.33238688679643e-06
2.33232828034642e-06
2.33216869857218e-06
2.33175392184783e-06
2.33072542040289e-06
2.32829684596649e-06
2.32284978781277e-06
2.31127831607192e-06
2.28806698390828e-06
2.24424048362473e-06
2.16658678271155e-06
2.03784751859379e-06
1.83867640553826e-06
1.55181409352293e-06
1.16798901486365e-06
6.9177569116045e-07
2.0532456480793e-09
7.91207163581197e-12
9.82663893829344e-12
2.57520119941039e-09
8.71409309053208e-07
1.47256116170495e-06
1.95689291258704e-06
2.31845204746328e-06
2.56897168455678e-06
2.73036287846047e-06
2.82722089169276e-06
2.88149499941726e-06
2.90996463945039e-06
2.92398465484307e-06
2.93048589953547e-06
2.93333313504596e-06
2.93451410509576e-06
2.93497908620756e-06
2.93515306631684e-06
2.93521481865001e-06
2.93523540782802e-06
2.93524163600511e-06
2.93524310816448e-06
2.9352431271052e-06
2.93524280111659e-06
2.93524244973211e-06
2.93524216687813e-06
2.93524197878185e-06
2.93524188458853e-06
2.93524184031645e-06
2.93524169899002e-06
2.93524101464363e-06
2.93523845734017e-06
2.93523009817369e-06
2.93520479163884e-06
2.9351323829522e-06
2.9349350087088e-06
2.93442141993117e-06
2.93314651219917e-06
2.93013314682168e-06
2.92336868547273e-06
2.90898809180168e-06
2.88012349258566e-06
2.82558918074096e-06
2.72889413519852e-06
2.5684293877671e-06
2.3198070880807e-06
1.96091020625237e-06
1.47911021667286e-06
8.78627489309218e-07
2.61453795678236e-09
1.00605994582346e-11
1.17792563497282e-11
3.08790264236737e-09
1.04115468373965e-06
1.75340212963061e-06
2.32457417053329e-06
2.74964042033834e-06
3.04362370895251e-06
3.23285677564526e-06
3.34641529641771e-06
3.41007907609703e-06
3.44350509648529e-06
3.45998670202775e-06
3.46764116821007e-06
3.47099943035654e-06
3.47239517834652e-06
3.4729459878224e-06
3.47315264082976e-06
3.47322624687645e-06
3.47325092135397e-06
3.47325847102e-06
3.47326031746723e-06
3.47326040419311e-06
3.47326006352692e-06
3.47325967899231e-06
3.47325936364687e-06
3.47325914835211e-06
3.4732590310699e-06
3.47325896444445e-06
3.47325878115369e-06
3.47325796571166e-06
3.4732549717881e-06
3.47324522573429e-06
3.4732157500818e-06
3.47313138459366e-06
3.47290122801768e-06
3.47230175858432e-06
3.47081225105595e-06
3.46728861037051e-06
3.45937271535956e-06
3.44253353218187e-06
3.40871553379103e-06
3.34478988778902e-06
3.23137793820096e-06
3.04302488396047e-06
2.75084833830508e-06
2.32831242669003e-06
1.75954511514316e-06
1.04797509711342e-06
3.12628058962015e-09
1.20154080357812e-11
1.35239808939711e-11
3.54681077604768e-09
1.19225821596791e-06
2.00201341902267e-06
2.64886257663771e-06
3.12903412382294e-06
3.46065026687523e-06
3.67397837673308e-06
3.80200108320904e-06
3.87381133097057e-06
3.91154824194031e-06
3.93017752434815e-06
3.93884181621688e-06
3.94264941404448e-06
3.94423489086077e-06
3.94486192040629e-06
3.9450977721422e-06
3.94518206016835e-06
3.9452104644909e-06
3.9452192518293e-06
3.94522147360684e-06
3.94522165114458e-06
3.94522131737533e-06
3.94522091752627e-06
3.94522058224653e-06
3.94522034674919e-06
3.94522020830211e-06
3.94522011546762e-06
3.94521988492264e-06
3.94521894471847e-06
3.9452155634756e-06
3.94520461726735e-06
3.94517156457968e-06
3.94507695980725e-06
3.94481871059994e-06
3.94414552861284e-06
3.9424714945288e-06
3.93850833919998e-06
3.92959922089682e-06
3.91063671720119e-06
3.87253674279181e-06
3.80048652058086e-06
3.67260210681684e-06
3.4600835091905e-06
3.13011482481933e-06
2.65223374778912e-06
2.00755305135235e-06
1.1984484942746e-06
3.58303105304525e-09
1.37555326092705e-11
1.50493035714591e-11
3.94889703076442e-09
1.32411811593981e-06
2.21797412001592e-06
2.92972685736604e-06
3.45700784076365e-06
3.82075280291143e-06
4.0546528555385e-06
4.19503861638409e-06
4.27382551213273e-06
4.31526393725538e-06
4.33574315769966e-06
4.3452804656757e-06
4.34947812717425e-06
4.35122906738641e-06
4.35192291880948e-06
4.35218453030762e-06
4.35227832104766e-06
4.35231008688086e-06
4.35232001709589e-06
4.35232260877843e-06
4.35232289604513e-06
4.35232258635943e-06
4.35232218640807e-06
4.35232184209368e-06
4.3523215927059e-06
4.35232143505892e-06
4.35232131398149e-06
4.35232103320286e-06
4.35231997421243e-06
4.35231624988097e-06
4.35230427375405e-06
4.35226818517616e-06
4.3521649166293e-06
4.35188289452428e-06
4.35114725422753e-06
4.3493166177024e-06
4.34497988626543e-06
4.33522543427356e-06
4.31445384663002e-06
4.27270265436904e-06
4.19372046039913e-06
4.05348166087601e-06
3.82032185883124e-06
3.45804220915895e-06
2.93276466629815e-06
2.22288704340404e-06
1.32961609598549e-06
3.98247095658077e-09
1.52726269865867e-11
1.63549474145119e-11
4.29397228510912e-09
1.4369704593688e-06
2.40212919057711e-06
3.16867056591487e-06
3.73563044082231e-06
4.12641839130053e-06
4.37764275691575e-06
4.52845464595023e-06
4.61313777056097e-06
4.65771304619622e-06
4.6797650795485e-06
4.69004736630851e-06
4.69457926061031e-06
4.69647263525771e-06
4.69722431002108e-06
4.69750835223098e-06
4.69761048651365e-06
4.6976452419851e-06
4.69765621112657e-06
4.69765916177892e-06
4.69765957441415e-06
4.69765929879094e-06
4.69765891077484e-06
4.6976585663263e-06
4.69765830848892e-06
4.69765813381224e-06
4.69765798398381e-06
4.6976576521127e-06
4.69765648090857e-06
4.6976524544453e-06
4.69763960285593e-06
4.69760096762125e-06
4.69749046084466e-06
4.6971885846184e-06
4.69640072893203e-06
4.6944389878493e-06
4.68978907053789e-06
4.67932508402113e-06
4.65703358860929e-06
4.61221267908436e-06
4.52739970793521e-06
4.37676540315348e-06
4.1262306349556e-06
3.7367359605241e-06
3.17148994610962e-06
2.40651235401122e-06
1.44183445054341e-06
4.32493218339503e-09
1.65688459922317e-11
1.74496808721586e-11
4.58415921981102e-09
1.53172169281387e-06
2.5563085325642e-06
3.36836950553804e-06
3.9682495237118e-06
4.38147221812648e-06
4.64708190065802e-06
4.80656585416504e-06
4.89616466417961e-06
4.94336260877047e-06
4.96673401166376e-06
4.97764357042593e-06
4.9824580592893e-06
4.98447241910895e-06
4.98527346670855e-06
4.98557678120202e-06
4.98568614341218e-06
4.98572352166785e-06
4.98573542109953e-06
4.98573870998392e-06
4.98573925101652e-06
4.98573902424797e-06
4.98573865723664e-06
4.98573831953555e-06
4.98573805776411e-06
4.98573786840575e-06
4.98573769058705e-06
4.98573730857815e-06
4.98573603299123e-06
4.98573174303907e-06
4.98571815538435e-06
4.98567741065424e-06
4.98556093746918e-06
4.98524270843469e-06
4.9844118122279e-06
4.98234186806177e-06
4.97743314404102e-06
4.96638217470475e-06
4.94283220763144e-06
4.89546804321147e-06
4.80582239390976e-06
4.64656995015324e-06
4.38162768883232e-06
3.96955731509771e-06
3.37112881928608e-06
2.56032993517937e-06
1.5360852684765e-06
4.61288534841289e-09
1.76546931839446e-11
1.83490865810023e-11
4.82334572519559e-09
1.60977924912208e-06
2.68305742485537e-06
3.53233404812232e-06
4.15911087535339e-06
4.59067140471816e-06
4.86805443185237e-06
5.0346496758521e-06
5.12828956426302e-06
5.17764998372883e-06
5.20211295877963e-06
5.2135434621182e-06
5.21859362949479e-06
5.22070935728143e-06
5.22155198889115e-06
5.2218716364275e-06
5.22198717431514e-06
5.22202682138538e-06
5.22203954289183e-06
5.22204314285208e-06
5.22204381231835e-06
5.22204364125772e-06
5.22204330131328e-06
5.22204297533459e-06
5.22204271326323e-06
5.22204251168186e-06
5.2220423076413e-06
5.2220418780415e-06
5.2220405073272e-06
5.22203599052608e-06
5.22202179165237e-06
5.22197932301728e-06
5.22185800123579e-06
5.22152649816555e-06
5.22066064452527e-06
5.21850271961728e-06
5.2133833113497e-06
5.20185401448098e-06
5.17727771499139e-06
5.12783828700267e-06
5.03424793120201e-06
4.86795966056539e-06
4.59125376227791e-06
4.16074630916667e-06
3.53520299354586e-06
2.68691421147506e-06
1.61381239178238e-06
4.85041215989985e-09
1.85468380145861e-11
1.90733493390625e-11
5.01663470666067e-09
1.67288558106283e-06
2.78538060304226e-06
3.66459396125624e-06
4.31300638959626e-06
4.75933082393618e-06
5.04620780859157e-06
5.21855007799749e-06
5.3154645351203e-06
5.36658270991367e-06
5.3919360762307e-06
5.40379316112244e-06
5.40903713804611e-06
5.41123661576462e-06
5.41211378454186e-06
5.41244708153032e-06
5.41256782209834e-06
5.41260940362772e-06
5.41262284137424e-06
5.41262672241542e-06
5.41262751453642e-06
5.41262740130325e-06
5.41262709191385e-06
5.41262678093158e-06
5.41262652137063e-06
5.41262631003424e-06
5.41262608230047e-06
5.41262560899452e-06
5.41262415359414e-06
5.41261944446353e-06
5.41260474500432e-06
5.41256088772016e-06
5.41243568409102e-06
5.41209356873374e-06
5.41119975576326e-06
5.40897139159007e-06
5.40368312063521e-06
5.39177007799367e-06
5.3663697742292e-06
5.31526334424908e-06
5.21850338024715e-06
5.046561010463e-06
4.7604011147654e-06
4.31507464542552e-06
3.66772895513598e-06
2.78926640481624e-06
1.67676375086156e-06
5.04268136726989e-09
1.92659906441953e-11
1.96451758642482e-11
5.16981864209343e-09
1.72296259470429e-06
2.86650689364999e-06
3.76941122700732e-06
4.43495456449592e-06
4.8929840386339e-06
5.18740223880443e-06
5.36432044757964e-06
5.46384963467346e-06
5.51637592869085e-06
5.54244515688986e-06
5.55464656776339e-06
5.56004765945327e-06
5.56231535165232e-06
5.56322079964626e-06
5.56356534214026e-06
5.56369040328942e-06
5.56373361009123e-06
5.56374766176555e-06
5.56375179108357e-06
5.56375269685929e-06
5.56375264147137e-06
5.56375236406536e-06
5.56375206995326e-06
5.56375181500961e-06
5.56375159634574e-06
5.56375134800325e-06
5.56375083589883e-06
5.56374930699769e-06
5.5637444376274e-06
5.56372933434901e-06
5.56368437536297e-06
5.56355611179774e-06
5.56320564472636e-06
5.562289821685e-06
5.56000595475064e-06
5.55458449043843e-06
5.54236848441289e-06
5.51631717369142e-06
5.46389307931487e-06
5.36462702539624e-06
5.18821363587893e-06
4.89457765528954e-06
4.43753169864896e-06
3.77293896559106e-06
2.87058916897606e-06
1.72684453253196e-06
5.19545502706059e-09
1.98349412863072e-11
2.0087972168995e-11
5.28891255583957e-09
1.76197492893073e-06
2.92968493298043e-06
3.85103219468606e-06
4.52992534498834e-06
4.99709143104296e-06
5.29740884498632e-06
5.47791600300155e-06
5.57950213207678e-06
5.63313990740213e-06
5.65977629961802e-06
5.67225162178843e-06
5.67777824864061e-06
5.68010070565668e-06
5.68102897793405e-06
5.68138265292977e-06
5.68151125047928e-06
5.68155580267154e-06
5.68157037205629e-06
5.68157471643743e-06
5.68157572497156e-06
5.68157572495935e-06
5.68157547923763e-06
5.68157520273922e-06
5.6815749539275e-06
5.68157473025849e-06
5.68157446473278e-06
5.68157391938216e-06
5.68157232838874e-06
5.68156732807513e-06
5.68155190433588e-06
5.68150608516308e-06
5.68137544806591e-06
5.68101851403224e-06
5.68008564427146e-06
5.67775875271046e-06
5.67223393641662e-06
5.6597826348425e-06
5.63322536739202e-06
5.57977669638488e-06
5.4785614169366e-06
5.29867002716666e-06
4.99921815334434e-06
4.53305468383104e-06
3.85504110091659e-06
2.93409196409955e-06
1.76598908013936e-06
5.31465486864892e-09
2.02768724102308e-11
2.04243783915481e-11
5.3797730819408e-09
1.79181912838236e-06
2.97801923580561e-06
3.91348963973698e-06
4.60262079754523e-06
5.0768076699969e-06
5.38166915775806e-06
5.56494861832797e-06
5.66812870096599e-06
5.72263081547274e-06
5.74970995878353e-06
5.76239999808199e-06
5.76802547311307e-06
5.77039126250143e-06
5.77133769132295e-06
5.77169867617425e-06
5.77183012638518e-06
5.77187577584534e-06
5.77189077497753e-06
5.77189530230935e-06
5.77189640155114e-06
5.77189645260904e-06
5.77189623702962e-06
5.77189597806219e-06
5.7718957364215e-06
5.77189550992704e-06
5.7718952307819e-06
5.77189465801301e-06
5.77189301607562e-06
5.77188791103181e-06
5.7718722374682e-06
5.77182575787542e-06
5.77169331009874e-06
5.77133145126196e-06
5.77038559720713e-06
5.76802590568182e-06
5.76242222034389e-06
5.74979120164544e-06
5.72284721327676e-06
5.6686150236794e-06
5.56590864803037e-06
5.38335624744831e-06
5.07945428601131e-06
4.60631387976836e-06
3.91802811352301e-06
2.98283552795884e-06
1.79605772362554e-06
5.40601234424964e-09
2.06140242606196e-11
2.0675210685644e-11
5.4478184503602e-09
1.81424245986735e-06
3.01435145674637e-06
3.96046030057972e-06
4.65731777648402e-06
5.13681514128791e-06
5.44512290103197e-06
5.6305112458034e-06
5.73490790894178e-06
5.79007214987716e-06
5.81749181181019e-06
5.83034769625641e-06
5.83604987106786e-06
5.83844944990465e-06
5.8394101135665e-06
5.8397768650039e-06
5.83991058298231e-06
5.83995711413215e-06
5.83997246439672e-06
5.83997714460841e-06
5.83997832226306e-06
5.83997841926127e-06
5.83997823144252e-06
5.83997798935261e-06
5.83997775555582e-06
5.83997752822681e-06
5.83997723897874e-06
5.83997664456098e-06
5.83997496216561e-06
5.83996977534885e-06
5.83995391078794e-06
5.83990693312616e-06
5.83977312783439e-06
5.83940758255072e-06
5.83845200634867e-06
5.83606773269702e-06
5.83040487718954e-06
5.81763890278561e-06
5.79040429357558e-06
5.73558296137821e-06
5.6317549797928e-06
5.44720049469444e-06
5.13994989658225e-06
4.66155868377109e-06
3.96554017039499e-06
3.01961967558666e-06
1.81876168779604e-06
5.47481410411792e-09
2.08667480915929e-11
2.08588047754918e-11
5.49784991856066e-09
1.83079131839167e-06
3.04118633840176e-06
3.9951771440058e-06
4.69777178172531e-06
5.18122258978712e-06
5.49210339434759e-06
5.67907133150631e-06
5.78438244872252e-06
5.84004628802264e-06
5.86772394204301e-06
5.88070603199768e-06
5.88646684876448e-06
5.88889239219416e-06
5.8898640544584e-06
5.89023528934559e-06
5.89037078403719e-06
5.89041801326114e-06
5.8904336460066e-06
5.89043845178142e-06
5.89043969620802e-06
5.89043983386033e-06
5.89043967076317e-06
5.89043944455279e-06
5.89043921900812e-06
5.89043899262706e-06
5.8904386965997e-06
5.8904380859915e-06
5.89043637267181e-06
5.89043112377212e-06
5.89041511637586e-06
5.8903677703364e-06
5.89023296594023e-06
5.88986471058304e-06
5.8889019833712e-06
5.88649960883315e-06
5.88079313289236e-06
5.8679275647757e-06
5.84047830173273e-06
5.78522154078509e-06
5.68056419784484e-06
5.49452879331134e-06
5.18480062836055e-06
4.70252355408995e-06
4.0007805154368e-06
3.04691366963351e-06
1.83561574358692e-06
5.52574178987538e-09
2.10529330128383e-11
2.09907121277826e-11
5.53396365896698e-09
1.84278605710949e-06
3.0606573943399e-06
4.02039027019558e-06
4.72717525721194e-06
5.21352186311432e-06
5.5262932794664e-06
5.71442584519134e-06
5.82041369537272e-06
5.8764487390378e-06
5.90431890425564e-06
5.91739559724922e-06
5.92320058490565e-06
5.92564578689139e-06
5.92662582330804e-06
5.92700049346981e-06
5.92713736001276e-06
5.92718513391679e-06
5.92720099053299e-06
5.9272058975867e-06
5.92720719862431e-06
5.92720737231431e-06
5.92720722992183e-06
5.92720701839712e-06
5.92720680131784e-06
5.92720657743752e-06
5.9272062776515e-06
5.92720565581191e-06
5.92720391997413e-06
5.92719862553434e-06
5.92718251409235e-06
5.92713490163629e-06
5.92699937695903e-06
5.92662916831324e-06
5.9256612814258e-06
5.92324582714727e-06
5.9175077846258e-06
5.90457005073829e-06
5.87696508272726e-06
5.82139220370937e-06
5.71613235616336e-06
5.52902056792429e-06
5.21749088046599e-06
4.73238715893068e-06
4.02647804777074e-06
3.06682428522542e-06
1.84791546689616e-06
5.56279498843169e-09
2.11877554126159e-11
2.1083672972865e-11
5.55953482216285e-09
1.85131702921566e-06
3.07452441637887e-06
4.03836677306568e-06
4.74815953282794e-06
5.23659129135905e-06
5.55072872298337e-06
5.73970586835339e-06
5.84618642751397e-06
5.90249288067714e-06
5.93050443753213e-06
5.94365094484527e-06
5.94948869425332e-06
5.9519485554703e-06
5.95293487268936e-06
5.95331213618458e-06
5.95345004653792e-06
5.95349823932525e-06
5.95351427084948e-06
5.95351925837137e-06
5.95352060590208e-06
5.95352080960283e-06
5.95352068686809e-06
5.95352048889702e-06
5.95352028037889e-06
5.95352006032206e-06
5.95351975943394e-06
5.95351913071692e-06
5.9535173795746e-06
5.95351205323759e-06
5.95349586855988e-06
5.95344806879106e-06
5.95331203777192e-06
5.95294045398456e-06
5.95196892653581e-06
5.94954422193565e-06
5.94378380701546e-06
5.9307948325598e-06
5.90307913918983e-06
5.84728118299949e-06
5.7415919228074e-06
5.5537123617548e-06
5.24089678528258e-06
4.75377416688327e-06
4.0448874304101e-06
3.08109399052591e-06
1.85673416076217e-06
5.58928000870057e-09
2.12836783326492e-11
2.11477813238035e-11
5.57725267975083e-09
1.85725578297812e-06
3.08419364883576e-06
4.05091831876186e-06
4.76282782561096e-06
5.25273228044361e-06
5.56783817453617e-06
5.75741653936197e-06
5.86424936205026e-06
5.92075075659389e-06
5.9488643651409e-06
5.96206152170463e-06
5.96792316821233e-06
5.97039378351592e-06
5.97138473677306e-06
5.97176392767932e-06
5.97190262028171e-06
5.97195113055615e-06
5.97196729690703e-06
5.97197234784192e-06
5.97197373276948e-06
5.9719739621851e-06
5.97197385707667e-06
5.97197367158116e-06
5.97197347163497e-06
5.9719732564929e-06
5.97197295675513e-06
5.97197232485943e-06
5.97197056444034e-06
5.97196521727701e-06
5.97194898358849e-06
5.97190105737658e-06
5.97176468278633e-06
5.97139216140141e-06
5.97041814024451e-06
5.9679870728333e-06
5.96221121344917e-06
5.94918675820569e-06
5.9213942016475e-06
5.86543967882689e-06
5.75945120719686e-06
5.57103591525637e-06
5.25732199945269e-06
4.76878740653153e-06
4.05781590221762e-06
3.09112055026488e-06
1.86293378331625e-06
5.60784496102336e-09
2.13506221319697e-11
2.11907609547941e-11
5.58918626391902e-09
1.86127540853803e-06
3.09075154081267e-06
4.05944524801139e-06
4.77280671460647e-06
5.26372564942706e-06
5.5795016748975e-06
5.76949804160984e-06
5.87657702084424e-06
5.93321536659079e-06
5.96140107265162e-06
5.97463422310211e-06
5.98051295694587e-06
5.98299131170803e-06
5.98398562453092e-06
5.98436622294581e-06
5.98450549213886e-06
5.98455423944341e-06
5.9845705084284e-06
5.98457560908903e-06
5.98457702425084e-06
5.9845772753607e-06
5.98457718580649e-06
5.98457701179718e-06
5.98457682037419e-06
5.98457661101903e-06
5.9845763142774e-06
5.98457568224539e-06
5.98457391747418e-06
5.98456855836166e-06
5.98455229465905e-06
5.98450428890594e-06
5.98436769478305e-06
5.9839945670594e-06
5.98301891688486e-06
5.98058365754906e-06
5.97479755096981e-06
5.96174941701705e-06
5.93390531810633e-06
5.87784539228048e-06
5.77165483392391e-06
5.5828767358042e-06
5.26855305846197e-06
4.77905813449255e-06
4.06666603095429e-06
3.0979894584865e-06
1.8671843116396e-06
5.62054229333662e-09
2.13962324979442e-11
2.12182835539712e-11
5.59686272716125e-09
1.86387476515642e-06
3.09500405149235e-06
4.06498727080201e-06
4.77930487703399e-06
5.27089567257969e-06
5.58711816557585e-06
5.77739478875069e-06
5.8846399192378e-06
5.94137135401593e-06
5.96960642632982e-06
5.98286441052538e-06
5.98875502690684e-06
5.99123880791396e-06
5.99223549664359e-06
5.99261710003058e-06
5.99275678571534e-06
5.99280570700426e-06
5.9928220531918e-06
5.99282719276106e-06
5.9928286325408e-06
5.99282890187692e-06
5.9928288259912e-06
5.99282866257606e-06
5.99282847957854e-06
5.9928282766567e-06
5.99282798435002e-06
5.99282735459031e-06
5.99282558938597e-06
5.99282022539208e-06
5.9928039467082e-06
5.99275589818685e-06
5.99261918090484e-06
5.99224570218969e-06
5.99126908515453e-06
5.9888312870978e-06
5.98303887271594e-06
5.96997597011533e-06
5.94209938005845e-06
5.88597243487576e-06
5.7796524751612e-06
5.59064071671096e-06
5.27592243482405e-06
4.78580347208515e-06
4.07248484453895e-06
3.102511602586e-06
1.86998665010999e-06
5.62890254999332e-09
2.14261835616435e-11
2.12342758773734e-11
5.60134438880579e-09
1.86540234068788e-06
3.09751499960408e-06
4.0682726586773e-06
4.78316990955439e-06
5.27517194184018e-06
5.59167047336005e-06
5.78212221834025e-06
5.88947234134161e-06
5.94626327745156e-06
5.97453028023705e-06
5.98780452328989e-06
5.99370301586831e-06
5.99619043907518e-06
5.99718874347047e-06
5.99757104001601e-06
5.99771101789368e-06
5.99776006411808e-06
5.99777646769137e-06
5.99778163767275e-06
5.99778309763031e-06
5.99778338254245e-06
5.99778331875995e-06
5.99778316519521e-06
5.99778299048281e-06
5.99778279442717e-06
5.9977825076021e-06
5.9977818819266e-06
5.99778011932969e-06
5.9977747560939e-06
5.99775847466453e-06
5.99771041346768e-06
5.99757365153598e-06
5.9972000280301e-06
5.99622297367848e-06
5.99378394680057e-06
5.98798831983227e-06
5.97491759764937e-06
5.94702327951388e-06
5.89085889554187e-06
5.78446528898351e-06
5.59531854867029e-06
5.28036953773952e-06
4.78988202643905e-06
4.076011511675e-06
3.10525996339739e-06
1.87169511429608e-06
5.63400645193458e-09
2.14444677281916e-11
2.12411784704915e-11
5.60329438990878e-09
1.86607662281056e-06
3.09863863573173e-06
4.06975979208915e-06
4.7849362058799e-06
5.2771414692332e-06
5.59378005933845e-06
5.78432309454401e-06
5.89172950254262e-06
5.94855321949885e-06
5.976838304497e-06
5.99012200958402e-06
5.99602521075494e-06
5.99851487053214e-06
5.99951419497561e-06
5.99989694295681e-06
6.00003711875304e-06
6.00008625443066e-06
6.00010270240482e-06
6.00010789811653e-06
6.00010937629767e-06
6.00010967584514e-06
6.00010962389731e-06
6.00010947998086e-06
6.00010931340899e-06
6.0001091241396e-06
6.00010884281418e-06
6.00010822147174e-06
6.00010646238156e-06
6.00010110270705e-06
6.00008482685618e-06
6.0000367768857e-06
5.99990003663303e-06
5.99952644563343e-06
5.99854940881186e-06
5.99611026919061e-06
5.99031404009599e-06
5.97724129898825e-06
5.94934145871154e-06
5.89316388546705e-06
5.78674200315888e-06
5.59754008446278e-06
5.28249219585298e-06
4.79184084866096e-06
4.0777176409644e-06
3.10660069901173e-06
1.87253652964638e-06
5.63654586027451e-09
2.14536376452688e-11
2.12401255415623e-11
5.60302259328502e-09
1.86600064888793e-06
3.09854313474556e-06
4.06966735567464e-06
4.78485979121692e-06
5.27708651489464e-06
5.59374666858229e-06
5.78430819905757e-06
5.89172873542853e-06
5.94856225006176e-06
5.97685358399283e-06
5.99014098343976e-06
5.99604622619494e-06
5.99853695004077e-06
5.99953680378658e-06
5.99991980779981e-06
6.00006010793251e-06
6.00010930737774e-06
6.00012579195135e-06
6.00013101178739e-06
6.00013250826112e-06
6.00013282295086e-06
6.00013278337227e-06
6.00013264926257e-06
6.00013249062586e-06
6.00013230758154e-06
6.00013203086962e-06
6.0001314127847e-06
6.00012965636632e-06
6.00012430093847e-06
6.00010803655104e-06
6.00006001897665e-06
5.99992336331818e-06
5.99954997585322e-06
5.99857339421757e-06
5.99613520524372e-06
5.99034083103372e-06
5.97727146289637e-06
5.94937731300172e-06
5.89320858928921e-06
5.78679928056539e-06
5.59761345945406e-06
5.28258367218546e-06
4.7919491328266e-06
4.07783612573394e-06
3.10671538440225e-06
1.87262388497249e-06
5.63686718456152e-09
2.14549777139856e-11
2.12310507450858e-11
5.60051319320938e-09
1.86517029693017e-06
3.09722322040949e-06
4.06799018283977e-06
4.78293639718693e-06
5.27500413853092e-06
5.59156881230345e-06
5.78207737762339e-06
5.88947095805648e-06
5.94629207460989e-06
5.97457833567981e-06
5.98786396952035e-06
5.99376875780301e-06
5.99625946124044e-06
5.99725939559275e-06
5.99764247877213e-06
5.99778283704022e-06
5.99783207702595e-06
5.9978485908614e-06
5.99785383299981e-06
5.99785534745581e-06
5.99785567732061e-06
5.99785565018434e-06
5.99785552575711e-06
5.99785537471078e-06
5.99785519732383e-06
5.99785492448475e-06
5.99785430890436e-06
5.99785255489579e-06
5.99784720543802e-06
5.9978309604135e-06
5.99778300064714e-06
5.99764650182618e-06
5.99727350942281e-06
5.99629786435441e-06
5.99386177825793e-06
5.98807188573101e-06
5.97501158471233e-06
5.94713483427411e-06
5.8909977437299e-06
5.78464286399238e-06
5.59554561392006e-06
5.28065211071232e-06
4.7902159298987e-06
4.07637624268879e-06
3.10561242118414e-06
1.87196307098496e-06
5.63499135360664e-09
2.14485747974363e-11
2.12127062182462e-11
5.59542861441123e-09
1.86347489273781e-06
3.09450067841658e-06
4.06449953376071e-06
4.77890157237467e-06
5.27060622071255e-06
5.58694374740629e-06
5.77731950761236e-06
5.88464066336423e-06
5.94142500854446e-06
5.96969389687212e-06
5.98297190479435e-06
5.98887359485163e-06
5.99136314524133e-06
5.9923626980795e-06
5.99274568045141e-06
5.99288602987639e-06
5.99293528662085e-06
5.99295182172647e-06
5.99295708367773e-06
5.99295861522327e-06
5.99295895975134e-06
5.9929589446868e-06
5.9929588295489e-06
5.99295868564314e-06
5.99295851341669e-06
5.99295824396786e-06
5.99295763063395e-06
5.9929558796356e-06
5.99295053944406e-06
5.99293432491924e-06
5.99288645571542e-06
5.99275020348865e-06
5.99237783969017e-06
5.99140371123101e-06
5.98897110374295e-06
5.98318880446289e-06
5.97014426698977e-06
5.94229859487625e-06
5.88621959382708e-06
5.77996748637964e-06
5.59104213188264e-06
5.2764202767184e-06
4.78638977329365e-06
4.07312317360096e-06
3.10312652371131e-06
1.87045272935563e-06
5.6306151320377e-09
2.14333402830949e-11
2.11825560817917e-11
5.58708316258203e-09
1.86068990313742e-06
3.0900130905229e-06
4.05872849724304e-06