/*--------------------------------*- C++ -*----------------------------------*\
  =========                 |
  \\      /  F ield         | OpenFOAM: The Open Source CFD Toolbox
   \\    /   O peration     | Website:  https://openfoam.org
    \\  /    A nd           | Version:  10
     \\/     M anipulation  |
\*---------------------------------------------------------------------------*/
FoamFile
{
    format      ascii;
    class       volScalarField;
    location    "5.8";
    object      omega;
}
// * * * * * * * * * * * * * * * * * * * * * * * * * * * * * * * * * * * * * //

dimensions      [0 0 -1 0 0 0 0];

internalField   nonuniform List<scalar> 
2500
(
128043.396799719
128054.989413989
128050.983793594
128048.296650905
128046.769743316
128045.951474873
128045.528314747
128045.316889165
128045.215537929
128045.169596063
128045.149086596
128045.140423961
128045.136885638
128045.135189074
128045.134283304
128045.133596117
128045.133275035
128045.132918705
128045.132529998
128045.132267187
128045.132042396
128045.131849072
128045.131689757
128045.131595157
128045.131493225
128045.131406065
128045.131377035
128045.131365337
128045.131380851
128045.131428797
128045.131510481
128045.13166531
128045.131841529
128045.132069782
128045.132367472
128045.13281702
128045.133627381
128045.135228118
128045.139256971
128045.148438781
128045.169679887
128045.21733881
128045.320060352
128045.532006363
128045.954154757
128046.766128
128048.287025643
128050.985725306
128055.02864335
128043.356597681
31891.0127189838
14171.9987396587
14170.0903878917
14168.8224675831
14168.0782619928
14167.6631387882
14167.4391903727
14167.3228024639
14167.2649692587
14167.2376385868
14167.2253408911
14167.2200827351
14167.2179412663
14167.2170941274
14167.216762747
14167.2166254593
14167.2165700848
14167.2165369203
14167.2165095922
14167.2164898324
14167.2164727353
14167.2164569677
14167.2164435351
14167.2164346275
14167.2164267249
14167.2164197893
14167.2164163727
14167.2164141769
14167.2164129126
14167.2164144632
14167.216418472
14167.2164270226
14167.2164448647
14167.2164762895
14167.2165355739
14167.2166781572
14167.2170455995
14167.2179837526
14167.2203308833
14167.2259371165
14167.2387758016
14167.2668464505
14167.3253757113
14167.4419299241
14167.6647766124
14168.0771287147
14168.8194681538
14170.094816883
14172.0253873917
31890.9783319412
31782.9386902424
3530.71735621468
50.8329261314665
50.8268560027371
50.8233220669602
50.8213574011452
50.8202984762557
50.819747544509
50.8194730373234
50.8193427551458
50.8192839315371
50.8192586880796
50.8192483830873
50.8192443496498
50.8192428223566
50.8192422488698
50.8192420391575
50.8192419451501
50.8192418851387
50.819241843359
50.8192418060322
50.8192417685344
50.8192417347873
50.8192417119472
50.819241693898
50.8192416777155
50.8192416686083
50.819241661231
50.8192416535612
50.8192416516667
50.8192416526892
50.8192416651909
50.8192417211679
50.8192418360384
50.8192420766966
50.8192427115386
50.819244420759
50.8192488689881
50.8192600162845
50.8192867024528
50.8193477536637
50.8194809785111
50.8197582263278
50.8203096722504
50.8213639997793
50.8233187078091
50.8268518111796
50.8329746253898
3530.73092319062
31783.0155757948
31690.817547184
3520.3969251673
50.6845022168709
50.6787827226223
50.6755581481719
50.6738179434112
50.6729041154444
50.6724386887534
50.6722106449456
50.6721038167395
50.6720560899776
50.6720357839043
50.6720275583692
50.6720243717532
50.6720231857727
50.672022758674
50.6720226124457
50.6720225569587
50.6720225277626
50.6720225084173
50.6720224896961
50.6720224680278
50.672022446678
50.6720224321046
50.6720224219915
50.6720224128185
50.6720224072045
50.6720224017185
50.672022394451
50.6720223904508
50.6720223865882
50.6720223830103
50.6720224175857
50.6720225011003
50.6720226715967
50.6720231422418
50.6720244455161
50.6720278976219
50.6720366582859
50.6720578979976
50.6721071070492
50.6722159702694
50.6724460783316
50.6729122965519
50.673823850423
50.6755598829149
50.6787943780137
50.6845856542032
3520.41592251291
31691.0477845506
31621.4075289848
3512.76866920125
50.5764012280617
50.5719429553378
50.5695120193657
50.568239921326
50.5675893825038
50.5672648708449
50.5671082884137
50.5670357280455
50.5670035565322
50.5669899410206
50.5669844488072
50.5669823323924
50.5669815531659
50.566981281221
50.5669811944806
50.5669811670738
50.5669811560975
50.5669811499087
50.5669811430207
50.5669811325158
50.5669811203776
50.5669811120301
50.5669811072554
50.5669811029425
50.5669811000309
50.5669810965634
50.5669810912175
50.5669810870922
50.5669810815393
50.5669810719973
50.5669810901703
50.5669811407783
50.5669812428252
50.5669815384512
50.5669823748413
50.5669846180537
50.5669903654413
50.5670044290581
50.5670373294351
50.5671109306134
50.5672686343183
50.5675937064784
50.5682434800874
50.5695154539048
50.5719616274841
50.5764944410567
3512.789006404
31621.7333705745
31574.391865004
3507.71559031358
50.5058516483537
50.5028299070948
50.5012346345268
50.5004243215098
50.5000203574834
50.4998227315412
50.4997286569053
50.4996854398508
50.4996663762369
50.4996583300351
50.4996550896525
50.4996538440091
50.4996533889568
50.499653234326
50.4996531888354
50.4996531775691
50.4996531748693
50.4996531749048
50.4996531744763
50.4996531707165
50.4996531645498
50.4996531602941
50.4996531586273
50.4996531571026
50.4996531558345
50.4996531539271
50.4996531505949
50.4996531472936
50.4996531421622
50.4996531327613
50.4996531406013
50.4996531667943
50.4996532205048
50.4996533863369
50.499653863651
50.4996551547217
50.4996584858087
50.4996666891274
50.4996860134311
50.4997296166354
50.4998241090902
50.5000219063099
50.5004255691269
50.501237030658
50.5028465734779
50.5059314884286
3507.73338894635
31574.7260881775
31545.3899768358
3504.67348355064
50.4640020506698
50.4621707790651
50.4612329957577
50.4607698598276
50.4605444806365
50.460436207857
50.460385284313
50.4603620522333
50.4603518368537
50.4603475285463
50.4603457931463
50.4603451265107
50.4603448845416
50.4603448041016
50.4603447827925
50.4603447804202
50.4603447815486
50.4603447822925
50.4603447830863
50.4603447827641
50.4603447799749
50.4603447780981
50.4603447779993
50.4603447776962
50.4603447772448
50.4603447763738
50.4603447745234
50.4603447722583
50.4603447684587
50.460344761585
50.460344763978
50.4603447754551
50.460344800898
50.4603448862828
50.4603451351724
50.4603458118527
50.4603475663638
50.4603519044936
50.4603621699246
50.4603854783887
50.4604364584441
50.4605446354931
50.460769706678
50.4612337193723
50.4621816770447
50.4640585308064
3504.68677306756
31545.6692979984
31528.9269066838
3502.99024260894
50.4411799295175
50.4401690571239
50.4396659133156
50.4394238873882
50.4393087655852
50.4392543976934
50.4392291032262
50.4392176277491
50.4392125905207
50.4392104646461
50.4392096070538
50.439209277526
50.439209158631
50.4392091203214
50.4392091116727
50.4392091119301
50.4392091133854
50.4392091145125
50.4392091151777
50.439209115389
50.439209114572
50.4392091140164
50.439209114426
50.4392091144928
50.4392091143369
50.4392091139534
50.4392091129959
50.4392091116073
50.4392091092091
50.4392091053473
50.4392091050766
50.4392091088629
50.4392091203121
50.4392091612732
50.4392092817599
50.4392096103073
50.4392104649028
50.4392125821067
50.4392176040392
50.4392290545278
50.4392542830282
50.4393084617414
50.4394232229398
50.439665530965
50.4401746149757
50.4412142956787
3502.99895702556
31529.1276394445
31520.2516855549
3502.12629246428
50.429631198845
50.4291160217312
50.4288663065932
50.4287491045665
50.428694546784
50.428669195061
50.4286575172909
50.4286522434778
50.4286499299261
50.4286489518325
50.4286485563156
50.4286484042172
50.4286483496404
50.4286483326744
50.428648329528
50.4286483302527
50.4286483314052
50.4286483323049
50.4286483327438
50.4286483329362
50.4286483328866
50.4286483329509
50.4286483332777
50.428648333427
50.4286483333796
50.4286483331798
50.4286483327049
50.4286483319234
50.4286483305704
50.4286483285503
50.4286483279015
50.4286483288436
50.4286483334129
50.4286483518545
50.428648406592
50.4286485561331
50.4286489457842
50.4286499113089
50.428652202608
50.4286574390269
50.4286690409684
50.4286942190202
50.4287484447312
50.4288655456169
50.4291181834621
50.4296496347952
3502.13141622978
31520.3796541309
31515.9766281344
3501.71174545381
50.4241661515616
50.4239212088863
50.4238053771015
50.4237522461181
50.4237280142257
50.4237169271716
50.4237118675377
50.4237095912422
50.4237085924646
50.4237081691567
50.4237079974669
50.4237079313764
50.4237079077908
50.4237079007756
50.4237078997712
50.4237079003071
50.4237079010265
50.4237079015939
50.4237079019288
50.4237079021182
50.423707902177
50.423707902282
50.4237079024818
50.4237079025933
50.4237079025755
50.4237079024681
50.4237079022353
50.4237079018243
50.4237079011233
50.4237079001312
50.4237078997275
50.4237078998157
50.4237079014046
50.4237079092203
50.423707932741
50.4237079971207
50.4237081649428
50.4237085802364
50.4237095645987
50.4237118155579
50.4237168228568
50.4237277888914
50.4237517727359
50.4238046785299
50.4239217241384
50.4241750079722
3501.71448892784
31516.0504961811
31513.9940489588
3501.52456894556
50.4217319528769
50.4216223948676
50.4215717664072
50.4215490363469
50.4215388688444
50.4215342855298
50.4215322123669
50.4215312827204
50.4215308745007
50.4215307009622
50.4215306303382
50.421530603124
50.4215305934649
50.4215305907443
50.421530590476
50.4215305907657
50.4215305911531
50.4215305914621
50.4215305916612
50.4215305917805
50.4215305918396
50.4215305919164
50.4215305920178
50.4215305920758
50.4215305920628
50.4215305920044
50.4215305918909
50.4215305916849
50.421530591344
50.4215305908794
50.421530590646
50.421530590589
50.4215305911078
50.421530594211
50.4215306038269
50.4215306302242
50.4215306989887
50.4215308687062
50.4215312699177
50.4215321865196
50.4215342307027
50.421538742567
50.4215487518488
50.4215712781095
50.421622316784
50.4217357972607
3501.52592280838
31514.0332263457
31513.1241509066
3501.44460193257
50.4207059232628
50.4206595079811
50.4206385162061
50.4206292788541
50.4206252221986
50.4206234196109
50.4206226111783
50.4206222497194
50.4206220908132
50.4206220230326
50.4206219953486
50.4206219846698
50.4206219809061
50.420621979893
50.4206219798329
50.4206219799817
50.4206219801681
50.4206219803175
50.4206219804175
50.4206219804785
50.4206219805134
50.4206219805531
50.4206219805957
50.4206219806174
50.4206219806051
50.4206219805716
50.4206219805139
50.4206219804127
50.4206219802531
50.4206219800425
50.4206219799154
50.4206219798556
50.4206219800092
50.4206219811825
50.4206219849403
50.4206219953037
50.4206220222609
50.420622088552
50.4206222446577
50.4206226004792
50.4206233949647
50.4206251600734
50.4206291273952
50.4206382259951
50.4206593137246
50.4207074356591
3501.44522355097
31513.1434546445
31512.7614437497
3501.41213368138
50.4202949345416
50.4202762028175
50.420267900384
50.4202643147834
50.4202627673552
50.4202620892212
50.4202617875994
50.4202616531035
50.4202615938925
50.4202615685459
50.4202615581543
50.4202615541406
50.4202615527364
50.4202615523716
50.4202615523615
50.4202615524286
50.4202615525084
50.420261552572
50.4202615526144
50.4202615526391
50.4202615526527
50.4202615526666
50.4202615526788
50.4202615526814
50.4202615526691
50.4202615526474
50.4202615526152
50.4202615525642
50.4202615524894
50.4202615523942
50.4202615523273
50.4202615522859
50.4202615523228
50.4202615527445
50.4202615541517
50.4202615580619
50.4202615682172
50.4202615930844
50.4202616513629
50.4202617837447
50.4202620793136
50.4202627395054
50.4202642411837
50.4202677466283
50.4202760482407
50.4202954712367
3501.41240126451
31512.7703571774
31512.6172918327
3501.39957054945
50.4201381133326
50.4201308779771
50.4201277309933
50.4201263954981
50.4201258285582
50.4201255834065
50.4201254752459
50.4201254271394
50.4201254059279
50.4201253968141
50.4201253930624
50.4201253916101
50.4201253911042
50.4201253909749
50.4201253909723
50.4201253909971
50.4201253910258
50.4201253910475
50.4201253910604
50.4201253910657
50.4201253910662
50.420125391066
50.4201253910639
50.4201253910577
50.4201253910453
50.420125391029
50.4201253910082
50.4201253909798
50.4201253909422
50.4201253908968
50.4201253908604
50.4201253908335
50.4201253908352
50.4201253909764
50.4201253914799
50.4201253928997
50.4201253965868
50.4201254055785
50.420125426541
50.4201254739533
50.4201255796905
50.4201258168622
50.4201263621802
50.420127656399
50.4201307848867
50.4201382819821
3501.39967920967
31512.6211759269
31512.562659004
3501.39494111534
50.4200812070593
50.4200785213976
50.4200773736738
50.4200768945112
50.4200766942293
50.4200766087306
50.4200765713061
50.4200765547022
50.4200765473693
50.4200765442062
50.4200765428977
50.4200765423887
50.4200765422102
50.4200765421627
50.4200765421587
50.4200765421638
50.4200765421697
50.4200765421725
50.4200765421716
50.4200765421675
50.4200765421612
50.4200765421542
50.4200765421461
50.4200765421361
50.4200765421237
50.4200765421096
50.4200765420938
50.4200765420749
50.4200765420528
50.4200765420278
50.4200765420055
50.4200765419871
50.4200765419786
50.4200765420186
50.4200765421878
50.4200765426819
50.4200765439724
50.4200765471132
50.4200765544
50.4200765708043
50.4200766073168
50.4200766894736
50.4200768802034
50.4200773399075
50.4200784730268
50.420081251531
3501.39498295009
31512.5642655092
31512.5430405146
3501.39333328491
50.4200618325591
50.4200608713199
50.4200604672121
50.4200603010542
50.4200602326069
50.4200602037451
50.4200601912094
50.4200601856617
50.4200601832074
50.4200601821439
50.4200601817007
50.4200601815258
50.4200601814621
50.420060181442
50.420060181436
50.4200601814326
50.4200601814289
50.4200601814237
50.4200601814169
50.4200601814086
50.4200601813992
50.4200601813892
50.4200601813786
50.4200601813671
50.4200601813547
50.4200601813415
50.4200601813277
50.4200601813128
50.4200601812967
50.4200601812796
50.4200601812634
50.4200601812485
50.4200601812372
50.4200601812424
50.4200601812922
50.4200601814535
50.4200601818863
50.420060182945
50.4200601853958
50.4200601908917
50.4200602030973
50.4200602306261
50.4200602950886
50.4200604527062
50.4200608484913
50.4200618405776
3501.39334861446
31512.543674239
31512.5365524082
3501.39282948566
50.4200559821478
50.4200556494432
50.4200555116854
50.4200554558431
50.4200554331517
50.4200554236964
50.4200554196213
50.4200554178225
50.420055417025
50.4200554166771
50.4200554165298
50.4200554164693
50.4200554164444
50.4200554164331
50.4200554164259
50.420055416419
50.4200554164115
50.4200554164032
50.4200554163939
50.4200554163838
50.420055416373
50.4200554163618
50.4200554163502
50.4200554163382
50.4200554163258
50.420055416313
50.4200554162999
50.4200554162865
50.4200554162727
50.4200554162585
50.4200554162447
50.4200554162314
50.4200554162193
50.4200554162128
50.4200554162211
50.4200554162666
50.4200554164019
50.4200554167429
50.420055417538
50.4200554193207
50.4200554232764
50.4200554322188
50.4200554533265
50.4200555056374
50.4200556393391
50.4200559816112
3501.39283484369
31512.5367917618
31512.5348013299
3501.39271401994
50.4200548222006
50.4200547105655
50.4200546649897
50.4200546467597
50.4200546394477
50.4200546364363
50.4200546351488
50.4200546345821
50.4200546343298
50.4200546342181
50.4200546341688
50.4200546341462
50.420054634134
50.4200546341254
50.4200546341176
50.4200546341093
50.4200546341004
50.4200546340908
50.4200546340805
50.4200546340697
50.4200546340584
50.4200546340467
50.4200546340347
50.4200546340224
50.4200546340099
50.4200546339973
50.4200546339845
50.4200546339716
50.4200546339586
50.4200546339455
50.4200546339326
50.4200546339199
50.4200546339077
50.4200546338973
50.4200546338917
50.420054633898
50.4200546339332
50.4200546340339
50.4200546342787
50.420054634835
50.4200546360755
50.4200546388928
50.4200546455995
50.4200546624405
50.4200547062276
50.4200548206081
3501.3927158036
31512.5348881345
31512.5346993259
3501.39273044545
50.4200552326192
50.4200551962327
50.4200551815712
50.4200551757814
50.4200551734889
50.4200551725565
50.4200551721615
50.420055171988
50.42005517191
50.4200551718739
50.420055171856
50.4200551718454
50.4200551718373
50.4200551718295
50.4200551718213
50.4200551718125
50.420055171803
50.4200551717929
50.4200551717823
50.4200551717711
50.4200551717595
50.4200551717477
50.4200551717355
50.4200551717231
50.4200551717106
50.420055171698
50.4200551716853
50.4200551716726
50.4200551716599
50.4200551716472
50.4200551716346
50.4200551716221
50.4200551716099
50.4200551715982
50.4200551715881
50.4200551715816
50.420055171584
50.4200551716067
50.4200551716736
50.420055171836
50.4200551722081
50.4200551730654
50.420055175132
50.420055180397
50.4200551943246
50.4200552314249
3501.39273100377
31512.5347295772
31512.5351527572
3501.39279023859
50.4200561518927
50.4200561403545
50.4200561357628
50.4200561339733
50.4200561332749
50.4200561329953
50.4200561328783
50.4200561328269
50.4200561328028
50.4200561327902
50.4200561327819
50.420056132775
50.420056132768
50.4200561327603
50.420056132752
50.4200561327429
50.4200561327332
50.4200561327228
50.420056132712
50.4200561327007
50.420056132689
50.420056132677
50.4200561326648
50.4200561326523
50.4200561326398
50.4200561326272
50.4200561326145
50.4200561326018
50.4200561325892
50.4200561325766
50.4200561325642
50.4200561325518
50.4200561325396
50.4200561325276
50.4200561325161
50.4200561325056
50.4200561324977
50.4200561324957
50.4200561325069
50.4200561325463
50.4200561326481
50.4200561328953
50.4200561335089
50.4200561351052
50.4200561394111
50.4200561511085
3501.39279039405
31512.5351628449
31512.5357876183
3501.39286386974
50.4200572311228
50.4200572275613
50.4200572261616
50.4200572256247
50.4200572254193
50.4200572253392
50.4200572253063
50.4200572252915
50.4200572252835
50.4200572252777
50.4200572252722
50.4200572252662
50.4200572252594
50.4200572252518
50.4200572252432
50.420057225234
50.4200572252241
50.4200572252136
50.4200572252026
50.4200572251913
50.4200572251795
50.4200572251674
50.4200572251552
50.4200572251427
50.4200572251301
50.4200572251174
50.4200572251048
50.4200572250921
50.4200572250795
50.420057225067
50.4200572250546
50.4200572250423
50.4200572250302
50.4200572250181
50.4200572250062
50.4200572249946
50.4200572249837
50.4200572249743
50.4200572249686
50.4200572249709
50.4200572249911
50.4200572250537
50.4200572252246
50.42005722569
50.4200572269819
50.4200572305679
3501.39286389771
31512.5357907667
31512.5364800736
3501.39294179477
50.420058359233
50.4200583581646
50.4200583577509
50.420058357596
50.4200583575389
50.4200583575178
50.4200583575093
50.4200583575049
50.4200583575013
50.4200583574972
50.4200583574923
50.4200583574864
50.4200583574795
50.4200583574717
50.4200583574631
50.4200583574537
50.4200583574436
50.4200583574331
50.420058357422
50.4200583574105
50.4200583573987
50.4200583573865
50.4200583573742
50.4200583573617
50.4200583573491
50.4200583573365
50.4200583573238
50.4200583573111
50.4200583572985
50.4200583572861
50.4200583572737
50.4200583572615
50.4200583572493
50.4200583572374
50.4200583572255
50.4200583572137
50.420058357202
50.4200583571907
50.4200583571803
50.4200583571719
50.4200583571686
50.4200583571771
50.4200583572171
50.4200583573435
50.4200583577162
50.4200583587821
3501.39294178389
31512.5364809138
31512.5371903305
3501.39302101788
50.4200595018907
50.4200595015819
50.4200595014649
50.4200595014231
50.4200595014091
50.4200595014045
50.4200595014024
50.4200595014004
50.4200595013977
50.4200595013938
50.4200595013888
50.4200595013827
50.4200595013757
50.4200595013676
50.4200595013588
50.4200595013493
50.4200595013392
50.4200595013285
50.4200595013173
50.4200595013057
50.4200595012938
50.4200595012817
50.4200595012693
50.4200595012568
50.4200595012441
50.4200595012314
50.4200595012187
50.4200595012061
50.4200595011935
50.4200595011811
50.4200595011688
50.4200595011566
50.4200595011446
50.4200595011327
50.4200595011209
50.4200595011092
50.4200595010975
50.420059501086
50.4200595010746
50.4200595010636
50.420059501054
50.4200595010477
50.4200595010505
50.4200595010784
50.4200595011783
50.4200595014817
3501.39302099549
31512.5371904232
31512.5379059539
3501.39310062397
50.4200606487724
50.4200606486891
50.4200606486587
50.4200606486491
50.4200606486466
50.4200606486459
50.420060648645
50.4200606486432
50.4200606486402
50.4200606486361
50.4200606486308
50.4200606486244
50.4200606486171
50.4200606486089
50.4200606485999
50.4200606485903
50.42006064858
50.4200606485692
50.4200606485579
50.4200606485463
50.4200606485343
50.4200606485221
50.4200606485096
50.420060648497
50.4200606484844
50.4200606484717
50.420060648459
50.4200606484463
50.4200606484338
50.4200606484214
50.4200606484091
50.420060648397
50.4200606483851
50.4200606483734
50.4200606483617
50.4200606483503
50.4200606483388
50.4200606483275
50.4200606483162
50.420060648305
50.4200606482942
50.4200606482845
50.4200606482776
50.4200606482782
50.4200606482998
50.4200606483785
3501.39310059826
31512.5379058118
31512.5386231574
3501.39318034049
50.4200617968526
50.4200617968342
50.4200617968279
50.4200617968265
50.4200617968264
50.4200617968261
50.4200617968249
50.4200617968225
50.4200617968191
50.4200617968145
50.4200617968088
50.4200617968021
50.4200617967945
50.4200617967861
50.4200617967769
50.4200617967671
50.4200617967567
50.4200617967458
50.4200617967344
50.4200617967227
50.4200617967106
50.4200617966983
50.4200617966859
50.4200617966732
50.4200617966606
50.4200617966478
50.4200617966351
50.4200617966225
50.42006179661
50.4200617965976
50.4200617965854
50.4200617965734
50.4200617965616
50.42006179655
50.4200617965386
50.4200617965274
50.4200617965163
50.4200617965053
50.4200617964945
50.4200617964837
50.4200617964733
50.4200617964634
50.4200617964546
50.4200617964485
50.4200617964487
50.4200617964633
3501.39318031382
31512.5386229442
31512.5393408162
3501.39326008819
50.4200629452655
50.4200629452647
50.4200629452644
50.4200629452645
50.4200629452642
50.4200629452632
50.4200629452613
50.4200629452583
50.4200629452543
50.4200629452491
50.420062945243
50.420062945236
50.4200629452282
50.4200629452195
50.4200629452101
50.4200629452001
50.4200629451896
50.4200629451785
50.4200629451671
50.4200629451552
50.4200629451432
50.4200629451308
50.4200629451183
50.4200629451056
50.4200629450929
50.4200629450801
50.4200629450675
50.4200629450549
50.4200629450424
50.42006294503
50.4200629450179
50.420062945006
50.4200629449943
50.4200629449829
50.4200629449717
50.4200629449607
50.42006294495
50.4200629449395
50.4200629449291
50.4200629449191
50.4200629449093
50.4200629449001
50.4200629448917
50.4200629448846
50.4200629448797
50.420062944877
3501.3932600612
31512.5393405787
31512.5400586034
3501.39333984452
50.420064093769
50.4200640937724
50.4200640937729
50.4200640937725
50.4200640937714
50.4200640937695
50.4200640937668
50.4200640937631
50.4200640937584
50.4200640937527
50.4200640937462
50.4200640937388
50.4200640937307
50.4200640937217
50.4200640937122
50.420064093702
50.4200640936913
50.4200640936801
50.4200640936686
50.4200640936567
50.4200640936445
50.420064093632
50.4200640936195
50.4200640936068
50.4200640935941
50.4200640935813
50.4200640935686
50.420064093556
50.4200640935436
50.4200640935313
50.4200640935193
50.4200640935074
50.4200640934959
50.4200640934846
50.4200640934737
50.420064093463
50.4200640934526
50.4200640934426
50.4200640934328
50.4200640934235
50.4200640934145
50.4200640934062
50.4200640933986
50.4200640933921
50.4200640933866
50.4200640933799
3501.39333981734
31512.5400583601
31512.5407764262
3501.39341960319
50.4200652422968
50.4200652423006
50.4200652423005
50.4200652422992
50.4200652422971
50.4200652422942
50.4200652422906
50.4200652422862
50.4200652422809
50.4200652422747
50.4200652422677
50.42006524226
50.4200652422515
50.4200652422423
50.4200652422326
50.4200652422222
50.4200652422114
50.4200652422001
50.4200652421884
50.4200652421764
50.4200652421641
50.4200652421516
50.420065242139
50.4200652421263
50.4200652421135
50.4200652421008
50.4200652420881
50.4200652420755
50.4200652420631
50.4200652420509
50.4200652420389
50.4200652420272
50.4200652420158
50.4200652420048
50.420065241994
50.4200652419837
50.4200652419737
50.4200652419641
50.4200652419549
50.4200652419462
50.4200652419381
50.4200652419307
50.4200652419241
50.4200652419186
50.4200652419137
50.4200652419067
3501.39341957596
31512.5407761803
31512.5414942587
3501.39349936249
50.420066390831
50.4200663908341
50.4200663908332
50.4200663908308
50.4200663908276
50.4200663908239
50.4200663908195
50.4200663908143
50.4200663908084
50.4200663908017
50.4200663907942
50.4200663907862
50.4200663907774
50.4200663907679
50.4200663907579
50.4200663907474
50.4200663907364
50.4200663907249
50.4200663907131
50.4200663907011
50.4200663906887
50.4200663906762
50.4200663906635
50.4200663906508
50.420066390638
50.4200663906252
50.4200663906125
50.4200663906
50.4200663905876
50.4200663905754
50.4200663905636
50.420066390552
50.4200663905408
50.4200663905299
50.4200663905194
50.4200663905094
50.4200663904998
50.4200663904906
50.420066390482
50.420066390474
50.4200663904667
50.4200663904602
50.4200663904546
50.4200663904501
50.4200663904462
50.4200663904397
3501.39349933517
31512.5414940127
31512.5422120939
3501.39357912197
50.420067539367
50.4200675393692
50.4200675393672
50.4200675393637
50.4200675393597
50.420067539355
50.4200675393497
50.4200675393438
50.4200675393373
50.4200675393301
50.4200675393222
50.4200675393138
50.4200675393046
50.420067539295
50.4200675392848
50.420067539274
50.4200675392629
50.4200675392513
50.4200675392394
50.4200675392272
50.4200675392148
50.4200675392021
50.4200675391895
50.4200675391766
50.4200675391639
50.4200675391511
50.4200675391384
50.4200675391259
50.4200675391136
50.4200675391015
50.4200675390897
50.4200675390783
50.4200675390672
50.4200675390565
50.4200675390463
50.4200675390366
50.4200675390273
50.4200675390187
50.4200675390107
50.4200675390033
50.4200675389967
50.4200675389911
50.4200675389865
50.4200675389831
50.4200675389801
50.4200675389746
3501.39357909461
31512.5422118469
31512.5429299299
3501.3936588815
50.4200686879035
50.4200686879047
50.4200686879017
50.4200686878972
50.4200686878922
50.4200686878866
50.4200686878805
50.420068687874
50.4200686878668
50.4200686878591
50.4200686878508
50.420068687842
50.4200686878325
50.4200686878226
50.4200686878121
50.4200686878012
50.4200686877899
50.4200686877782
50.4200686877661
50.4200686877539
50.4200686877414
50.4200686877287
50.420068687716
50.4200686877031
50.4200686876903
50.4200686876776
50.4200686876649
50.4200686876524
50.4200686876401
50.4200686876281
50.4200686876164
50.4200686876051
50.4200686875942
50.4200686875838
50.4200686875738
50.4200686875643
50.4200686875555
50.4200686875473
50.4200686875399
50.4200686875332
50.4200686875274
50.4200686875226
50.4200686875189
50.4200686875165
50.4200686875145
50.42006868751
3501.39365885402
31512.5429296821
31512.5436477662
3501.39373864106
50.4200698364403
50.4200698364404
50.4200698364364
50.4200698364308
50.4200698364249
50.4200698364184
50.4200698364116
50.4200698364044
50.4200698363966
50.4200698363884
50.4200698363797
50.4200698363704
50.4200698363607
50.4200698363505
50.4200698363398
50.4200698363287
50.4200698363172
50.4200698363053
50.4200698362932
50.4200698362808
50.4200698362683
50.4200698362555
50.4200698362427
50.4200698362299
50.4200698362171
50.4200698362043
50.4200698361916
50.4200698361792
50.420069836167
50.420069836155
50.4200698361434
50.4200698361323
50.4200698361215
50.4200698361112
50.4200698361015
50.4200698360924
50.420069836084
50.4200698360763
50.4200698360693
50.4200698360633
50.4200698360582
50.4200698360543
50.4200698360515
50.4200698360501
50.4200698360491
50.4200698360457
3501.39373861345
31512.5436475155
31512.5443656027
3501.39381840063
50.4200709849772
50.4200709849762
50.4200709849711
50.4200709849646
50.4200709849577
50.4200709849504
50.4200709849428
50.4200709849349
50.4200709849266
50.4200709849179
50.4200709849087
50.4200709848991
50.420070984889
50.4200709848786
50.4200709848677
50.4200709848564
50.4200709848447
50.4200709848327
50.4200709848205
50.420070984808
50.4200709847954
50.4200709847826
50.4200709847698
50.4200709847569
50.420070984744
50.4200709847312
50.4200709847186
50.4200709847062
50.420070984694
50.4200709846822
50.4200709846707
50.4200709846597
50.4200709846491
50.420070984639
50.4200709846296
50.4200709846208
50.4200709846127
50.4200709846054
50.420070984599
50.4200709845936
50.4200709845893
50.4200709845862
50.4200709845843
50.4200709845838
50.4200709845839
50.4200709845816
3501.39381837299
31512.5443653524
31512.5450834394
3501.39389816022
50.4200721335142
50.420072133512
50.4200721335059
50.4200721334983
50.4200721334905
50.4200721334824
50.4200721334741
50.4200721334655
50.4200721334566
50.4200721334474
50.4200721334379
50.4200721334279
50.4200721334176
50.4200721334068
50.4200721333957
50.4200721333842
50.4200721333724
50.4200721333603
50.4200721333479
50.4200721333354
50.4200721333226
50.4200721333098
50.4200721332969
50.420072133284
50.4200721332712
50.4200721332584
50.4200721332458
50.4200721332334
50.4200721332213
50.4200721332095
50.4200721331981
50.4200721331872
50.4200721331768
50.420072133167
50.4200721331578
50.4200721331493
50.4200721331416
50.4200721331347
50.4200721331289
50.4200721331241
50.4200721331204
50.4200721331181
50.4200721331171
50.4200721331177
50.4200721331187
50.4200721331176
3501.39389813255
31512.5450831896
31512.5458012764
3501.39397791982
50.4200732820514
50.4200732820478
50.4200732820405
50.4200732820319
50.4200732820232
50.4200732820143
50.4200732820054
50.4200732819962
50.4200732819868
50.4200732819771
50.4200732819671
50.4200732819568
50.4200732819461
50.4200732819351
50.4200732819238
50.4200732819121
50.4200732819002
50.4200732818879
50.4200732818755
50.4200732818628
50.4200732818501
50.4200732818372
50.4200732818242
50.4200732818113
50.4200732817984
50.4200732817857
50.4200732817731
50.4200732817607
50.4200732817487
50.420073281737
50.4200732817257
50.4200732817149
50.4200732817047