/*--------------------------------*- C++ -*----------------------------------*\
  =========                 |
  \\      /  F ield         | OpenFOAM: The Open Source CFD Toolbox
   \\    /   O peration     | Website:  https://openfoam.org
    \\  /    A nd           | Version:  10
     \\/     M anipulation  |
\*---------------------------------------------------------------------------*/
FoamFile
{
    format      ascii;
    class       volScalarField;
    location    "5.8";
    object      p;
}
// * * * * * * * * * * * * * * * * * * * * * * * * * * * * * * * * * * * * * //

dimensions      [1 -1 -2 0 0 0 0];

internalField   nonuniform List<scalar> 
2500
(
100091.380873495
100091.380874555
100091.380875534
100091.380876363
100091.380876895
100091.380877244
100091.380877455
100091.380877585
100091.380877663
100091.38087771
100091.380877738
100091.380877756
100091.380877767
100091.380877775
100091.38087778
100091.380877784
100091.380877788
100091.380877791
100091.380877795
100091.380877798
100091.380877802
100091.380877806
100091.380877811
100091.380877815
100091.380877821
100091.380877826
100091.380877832
100091.380877838
100091.380877844
100091.38087785
100091.380877856
100091.380877863
100091.380877869
100091.380877874
100091.38087788
100091.380877884
100091.380877886
100091.380877886
100091.380877882
100091.38087787
100091.380877847
100091.380877805
100091.380877731
100091.380877605
100091.380877397
100091.380877048
100091.380876515
100091.380875678
100091.380874684
100091.380873623
100091.378625417
100091.378626228
100091.378627
100091.378627708
100091.378628173
100091.378628488
100091.378628682
100091.378628802
100091.378628875
100091.378628919
100091.378628946
100091.378628964
100091.378628975
100091.378628982
100091.378628987
100091.378628992
100091.378628995
100091.378628999
100091.378629002
100091.378629006
100091.37862901
100091.378629014
100091.378629019
100091.378629024
100091.378629029
100091.378629034
100091.37862904
100091.378629046
100091.378629052
100091.378629058
100091.378629064
100091.378629071
100091.378629077
100091.378629082
100091.378629087
100091.378629091
100091.378629094
100091.378629094
100091.378629089
100091.378629078
100091.378629057
100091.378629017
100091.378628949
100091.378628832
100091.378628641
100091.378628327
100091.37862786
100091.378627146
100091.378626359
100091.378625551
100091.376368617
100091.376369167
100091.376369607
100091.376370087
100091.37637041
100091.376370642
100091.376370788
100091.376370882
100091.376370941
100091.376370977
100091.376371001
100091.376371016
100091.376371027
100091.376371034
100091.376371039
100091.376371043
100091.376371047
100091.376371051
100091.376371054
100091.376371058
100091.376371062
100091.376371066
100091.376371071
100091.376371075
100091.376371081
100091.376371086
100091.376371092
100091.376371098
100091.376371104
100091.37637111
100091.376371116
100091.376371122
100091.376371128
100091.376371134
100091.376371139
100091.376371143
100091.376371146
100091.376371146
100091.376371142
100091.376371134
100091.376371116
100091.376371084
100091.376371029
100091.376370939
100091.376370795
100091.376370564
100091.37637024
100091.376369755
100091.376369305
100091.376368751
100091.374104459
100091.374104708
100091.374104835
100091.37410506
100091.374105216
100091.374105344
100091.37410543
100091.37410549
100091.37410553
100091.374105558
100091.374105576
100091.374105589
100091.374105598
100091.374105604
100091.374105609
100091.374105613
100091.374105617
100091.374105621
100091.374105624
100091.374105628
100091.374105632
100091.374105636
100091.374105641
100091.374105646
100091.374105651
100091.374105656
100091.374105662
100091.374105668
100091.374105674
100091.37410568
100091.374105686
100091.374105693
100091.374105699
100091.374105704
100091.374105709
100091.374105714
100091.374105716
100091.374105717
100091.374105715
100091.374105709
100091.374105696
100091.374105675
100091.374105639
100091.374105583
100091.374105499
100091.374105372
100091.374105216
100091.374104987
100091.374104856
100091.374104599
100091.371834464
100091.37183446
100091.371834374
100091.371834401
100091.371834424
100091.371834466
100091.371834501
100091.371834531
100091.371834554
100091.371834571
100091.371834584
100091.371834594
100091.371834601
100091.371834607
100091.371834611
100091.371834615
100091.371834619
100091.371834622
100091.371834626
100091.37183463
100091.371834634
100091.371834638
100091.371834643
100091.371834648
100091.371834653
100091.371834658
100091.371834664
100091.37183467
100091.371834676
100091.371834682
100091.371834688
100091.371834695
100091.371834701
100091.371834706
100091.371834712
100091.371834716
100091.371834719
100091.371834721
100091.371834721
100091.371834718
100091.371834711
100091.371834698
100091.37183468
100091.371834654
100091.371834623
100091.371834583
100091.37183456
100091.371834533
100091.37183462
100091.371834618
100091.369560261
100091.369560095
100091.369559897
100091.369559793
100091.369559729
100091.369559709
100091.369559706
100091.369559712
100091.369559721
100091.36955973
100091.369559738
100091.369559745
100091.36955975
100091.369559755
100091.369559759
100091.369559762
100091.369559766
100091.369559769
100091.369559773
100091.369559776
100091.36955978
100091.369559785
100091.369559789
100091.369559794
100091.369559799
100091.369559805
100091.369559811
100091.369559817
100091.369559823
100091.369559829
100091.369559835
100091.369559841
100091.369559847
100091.369559853
100091.369559859
100091.369559864
100091.369559868
100091.369559871
100091.369559872
100091.369559872
100091.36955987
100091.369559866
100091.369559862
100091.36955986
100091.369559867
100091.36955989
100091.369559956
100091.369560063
100091.369560267
100091.369560431
100091.367283346
100091.36728311
100091.367282876
100091.367282705
100091.367282593
100091.367282535
100091.367282506
100091.367282495
100091.367282493
100091.367282495
100091.367282498
100091.367282502
100091.367282506
100091.367282509
100091.367282513
100091.367282516
100091.367282519
100091.367282522
100091.367282526
100091.367282529
100091.367282533
100091.367282538
100091.367282542
100091.367282547
100091.367282553
100091.367282558
100091.367282564
100091.36728257
100091.367282576
100091.367282582
100091.367282588
100091.367282595
100091.367282601
100091.367282607
100091.367282613
100091.367282618
100091.367282623
100091.367282627
100091.36728263
100091.367282633
100091.367282635
100091.367282639
100091.367282646
100091.367282661
100091.367282694
100091.367282756
100091.367282872
100091.367283048
100091.367283291
100091.367283529
100091.365004846
100091.365004609
100091.365004384
100091.365004192
100091.365004061
100091.365003982
100091.365003938
100091.365003915
100091.365003904
100091.365003901
100091.3650039
100091.365003902
100091.365003904
100091.365003906
100091.365003908
100091.365003911
100091.365003914
100091.365003917
100091.36500392
100091.365003924
100091.365003928
100091.365003932
100091.365003937
100091.365003942
100091.365003947
100091.365003953
100091.365003959
100091.365003964
100091.365003971
100091.365003977
100091.365003983
100091.36500399
100091.365003996
100091.365004002
100091.365004008
100091.365004014
100091.36500402
100091.365004025
100091.36500403
100091.365004035
100091.365004042
100091.365004051
100091.365004066
100091.365004094
100091.365004142
100091.365004225
100091.365004361
100091.36500456
100091.365004794
100091.365005038
100091.362725506
100091.3627253
100091.362725106
100091.36272492
100091.362724788
100091.362724701
100091.362724648
100091.362724618
100091.362724601
100091.362724592
100091.362724589
100091.362724588
100091.362724588
100091.362724589
100091.362724591
100091.362724593
100091.362724596
100091.362724599
100091.362724602
100091.362724605
100091.362724609
100091.362724614
100091.362724618
100091.362724623
100091.362724629
100091.362724634
100091.36272464
100091.362724646
100091.362724652
100091.362724658
100091.362724665
100091.362724671
100091.362724678
100091.362724684
100091.362724691
100091.362724697
100091.362724703
100091.36272471
100091.362724717
100091.362724724
100091.362724734
100091.362724748
100091.36272477
100091.362724805
100091.362724862
100091.362724953
100091.36272509
100091.362725284
100091.362725487
100091.3627257
100091.360445758
100091.360445596
100091.360445437
100091.36044527
100091.360445147
100091.360445059
100091.360445003
100091.360444968
100091.360444947
100091.360444934
100091.360444928
100091.360444925
100091.360444923
100091.360444924
100091.360444925
100091.360444926
100091.360444929
100091.360444931
100091.360444934
100091.360444938
100091.360444942
100091.360444946
100091.360444951
100091.360444956
100091.360444961
100091.360444967
100091.360444972
100091.360444978
100091.360444985
100091.360444991
100091.360444997
100091.360445004
100091.360445011
100091.360445017
100091.360445024
100091.360445031
100091.360445038
100091.360445046
100091.360445054
100091.360445064
100091.360445077
100091.360445094
100091.36044512
100091.360445161
100091.360445221
100091.360445313
100091.360445442
100091.360445615
100091.360445782
100091.360445952
100091.358165834
100091.358165712
100091.358165585
100091.358165442
100091.358165331
100091.358165248
100091.358165191
100091.358165153
100091.358165129
100091.358165114
100091.358165105
100091.3581651
100091.358165098
100091.358165097
100091.358165097
100091.358165099
100091.3581651
100091.358165103
100091.358165106
100091.358165109
100091.358165113
100091.358165118
100091.358165122
100091.358165127
100091.358165132
100091.358165138
100091.358165144
100091.35816515
100091.358165156
100091.358165162
100091.358165169
100091.358165176
100091.358165183
100091.35816519
100091.358165197
100091.358165204
100091.358165212
100091.35816522
100091.35816523
100091.358165242
100091.358165257
100091.358165278
100091.358165307
100091.358165349
100091.35816541
100091.358165498
100091.358165614
100091.358165763
100091.358165895
100091.358166023
100091.355885841
100091.355885752
100091.355885653
100091.355885532
100091.355885435
100091.355885358
100091.355885303
100091.355885264
100091.355885238
100091.355885221
100091.355885211
100091.355885204
100091.355885201
100091.355885199
100091.355885199
100091.355885199
100091.355885201
100091.355885203
100091.355885206
100091.35588521
100091.355885213
100091.355885218
100091.355885222
100091.355885227
100091.355885233
100091.355885238
100091.355885244
100091.35588525
100091.355885256
100091.355885263
100091.355885269
100091.355885276
100091.355885283
100091.355885291
100091.355885298
100091.355885306
100091.355885314
100091.355885324
100091.355885335
100091.355885348
100091.355885365
100091.355885387
100091.355885418
100091.355885462
100091.355885521
100091.355885603
100091.355885704
100091.355885829
100091.355885933
100091.355886026
100091.353605827
100091.353605762
100091.353605685
100091.353605585
100091.353605501
100091.35360543
100091.353605378
100091.35360534
100091.353605314
100091.353605296
100091.353605284
100091.353605276
100091.353605271
100091.353605269
100091.353605268
100091.353605269
100091.35360527
100091.353605272
100091.353605275
100091.353605278
100091.353605282
100091.353605286
100091.353605291
100091.353605296
100091.353605301
100091.353605307
100091.353605313
100091.353605319
100091.353605325
100091.353605332
100091.353605338
100091.353605345
100091.353605352
100091.35360536
100091.353605368
100091.353605376
100091.353605385
100091.353605395
100091.353605407
100091.353605421
100091.353605439
100091.353605463
100091.353605495
100091.353605538
100091.353605594
100091.353605669
100091.353605757
100091.35360586
100091.353605941
100091.353606007
100091.351325809
100091.351325762
100091.351325701
100091.351325619
100091.351325547
100091.351325484
100091.351325435
100091.351325398
100091.351325372
100091.351325353
100091.35132534
100091.351325332
100091.351325327
100091.351325324
100091.351325323
100091.351325323
100091.351325324
100091.351325326
100091.351325328
100091.351325332
100091.351325335
100091.35132534
100091.351325344
100091.351325349
100091.351325355
100091.35132536
100091.351325366
100091.351325372
100091.351325379
100091.351325385
100091.351325392
100091.351325399
100091.351325406
100091.351325414
100091.351325422
100091.351325431
100091.35132544
100091.351325451
100091.351325463
100091.351325479
100091.351325498
100091.351325522
100091.351325554
100091.351325596
100091.351325648
100091.351325716
100091.351325791
100091.351325876
100091.351325939
100091.351325986
100091.349045793
100091.349045759
100091.349045711
100091.349045643
100091.349045581
100091.349045525
100091.34904548
100091.349045445
100091.34904542
100091.349045401
100091.349045388
100091.349045379
100091.349045373
100091.34904537
100091.349045368
100091.349045368
100091.349045369
100091.349045371
100091.349045373
100091.349045376
100091.34904538
100091.349045384
100091.349045389
100091.349045394
100091.349045399
100091.349045405
100091.349045411
100091.349045417
100091.349045423
100091.34904543
100091.349045437
100091.349045444
100091.349045451
100091.349045459
100091.349045468
100091.349045476
100091.349045486
100091.349045498
100091.349045511
100091.349045526
100091.349045546
100091.349045571
100091.349045602
100091.349045641
100091.34904569
100091.34904575
100091.349045815
100091.349045885
100091.349045933
100091.349045967
100091.346765779
100091.346765754
100091.346765716
100091.34676566
100091.346765607
100091.346765557
100091.346765517
100091.346765484
100091.346765459
100091.346765441
100091.346765428
100091.346765419
100091.346765413
100091.346765409
100091.346765407
100091.346765407
100091.346765408
100091.346765409
100091.346765412
100091.346765415
100091.346765419
100091.346765423
100091.346765428
100091.346765433
100091.346765438
100091.346765444
100091.34676545
100091.346765456
100091.346765462
100091.346765469
100091.346765476
100091.346765483
100091.346765491
100091.346765498
100091.346765507
100091.346765516
100091.346765526
100091.346765538
100091.346765551
100091.346765567
100091.346765587
100091.346765611
100091.346765641
100091.346765679
100091.346765723
100091.346765776
100091.346765832
100091.346765889
100091.346765928
100091.346765951
100091.344485767
100091.344485748
100091.344485718
100091.344485672
100091.344485627
100091.344485583
100091.344485547
100091.344485516
100091.344485493
100091.344485475
100091.344485462
100091.344485453
100091.344485447
100091.344485443
100091.344485441
100091.344485441
100091.344485442
100091.344485443
100091.344485446
100091.344485449
100091.344485453
100091.344485457
100091.344485462
100091.344485467
100091.344485472
100091.344485478
100091.344485484
100091.34448549
100091.344485496
100091.344485503
100091.34448551
100091.344485517
100091.344485525
100091.344485533
100091.344485541
100091.344485551
100091.344485561
100091.344485573
100091.344485586
100091.344485602
100091.344485622
100091.344485645
100091.344485674
100091.344485709
100091.344485749
100091.344485796
100091.344485844
100091.344485891
100091.344485921
100091.344485938
100091.342205757
100091.342205742
100091.342205717
100091.342205679
100091.342205641
100091.342205603
100091.342205571
100091.342205543
100091.342205521
100091.342205504
100091.342205492
100091.342205483
100091.342205477
100091.342205473
100091.342205471
100091.342205471
100091.342205471
100091.342205473
100091.342205476
100091.342205479
100091.342205483
100091.342205487
100091.342205491
100091.342205497
100091.342205502
100091.342205508
100091.342205514
100091.34220552
100091.342205526
100091.342205533
100091.34220554
100091.342205547
100091.342205555
100091.342205563
100091.342205572
100091.342205581
100091.342205591
100091.342205603
100091.342205617
100091.342205632
100091.342205651
100091.342205674
100091.342205701
100091.342205733
100091.34220577
100091.342205811
100091.342205852
100091.342205891
100091.342205915
100091.342205927
100091.339925747
100091.339925735
100091.339925715
100091.339925684
100091.339925651
100091.339925619
100091.33992559
100091.339925565
100091.339925545
100091.339925529
100091.339925517
100091.339925509
100091.339925503
100091.339925499
100091.339925497
100091.339925497
100091.339925498
100091.339925499
100091.339925502
100091.339925505
100091.339925509
100091.339925513
100091.339925518
100091.339925523
100091.339925528
100091.339925534
100091.33992554
100091.339925546
100091.339925553
100091.339925559
100091.339925566
100091.339925574
100091.339925581
100091.339925589
100091.339925598
100091.339925607
100091.339925618
100091.33992563
100091.339925643
100091.339925658
100091.339925677
100091.339925698
100091.339925724
100091.339925753
100091.339925786
100091.339925822
100091.339925857
100091.33992589
100091.339925909
100091.339925918
100091.337645737
100091.337645728
100091.337645712
100091.337645686
100091.337645659
100091.33764563
100091.337645605
100091.337645583
100091.337645564
100091.33764555
100091.337645539
100091.337645531
100091.337645525
100091.337645522
100091.33764552
100091.33764552
100091.337645521
100091.337645522
100091.337645525
100091.337645528
100091.337645532
100091.337645537
100091.337645541
100091.337645546
100091.337645552
100091.337645558
100091.337645564
100091.33764557
100091.337645576
100091.337645583
100091.33764559
100091.337645597
100091.337645605
100091.337645613
100091.337645622
100091.337645631
100091.337645641
100091.337645653
100091.337645666
100091.337645681
100091.337645698
100091.337645718
100091.337645742
100091.337645769
100091.337645798
100091.33764583
100091.33764586
100091.337645887
100091.337645902
100091.337645909
100091.335365727
100091.335365721
100091.335365708
100091.335365686
100091.335365663
100091.335365639
100091.335365617
100091.335365597
100091.335365581
100091.335365568
100091.335365558
100091.33536555
100091.335365545
100091.335365542
100091.335365541
100091.33536554
100091.335365541
100091.335365543
100091.335365546
100091.335365549
100091.335365553
100091.335365558
100091.335365562
100091.335365568
100091.335365573
100091.335365579
100091.335365585
100091.335365591
100091.335365598
100091.335365604
100091.335365611
100091.335365619
100091.335365626
100091.335365634
100091.335365643
100091.335365652
100091.335365662
100091.335365673
100091.335365686
100091.3353657
100091.335365717
100091.335365736
100091.335365757
100091.335365781
100091.335365807
100091.335365835
100091.33536586
100091.335365883
100091.335365895
100091.3353659
100091.333085718
100091.333085713
100091.333085702
100091.333085685
100091.333085666
100091.333085645
100091.333085626
100091.333085609
100091.333085595
100091.333085583
100091.333085574
100091.333085567
100091.333085563
100091.33308556
100091.333085559
100091.333085559
100091.33308556
100091.333085562
100091.333085565
100091.333085568
100091.333085572
100091.333085577
100091.333085582
100091.333085587
100091.333085592
100091.333085598
100091.333085604
100091.33308561
100091.333085617
100091.333085624
100091.33308563
100091.333085638
100091.333085645
100091.333085653
100091.333085661
100091.33308567
100091.33308568
100091.333085691
100091.333085703
100091.333085717
100091.333085732
100091.33308575
100091.33308577
100091.333085791
100091.333085814
100091.333085838
100091.33308586
100091.333085878
100091.333085888
100091.333085891
100091.330805709
100091.330805705
100091.330805697
100091.330805683
100091.330805667
100091.33080565
100091.330805634
100091.330805619
100091.330805606
100091.330805596
100091.330805588
100091.330805582
100091.330805578
100091.330805576
100091.330805575
100091.330805575
100091.330805577
100091.330805579
100091.330805582
100091.330805585
100091.33080559
100091.330805594
100091.330805599
100091.330805604
100091.33080561
100091.330805616
100091.330805622
100091.330805628
100091.330805634
100091.330805641
100091.330805648
100091.330805655
100091.330805663
100091.33080567
100091.330805679
100091.330805687
100091.330805697
100091.330805707
100091.330805719
100091.330805732
100091.330805746
100091.330805762
100091.33080578
100091.330805799
100091.330805819
100091.33080584
100091.330805858
100091.330805873
100091.330805881
100091.330805883
100091.3285257
100091.328525697
100091.328525691
100091.32852568
100091.328525667
100091.328525653
100091.328525639
100091.328525627
100091.328525616
100091.328525607
100091.3285256
100091.328525595
100091.328525592
100091.32852559
100091.32852559
100091.328525591
100091.328525592
100091.328525595
100091.328525598
100091.328525601
100091.328525606
100091.32852561
100091.328525615
100091.328525621
100091.328525626
100091.328525632
100091.328525638
100091.328525644
100091.328525651
100091.328525657
100091.328525664
100091.328525671
100091.328525679
100091.328525686
100091.328525694
100091.328525703
100091.328525712
100091.328525722
100091.328525733
100091.328525745
100091.328525758
100091.328525773
100091.328525789
100091.328525806
100091.328525823
100091.32852584
100091.328525856
100091.328525868
100091.328525874
100091.328525875
100091.326245691
100091.326245689
100091.326245685
100091.326245676
100091.326245666
100091.326245655
100091.326245644
100091.326245633
100091.326245624
100091.326245617
100091.326245611
100091.326245607
100091.326245605
100091.326245604
100091.326245604
100091.326245605
100091.326245606
100091.326245609
100091.326245612
100091.326245616
100091.326245621
100091.326245625
100091.32624563
100091.326245636
100091.326245641
100091.326245647
100091.326245653
100091.32624566
100091.326245666
100091.326245673
100091.326245679
100091.326245686
100091.326245693
100091.326245701
100091.326245709
100091.326245717
100091.326245726
100091.326245735
100091.326245745
100091.326245756
100091.326245769
100091.326245782
100091.326245796
100091.326245811
100091.326245826
100091.32624584
100091.326245853
100091.326245862
100091.326245867
100091.326245867
100091.323965682
100091.323965681
100091.323965678
100091.323965672
100091.323965665
100091.323965656
100091.323965647
100091.323965639
100091.323965631
100091.323965626
100091.323965621
100091.323965618
100091.323965616
100091.323965616
100091.323965616
100091.323965617
100091.32396562
100091.323965623
100091.323965626
100091.32396563
100091.323965634
100091.323965639
100091.323965645
100091.32396565
100091.323965656
100091.323965662
100091.323965668
100091.323965674
100091.32396568
100091.323965687
100091.323965693
100091.3239657
100091.323965707
100091.323965715
100091.323965722
100091.32396573
100091.323965738
100091.323965747
100091.323965757
100091.323965767
100091.323965778
100091.323965789
100091.323965802
100091.323965815
100091.323965827
100091.323965839
100091.323965849
100091.323965857
100091.323965859
100091.323965859
100091.321685673
100091.321685673
100091.321685672
100091.321685668
100091.321685662
100091.321685656
100091.321685649
100091.321685643
100091.321685637
100091.321685633
100091.32168563
100091.321685628
100091.321685627
100091.321685627
100091.321685628
100091.321685629
100091.321685632
100091.321685635
100091.321685639
100091.321685643
100091.321685648
100091.321685653
100091.321685658
100091.321685663
100091.321685669
100091.321685675
100091.321685681
100091.321685687
100091.321685694
100091.3216857
100091.321685707
100091.321685713
100091.32168572
100091.321685727
100091.321685734
100091.321685742
100091.32168575
100091.321685758
100091.321685767
100091.321685776
100091.321685786
100091.321685796
100091.321685807
100091.321685818
100091.321685828
100091.321685837
100091.321685845
100091.321685851
100091.321685852
100091.321685851
100091.319405663
100091.319405665
100091.319405665
100091.319405663
100091.31940566
100091.319405655
100091.319405651
100091.319405646
100091.319405643
100091.31940564
100091.319405637
100091.319405636
100091.319405636
100091.319405637
100091.319405638
100091.31940564
100091.319405643
100091.319405647
100091.319405651
100091.319405655
100091.31940566
100091.319405665
100091.31940567
100091.319405676
100091.319405682
100091.319405688
100091.319405694
100091.3194057
100091.319405706
100091.319405713
100091.319405719
100091.319405726
100091.319405732
100091.319405739
100091.319405746
100091.319405753
100091.319405761
100091.319405768
100091.319405776
100091.319405785
100091.319405793
100091.319405802
100091.319405811
100091.31940582
100091.319405828
100091.319405836
100091.319405841
100091.319405845
100091.319405845
100091.319405843
100091.317125654
100091.317125656
100091.317125658
100091.317125658
100091.317125656
100091.317125654
100091.317125652
100091.317125649
100091.317125647
100091.317125645
100091.317125644
100091.317125644
100091.317125645
100091.317125646
100091.317125648
100091.317125651
100091.317125654
100091.317125658
100091.317125662
100091.317125667
100091.317125672
100091.317125677
100091.317125682
100091.317125688
100091.317125694
100091.3171257
100091.317125706
100091.317125712
100091.317125718
100091.317125725
100091.317125731
100091.317125737
100091.317125744
100091.31712575
100091.317125757
100091.317125764
100091.317125771
100091.317125778
100091.317125785
100091.317125792
100091.3171258
100091.317125807
100091.317125815
100091.317125822
100091.317125828
100091.317125833
100091.317125837
100091.317125838
100091.317125837
100091.317125834
100091.314845645
100091.314845648
100091.314845651
100091.314845653
100091.314845653
100091.314845653
100091.314845652
100091.314845651
100091.314845651
100091.31484565
100091.31484565
100091.314845651
100091.314845653
100091.314845655
100091.314845657
100091.31484566
100091.314845664
100091.314845668
100091.314845673
100091.314845678
100091.314845683
100091.314845688
100091.314845694
100091.314845699
100091.314845705
100091.314845711
100091.314845717
100091.314845724
100091.31484573
100091.314845736
100091.314845742
100091.314845748
100091.314845755
100091.314845761
100091.314845767
100091.314845773
100091.31484578
100091.314845786
100091.314845792
100091.314845799
100091.314845805
100091.314845811
100091.314845817
100091.314845823
100091.314845827
100091.31484583
100091.314845832
100091.314845832
100091.314845829
100091.314845826
100091.312565635
100091.312565639
100091.312565643
100091.312565647
100091.312565649
100091.312565651
100091.312565652
100091.312565653
100091.312565654
100091.312565655
100091.312565656
100091.312565658
100091.31256566
100091.312565663
100091.312565666
100091.31256567
100091.312565674
100091.312565678
100091.312565683
100091.312565688
100091.312565693
100091.312565699
100091.312565704
100091.31256571
100091.312565716
100091.312565722
100091.312565728
100091.312565734
100091.31256574
100091.312565747
100091.312565753
100091.312565759
100091.312565765
100091.312565771
100091.312565777
100091.312565782
100091.312565788
100091.312565794
100091.3125658
100091.312565805
100091.31256581
100091.312565815
100091.31256582
100091.312565823
100091.312565826
100091.312565827
100091.312565827
100091.312565825
100091.312565822
100091.312565817
100091.310285625
100091.31028563
100091.310285635
100091.310285641
100091.310285645
100091.310285649
100091.310285651
100091.310285654
100091.310285656
100091.310285658
100091.310285661
100091.310285664
100091.310285667
100091.31028567
100091.310285674
100091.310285678
100091.310285682
100091.310285687
100091.310285692
100091.310285698
100091.310285703
100091.310285709
100091.310285714
100091.31028572
100091.310285726
100091.310285732
100091.310285739
100091.310285745
100091.310285751
100091.310285757
100091.310285763
100091.310285769
100091.310285774
100091.31028578
100091.310285786
100091.310285791
100091.310285796
100091.310285801
100091.310285806
100091.310285811
100091.310285815
100091.310285818
100091.310285821
100091.310285824
100091.310285825
100091.310285824
100091.310285822
100091.310285818
100091.310285813
100091.310285808
100091.308005614
100091.308005621
100091.308005627
100091.308005635
100091.308005641
100091.308005646
100091.308005651
100091.308005655
100091.308005658
100091.308005662
100091.308005665
100091.308005669
100091.308005673
100091.308005677
100091.308005681
100091.308005686
100091.308005691
100091.308005696
100091.308005701
100091.308005707
100091.308005712
100091.308005718
100091.308005724
100091.30800573
100091.308005736
100091.308005742
100091.308005748
100091.308005754
100091.30800576
100091.308005766
100091.308005772
100091.308005778
100091.308005783
100091.308005789
100091.308005794
100091.308005799
100091.308005804
100091.308005808
100091.308005812
100091.308005816
100091.308005819
100091.308005821
100091.308005823
100091.308005823
100091.308005823
100091.308005821
100091.308005817
100091.308005811
100091.308005805
100091.308005798
100091.305725603
100091.305725611
100091.305725619
100091.305725629
100091.305725636
100091.305725643
100091.305725649
100091.305725655
100091.30572566
100091.305725665
100091.305725669
100091.305725674
100091.305725678
100091.305725683
100091.305725688
100091.305725693
100091.305725699
100091.305725704
100091.30572571
100091.305725715
100091.305725721
100091.305725727
100091.305725733
100091.305725739
100091.305725745
100091.305725752
100091.305725758
100091.305725764
100091.30572577
100091.305725775
100091.305725781
100091.305725787
100091.305725792
100091.305725797
100091.305725802
100091.305725806
100091.30572581
100091.305725814
100091.305725817
100091.30572582
100091.305725822
100091.305725824
100091.305725824
100091.305725823
100091.305725821
100091.305725817
100091.305725812
100091.305725804
100091.305725796
100091.305725788
100091.303445592
100091.303445601
100091.303445611
100091.303445622
100091.303445632
100091.303445641
100091.303445648
100091.303445655
100091.303445661
100091.303445667
100091.303445673
100091.303445678
100091.303445684
100091.303445689
100091.303445695
100091.3034457
100091.303445706
100091.303445712
100091.303445718
100091.303445724
100091.30344573
100091.303445736
100091.303445742
100091.303445748
100091.303445754
100091.30344576
100091.303445767
100091.303445773
100091.303445778
100091.303445784
100091.30344579
100091.303445795
100091.3034458
100091.303445805
100091.303445809
100091.303445813