/*--------------------------------*- C++ -*----------------------------------*\
  =========                 |
  \\      /  F ield         | OpenFOAM: The Open Source CFD Toolbox
   \\    /   O peration     | Website:  https://openfoam.org
    \\  /    A nd           | Version:  10
     \\/     M anipulation  |
\*---------------------------------------------------------------------------*/
FoamFile
{
    format      ascii;
    class       volScalarField;
    location    "5.8";
    object      p_rgh;
}
// * * * * * * * * * * * * * * * * * * * * * * * * * * * * * * * * * * * * * //

dimensions      [1 -1 -2 0 0 0 0];

internalField   nonuniform List<scalar> 
2500
(
91.4942579115741
91.4942620869697
91.4942683874251
91.4942727871821
91.4942753465148
91.4942767823231
91.4942775552045
91.4942779652629
91.4942781773279
91.494278285114
91.4942783404549
91.4942783692386
91.4942783849256
91.4942783943407
91.4942784006125
91.4942784053856
91.4942784092709
91.494278412938
91.4942784166778
91.4942784204904
91.4942784245359
91.4942784288432
91.4942784334708
91.4942784383602
91.4942784435698
91.4942784490704
91.4942784548039
91.4942784607265
91.4942784668528
91.494278473052
91.4942784793093
91.4942784854647
91.4942784914019
91.4942784969608
91.4942785018211
91.4942785054882
91.4942785070452
91.494278504877
91.4942784953892
91.4942784720479
91.4942784211307
91.4942783161241
91.4942781062418
91.4942776986863
91.4942769299378
91.4942755031516
91.4942729494942
91.4942685270653
91.494262160777
91.4942580851202
91.4946516687633
91.4946670904465
91.4946834907751
91.4946945840784
91.4947011456097
91.4947048618051
91.4947068899928
91.4947079638368
91.4947085106687
91.4947087789769
91.4947089070774
91.4947089672642
91.4947089958441
91.4947090102651
91.4947090183996
91.4947090237838
91.4947090279311
91.4947090317
91.4947090354108
91.4947090392525
91.4947090432834
91.4947090476198
91.4947090522473
91.4947090571513
91.4947090623464
91.4947090678324
91.4947090735659
91.4947090794885
91.4947090856003
91.494709091814
91.4947090980422
91.4947091041977
91.4947091100912
91.4947091155045
91.4947091200593
91.4947091229114
91.4947091223003
91.4947091144277
91.4947090909409
91.4947090341739
91.4947089072812
91.4947086379398
91.4947080896818
91.4947070179769
91.4947050012124
91.4947013087076
91.494694760564
91.494683600089
91.4946670039353
91.4946519272198
91.495049999794
91.4950747611001
91.4950971607905
91.4951118200261
91.4951203989767
91.4951252216997
91.4951278422523
91.4951292236947
91.4951299240056
91.495130265379
91.495130426425
91.4951305006834
91.4951305349969
91.4951305515715
91.4951305604627
91.4951305660798
91.4951305703144
91.4951305740979
91.4951305778086
91.4951305816212
91.4951305856666
91.4951305900177
91.4951305946452
91.4951305995637
91.4951306047587
91.4951306102594
91.4951306159637
91.4951306219009
91.4951306279982
91.4951306341973
91.4951306404255
91.4951306465809
91.4951306524599
91.4951306578296
91.4951306622825
91.4951306648436
91.4951306633739
91.4951306532021
91.4951306237781
91.4951305524737
91.4951303919661
91.495130048861
91.4951293465419
91.4951279674569
91.4951253600157
91.4951205614343
91.4951119826874
91.4950971954677
91.4950744426169
91.4950498460967
91.4953980017308
91.4954259878868
91.4954481683235
91.495462088671
91.4954699664813
91.4954742624977
91.495476537064
91.4954777118401
91.4954782983987
91.4954785813898
91.4954787142051
91.4954787755123
91.4954788041214
91.4954788182658
91.4954788261093
91.4954788312898
91.4954788353498
91.495478839046
91.4954788427131
91.4954788465257
91.4954788505711
91.4954788549076
91.4954788595496
91.4954788644536
91.4954788696632
91.4954788751493
91.4954788808682
91.4954788867763
91.4954788928881
91.4954788990726
91.4954789053154
91.4954789114854
91.4954789174226
91.4954789228796
91.4954789275653
91.4954789306503
91.4954789304029
91.4954789230396
91.4954789000476
91.4954788429168
91.4954787124152
91.4954784298316
91.4954778428801
91.4954766699375
91.4954744033021
91.4954701183597
91.4954622159421
91.4954481210443
91.495425481
91.4953972608346
91.4956663956691
91.4956918103562
91.4957100121101
91.4957209591958
91.4957269383449
91.4957300969254
91.4957317252411
91.4957325500145
91.4957329568133
91.4957331519981
91.4957332439517
91.4957332869963
91.4957333077327
91.4957333185448
91.4957333249768
91.4957333295606
91.4957333333441
91.4957333369239
91.4957333405473
91.4957333443308
91.4957333483617
91.4957333526982
91.4957333573402
91.4957333622733
91.4957333674829
91.4957333729544
91.4957333786733
91.495733384596
91.4957333906932
91.4957333968778
91.4957334031351
91.4957334093633
91.4957334153587
91.4957334209757
91.4957334259816
91.4957334297505
91.4957334310893
91.4957334274368
91.4957334130158
91.4957333753264
91.4957332875056
91.4957330951438
91.495732690295
91.4957318680827
91.4957302445255
91.4957270880841
91.4957210724097
91.4957099430467
91.4956912535126
91.495665273731
91.4958521129447
91.4958717551926
91.4958846939844
91.4958921488869
91.4958960754884
91.4958980829106
91.4958990898886
91.4958995902998
91.495899834641
91.4958999517548
91.4959000075905
91.4959000344679
91.4959000481176
91.4959000558301
91.4959000608942
91.4959000648378
91.4959000683448
91.4959000717936
91.4959000753297
91.4959000790841
91.495900083115
91.4959000874514
91.4959000920935
91.4959000970266
91.4959001022507
91.4959001077223
91.4959001134557
91.4959001193929
91.4959001254756
91.4959001317038
91.4959001379757
91.495900144233
91.4959001503303
91.495900156151
91.4959001614916
91.495900165959
91.4959001688112
91.495900168462
91.4959001615644
91.4959001407842
91.4959000902454
91.4958999776136
91.4958997370122
91.4958992403408
91.495898237481
91.4958962299133
91.495892270148
91.4958846604859
91.4958712861408
91.495850946274
91.49596892728
91.4959822719684
91.4959904438729
91.4959949440818
91.4959972240176
91.4959983471927
91.495998893035
91.4959991579963
91.4959992858785
91.4959993470547
91.4959993767843
91.4959993917
91.4959993999073
91.4959994050878
91.4959994089731
91.4959994123055
91.495999415507
91.4959994187811
91.4959994222445
91.4959994259698
91.4959994299716
91.495999434308
91.4959994389355
91.4959994438832
91.4959994491073
91.495999454608
91.4959994603414
91.4959994662931
91.4959994724049
91.4959994786332
91.4959994849487
91.4959994912788
91.495999497507
91.4959995035315
91.4959995092213
91.4959995143436
91.4959995184763
91.4959995207755
91.4959995195532
91.4959995110694
91.4959994872042
91.4959994312958
91.4959993081429
91.4959990478237
91.4959985065652
91.4959973846708
91.4959950826742
91.4959904716525
91.4959819643991
91.4959679714666
91.4960364325088
91.4960445681791
91.4960492264945
91.4960516607825
91.4960528369556
91.4960533871927
91.4960536418075
91.4960537599836
91.4960538153537
91.4960538412561
91.4960538540763
91.4960538608866
91.4960538651503
91.4960538683372
91.4960538711748
91.4960538739397
91.496053876821
91.496053879906
91.496053883282
91.4960538869345
91.4960538909363
91.4960538952437
91.4960538998857
91.4960539048479
91.4960539100866
91.4960539155873
91.4960539213353
91.4960539273161
91.496053933457
91.4960539397289
91.4960539460881
91.4960539524909
91.4960539588501
91.4960539651074
91.4960539711756
91.496053976909
91.4960539821186
91.4960539864842
91.4960539892782
91.4960539890308
91.4960539822932
91.4960539619497
91.496053911731
91.4960537986044
91.4960535490536
91.4960530021635
91.4960518152511
91.496049312831
91.4960444274329
91.4960357901728
91.496072592694
91.4960771046317
91.4960795213556
91.4960806975723
91.4960812259378
91.4960814491351
91.4960815406521
91.4960815768427
91.4960815911909
91.4960815965751
91.4960815989907
91.4960816004605
91.4960816018865
91.4960816035164
91.4960816054081
91.4960816076491
91.4960816101811
91.4960816130915
91.4960816163366
91.4960816199455
91.4960816239036
91.4960816281964
91.496081632853
91.4960816377861
91.4960816430394
91.4960816485691
91.4960816543316
91.496081660327
91.496081666497
91.4960816728126
91.4960816792445
91.4960816857347
91.4960816922539
91.4960816987586
91.4960817051906
91.4960817115061
91.4960817176761
91.496081723657
91.4960817293468
91.4960817344981
91.4960817381798
91.4960817384999
91.4960817293759
91.4960816983221
91.4960816120001
91.496081393474
91.4960808624019
91.49607965014
91.4960770962207
91.4960722459655
91.4960906800843
91.4960929749795
91.4960941152676
91.4960946072388
91.496094795395
91.496094851027
91.4960948600055
91.4960948542866
91.496094846967
91.4960948408407
91.4960948369844
91.4960948348744
91.4960948341904
91.4960948345251
91.4960948356311
91.4960948373337
91.4960948395455
91.4960948422377
91.4960948453663
91.4960948489024
91.4960948528169
91.4960948571097
91.4960948617518
91.496094866714
91.4960948719527
91.4960948774969
91.4960948832886
91.4960948892985
91.4960948955122
91.496094901886
91.4960949083761
91.4960949149827
91.496094921662
91.4960949284141
91.4960949352098
91.4960949420783
91.4960949491069
91.496094956412
91.4960949642555
91.4960949730012
91.4960949830129
91.496094994829
91.4960950073873
91.4960950181994
91.4960950143141
91.4960949637898
91.4960947772925
91.4960942694888
91.496093054564
91.4960905554617
91.4960991787666
91.4961002515483
91.496100732038
91.4961008882819
91.4961009159742
91.4961008946266
91.4961008659157
91.4961008404644
91.4961008222745
91.496100809818
91.4961008020473
91.4961007974925
91.4961007951788
91.4961007944366
91.496100794815
91.4961007960519
91.4961007979582
91.4961008004466
91.4961008034297
91.4961008068931
91.4961008107639
91.4961008150422
91.4961008196697
91.4961008246319
91.4961008298997
91.4961008354585
91.4961008412793
91.4961008473183
91.4961008535611
91.496100859993
91.4961008665559
91.4961008732789
91.4961008801183
91.4961008871178
91.4961008942773
91.4961009016697
91.4961009094404
91.496100917866
91.4961009273684
91.496100938617
91.4961009525432
91.4961009707185
91.4961009941326
91.4961010246043
91.4961010581901
91.4961010845291
91.4961010603147
91.4961008991522
91.4961003818898
91.4960991968837
91.4961029463448
91.4961034035514
91.4961035723245
91.4961035810411
91.4961035422166
91.4961034903972
91.4961034468288
91.4961034130683
91.4961033897125
91.4961033737927
91.4961033635918
91.4961033572617
91.4961033536965
91.4961033520522
91.4961033518048
91.4961033525906
91.4961033542058
91.496103356505
91.4961033593718
91.4961033627478
91.4961033665895
91.4961033708387
91.4961033754662
91.4961033804429
91.4961033857398
91.4961033913132
91.4961033971485
91.4961034032167
91.4961034094886
91.4961034159642
91.4961034226289
91.4961034294538
91.4961034364533
91.4961034436856
91.4961034511653
91.4961034590524
91.4961034675071
91.4961034768639
91.4961034876615
91.4961035007
91.4961035171291
91.4961035387823
91.4961035673768
91.4961036060558
91.49610365431
91.4961037107714
91.4961037534958
91.4961037448666
91.4961035596643
91.4961030454433
91.4961045252858
91.4961046973185
91.4961047321704
91.4961046853714
91.4961046246754
91.496104564314
91.496104516671
91.4961044803058
91.4961044547817
91.4961044370139
91.4961044252559
91.4961044177035
91.4961044131633
91.4961044107913
91.4961044100055
91.496104410413
91.4961044117663
91.4961044138763
91.4961044166412
91.4961044199445
91.4961044237425
91.4961044279771
91.4961044326046
91.4961044375959
91.4961044428928
91.4961044484953
91.4961044543452
91.4961044604424
91.4961044667725
91.4961044733063
91.4961044800293
91.4961044869706
91.4961044941301
91.4961045015662
91.496104509366
91.4961045176606
91.4961045266973
91.4961045368254
91.4961045486416
91.4961045629607
91.4961045809614
91.4961046044773
91.4961046352691
91.4961046765384
91.4961047286342
91.4961047933029
91.4961048577243
91.4961049063859
91.4961048648256
91.4961046654935
91.4961051490682
91.4961051998253
91.4961051839637
91.49610512254
91.4961050592538
91.4961049997946
91.4961049529957
91.4961049167323
91.4961048906698
91.4961048720725
91.4961048594123
91.4961048509867
91.4961048457335
91.4961048427795
91.4961048415571
91.496104841659
91.4961048427795
91.496104844744
91.496104847407
91.496104850652
91.4961048544355
91.4961048586556
91.4961048632831
91.4961048682744
91.4961048736004
91.4961048792029
91.4961048850819
91.4961048912228
91.496104897582
91.4961049041594
91.4961049109552
91.4961049179838
91.4961049252888
91.496104932914
91.4961049409758
91.4961049496196
91.4961049591366
91.4961049698904
91.4961049824487
91.4961049976846
91.4961050166312
91.4961050410348
91.496105072365
91.4961051134742
91.4961051646242
91.496105228056
91.4961052947037
91.4961053583538
91.4961053715524
91.4961053079896
91.4961053775769
91.4961053818552
91.4961053510197
91.4961052911967
91.4961052326398
91.4961051777937
91.4961051338614
91.4961050990823
91.4961050733982
91.4961050546408
91.496105041515
91.4961050325801
91.4961050268321
91.4961050234706
91.4961050219135
91.496105021768
91.4961050227139
91.496105024562
91.4961050271522
91.4961050303536
91.496105034108
91.4961050383281
91.4961050429556
91.4961050479615
91.496105053302
91.4961050589336
91.4961050648417
91.4961050709971
91.4961050773854
91.4961050840066
91.4961050908751
91.4961050979909
91.4961051053979
91.4961051131977
91.4961051214632
91.4961051304126
91.4961051402934
91.4961051515129
91.4961051645951
91.4961051803693
91.4961051998107
91.4961052244034
91.4961052553699
91.4961052949657
91.4961053431325
91.4961054017331
91.4961054633022
91.4961055251188
91.4961055547028
91.4961055440217
91.4961054504674
91.4961054397281
91.4961054077721
91.496105354905
91.4961053032312
91.4961052541184
91.4961052138533
91.4961051811988
91.4961051564896
91.4961051380378
91.4961051248392
91.4961051156715
91.4961051096325
91.4961051059945
91.4961051042046
91.4961051038845
91.4961051047139
91.4961051064602
91.4961051089922
91.4961051121791
91.4961051159189
91.496105120139
91.4961051247956
91.496105129816
91.4961051351565
91.4961051408172
91.4961051467399
91.4961051529244
91.4961051593564
91.4961051660066
91.4961051729188
91.4961051801074
91.4961051876307
91.4961051955324
91.4961052039871
91.4961052131403
91.4961052232975
91.4961052348081
91.4961052482395
91.4961052642902
91.4961052838335
91.4961053081206
91.4961053381267
91.4961053755542
91.4961054199812
91.4961054726737
91.4961055270687
91.4961055816093
91.4961056126049
91.4961056195461
91.4961054648302
91.4961054511514
91.4961054226296
91.4961053776788
91.4961053330335
91.4961052897124
91.4961052533181
91.4961052231229
91.496105199767
91.4961051819846
91.4961051690043
91.4961051598511
91.4961051537102
91.4961051499413
91.496105148035
91.4961051475984
91.4961051483406
91.4961051500577
91.4961051525606
91.4961051557329
91.4961051594728
91.4961051637074
91.4961051683786
91.4961051734135
91.4961051787977
91.496105184473
91.4961051904247
91.4961051966238
91.4961052030703
91.4961052097642
91.49610521672
91.4961052239523
91.4961052315339
91.4961052395374
91.4961052481085
91.4961052574072
91.4961052677245
91.4961052794097
91.4961052929721
91.4961053090374
91.4961053283914
91.4961053520092
91.496105380691
91.4961054156011
91.4961054560845
91.4961055028689
91.4961055500607
91.4961055964086
91.4961056239408
91.4961056347674
91.4961054581509
91.4961054455343
91.49610542148
91.4961053838633
91.4961053456645
91.496105307815
91.4961052752333
91.4961052476719
91.4961052259168
91.4961052090512
91.4961051965511
91.4961051876016
91.4961051815189
91.4961051777354
91.4961051758
91.4961051753489
91.496105176062
91.4961051777791
91.496105180282
91.4961051834689
91.4961051872233
91.496105191487
91.4961051961727
91.4961052012368
91.4961052066355
91.4961052123399
91.4961052183062
91.4961052245344
91.4961052309955
91.4961052377184
91.4961052446888
91.4961052519648
91.4961052595754
91.4961052676372
91.4961052762665
91.4961052856524
91.496105296028
91.4961053077568
91.4961053212901
91.4961053371662
91.4961053560692
91.4961053787702
91.4961054058367
91.4961054380983
91.4961054747109
91.496105515922
91.4961055565655
91.4961055954045
91.4961056184256
91.4961056285247
91.4961054441956
91.4961054336745
91.4961054137821
91.4961053825682
91.4961053500738
91.4961053172301
91.4961052883154
91.4961052634462
91.4961052434082
91.4961052276776
91.4961052158324
91.4961052072613
91.4961052013969
91.4961051977298
91.4961051958526
91.4961051954306
91.4961051961873
91.496105197919
91.4961052004655
91.4961052036815
91.4961052074796
91.4961052117724
91.4961052164872
91.4961052215804
91.4961052270082
91.4961052327271
91.4961052387225
91.4961052449653
91.4961052514409
91.4961052581639
91.4961052651634
91.4961052724393
91.4961052800791
91.4961052881554
91.4961052967847
91.4961053061706
91.4961053165316
91.4961053281877
91.4961053415318
91.4961053570441
91.4961053752922
91.4961053968873
91.4961054221931
91.496105451748
91.4961054846353
91.4961055207823
91.4961055556632
91.4961055880412
91.4961056068714
91.4961056150642
91.4961054278101
91.4961054193991
91.4961054031446
91.496105377315
91.4961053498264
91.4961053215229
91.4961052961007
91.4961052738654
91.4961052556755
91.4961052411818
91.496105230166
91.4961052221333
91.4961052166036
91.4961052131548
91.4961052114231
91.4961052110884
91.4961052119324
91.4961052137223
91.4961052163271
91.4961052196013
91.496105223443
91.496105227794
91.4961052325525
91.4961052376748
91.4961052431318
91.4961052488798
91.4961052548897
91.496105261147
91.4961052676226
91.4961052743602
91.4961052813451
91.496105288621
91.4961052962317
91.4961053042935
91.4961053128936
91.4961053222214
91.496105332466
91.4961053439329
91.4961053569859
91.496105371989
91.4961053894222
91.4961054097512
91.4961054332089
91.4961054600863
91.496105489452
91.4961055210006
91.4961055508902
91.4961055778258
91.4961055930908
91.4961055993772
91.4961054106534
91.4961054040614
91.4961053908773
91.4961053696752
91.4961053465377
91.4961053223087
91.4961053001607
91.4961052805011
91.4961052641738
91.496105251048
91.4961052409635
91.4961052335711
91.4961052284925
91.4961052253493
91.4961052238359
91.4961052236758
91.4961052246363
91.4961052265426
91.4961052292347
91.4961052325816
91.4961052364961
91.4961052408908
91.4961052456929
91.4961052508734
91.4961052563594
91.496105262122
91.4961052681465
91.4961052744038
91.496105280894
91.496105287617
91.4961052945873
91.4961053018342
91.4961053094157
91.4961053174047
91.4961053259321
91.496105335129
91.4961053451989
91.4961053564039
91.4961053690204
91.4961053833977
91.4961053999141
91.4961054188752
91.4961054404412
91.4961054646992
91.4961054907617
91.4961055182066
91.4961055437016
91.4961055660824
91.4961055784224
91.4961055830936
91.4961053932493
91.4961053882143
91.4961053776642
91.496105360362
91.4961053410661
91.4961053205334
91.4961053014267
91.4961052842555
91.49610526982
91.4961052581057
91.4961052490544
91.4961052424042
91.4961052378494
91.4961052350991
91.4961052338767
91.4961052339349
91.49610523507
91.4961052371218
91.4961052399158
91.4961052433646
91.4961052473518
91.4961052518192
91.4961052566941
91.4961052619037
91.4961052674334
91.4961052732251
91.4961052792642
91.4961052855215
91.4961052920116
91.4961052987055
91.4961053056468
91.4961053128354
91.4961053203588
91.4961053282605
91.4961053366569
91.4961053456791
91.4961053555016
91.4961053663428
91.4961053784646
91.4961053921288
91.496105407612
91.4961054251617
91.4961054448067
91.4961054665473
91.4961054895248
91.4961055132444
91.4961055349122
91.4961055534368
91.496105563303
91.4961055666354
91.4961053757579
91.4961053720617
91.4961053637671
91.4961053498409
91.4961053339212
91.4961053167353
91.4961053004663
91.4961052856961
91.4961052731378
91.4961052628641
91.4961052549043
91.4961052490689
91.4961052451254
91.4961052428407
91.4961052419676
91.4961052422877
91.4961052436411
91.496105245853
91.4961052487924
91.4961052523577
91.4961052564468
91.496105260987
91.4961052659201
91.4961052711878
91.4961052767612
91.496105282582
91.496105288621
91.4961052948929
91.496105301354
91.4961053080187
91.4961053149018
91.4961053220468
91.4961053294683
91.496105337239
91.4961053454754
91.4961053542647
91.4961053637962
91.4961053742154
91.4961053857551
91.496105398619
91.4961054130254
91.4961054291198
91.4961054468731
91.4961054661981
91.4961054863088
91.4961055066378
91.4961055249296
91.4961055401363
91.4961055479507
91.4961055501626
91.4961053582374
91.4961053557199
91.4961053493898
91.4961053384322
91.4961053255247
91.4961053113657
91.4961052977451
91.4961052852595
91.4961052745348
91.4961052657454
91.4961052589206
91.4961052539584
91.4961052506842
91.4961052489089
91.4961052484286
91.4961052490689
91.4961052506696
91.4961052530853
91.4961052561848
91.496105259881
91.4961052640865
91.4961052687286
91.4961052737344
91.4961052790459
91.4961052846629
91.4961052904982
91.4961052965664
91.4961053028237
91.4961053092702
91.4961053158913
91.4961053227162
91.4961053297739
91.4961053370789
91.4961053447041
91.4961053527222
91.4961053612642
91.4961053704174
91.4961053803709
91.4961053912702
91.4961054032756
91.4961054165615
91.4961054311862
91.4961054470914
91.4961054641026
91.4961054815358
91.4961054988089
91.4961055140739
91.4961055263848
91.4961055323947
91.4961055336607
91.4961053406732
91.4961053392035
91.4961053346487
91.4961053262959
91.4961053160951
91.4961053047155
91.4961052935832
91.4961052832659
91.4961052743456
91.4961052670114
91.4961052613507
91.4961052573053
91.4961052547587
91.4961052535364
91.4961052535073
91.4961052544968
91.496105256374
91.4961052590224
91.4961052623112
91.4961052661674
91.4961052704894
91.4961052752333
91.4961052803119
91.4961052857107
91.4961052913568
91.4961052972212
91.4961053032894
91.4961053095467
91.4961053159495
91.4961053225416
91.4961053292936
91.4961053362349
91.496105343409
91.4961053508596
91.4961053586449
91.4961053668667
91.4961053756269
91.496105385042
91.4961053952575
91.4961054063751
91.4961054185114
91.4961054316809
91.4961054457817
91.496105460581
91.4961054755113
91.4961054899759
91.4961055025342
91.496105512284
91.4961055166787
91.4961055170861
91.4961053230218
91.4961053225416
91.4961053195875
91.4961053136067
91.4961053058651
91.496105297032
91.4961052882136
91.4961052799772
91.4961052728177
91.4961052669387
91.4961052624567
91.4961052593571
91.4961052575527
91.4961052569415
91.4961052573926
91.4961052587751
91.4961052609578
91.4961052638537
91.4961052673607
91.496105271377
91.4961052758445
91.4961052806902
91.4961052858707
91.4961052913131
91.4961052970175
91.496105302911
91.4961053089937
91.4961053152219
91.4961053216102
91.4961053281295
91.4961053347943
91.4961053416191
91.4961053486331
91.49610535588
91.4961053634033
91.4961053712905
91.4961053796142
91.4961053884617
91.4961053979496
91.4961054081505
91.4961054191226
91.4961054308369
91.4961054431915
91.4961054559099
91.4961054684973
91.4961054803862
91.4961054904707
91.4961054978921
91.4961055008316
91.4961055004387
91.4961053052393
91.496105305705
91.4961053042207
91.4961053003935
91.4961052949366
91.4961052884755
91.4961052818398
91.496105275568
91.4961052700965
91.4961052656581
91.4961052623694
91.4961052602303
91.4961052592116
91.4961052592262
91.4961052601866
91.4961052619765
91.4961052645085
91.4961052676808
91.4961052714061
91.4961052756116
91.4961052802246
91.4961052851868
91.4961052904546
91.4961052959843
91.4961053017323
91.4961053076549
91.4961053137376
91.4961053199513
91.4961053262959
91.4961053327424
91.4961053393199
91.4961053460138
91.4961053528532
91.4961053598672
91.4961053671141
91.4961053746229
91.4961053824809
91.4961053907464
91.4961053994775
91.4961054087471
91.4961054185405
91.4961054288433
91.4961054394807
91.4961054502201
91.4961054606101
91.4961054701125
91.4961054779269
91.4961054832092
91.4961054847809
91.4961054836022
91.4961052872823
91.4961052886501
91.4961052885919
91.4961052867875
91.496105283426
91.4961052791768
91.496105274593
91.4961052702129
91.4961052664003
91.4961052633589
91.4961052612489
91.4961052600847
91.496105259881
91.4961052605504
91.4961052620492
91.4961052642757
91.496105267157
91.4961052706349
91.496105274593
91.4961052789877
91.4961052837607
91.4961052888684
91.4961052942381
91.496105299826
91.4961053056177
91.4961053115694
91.4961053176667
91.4961053238658
91.4961053301522
91.4961053365259
91.4961053430015
91.4961053495499
91.4961053562001
91.4961053629668
91.4961053698935
91.4961053770239
91.4961053843872
91.4961053920269
91.4961054000014
91.4961054083105
91.4961054169544
91.4961054258602
91.4961054348678
91.4961054437008
91.4961054520245
91.4961054593005
91.4961054650048
91.4961054683081
91.49610546857
91.496105466591
91.4961052690342
91.4961052713479
91.4961052726285
91.4961052727449
91.4961052713625
91.4961052692088
91.4961052665749
91.4961052639992
91.4961052617728
91.4961052601284
91.4961052591825
91.4961052590079
91.4961052596045
91.4961052609578
91.4961052630097
91.4961052657018
91.4961052689614
91.4961052727303
91.4961052769504
91.4961052815634
91.496105286511
91.4961052917351
91.4961052972067
91.4961053028819
91.4961053087172
91.4961053146981
91.4961053207953
91.4961053269653
91.4961053332081
91.4961053395091
91.4961053458537
91.496105352242
91.4961053586885
91.4961053652078
91.4961053717998
91.4961053785228
91.4961053853767
91.4961053923907
91.4961053995794
91.4961054069427
91.4961054144369
91.4961054219748
91.4961054293963
91.4961054364248
91.4961054427986
91.4961054479791
91.4961054517044
91.4961054531013
91.4961054520827
91.4961054493033
91.496105250495
91.4961052537401
91.496105256374
91.4961052583531
91.4961052588624
91.4961052586732
91.4961052579019
91.4961052570725
91.496105256374
91.4961052560684
91.4961052562867
91.496105257087
91.4961052585131
91.4961052605358
91.4961052631697
91.4961052663275
91.4961052699655
91.4961052740691
91.4961052785511
91.4961052833823
91.4961052885046
91.4961052938743
91.4961052994477
91.4961053052102
91.4961053111037
91.4961053170991
91.4961053231964
91.4961053293518
91.4961053355364
91.4961053417355
91.4961053479637
91.496105354192
91.4961053604202
91.496105366663
91.4961053729203
91.4961053792067
91.4961053855368
91.496105391896
91.4961053982988
91.4961054047162
91.49610541109
91.4961054172891
91.4961054231972
91.496105428494
91.4961054330197
91.4961054362211
91.4961054380401
91.496105437589
91.4961054353189
91.4961054316664
91.4961052315484
91.4961052358121
91.4961052397703
91.4961052435974
91.4961052459257
91.4961052476428
91.4961052486324
91.4961052494618
91.4961052502622
91.4961052512808
91.4961052526342
91.4961052543949
91.4961052566505
91.4961052593717
91.4961052625731
91.4961052662111
91.4961052702711
91.4961052746949
91.4961052794533
91.4961052845028
91.4961052897997
91.4961052953149
91.4961053010193
91.4961053068546
91.4961053127918
91.4961053188308
91.4961053249135
91.4961053310399
91.4961053371662
91.496105343278
91.4961053493753
91.4961053554289
91.4961053614388
91.4961053673906
91.4961053732986
91.4961053791485
91.4961053849256
91.4961053906445
91.4961053962616
91.4961054017476
91.4961054070009
91.4961054119049
91.4961054163432
91.4961054199957
91.496105422746
91.4961054240412
91.4961054240557
91.4961054217856
91.4961054182349
91.4961054136511
91.4961052121507
91.4961052175058
91.4961052228464
91.4961052285071
91.4961052326107
91.4961052361614
91.4961052388535
91.4961052412982
91.4961052435247
91.4961052458239
91.4961052482977
91.4961052510189
91.4961052540893
91.496105257509
91.4961052612925
91.4961052654107
91.4961052698782
91.4961052746512
91.4961052796862
91.4961052849685
91.4961052904546
91.4961052961153
91.4961053019215
91.4961053078441
91.4961053138541
91.4961053199077
91.4961053259904
91.4961053320876
91.4961053381412
91.4961053441657
91.4961053501174
91.4961053559964
91.4961053617735
91.4961053674342
91.4961053729785
91.4961053783773
91.4961053836305
91.4961053886946
91.4961053935258
91.496105398066
91.4961054022424
91.4961054058949
91.4961054089072
91.4961054109735
91.4961054120358
91.4961054114974
91.4961054097512
91.4961054056621
91.4961054007726
91.4961053951993
91.4961051922437
91.4961051987921
91.4961052055733
91.4961052130966
91.496105218961
91.496105224287
91.4961052286235
91.4961052325962
91.4961052362341
91.4961052397703
91.4961052433209
91.4961052470026
91.4961052508879
91.4961052549916
91.4961052593571
91.4961052639846
91.496105268845
91.4961052739673
91.4961052792787
91.4961052847939
91.4961052904691
91.4961052962899
91.4961053022125
91.4961053082225
91.4961053142761
91.4961053203588
91.4961053264415
91.4961053324951
91.4961053384905
91.4961053444131
91.4961053502338
91.4961053559091
91.4961053614534
91.496105366823
91.496105371989
91.4961053769512
91.4961053816514
91.4961053860607
91.4961053901206
91.4961053937586
91.4961053968582
91.4961053992884
91.4961054009327
91.4961054014711
91.4961054009036
91.4961053986044
91.4961053951265
91.4961053891893
91.4961053829174
91.4961053761945
91.4961051717983
91.4961051796854
91.4961051879945
91.4961051974533
91.4961052050348
91.4961052120925
91.4961052180297
91.4961052234867
91.4961052284634
91.4961052332073
91.4961052378203
91.4961052424187
91.4961052471044
91.496105251892
91.4961052568397
91.4961052619619
91.4961052672443
91.4961052727012
91.4961052783037
91.4961052840663
91.4961052899307
91.496105295897
91.496105301936
91.4961053080333
91.4961053141451
91.4961053202569
91.4961053263251
91.4961053323495
91.4961053382722
91.4961053440929
91.4961053497536
91.4961053552543
91.4961053605512
91.4961053656152
91.4961053704319
91.4961053749284
91.4961053790903
91.4961053828592
91.4961053861334
91.4961053888837
91.4961053909501
91.4961053922016
91.4961053925217
91.4961053916049
91.4961053894658
91.4961053854495
91.4961053802544
91.4961053723964
91.4961053646548
91.4961053566512
91.4961051507416
91.4961051601713
91.4961051701248
91.4961051815917
91.4961051908904
91.4961051996506
91.4961052071012
91.4961052139988
91.4961052202561
91.4961052261642
91.4961052318249
91.4961052373255
91.4961052427825
91.496105248254
91.4961052537838
91.4961052593862
91.4961052650906
91.4961052708823
91.4961052767758
91.4961052827712
91.4961052888248
91.4961052949511
91.4961053011066
91.4961053072766
91.4961053134466
91.4961053195875
91.4961053256557
91.4961053316219
91.4961053374864
91.4961053431907
91.4961053487204
91.4961053540319
91.4961053590814
91.4961053638399
91.4961053682782
91.4961053723382