/*--------------------------------*- C++ -*----------------------------------*\
  =========                 |
  \\      /  F ield         | OpenFOAM: The Open Source CFD Toolbox
   \\    /   O peration     | Website:  https://openfoam.org
    \\  /    A nd           | Version:  10
     \\/     M anipulation  |
\*---------------------------------------------------------------------------*/
FoamFile
{
    format      ascii;
    class       surfaceScalarField;
    location    "5.8";
    object      phi;
}
// * * * * * * * * * * * * * * * * * * * * * * * * * * * * * * * * * * * * * //

dimensions      [1 0 -1 0 0 0 0];

internalField   nonuniform List<scalar> 
4900
(
-6.03331991756607e-12
6.07718600983141e-12
-7.98361857279304e-12
2.01702347254797e-12
-6.924632075587e-12
-9.87856401591862e-13
-4.98456495813988e-12
-1.86997581532061e-12
-3.31700814771064e-12
-1.59860376127301e-12
-2.15025443670473e-12
-1.09836381202635e-12
-1.3949328001679e-12
-6.87230467791927e-13
-9.17663889911796e-13
-4.09443734896644e-13
-6.14881374278608e-13
-2.35275771583048e-13
-4.19267481080069e-13
-1.28487846410639e-13
-2.88918500509521e-13
-6.36495727963927e-14
-1.98891193255991e-13
-2.377748999948e-14
-1.34341518182364e-13
1.24648164721997e-15
-8.64312791213643e-14
1.74429446214673e-14
-4.98356221743656e-14
2.83339495912322e-14
-2.12476251660985e-14
3.59426571804474e-14
1.45567051616037e-15
4.14543108761423e-14
1.97134863908689e-14
4.55534158729896e-14
3.45550986559471e-14
4.86489730563021e-14
4.67253664113917e-14
5.10245699046807e-14
5.6813151356328e-14
5.2835474470519e-14
6.52877493831524e-14
5.42007100707696e-14
7.25452200498051e-14
5.51919552344985e-14
7.89181405437489e-14
5.58738394271637e-14
8.47278650453705e-14
5.62556953562124e-14
9.02612965996796e-14
5.63721777736737e-14
9.58141344511602e-14
5.62131719377645e-14
1.0168669534896e-13
5.57747523040694e-14
1.08210590834714e-13
5.50241671781853e-14
1.15756355270453e-13
5.39235706337884e-14
1.24773610145557e-13
5.23934895167438e-14
1.35818760198629e-13
5.03292038455225e-14
1.49606299587284e-13
4.75727731638929e-14
1.67117837704349e-13
4.38606077152878e-14
1.89781497866283e-13
3.87462901995357e-14
2.19720713304437e-13
3.15372080068184e-14
2.60233706830383e-13
2.10563579398234e-14
3.16658301448869e-13
5.2622093682538e-15
3.97836242246036e-13
-1.93585789361834e-14
5.1866598354464e-13
-5.88744660029583e-14
7.04122666606642e-13
-1.23382386062817e-13
9.96136746710671e-13
-2.2985883602774e-13
1.46224279847523e-12
-4.03922783463803e-13
2.20724768498042e-12
-6.82820684580249e-13
3.36852365450995e-12
-1.09899806829796e-12
5.0456261007311e-12
-1.61436759236984e-12
7.02108672376156e-12
-1.91158181170096e-12
8.11322080091679e-12
-1.02627714343424e-12
6.11251209169205e-12
2.06636572094499e-12
6.15771983364476e-12
-8.50407755505582e-12
1.46417161381035e-11
-1.32373235210401e-11
6.83551135507074e-12
-1.21647780253381e-11
-1.97135858002578e-12
-9.20008382162812e-12
-4.7472062144652e-12
-6.39824123033321e-12
-4.31459809582876e-12
-4.34564228745675e-12
-3.06605155522865e-12
-2.96076321955639e-12
-1.98777207171779e-12
-2.05123544324605e-12
-1.23510580526601e-12
-1.44942471787323e-12
-7.53702547746854e-13
-1.04174427892654e-12
-4.53302864606854e-13
-7.56137119365641e-13
-2.66941320571986e-13
-5.48594694941084e-13
-1.49568697663881e-13
-3.92417440694882e-13
-7.37412708212467e-14
-2.71285055106845e-13
-2.30454212644586e-14
-1.750182392585e-13
1.21906703272314e-14
-9.7060781833165e-14
3.76183846859165e-14
-3.30137069820147e-14
5.65818981588176e-14
2.02158347731642e-14
7.10726169926533e-14
6.48917763941094e-14
8.23269630532222e-14
1.02752992945041e-13
9.11540791416202e-14
1.35181812285036e-13
9.80632613275567e-14
1.63324387751251e-13
1.03410070083002e-13
1.88162906175736e-13
1.07428937808938e-13
2.10561757047939e-13
1.10301789830254e-13
2.3132920784664e-13
1.12093415072562e-13
2.51233490718393e-13
1.12877690236196e-13
2.71043687326784e-13
1.12643318072576e-13
2.91559182493546e-13
1.11355712427759e-13
3.1362424960118e-13
1.08935915161015e-13
3.3819621828605e-13
1.05234525106805e-13
3.66385613125517e-13
1.00018259473145e-13
3.99543644995539e-13
9.29448954161788e-14
4.3934688942876e-13
8.35307953499499e-14
4.8802564894083e-13
7.09635365483775e-14
5.48660672764596e-13
5.39459396460646e-14
6.25651882523744e-13
3.04692789974012e-14
7.25572525019934e-13
-2.81974153930027e-15
8.58631933981644e-13
-5.16024063774947e-14
1.04120037698866e-12
-1.25563779264296e-13
1.30007259184569e-12
-2.41212339960988e-13
1.67936587127381e-12
-4.25990559743496e-13
2.25132369544837e-12
-7.25022399362272e-13
3.13018971145941e-12
-1.20593298339449e-12
4.48614157406435e-12
-1.96184357151007e-12
6.5195470753912e-12
-3.05519035343118e-12
9.3306851874598e-12
-4.3473948686288e-12
1.23536423567882e-11
-4.85453070364673e-12
1.34848402466501e-11
-2.07513163236202e-12
8.67163508618495e-12
6.95879982603707e-12
1.48802998671924e-11
-6.07608584522738e-12
2.07809169277085e-11
-1.15375424953124e-11
1.23821748445692e-11
-1.1411862873648e-11
-2.00998027161219e-12
-9.19631226507852e-12
-6.87795236457069e-12
-6.79636197350521e-12
-6.63186311641208e-12
-4.90688195774e-12
-4.87421908381846e-12
-3.55051658876674e-12
-3.26371503634833e-12
-2.60570448902605e-12
-2.10016344242018e-12
-1.94306166723302e-12
-1.33717582373277e-12
-1.46784770854463e-12
-8.4990937567123e-13
-1.11697288994999e-12
-5.39765818795243e-13
-8.49985215335978e-13
-3.39059386346934e-13
-6.41181109713146e-13
-2.05591436663772e-13
-4.74035201296756e-13
-1.13761487394107e-13
-3.37686124872608e-13
-4.82291725546784e-14
-2.24771556579548e-13
1.61177823600552e-16
-1.30116112449973e-13
3.6941710962246e-14
-4.99379538340787e-14
6.54983867134554e-14
1.86288933292059e-14
8.79826963915006e-14
7.78452514138613e-14
1.05808768941485e-13
1.29549280301046e-13
1.19907318285012e-13
1.75298655014746e-13
1.30913931789421e-13
2.16438230482598e-13
1.39275533178845e-13
2.54188744007223e-13
1.45297568814432e-13
2.89678412474283e-13
1.49136066344395e-13
3.24006865954096e-13
1.50894041095218e-13
3.58259003922796e-13
1.50573099839183e-13
3.93562199865268e-13
1.48096240797944e-13
4.31112676012415e-13
1.43315068727484e-13
4.72244139632882e-13
1.35943677616538e-13
5.18483693594072e-13
1.25554600324762e-13
5.71645293216075e-13
1.11521797675293e-13
6.3394607640087e-13
9.29596220774108e-14
7.08229458144824e-13
6.84316209553466e-14
7.98272115529534e-13
3.57095262501395e-14
9.09251978638502e-13
-8.61605304973995e-15
1.04855356755422e-12
-7.01061439687977e-14
1.22705324335241e-12
-1.579378470644e-13
1.46132091717123e-12
-2.87499311645767e-13
1.77715767784682e-12
-4.84541804642098e-13
2.21516681841018e-12
-7.91327107010548e-13
2.83875033712772e-12
-1.27578946124805e-12
3.74356523690977e-12
-2.03779831263287e-12
5.06177806595065e-12
-3.20690212202544e-12
6.92326206318128e-12
-4.84300048453043e-12
9.32465881526434e-12
-6.67381583339282e-12
1.15947259931222e-11
-7.0471129838622e-12
1.17923382795581e-11
-2.19271402824741e-12
6.27316984448146e-12
1.25541737020114e-11
2.12013154103122e-11
-2.97830758408707e-12
2.38217253753559e-11
-7.24022385123376e-12
1.67262559376876e-11
-8.061690580682e-12
-1.1059382138318e-12
-7.17687851481674e-12
-7.6830294499474e-12
-5.8071901945028e-12
-7.92436002876489e-12
-4.54889506390261e-12
-6.05704192040125e-12
-3.53648451571525e-12
-4.20178640282887e-12
-2.76015617411874e-12
-2.8029608751033e-12
-2.16895020961107e-12
-1.8554998269367e-12
-1.71445805247151e-12
-1.23209571504256e-12
-1.3595367363373e-12
-8.22924585151247e-13
-1.07745762067581e-12
-5.49901853345242e-13
-8.49456011830698e-13
-3.62866896794866e-13
-6.62330651112052e-13
-2.306530066422e-13
-5.06698743809915e-13
-1.34097642212181e-13
-3.75749403460032e-13
-6.14698062621317e-14
-2.64424144114413e-13
-5.48307710547783e-15
-1.68876480204728e-13
3.84612152049344e-14
-8.60876481704482e-14
7.33426158347864e-14
-1.36198860750009e-14
1.01155557899932e-13
5.05481430774234e-14
1.23247083874216e-13
1.08151866391737e-13
1.40538647310188e-13
1.60707805975254e-13
1.53694283671582e-13
2.09612001763818e-13
1.63140736859371e-13
2.5614999617863e-13
1.69142741733263e-13
3.01584762313587e-13
1.71826075945641e-13
3.47165436788345e-13
1.71205120750277e-13
3.94179432392369e-13
1.67164500093703e-13
4.44001583639553e-13
1.59467466714959e-13
4.9813520495434e-13
1.47700825697204e-13
5.58299557756082e-13
1.31220808194475e-13
6.26488920837622e-13
1.09128858105459e-13
7.05115780710756e-13
8.01212471501158e-14
7.97178505956541e-13
4.21798303133313e-14
9.06517176350052e-13
-7.76588015010941e-15
1.03817176727815e-12
-7.43224431827767e-14
1.19894763691285e-12
-1.64819216693971e-13
1.39821704308466e-12
-2.9100173535494e-13
1.64917683598501e-12
-4.72092077443329e-13
1.97061708744056e-12
-7.39443043968124e-13
2.38937189367909e-12
-1.14337252837058e-12
2.94284431134259e-12
-1.7623875720666e-12
3.68019963577808e-12
-2.70810167862915e-12
4.65450636009223e-12
-4.11387107474644e-12
5.88208868432179e-12
-6.00258475458897e-12
7.24447555428526e-12
-7.96665474104058e-12
8.16767209777804e-12
-7.89784513729829e-12
7.41752339434044e-12
-1.3672392720892e-12
3.13633843609545e-12
1.69068919717594e-11
2.43820954265468e-11
-6.8414280568956e-13
2.45649471705684e-11
-3.17778616868533e-12
1.92959146092267e-11
-4.57536739689494e-12
3.66609526663539e-13
-4.83470148767078e-12
-7.35188911664961e-12
-4.45843908664767e-12
-8.23155228354278e-12
-3.85848826422489e-12
-6.58982037383445e-12
-3.23949836630625e-12
-4.75486047993541e-12
-2.68300241846608e-12
-3.29441112485882e-12
-2.20937196605544e-12
-2.26474715180293e-12
-1.81487066327137e-12
-1.56277280538644e-12
-1.48856155969623e-12
-1.08591975563592e-12
-1.21836652686946e-12
-7.57269165849092e-13
-9.93486308915316e-13
-5.25390227807646e-13
-8.04976605479182e-13
-3.57260417492305e-13
-6.45670991646669e-13
-2.31937518427005e-13
-5.09912083590299e-13
-1.36177553286089e-13
-3.93228037591131e-13
-6.1506880663036e-14
-2.92050800059082e-13
-2.4213576324378e-15
-2.03493154678126e-13
4.47398851109752e-14
-1.25163488197262e-13
8.2466668876677e-14
-5.50423461862054e-14
1.12478053036762e-13
8.61962470261071e-15
1.35965833709319e-13
6.73777882617661e-14
1.53786426245545e-13
1.2266333721667e-13
1.66492104001395e-13
1.75809136762902e-13
1.7444346467354e-13
2.28116801907961e-13
1.7779816577912e-13
2.80879433226253e-13
1.76577682781064e-13
3.35425145211744e-13
1.70632345429707e-13
3.93170319502193e-13
1.59635074713181e-13
4.55650205681414e-13
1.43055771333021e-13
5.24601530047584e-13
1.20048141270064e-13
6.02015620312921e-13
8.94619673615301e-14
6.90265738088485e-13
4.96117073439369e-14
7.92217524225463e-13
-2.01033836759705e-15
9.11401598841653e-13
-6.91392196410936e-14
1.05226316009882e-12
-1.57293629344534e-13
1.22041991852043e-12
-2.74978911586439e-13
1.42297689511189e-12
-4.35429759674317e-13
1.66881879610036e-12
-6.59654615794137e-13
1.96867245275331e-12
-9.8085663670083e-13
2.33457962763205e-12
-1.45067736457451e-12
2.77747869963246e-12
-2.14652197362673e-12
3.30134068355912e-12
-3.17301478926477e-12
3.8867481405912e-12
-4.64002901179496e-12
4.45634444172095e-12
-6.51224604159501e-12
4.81748890050699e-12
-8.26625024257998e-12
4.57744522901402e-12
-7.59318433628867e-12
3.23824489444744e-12
3.95503608531924e-14
7.61022526973046e-13
1.94483446735328e-11
2.51822509244167e-11
5.92313000262797e-13
2.40269499377189e-11
-4.66307712117201e-13
2.0423052229662e-11
-2.04708619674699e-12
2.01400538634797e-12
-2.98303816693302e-12
-6.35263551771005e-12
-3.27751434096754e-12
-7.87657622448551e-12
-3.16245216487666e-12
-6.64634764907117e-12
-2.85914516186612e-12
-5.00093578599272e-12
-2.4963064482132e-12
-3.6009023913733e-12
-2.13871687002622e-12
-2.56663874300481e-12
-1.81310490508521e-12
-1.83321522250604e-12
-1.52775172008763e-12
-1.31657492581223e-12
-1.28207444347331e-12
-9.48693794144643e-13
-1.07198861296237e-12
-6.81654079704257e-13
-8.9243660532485e-13
-4.83408219874104e-13
-7.38491004760231e-13
-3.3288218083185e-13
-6.05798968450695e-13
-2.16253841056569e-13
-4.90650660949728e-13
-1.24404279078258e-13
-3.89929397181515e-13
-5.12339014558966e-14
-3.010291093546e-13
7.42910044719531e-15
-2.2172503233958e-13
5.44573805194154e-14
-1.50110043330448e-13
9.18866201155009e-14
-8.45082871983601e-14
1.21140514062669e-13
-2.34081232155289e-14
1.43238461007641e-13
3.4577780689344e-14
1.58858008986829e-13
9.07598763419135e-14
1.68434549969976e-13
1.46408623586018e-13
1.72166342709388e-13
2.02794472696962e-13
1.7007349435937e-13
2.6121209732715e-13
1.61982584185396e-13
3.23039159930047e-13
1.47482111782578e-13
3.89767832288646e-13
1.259289362982e-13
4.63050181810294e-13
9.63158113153438e-14
5.44772366857432e-13
5.72606875879834e-14
6.37126215250457e-13
6.77252164362321e-15
7.42696298642637e-13
-5.80460490407668e-14
8.64543444489895e-13
-1.4140629546422e-13
1.00633134893198e-12
-2.49428699167413e-13
1.17234400358784e-12
-3.912409292584e-13
1.36741369801305e-12
-5.80628380542102e-13
1.59647985797387e-12
-8.38713670669918e-13
1.86346331744568e-12
-1.19768685845437e-12
2.16874451921118e-12
-1.70565811247268e-12
2.50374574988796e-12
-2.43107559840178e-12
2.84138850059787e-12
-3.46004316412278e-12
3.11673501716188e-12
-4.86448392084936e-12
3.20328732259513e-12
-6.54726088361164e-12
2.88837722470619e-12
-7.89823970116194e-12
1.95609452272853e-12
-6.60477106560344e-12
4.16084644130795e-13
1.63872971128836e-12
-5.99019696961859e-13
2.05196771926585e-11
2.46171801507e-11
1.11959966507557e-12
2.29550620102963e-11
8.77999985612163e-13
2.07233988118358e-11
-6.16677618334739e-13
3.56466973253555e-12
-1.79726512563764e-12
-5.11924932076777e-12
-2.421673176715e-12
-7.20201406203138e-12
-2.58789783988415e-12
-6.43185441494812e-12
-2.49340292462874e-12
-5.04841724981331e-12
-2.27426178758823e-12
-3.77387029388052e-12
-2.01258918103484e-12
-2.78274106774445e-12
-1.75030813632021e-12
-2.05040615081441e-12
-1.50687534823854e-12
-1.51534168926342e-12
-1.28924626028821e-12
-1.12205673058074e-12
-1.09822607358996e-12
-8.28797242390269e-13
-9.31864245421266e-13
-6.06273451792789e-13
-7.87198525220297e-13
-4.34421231395561e-13
-6.61116776913749e-13
-2.9956435681265e-13
-5.5070155579411e-13
-1.9238636530322e-13
-4.53348712501368e-13
-1.0647226832358e-13
-3.6678258219776e-13
-3.73200974294536e-14
-2.89010555478819e-13
1.8226837816566e-14
-2.18284126368057e-13
6.24480911709315e-14
-1.53040066522196e-13
9.69536988399446e-14
-9.18575698705628e-14
1.22903866548694e-13
-3.34189963195162e-14
1.41080165280679e-13
2.35264783434512e-14
1.51983737187196e-13
8.01880197323339e-14
1.55854502421465e-13
1.37780071447351e-13
1.52705597023551e-13
1.97537011322938e-13
1.42344549008686e-13
2.60760839821499e-13
1.24290431395502e-13
3.28856940525838e-13
9.77981380359847e-14
4.03355306500917e-13
6.17350836106643e-14
4.85982301050385e-13
1.45249679678216e-14
5.78697266337145e-13
-4.60563809314713e-14
6.83740307001425e-13
-1.23184529421052e-13
8.03653790106749e-13
-2.21373610378705e-13
9.41290824548257e-13
-3.47053424251348e-13
1.09967763815528e-12
-5.0952728283148e-13
1.2816602999034e-12
-7.2240326574278e-13
1.48902906652914e-12
-1.00575400378652e-12
1.72074926815337e-12
-1.38895205584058e-12
1.96954369809883e-12
-1.91387373547058e-12
2.21542834611204e-12
-2.63626322800662e-12
2.4157213364819e-12
-3.61951176860146e-12
2.48743625527677e-12
-4.89515837075617e-12
2.29550700945373e-12
-6.31374463761929e-12
1.64879249346892e-12
-7.20852948744191e-12
4.63032489915115e-13
-5.37318636458959e-12
-1.00491848168189e-12
3.15533206559779e-12
-1.18553092991097e-12
2.07465543664498e-11
2.3458831169034e-11
1.21631623575158e-12
2.1779263687626e-11
1.2872921291929e-12
2.07009728054548e-11
1.07602745815823e-14
4.88674384579291e-12
-1.13975381307764e-12
-3.92613629192956e-12
-1.85443673607529e-12
-6.44714027313485e-12
-2.14787460211771e-12
-6.09996098249472e-12
-2.17402713057229e-12
-4.98496976191033e-12
-2.05247857086261e-12
-3.85889533629611e-12
-1.86423680594942e-12
-2.93500464957868e-12
-1.65527546730642e-12
-2.22381869929646e-12
-1.44996948733907e-12
-1.68547627124676e-12
-1.25953678567381e-12
-1.27767598750233e-12
-1.08802827144756e-12
-9.65843444836571e-13
-9.35815362842401e-13
-7.24370132541994e-13
-8.01552991501575e-13
-5.3490670715704e-13
-6.83226822530783e-13
-3.844420782587e-13
-5.78661191864342e-13
-2.63817863196219e-13
-4.85766869484226e-13
-1.66528797681152e-13
-4.0261032924737e-13
-8.79168609127362e-14
-3.27445770328453e-13
-2.46350011852566e-14
-2.58698748623334e-13
2.57667603927032e-14
-1.94935032456661e-13
6.50399451239454e-14
-1.34837651892796e-13
9.44610135097785e-14
-7.71738110272912e-14
1.14896422701438e-13
-2.07647460528763e-14
1.26899991802431e-13
3.55327783778134e-14
1.30747371343532e-13
9.28569343027092e-14
1.26455440394635e-13
1.52375275309894e-13
1.13802138768412e-13
2.15303930006566e-13
9.22579516210958e-14
2.82944309460393e-13
6.09924570689372e-14
3.56696238803723e-13
1.87745441993012e-14
4.3810528634142e-13
-3.61167036522397e-14
5.28883212444362e-13
-1.06071126706027e-13
6.30912822372019e-13
-1.94434220712094e-13
7.46231169459421e-13
-3.05873846264121e-13
8.76932652586711e-13
-4.46876961864191e-13
1.02493798154565e-12
-6.26575826810368e-13
1.19146440289007e-12
-8.57878069190854e-13
1.37595885310655e-12
-1.15909236557285e-12
1.57411236962006e-12
-1.55584273515562e-12
1.7743246142051e-12
-2.08272452577614e-12
1.95158858777666e-12
-2.78208072422305e-12
2.05900975053631e-12
-3.69540536996669e-12
2.01445659063695e-12
-4.81893235412604e-12
1.69885523736098e-12
-5.96604202129169e-12
9.6324393259418e-13
-6.43960751486541e-12
-1.94731574846091e-13
-4.17937802710156e-12
-1.4516224390375e-12
4.45068261278606e-12
-1.31119742909316e-12
2.06425864302872e-11
2.21687161771912e-11
1.10358341223153e-12
2.07077746272914e-11
1.21364018100381e-12
2.06278592256565e-11
1.8937369012397e-13
5.94473860290188e-12
-8.06325603785738e-13
-2.89916828112999e-12
-1.48364476417006e-12
-5.74055260246988e-12
-1.81269323036588e-12
-5.7431230977998e-12
-1.90123548677726e-12
-4.8696400935508e-12
-1.84346904673625e-12
-3.8905398835766e-12
-1.7100649051053e-12
-3.04275556413638e-12
-1.54468196669182e-12
-2.36391730244367e-12
-1.37263137939785e-12
-1.8325707723109e-12
-1.20710690103187e-12
-1.41855952691871e-12
-1.05415418550021e-12
-1.09446857476168e-12
-9.15806758548737e-13
-8.38703019597913e-13
-7.92002299680253e-13
-6.35005455469171e-13
-6.81656097698236e-13
-4.71384083144211e-13
-5.83263979742969e-13
-3.39095557153056e-13
-4.95206771849277e-13
-2.3174592898358e-13
-4.15888246892459e-13
-1.44653154298281e-13
-3.43806288987129e-13
-7.43732123732362e-14
-2.77562563184042e-13
-1.83531555797513e-14
-2.15861849856811e-13
2.52631031918521e-14
-1.57489118404555e-13
5.7831113225354e-14
-1.01300568255304e-13
8.02894340205107e-14
-4.61952618371559e-14
9.32335177438049e-14
8.89945998301292e-15
9.69672149794643e-14
6.50485333582826e-14
9.15138732918451e-14
1.23347483250299e-13
7.66214220070458e-14
1.84920294857262e-13
5.17309228570973e-14
2.50961672568054e-13
1.59411664213655e-14
3.22736779003063e-13
-3.20497045530633e-14
4.01609454171682e-13
-9.40592622959417e-14
4.89049582881458e-13
-1.72584380552082e-13
5.86600846906835e-13
-2.71042212383543e-13
6.95821476888812e-13
-3.94116574183605e-13
8.18134957116088e-13
-5.4815867306815e-13
9.54525710370387e-13
-7.41865302784681e-13
1.10493550864133e-12
-9.87104028492362e-13
1.26713991277342e-12
-1.30002506915322e-12
1.43483411953584e-12
-1.70218019183578e-12
1.59443346269486e-12
-2.22089611515607e-12
1.72000924281585e-12
-2.88618137632675e-12
1.7670171819088e-12
-3.7209118212941e-12
1.66377152093365e-12
-4.69412414916399e-12
1.31654446522753e-12
-5.59696584147999e-12
6.21881788595593e-13
-5.72213240541039e-12
-3.79193933702216e-13
-3.15335839173743e-12
-1.38493263034616e-12
5.4835430479767e-12
-1.20412887707576e-12
2.0487396678644e-11
2.09785843507166e-11
9.09398600685123e-13
1.98222094353714e-11
9.63585536834787e-13
2.05996351193927e-11
1.72012839843502e-13
6.75936921856638e-12
-6.39841246879298e-13
-2.06620777205728e-12
-1.23002608250245e-12
-5.1308494411566e-12
-1.54940973985275e-12
-5.40542752196875e-12
-1.66628975052723e-12
-4.73527971353455e-12
-1.64979122147888e-12
-3.89011456688411e-12
-1.55734087864296e-12
-3.11867551977757e-12
-1.42742073621679e-12
-2.47762102497643e-12
-1.28407322006499e-12
-1.95998529161718e-12
-1.14101362858002e-12
-1.54596343078055e-12
-1.00537987203972e-12
-1.21472747305484e-12
-8.80339942858142e-13
-9.48650679385361e-13
-7.66806152446557e-13
-7.33729905043806e-13
-6.64461320592922e-13
-5.59196041956495e-13
-5.72383444428752e-13
-4.16907837251551e-13
-4.89379402636882e-13
-3.00738213799849e-13
-4.14172104867503e-13
-2.06087696908172e-13
-3.45489758923443e-13
-1.29504166563348e-13
-2.82105914481818e-13
-6.83896305802441e-14
-2.22862064746921e-13
-2.08185523574125e-14
-1.66649718008781e-13
1.46133871238376e-14
-1.124138109341e-13
3.88991314938243e-14
-5.91337123599184e-14
5.2667089942176e-14
-5.80928318311389e-15
5.62422981481202e-14
4.85514576107474e-14
4.96546860756747e-14
1.04964682677058e-13
3.2628328799961e-14
1.64465084929536e-13
4.58443025038606e-15
2.2814091261405e-13
-3.54306550911557e-14
2.97122990049389e-13
-8.8762206351971e-14
3.72601847711653e-13
-1.57286959719878e-13
4.55808567503201e-13
-2.43541601351833e-13
5.47975029262746e-13
-3.50943914072216e-13
6.50229677770503e-13
-4.84074074342157e-13
7.63418475376617e-13
-6.49002116393513e-13
8.8775886208863e-13
-8.53798724583867e-13
1.02221775389641e-12
-1.10908466651546e-12
1.16345075064985e-12
-1.42870730454464e-12
1.30407775889601e-12
-1.83019007362987e-12
1.43002547292731e-12
-2.33418106181478e-12
1.51671143820739e-12
-2.96019181981282e-12
1.52493805499345e-12
-3.71648518712516e-12
1.39654370011552e-12
-4.55309080268161e-12
1.06304409901375e-12
-5.25067018882193e-12
4.60074972748324e-13
-5.10565001626022e-12
-3.53195218720022e-13
-2.32487389501403e-12
-1.12421271616313e-12
6.27159849976362e-12
-1.00265796626455e-12
2.0381673721827e-11
1.99840358651746e-11
7.02595301223278e-13
1.91348100573163e-11
6.95217824978677e-13
2.06217269401724e-11
9.5114417255814e-14
7.37159482541388e-12
-5.48964866234895e-13
-1.41130585738386e-12
-1.04340992756153e-12
-4.62666598806318e-12
-1.3345509327012e-12
-5.10543032841278e-12
-1.46100939014339e-12
-4.6005960122457e-12
-1.4710751250659e-12
-3.87225491213544e-12
-1.40937483458621e-12
-3.17289377583159e-12
-1.30837385002098e-12
-2.57139657579717e-12
-1.18977528513948e-12
-2.0715980254615e-12
-1.0669283207204e-12
-1.66206576608165e-12
-9.47415797599737e-13
-1.32774381138901e-12
-8.35122584920462e-13
-1.05470153974232e-12
-7.31670479795603e-13
-8.31195309033162e-13
-6.37354676809117e-13
-6.47777312123193e-13
-5.51740809337544e-13
-4.97031949670956e-13
-4.74013050516556e-13
-3.73208942911815e-13
-4.03180067369063e-13
-2.71883014483218e-13
-3.38189225164276e-13
-1.89660816716355e-13
-2.77982779738177e-13
-1.23949014440745e-13
-2.21533156034311e-13
-7.27909086977911e-14
-1.67842129409424e-13
-3.47537020342033e-14
-1.15940556701033e-13
-8.81425306713792e-15
-6.48918399106992e-14
5.68645823340172e-15
-1.3770152946006e-14
9.08554042915092e-15
3.83424777675202e-14
1.41868317287307e-15
9.23790695820274e-14
-1.76045272845238e-14
1.49288797589034e-13
-4.85806130369761e-14
2.1004906201375e-13
-9.24897490430352e-14
2.75658822199734e-13
-1.50700897207259e-13
3.47141737229897e-13
-2.25113086809457e-13
4.25511331428568e-13
-3.18254681713996e-13
5.11713479076581e-13
-4.33473865714279e-13
6.06498065620851e-13
-5.75156890619931e-13
7.10227404339018e-13
-7.48985230470243e-13
8.225126616457e-13
-9.62283381563641e-13
9.41619062758978e-13
-1.22432975861108e-12
1.06350975217683e-12
-1.54667733925461e-12
1.18037512711185e-12
-1.94308724784237e-12
1.27857408558715e-12
-2.42839012818271e-12
1.33597593555865e-12
-3.01362330104457e-12
1.31960497724005e-12
-3.69621282041929e-12
1.18442817576183e-12
-4.41410019101126e-12
8.82987324296078e-13
-4.94539078907756e-12
3.803137541716e-13
-4.59867894171356e-12
-2.61064219751802e-13
-1.67795539696579e-12
-8.37891103323468e-13
6.8552336424065e-12
-7.83503117551749e-13
2.03332929900832e-11
1.92024100424774e-11
5.16982220163159e-13
1.86253517301351e-11
4.69521945823019e-13
2.06742682407002e-11
1.69299802405062e-14
7.8273202558874e-12
-4.89330198704261e-13
-9.02635055035039e-13
-8.96405855624312e-13
-4.21782649781938e-12
-1.15376939345186e-12
-4.84689259596695e-12
-1.27963329822039e-12
-4.47400844820637e-12
-1.30645564337245e-12
-3.84502871485083e-12
-1.26784812301186e-12
-3.21133848992866e-12
-1.1904288348517e-12
-2.64886059518954e-12
-1.09315169566566e-12
-2.16912302384668e-12
-9.88461668460106e-13
-1.76721390664205e-12
-8.83940007696701e-13
-1.43294431244599e-12
-7.83851512189888e-13
-1.15569744740121e-12
-6.90299509425217e-13
-9.2588683595683e-13
-6.04044064505018e-13
-7.35402131979896e-13
-5.25049879823605e-13
-5.77619172876897e-13
-4.52821921444431e-13
-4.47243308920694e-13
-3.86625762015858e-13
-3.40086564348655e-13
-3.25611594679379e-13
-2.52868941229502e-13
-2.688819462205e-13
-1.83044148758559e-13
-2.15534212656526e-13
-1.28659425297682e-13
-1.64677914510785e-13
-8.82705169280847e-14
-1.15437522010873e-13
-6.08387749164851e-14
-6.69559297416287e-14
-4.5688021157778e-14
-1.83879192930904e-14
-4.24685842043956e-14
3.11122388364455e-14
-5.11470629356594e-14
8.23913595700635e-14
-7.20138588375722e-14
1.36311631668188e-13
-1.05682839108385e-13
1.93740849586392e-13
-1.53138890547445e-13
2.55554371469635e-13
-2.15759750665898e-13
3.2261273658449e-13
-2.95427970602843e-13
3.9572909560933e-13
-3.9462576385198e-13
4.75596480501378e-13
-5.16579960251938e-13
5.62643246388852e-13
-6.65413883164483e-13
6.56837918257025e-13
-8.46349756210837e-13
7.57334876970469e-13
-1.06590156043621e-12
8.61929456126113e-13
-1.33199323516165e-12
9.66225612831762e-13
-1.65399430817866e-12
1.06245329567989e-12
-2.04230203794403e-12
1.13793280010783e-12
-2.50685420230084e-12
1.17341098070073e-12
-3.05213033371302e-12
1.14194445458426e-12
-3.66787883668143e-12
1.00981809277346e-12
-4.28524949419202e-12
7.45529958059771e-13
-4.68446058370265e-12
3.34235248931385e-13
-4.19051799501017e-12
-1.65933093976632e-13
-1.18013072767063e-12
-5.93224097657834e-13
7.28104370169242e-12
-5.85081730276882e-13
2.03230769189574e-11
1.86145047587815e-11
3.65780027861969e-13
1.82598595943314e-11
2.99203207162884e-13
2.07369882835994e-11
-4.39118960782004e-14
8.16518398455615e-12
-4.41868573559911e-13
-5.10031823303351e-13
-7.74689892873658e-13
-3.89054757198091e-12
-9.98386092890091e-13
-4.62903131963224e-12
-1.11814048995109e-12
-4.36035631943658e-12
-1.15498068218182e-12
-3.81450012524852e-12
-1.13358918139726e-12
-3.23921349399968e-12
-1.07533453495748e-12
-2.71376000832349e-12
-9.96369311307901e-13
-2.25490090206611e-12
-9.07939586883371e-13
-1.86263783443117e-12
-8.17314421813848e-13
-1.53075786866637e-12
-7.2887249120929e-13
-1.251531937828e-12
-6.45007795806519e-13
-1.01735225161811e-12
-5.66813386413786e-13
-8.2140456439171e-13
-4.94564530136316e-13
-6.57878119510864e-13
-4.28036173949325e-13
-5.21974732215194e-13
-3.66715720573052e-13
-4.09791947093969e-13
-3.09936010021067e-13
-3.18202339823069e-13
-2.56950218695071e-13
-2.44738354533629e-13
-2.06978279836187e-13
-1.87479398340659e-13
-1.59234035015792e-13
-1.44988105520535e-13
-1.12935139247764e-13
-1.16221444992523e-13
-6.73057191724394e-14
-1.00497422586209e-13
-2.15791206911488e-14
-9.74576878220355e-14
2.50111952955322e-14
-1.07069087223898e-13
7.32301700107039e-14
-1.29620810343801e-13
1.23847922178141e-13
-1.65732717432077e-13
1.77628198783862e-13
-2.16382910066908e-13
2.35322583291832e-13
-2.829375421845e-13
2.97646175741533e-13
-3.67242118970074e-13
3.65230545159555e-13
-4.71696219191034e-13
4.38545807757251e-13
-5.99364515927351e-13
5.17754914118711e-13
-7.54064029126819e-13
6.02520749488989e-13
-9.4051897038055e-13
6.91672303571732e-13
-1.16441267910499e-12
7.82730372499794e-13
-1.43236472508588e-12
8.71204719405524e-13
-1.75174281540718e-12
9.49676799709131e-13
-2.13002624520262e-12
1.00672349200709e-12
-2.57316512754927e-12
1.02600769709758e-12
-3.08074286576751e-12
9.8599373924645e-13
-3.63732503042487e-12
8.62124019637914e-13
-4.17103041880595e-12
6.34364570735387e-13
-4.46653404307124e-12
3.00594051543266e-13
-3.8665835267468e-12
-8.88218153499579e-14
-8.00203004661313e-13
-4.05748762235778e-13
7.58878483580601e-12
-4.22526102173553e-13
2.03303667149912e-11
1.81845650894576e-11
2.50408713886962e-13
1.80039890038422e-11
1.78217239505275e-13
2.07985178847544e-11
-8.4854640990702e-14
8.41689607802897e-12
-3.98884254977321e-13
-2.06984327001624e-13
-6.70324315221761e-13
-3.6299293517352e-12
-8.62678777038187e-13
-4.44755534583324e-12
-9.73410866908027e-13
-4.26062361282851e-12
-1.01555872290129e-12
-3.78347302630266e-12
-1.00682359243457e-12
-3.25918709007e-12
-9.64061290888521e-13
-2.7678857622019e-12
-9.00762913142927e-13
-2.32970340876491e-12
-8.26841214896362e-13
-1.94822090666492e-12
-7.49041639699211e-13
-1.62039114280247e-12
-6.71659403124724e-13
-1.3409295714832e-12
-5.9721979887098e-13
-1.10399446856046e-12
-5.27035437376862e-13
-9.03977895612048e-13
-4.61607816172273e-13
-7.35877153206181e-13
-4.00931963133332e-13
-5.95396062265267e-13
-3.44685357448398e-13
-4.7894796838312e-13
-2.92361145264138e-13
-3.83587743768312e-13
-2.4335176705691e-13
-3.06947863725018e-13
-1.96991432639279e-13
-2.47164857918449e-13
-1.52598909497183e-13
-2.02817636233482e-13
-1.09477948954555e-13
-1.72877046818615e-13
-6.69408336185085e-14
-1.56654703158295e-13
-2.42964032970319e-14
-1.53793897131697e-13
1.91376170596282e-14
-1.64255098290587e-13
6.40472162473848e-14
-1.88330171988482e-13
1.11110930700192e-13
-2.26633001026585e-13
1.60994774818629e-13
-2.8012860262974e-13
2.14331935958952e-13
-3.50151156033333e-13
2.71699589702829e-13
-4.38489770723982e-13
3.33570560375998e-13
-5.47439915063647e-13
4.00226260162758e-13
-6.79874509599107e-13
4.71619060040134e-13
-8.39283603541332e-13
5.47182998689018e-13
-1.02987314579835e-12
6.25541321740431e-13
-1.25652013649506e-12
7.04097791304878e-13
-1.52462907674225e-12
7.78464719502202e-13
-1.83978447482084e-12
8.4178498889663e-13
-2.20700690657411e-12