/*--------------------------------*- C++ -*----------------------------------*\
  =========                 |
  \\      /  F ield         | OpenFOAM: The Open Source CFD Toolbox
   \\    /   O peration     | Website:  https://openfoam.org
    \\  /    A nd           | Version:  10
     \\/     M anipulation  |
\*---------------------------------------------------------------------------*/
FoamFile
{
    format      ascii;
    class       volScalarField;
    location    "5.8";
    object      rho;
}
// * * * * * * * * * * * * * * * * * * * * * * * * * * * * * * * * * * * * * //

dimensions      [1 -3 0 0 0 0 0];

internalField   nonuniform List<scalar> 
2500
(
1.14436083910256
1.1443922832187
1.14444599656726
1.14448202694674
1.14450249660462
1.14451346277886
1.14451913331594
1.14452196211894
1.14452331415684
1.14452392728514
1.14452419697448
1.14452430971627
1.14452435511243
1.14452437508077
1.14452438476494
1.14452439112648
1.14452439416859
1.14452439723763
1.14452440048964
1.14452440276375
1.14452440470465
1.14452440639169
1.1445244077844
1.14452440864465
1.14452440952739
1.14452441028719
1.14452441057258
1.14452441069953
1.1445244106141
1.14452441024908
1.14452440959118
1.14452440835684
1.14452440683023
1.14452440479366
1.1445244020283
1.14452439744766
1.14452438827448
1.14452436808768
1.14452431703756
1.14452419655478
1.14452391475905
1.14452327921546
1.14452190593928
1.14451906650947
1.14451341228026
1.14450252527466
1.1444821325957
1.14444594845332
1.14439173230443
1.1443613033381
1.14828589241386
1.14843049696371
1.14858516142302
1.14868794444934
1.14874828149536
1.14878194068549
1.14880009978201
1.14880953744662
1.14881422708415
1.14881644331471
1.14881744053149
1.14881786691447
1.14881804056591
1.14881810926027
1.14881813613191
1.14881814726454
1.14881815175485
1.14881815444417
1.14881815666019
1.14881815826253
1.14881815964893
1.14881816092752
1.14881816201674
1.14881816273909
1.14881816337991
1.14881816394229
1.14881816421936
1.14881816439744
1.14881816449992
1.14881816437422
1.14881816404913
1.14881816335577
1.14881816190895
1.14881815936073
1.14881815455337
1.14881814299127
1.14881811319543
1.14881803712071
1.14881784679219
1.14881739218374
1.14881635109838
1.14881407486394
1.14880932878545
1.1487998776391
1.14878180788289
1.14874837338158
1.1486881876177
1.14858480242235
1.14842833756392
1.14828713057457
1.15219049933991
1.15242554936518
1.15263874144224
1.15277639830496
1.15285655516191
1.15290112260322
1.15292514520306
1.15293764394803
1.15294387167234
1.15294682739806
1.15294816194054
1.15294873464464
1.15294896843652
1.15294905994413
1.15294909459422
1.15294910760506
1.15294911236286
1.15294911449563
1.15294911585712
1.15294911680499
1.15294911765183
1.15294911850256
1.15294911926818
1.15294911978637
1.15294912019585
1.15294912056299
1.15294912076961
1.15294912093697
1.15294912111098
1.15294912115396
1.15294912113077
1.15294912084714
1.15294911957717
1.15294911697108
1.1529491115112
1.15294909710838
1.15294905833086
1.15294895741277
1.15294870451134
1.15294809907617
1.15294671399587
1.15294369151026
1.15293740161176
1.15292489120729
1.15290097291081
1.1528566313596
1.15277649337141
1.15263764184154
1.15242112112354
1.15218771210273
1.155539769382
1.15580401170119
1.15601411550407
1.15614458067568
1.15621814817868
1.15625785421243
1.1562787060026
1.15628932643031
1.15629453016265
1.15629696789191
1.15629805697955
1.156298520349
1.15629870804968
1.15629878076594
1.15629880782915
1.15629881757523
1.15629882091206
1.15629882217823
1.15629882284446
1.15629882328591
1.15629882371311
1.15629882420757
1.15629882469476
1.15629882502731
1.15629882525808
1.1562988254674
1.15629882559551
1.1562988257207
1.15629882588654
1.15629882597782
1.15629882606596
1.1562988261476
1.15629882535862
1.15629882345288
1.15629881956227
1.15629880882249
1.15629877908272
1.15629870030818
1.15629850039625
1.1562980157219
1.15629689280968
1.15629440864353
1.15628915780829
1.15627851932219
1.15625771942827
1.15621810859862
1.15614431477911
1.15601221246525
1.15579777459491
1.15553137431611
1.15807621676655
1.15831393184627
1.15848495696232
1.15858708556531
1.15864278021038
1.15867192710597
1.15868683311751
1.15869426890403
1.15869785683246
1.15869951948763
1.15870025667026
1.15870056865832
1.15870069450784
1.15870074300374
1.15870076085907
1.15870076709047
1.15870076907805
1.15870076970606
1.15870076995757
1.15870077009938
1.15870077025721
1.15870077049792
1.15870077077606
1.15870077096734
1.15870077107674
1.15870077117557
1.15870077124229
1.15870077132174
1.15870077144424
1.15870077153877
1.15870077166601
1.15870077188465
1.15870077146824
1.1587007703086
1.15870076797027
1.15870076119625
1.15870074203106
1.1587006906297
1.15870055893307
1.15870023667707
1.15869948279318
1.15869779628894
1.15869418266811
1.15868673403958
1.15867184556395
1.15864270151862
1.15858665779255
1.15848282186273
1.15830722581718
1.15806428353725
1.15980064340015
1.1599825539234
1.16010319770362
1.16017261028315
1.16020925872457
1.16022787505656
1.16023715604933
1.16024169651995
1.16024385790414
1.16024485082759
1.16024528881979
1.16024547368377
1.16024554813258
1.16024557675163
1.1602455872066
1.16024559075929
1.16024559180445
1.1602455920633
1.16024559212533
1.16024559212451
1.16024559213436
1.16024559222074
1.16024559236242
1.1602455924602
1.16024559249849
1.16024559253352
1.16024559256266
1.16024559260648
1.16024559268304
1.16024559275889
1.16024559287679
1.16024559309277
1.16024559291265
1.16024559231085
1.16024559107684
1.16024558726679
1.16024557630035
1.16024554663759
1.16024547010482
1.16024528163103
1.16024483764942
1.1602438358541
1.16024166487054
1.16023712046507
1.16022784639304
1.16020920367615
1.16017222741599
1.16010136380564
1.15997666804178
1.15978836673775
1.16086692942742
1.16098943538861
1.16106526670574
1.16110740175109
1.16112898004149
1.16113963704398
1.16114482320903
1.16114731467337
1.16114848647846
1.16114902107419
1.16114925614148
1.16114935528047
1.16114939521398
1.16114941055401
1.161149416122
1.16114941797301
1.16114941846336
1.16114941851795
1.16114941849198
1.16114941847486
1.1611494184566
1.16114941846401
1.16114941852819
1.16114941857138
1.16114941857365
1.16114941858063
1.16114941859102
1.16114941861106
1.16114941865364
1.16114941870576
1.16114941879319
1.16114941895136
1.1611494188963
1.1611494186322
1.16114941804673
1.16114941608193
1.1611494103547
1.16114939478352
1.16114935441025
1.16114925458501
1.16114901836598
1.16114848201257
1.1611473089071
1.16114481964563
1.16113964056807
1.16112896339089
1.16110715099449
1.16106396722396
1.16098503300125
1.16085665052993
1.16147308496684
1.16154730875256
1.16159059089957
1.16161387035884
1.16162545764468
1.1616310315283
1.16163368281481
1.16163493492639
1.16163551746774
1.1616357817526
1.16163589776204
1.16163594672181
1.16163596647252
1.16163597406168
1.16163597679988
1.16163597768217
1.16163597788135
1.16163597787543
1.16163597784191
1.16163597781595
1.16163597780063
1.16163597779577
1.16163597781458
1.16163597782738
1.16163597781794
1.16163597781641
1.16163597781999
1.16163597782883
1.16163597785088
1.16163597788286
1.16163597793809
1.16163597802703
1.16163597803326
1.16163597794606
1.16163597768238
1.16163597673903
1.16163597396418
1.16163596639759
1.1616359467159
1.16163589795582
1.16163578229865
1.16163551858928
1.16163493756717
1.16163368981243
1.16163104683069
1.16162546645021
1.16161374236409
1.16158979949496
1.16154441916929
1.1614656903538
1.16179275360235
1.16183385437702
1.16185660309453
1.16186847246641
1.16187422584076
1.1618769261658
1.1618781831769
1.16187876728142
1.16187903633782
1.16187915784678
1.16187921115115
1.16187923368649
1.16187924279922
1.16187924630358
1.16187924756103
1.16187924795193
1.16187924802442
1.16187924800772
1.16187924798117
1.16187924796044
1.16187924795033
1.1618792479459
1.16187924794704
1.16187924794556
1.16187924793803
1.16187924793459
1.16187924793568
1.16187924794028
1.16187924795123
1.16187924796923
1.16187924800041
1.16187924804695
1.1618792480619
1.16187924804019
1.16187924793491
1.16187924751002
1.16187924624886
1.16187924280343
1.16187923382584
1.16187921158009
1.16187915878842
1.16187903814103
1.16187877083172
1.16187819072858
1.16187694136839
1.16187424337355
1.16186842266091
1.16185617834578
1.16183215456524
1.16178803687728
1.16195034766301
1.16197139703787
1.16198252686793
1.16198817139343
1.16199084067161
1.16199206504928
1.16199262346231
1.16199287895865
1.16199299555575
1.16199304801201
1.16199307102842
1.16199308078337
1.16199308473989
1.16199308626292
1.16199308680644
1.1619930869681
1.16199308699124
1.1619930869789
1.16199308696232
1.16199308694924
1.16199308694152
1.16199308693716
1.1619930869358
1.16199308693338
1.16199308692878
1.16199308692621
1.16199308692662
1.1619930869291
1.16199308693446
1.16199308694393
1.16199308696009
1.16199308698295
1.16199308699225
1.16199308699022
1.1619930869536
1.1619930867735
1.16199308623147
1.16199308474787
1.16199308088048
1.16199307131021
1.161993048626
1.1619929967536
1.16199288136254
1.16199262865504
1.16199207595815
1.16199085676984
1.16198815951976
1.16198232277943
1.16197048667286
1.16194762425693
1.16202344720599
1.16203351105264
1.16203862363869
1.16204114856019
1.1620423153694
1.16204283921867
1.16204307354459
1.16204317917424
1.16204322695353
1.16204324837869
1.16204325778675
1.16204326178622
1.16204326341386
1.16204326404105
1.16204326426366
1.16204326432636
1.16204326433255
1.16204326432587
1.16204326431694
1.16204326430982
1.16204326430523
1.16204326430248
1.16204326430112
1.16204326429935
1.16204326429701
1.16204326429567
1.16204326429598
1.16204326429732
1.16204326429994
1.16204326430468
1.16204326431254
1.16204326432325
1.16204326432863
1.16204326432994
1.16204326431798
1.16204326424647
1.16204326402485
1.16204326341648
1.1620432618317
1.16204325792029
1.16204324867374
1.16204322754922
1.16204318043782
1.16204307645485
1.16204284577537
1.16204232662297
1.16204115035974
1.16203853503955
1.1620330617531
1.16202200261009
1.1620555240616
1.16206004991286
1.16206227039291
1.16206334014186
1.16206382394716
1.162064036844
1.16206413033934
1.16206417188429
1.16206419051656
1.16206419884725
1.16206420250962
1.16206420407179
1.16206420470983
1.16206420495596
1.1620642050427
1.16206420506605
1.16206420506743
1.162064205064
1.16206420505971
1.16206420505626
1.16206420505396
1.16206420505255
1.16206420505175
1.16206420505083
1.16206420504985
1.16206420504935
1.16206420504964
1.16206420505041
1.16206420505174
1.16206420505407
1.16206420505775
1.1620642050626
1.16206420506553
1.16206420506691
1.16206420506337
1.16206420503633
1.16206420494972
1.16206420471087
1.16206420408958
1.16206420256174
1.16206419896391
1.16206419076315
1.16206417245232
1.16206413177116
1.16206404033473
1.16206383063577
1.16206334461896
1.16206223553623
1.16205984361008
1.16205481223112
1.16206889914636
1.1620708255817
1.16207174265972
1.16207217438301
1.16207236573516
1.1620724483751
1.1620724840398
1.16207249966925
1.16207250662095
1.16207250972077
1.16207251108545
1.16207251166963
1.16207251190914
1.16207251200164
1.16207251203401
1.16207251204241
1.16207251204265
1.1620725120411
1.16207251203926
1.16207251203779
1.16207251203682
1.16207251203625
1.16207251203594
1.16207251203561
1.16207251203533
1.16207251203527
1.16207251203556
1.16207251203606
1.1620725120368
1.16207251203798
1.1620725120397
1.16207251204189
1.16207251204344
1.16207251204439
1.16207251204354
1.16207251203382
1.16207251200139
1.16207251191126
1.16207251167721
1.16207251110408
1.16207250976089
1.16207250670979
1.1620724998976
1.16207248468168
1.1620724500714
1.16207236927888
1.16207217794565
1.16207173029014
1.16207073677452
1.16206857045365
1.16207421493647
1.16207499512841
1.16207535703887
1.16207552379822
1.16207559632943
1.16207562710972
1.16207564017647
1.16207564582669
1.16207564831956
1.16207564942831
1.16207564991719
1.16207565012725
1.16207565021371
1.16207565024719
1.16207565025885
1.16207565026183
1.16207565026189
1.16207565026131
1.16207565026065
1.16207565026015
1.16207565025986
1.16207565025973
1.16207565025972
1.16207565025973
1.16207565025977
1.16207565025992
1.1620756502602
1.16207565026058
1.16207565026106
1.16207565026171
1.16207565026258
1.16207565026363
1.16207565026447
1.16207565026509
1.16207565026505
1.16207565026179
1.16207565025019
1.16207565021746
1.16207565013249
1.16207564992524
1.16207564944211
1.16207564834935
1.16207564591234
1.16207564044604
1.16207562787763
1.16207559804867
1.16207552594375
1.16207535315186
1.16207495906532
1.16207407170477
1.16207622960606
1.16207653158737
1.16207666860712
1.16207673050597
1.16207675695859
1.16207676800228
1.16207677261836
1.16207677458892
1.16207677545148
1.16207677583416
1.16207677600317
1.16207677607608
1.16207677610623
1.16207677611796
1.16207677612208
1.16207677612317
1.16207677612326
1.16207677612315
1.16207677612301
1.16207677612295
1.16207677612297
1.16207677612306
1.16207677612321
1.16207677612337
1.16207677612356
1.16207677612379
1.16207677612407
1.1620767761244
1.16207677612476
1.16207677612519
1.16207677612571
1.16207677612628
1.1620767761268
1.16207677612722
1.16207677612741
1.16207677612649
1.16207677612259
1.16207677611121
1.16207677608146
1.16207677600907
1.16207677584113
1.16207677546304
1.16207677462151
1.16207677272797
1.16207676833205
1.16207675773683
1.16207673162081
1.16207666758214
1.16207651770286
1.16207617036358
1.16207695306973
1.1620770652098
1.16207711514871
1.16207713730327
1.16207714661711
1.1620771504467
1.16207715202427
1.16207715268948
1.1620771529784
1.16207715310626
1.16207715316283
1.16207715318734
1.16207715319755
1.16207715320158
1.16207715320305
1.16207715320351
1.16207715320365
1.16207715320373
1.16207715320382
1.16207715320394
1.16207715320409
1.16207715320429
1.1620771532045
1.16207715320473
1.16207715320498
1.16207715320524
1.16207715320553
1.16207715320583
1.16207715320615
1.16207715320649
1.16207715320686
1.16207715320726
1.16207715320763
1.16207715320797
1.16207715320823
1.16207715320812
1.16207715320697
1.16207715320325
1.16207715319327
1.16207715316887
1.16207715311239
1.16207715298572
1.16207715270441
1.16207715206992
1.1620771505842
1.16207714695144
1.16207713782942
1.1620771149639
1.16207706012206
1.16207692970003
1.1620771923294
1.1620772324157
1.16207724998849
1.16207725765664
1.16207726083167
1.16207726211872
1.16207726264171
1.16207726285963
1.16207726295355
1.16207726299501
1.16207726301339
1.16207726302141
1.16207726302481
1.1620772630262
1.16207726302677
1.16207726302703
1.1620772630272
1.16207726302736
1.16207726302753
1.16207726302772
1.16207726302794
1.16207726302817
1.16207726302842
1.16207726302868
1.16207726302894
1.16207726302922
1.16207726302951
1.1620772630298
1.1620772630301
1.16207726303041
1.16207726303073
1.16207726303106
1.16207726303138
1.16207726303168
1.16207726303196
1.16207726303211
1.16207726303192
1.16207726303087
1.16207726302775
1.1620772630199
1.16207726300157
1.16207726296048
1.16207726286931
1.16207726266321
1.16207726217672
1.16207726097106
1.16207725788952
1.16207725000086
1.16207723063743
1.16207718350277
1.16207725690333
1.16207727073762
1.16207727672286
1.16207727929581
1.16207728034624
1.1620772807664
1.16207728093493
1.16207728100434
1.16207728103401
1.16207728104707
1.16207728105289
1.16207728105546
1.1620772810566
1.16207728105712
1.1620772810574
1.1620772810576
1.16207728105778
1.16207728105797
1.16207728105817
1.1620772810584
1.16207728105863
1.16207728105888
1.16207728105914
1.16207728105941
1.16207728105969
1.16207728105997
1.16207728106026
1.16207728106055
1.16207728106085
1.16207728106114
1.16207728106144
1.16207728106174
1.16207728106204
1.16207728106233
1.16207728106262
1.16207728106286
1.16207728106299
1.16207728106284
1.16207728106203
1.16207728105971
1.16207728105407
1.16207728104124
1.16207728101265
1.16207728094772
1.16207728079314
1.162077280405
1.16207727939579
1.16207727675956
1.16207727014564
1.16207725370227
1.16207726066489
1.16207726528616
1.16207726726356
1.1620772681022
1.16207726844011
1.16207726857356
1.16207726862639
1.16207726864788
1.16207726865699
1.16207726866098
1.16207726866278
1.16207726866361
1.16207726866403
1.16207726866427
1.16207726866446
1.16207726866464
1.16207726866483
1.16207726866503
1.16207726866525
1.16207726866548
1.16207726866573
1.16207726866598
1.16207726866625
1.16207726866652
1.1620772686668
1.16207726866709
1.16207726866738
1.16207726866767
1.16207726866796
1.16207726866826
1.16207726866855
1.16207726866884
1.16207726866913
1.16207726866942
1.1620772686697
1.16207726866997
1.1620772686702
1.16207726867035
1.1620772686703
1.16207726866977
1.16207726866823
1.16207726866449
1.16207726865591
1.16207726863616
1.16207726858852
1.16207726846717
1.16207726814617
1.16207726729109
1.16207726510085
1.16207725954926
1.16207724394386
1.16207724544141
1.16207724607622
1.16207724634216
1.16207724644798
1.16207724648923
1.16207724650533
1.16207724651177
1.16207724651447
1.16207724651565
1.16207724651621
1.1620772465165
1.16207724651669
1.16207724651685
1.16207724651701
1.16207724651718
1.16207724651738
1.16207724651759
1.16207724651781
1.16207724651805
1.1620772465183
1.16207724651856
1.16207724651883
1.1620772465191
1.16207724651939
1.16207724651967
1.16207724651996
1.16207724652025
1.16207724652055
1.16207724652084
1.16207724652113
1.16207724652142
1.16207724652171
1.16207724652199
1.16207724652227
1.16207724652255
1.16207724652281
1.16207724652306
1.16207724652324
1.16207724652328
1.16207724652303
1.16207724652212
1.16207724651977
1.16207724651407
1.16207724649993
1.16207724646314
1.1620772463639
1.1620772460943
1.16207724538983
1.16207724357183
1.1620772205323
1.16207722100397
1.16207722120222
1.16207722128431
1.16207722131656
1.16207722132894
1.16207722133367
1.16207722133552
1.16207722133628
1.16207722133662
1.1620772213368
1.16207722133694
1.16207722133706
1.1620772213372
1.16207722133736
1.16207722133753
1.16207722133773
1.16207722133794
1.16207722133817
1.16207722133841
1.16207722133867
1.16207722133893
1.1620772213392
1.16207722133948
1.16207722133976
1.16207722134005
1.16207722134034
1.16207722134063
1.16207722134092
1.16207722134121
1.1620772213415
1.16207722134179
1.16207722134208
1.16207722134236
1.16207722134264
1.16207722134292
1.16207722134319
1.16207722134346
1.16207722134371
1.16207722134393
1.16207722134406
1.16207722134401
1.16207722134354
1.1620772213421
1.16207722133816
1.16207722132743
1.16207722129766
1.16207722121501
1.16207722099469
1.16207722041613
1.16207719499685
1.16207719514144
1.16207719520163
1.16207719522625
1.16207719523579
1.16207719523936
1.16207719524068
1.16207719524116
1.16207719524136
1.16207719524146
1.16207719524154
1.16207719524164
1.16207719524175
1.16207719524189
1.16207719524204
1.16207719524223
1.16207719524242
1.16207719524264
1.16207719524287
1.16207719524312
1.16207719524337
1.16207719524364
1.16207719524391
1.16207719524419
1.16207719524447
1.16207719524476
1.16207719524505
1.16207719524534
1.16207719524563
1.16207719524593
1.16207719524622
1.1620771952465
1.16207719524679
1.16207719524707
1.16207719524735
1.16207719524763
1.1620771952479
1.16207719524817
1.16207719524844
1.1620771952487
1.16207719524894
1.16207719524913
1.16207719524921
1.16207719524901
1.16207719524809
1.16207719524518
1.16207719523659
1.16207719521202
1.16207719514506
1.16207719496588
1.16207716880495
1.16207716884808
1.16207716886575
1.16207716887287
1.16207716887557
1.16207716887653
1.16207716887685
1.16207716887696
1.16207716887701
1.16207716887705
1.16207716887712
1.16207716887721
1.16207716887732
1.16207716887746
1.16207716887763
1.16207716887781
1.16207716887801
1.16207716887823
1.16207716887847
1.16207716887871
1.16207716887897
1.16207716887924
1.16207716887951
1.16207716887979
1.16207716888008
1.16207716888037
1.16207716888066
1.16207716888095
1.16207716888124
1.16207716888153
1.16207716888182
1.16207716888211
1.16207716888239
1.16207716888267
1.16207716888295
1.16207716888322
1.1620771688835
1.16207716888377
1.16207716888403
1.1620771688843
1.16207716888456
1.16207716888482
1.16207716888504
1.16207716888518
1.16207716888512
1.16207716888448
1.16207716888217
1.16207716887518
1.16207716885551
1.16207716880151
1.16207714241515
1.16207714242762
1.16207714243252
1.16207714243444
1.16207714243515
1.16207714243537
1.16207714243542
1.16207714243544
1.16207714243546
1.1620771424355
1.16207714243557
1.16207714243567
1.16207714243579
1.16207714243593
1.1620771424361
1.16207714243629
1.1620771424365
1.16207714243672
1.16207714243696
1.16207714243721
1.16207714243747
1.16207714243774
1.16207714243801
1.16207714243829
1.16207714243858
1.16207714243887
1.16207714243916
1.16207714243946
1.16207714243975
1.16207714244004
1.16207714244033
1.16207714244061
1.1620771424409
1.16207714244118
1.16207714244145
1.16207714244172
1.16207714244199
1.16207714244225
1.16207714244252
1.16207714244278
1.16207714244304
1.1620771424433
1.16207714244354
1.16207714244377
1.16207714244393
1.16207714244391
1.16207714244342
1.1620771424416
1.16207714243615
1.16207714242036
1.16207711596708
1.16207711597051
1.16207711597167
1.1620771159721
1.16207711597224
1.16207711597228
1.16207711597228
1.16207711597229
1.16207711597231
1.16207711597237
1.16207711597245
1.16207711597255
1.16207711597268
1.16207711597284
1.16207711597301
1.16207711597321
1.16207711597342
1.16207711597364
1.16207711597388
1.16207711597414
1.1620771159744
1.16207711597467
1.16207711597495
1.16207711597523
1.16207711597552
1.16207711597581
1.1620771159761
1.16207711597639
1.16207711597669
1.16207711597698
1.16207711597726
1.16207711597755
1.16207711597783
1.16207711597811
1.16207711597838
1.16207711597865
1.16207711597891
1.16207711597917
1.16207711597942
1.16207711597968
1.16207711597993
1.16207711598017
1.16207711598042
1.16207711598064
1.16207711598085
1.16207711598099
1.16207711598098
1.16207711598065
1.16207711597936
1.16207711597496
1.16207708950222
1.16207708950305
1.16207708950315
1.16207708950317
1.16207708950318
1.16207708950318
1.16207708950318
1.16207708950321
1.16207708950325
1.16207708950332
1.16207708950341
1.16207708950353
1.16207708950367
1.16207708950383
1.16207708950402
1.16207708950422
1.16207708950443
1.16207708950466
1.1620770895049
1.16207708950516
1.16207708950542
1.1620770895057
1.16207708950598
1.16207708950626
1.16207708950655
1.16207708950684
1.16207708950713
1.16207708950743
1.16207708950772
1.16207708950801
1.1620770895083
1.16207708950858
1.16207708950886
1.16207708950914
1.16207708950941
1.16207708950967
1.16207708950993
1.16207708951018
1.16207708951043
1.16207708951067
1.16207708951091
1.16207708951114
1.16207708951136
1.16207708951158
1.16207708951177
1.16207708951193
1.16207708951205
1.16207708951211
1.16207708951201
1.16207708951091
1.16207706303263
1.16207706303273
1.16207706303255
1.16207706303247
1.16207706303246
1.16207706303247
1.16207706303249
1.16207706303254
1.1620770630326
1.16207706303269
1.16207706303279
1.16207706303292
1.16207706303307
1.16207706303325
1.16207706303343
1.16207706303364
1.16207706303386
1.16207706303409
1.16207706303434
1.1620770630346
1.16207706303486
1.16207706303514
1.16207706303542
1.16207706303571
1.162077063036
1.16207706303629
1.16207706303658
1.16207706303688
1.16207706303717
1.16207706303746
1.16207706303775
1.16207706303803
1.16207706303831
1.16207706303858
1.16207706303884
1.1620770630391
1.16207706303936
1.1620770630396
1.16207706303984
1.16207706304007
1.1620770630403
1.16207706304051
1.16207706304072
1.16207706304091
1.16207706304109
1.16207706304124
1.16207706304136
1.16207706304152
1.16207706304174
1.16207706304158
1.16207703656173
1.16207703656164
1.16207703656139
1.1620770365613
1.1620770365613
1.16207703656133
1.16207703656138
1.16207703656145
1.16207703656153
1.16207703656163
1.16207703656175
1.16207703656189
1.16207703656206
1.16207703656223
1.16207703656243
1.16207703656264
1.16207703656287
1.16207703656311
1.16207703656336
1.16207703656362
1.16207703656388
1.16207703656416
1.16207703656444
1.16207703656473
1.16207703656502
1.16207703656532
1.16207703656561
1.1620770365659
1.1620770365662
1.16207703656649
1.16207703656677
1.16207703656705
1.16207703656733
1.1620770365676
1.16207703656786
1.16207703656812
1.16207703656836
1.1620770365686
1.16207703656883
1.16207703656905
1.16207703656927
1.16207703656947
1.16207703656965
1.16207703656982
1.16207703656998
1.1620770365701
1.16207703657022
1.16207703657038
1.16207703657068
1.16207703657077
1.16207701009047
1.16207701009033
1.16207701009008
1.16207701009
1.16207701009003
1.16207701009008
1.16207701009015
1.16207701009024
1.16207701009034
1.16207701009046
1.1620770100906
1.16207701009075
1.16207701009092
1.16207701009111
1.16207701009131
1.16207701009153
1.16207701009176
1.162077010092
1.16207701009226
1.16207701009252
1.16207701009279
1.16207701009307
1.16207701009336
1.16207701009364
1.16207701009394
1.16207701009423
1.16207701009453
1.16207701009482
1.16207701009511
1.1620770100954
1.16207701009569
1.16207701009597
1.16207701009624
1.16207701009651
1.16207701009677
1.16207701009702
1.16207701009726
1.16207701009749
1.16207701009771
1.16207701009792
1.16207701009812
1.1620770100983
1.16207701009847
1.16207701009862
1.16207701009875
1.16207701009885
1.16207701009895
1.16207701009909
1.1620770100994
1.16207701009956
1.16207698361911
1.16207698361897
1.16207698361873
1.16207698361868
1.16207698361872
1.1620769836188
1.16207698361889
1.162076983619
1.16207698361912
1.16207698361926
1.16207698361941
1.16207698361958
1.16207698361976
1.16207698361995
1.16207698362016
1.16207698362039
1.16207698362062
1.16207698362087
1.16207698362113
1.16207698362139
1.16207698362167
1.16207698362195
1.16207698362223
1.16207698362252
1.16207698362282
1.16207698362311
1.16207698362341
1.1620769836237
1.16207698362399
1.16207698362428
1.16207698362457
1.16207698362484
1.16207698362512
1.16207698362538
1.16207698362564
1.16207698362588
1.16207698362612
1.16207698362634
1.16207698362655
1.16207698362675
1.16207698362694
1.16207698362711
1.16207698362726
1.16207698362739
1.1620769836275
1.16207698362757
1.16207698362764
1.16207698362777
1.16207698362807
1.16207698362823
1.16207695714773
1.16207695714759
1.16207695714736
1.16207695714734
1.16207695714741
1.16207695714751
1.16207695714763
1.16207695714775
1.16207695714789
1.16207695714805
1.16207695714821
1.16207695714839
1.16207695714858
1.16207695714878
1.162076957149
1.16207695714923
1.16207695714947
1.16207695714972
1.16207695714998
1.16207695715025
1.16207695715053
1.16207695715081
1.1620769571511
1.16207695715139
1.16207695715169
1.16207695715198
1.16207695715228
1.16207695715257
1.16207695715286
1.16207695715315
1.16207695715343
1.16207695715371
1.16207695715398
1.16207695715424
1.16207695715449
1.16207695715473
1.16207695715496
1.16207695715518
1.16207695715538
1.16207695715557
1.16207695715575
1.1620769571559
1.16207695715603
1.16207695715614
1.16207695715623
1.16207695715628
1.16207695715633
1.16207695715643
1.16207695715671
1.16207695715688
1.16207693067633
1.16207693067621
1.162076930676
1.162076930676
1.16207693067609
1.16207693067622
1.16207693067635
1.1620769306765
1.16207693067666
1.16207693067683
1.162076930677
1.16207693067719
1.1620769306774
1.16207693067761
1.16207693067783
1.16207693067807
1.16207693067831
1.16207693067857
1.16207693067884
1.16207693067911
1.16207693067939
1.16207693067967
1.16207693067996
1.16207693068026
1.16207693068055
1.16207693068085
1.16207693068114
1.16207693068144
1.16207693068173
1.16207693068202
1.1620769306823
1.16207693068257
1.16207693068284
1.1620769306831
1.16207693068335
1.16207693068358
1.16207693068381
1.16207693068402
1.16207693068421
1.16207693068439
1.16207693068455
1.16207693068469
1.1620769306848
1.1620769306849
1.16207693068496
1.16207693068499
1.16207693068501
1.16207693068509
1.16207693068536
1.16207693068551
1.16207690420493
1.16207690420482
1.16207690420463
1.16207690420465
1.16207690420477
1.16207690420492
1.16207690420508
1.16207690420525
1.16207690420542
1.16207690420561
1.1620769042058
1.162076904206
1.16207690420621
1.16207690420643
1.16207690420666
1.1620769042069
1.16207690420716
1.16207690420742
1.16207690420768
1.16207690420796
1.16207690420824
1.16207690420853
1.16207690420882
1.16207690420912
1.16207690420941
1.16207690420971
1.16207690421
1.1620769042103
1.16207690421059
1.16207690421088
1.16207690421116
1.16207690421143
1.16207690421169
1.16207690421195
1.16207690421219
1.16207690421242
1.16207690421264
1.16207690421284
1.16207690421303
1.1620769042132
1.16207690421335
1.16207690421347
1.16207690421357
1.16207690421364
1.16207690421369
1.1620769042137
1.1620769042137
1.16207690421375
1.16207690421399
1.16207690421413
1.16207687773352
1.16207687773342
1.16207687773326
1.16207687773331
1.16207687773345
1.16207687773363
1.16207687773381
1.162076877734
1.16207687773419
1.16207687773438
1.16207687773459
1.1620768777348
1.16207687773502
1.16207687773525
1.16207687773549
1.16207687773574
1.16207687773599
1.16207687773626
1.16207687773653
1.16207687773681
1.16207687773709
1.16207687773738
1.16207687773768
1.16207687773797
1.16207687773827
1.16207687773857
1.16207687773886
1.16207687773916
1.16207687773945
1.16207687773973
1.16207687774001
1.16207687774028
1.16207687774055
1.1620768777408
1.16207687774104
1.16207687774126
1.16207687774148
1.16207687774167
1.16207687774185
1.16207687774201
1.16207687774214
1.16207687774225
1.16207687774234
1.16207687774239
1.16207687774241
1.1620768777424
1.16207687774238
1.1620768777424
1.16207687774262
1.16207687774274
1.1620768512621
1.16207685126203
1.16207685126189
1.16207685126197
1.16207685126214
1.16207685126234
1.16207685126254
1.16207685126274
1.16207685126295
1.16207685126316
1.16207685126338
1.1620768512636
1.16207685126383
1.16207685126407
1.16207685126431
1.16207685126457
1.16207685126483
1.1620768512651
1.16207685126537
1.16207685126566
1.16207685126594
1.16207685126624
1.16207685126653
1.16207685126683
1.16207685126713
1.16207685126742
1.16207685126772
1.16207685126801
1.1620768512683
1.16207685126859
1.16207685126887
1.16207685126914
1.1620768512694
1.16207685126964
1.16207685126988
1.1620768512701