/*--------------------------------*- C++ -*----------------------------------*\
  =========                 |
  \\      /  F ield         | OpenFOAM: The Open Source CFD Toolbox
   \\    /   O peration     | Website:  https://openfoam.org
    \\  /    A nd           | Version:  10
     \\/     M anipulation  |
\*---------------------------------------------------------------------------*/
FoamFile
{
    format      ascii;
    class       volScalarField;
    location    "5.8";
    object      T;
}
// * * * * * * * * * * * * * * * * * * * * * * * * * * * * * * * * * * * * * //

dimensions      [0 0 0 1 0 0 0];

internalField   nonuniform List<scalar> 
2500
(
304.644578142827
304.636207520461
304.621909748967
304.612319698761
304.606871647616
304.603953053001
304.602443888813
304.601691033129
304.601331204059
304.601168027457
304.601096253025
304.601066248254
304.60105416668
304.601048852404
304.60104627513
304.601044582135
304.601043772563
304.601042955831
304.601042090401
304.601041485234
304.601040968749
304.601040519829
304.601040149241
304.601039920364
304.601039685505
304.601039483365
304.601039407485
304.601039373773
304.601039396585
304.601039493806
304.60103966897
304.601039997548
304.601040403909
304.601040945989
304.601041682021
304.601042901167
304.601045342555
304.601050715072
304.601064301467
304.601096366496
304.601171362975
304.601340505217
304.601705986703
304.602461670737
304.60396649493
304.606864019281
304.612291581674
304.621922557819
304.636354175551
304.644454559136
303.60323987712
303.565011697882
303.524134697853
303.49697577554
303.481034851247
303.472142889761
303.467345902649
303.464852867445
303.463614077155
303.463028652759
303.462765235523
303.462652605591
303.462606735263
303.462588589561
303.462581491411
303.462578550754
303.46257736468
303.462576654343
303.462576069034
303.462575645832
303.462575279671
303.462574941993
303.46257465434
303.462574463598
303.462574294395
303.462574145913
303.462574072795
303.46257402583
303.462573998834
303.462574032112
303.462574118058
303.462574301285
303.462574683537
303.462575356724
303.462576626666
303.46257968088
303.462587551567
303.462607646906
303.462657922614
303.462778008461
303.463053013804
303.463654288622
303.464907988522
303.467404586027
303.472177974129
303.481010578494
303.49691152974
303.524229569249
303.565582495943
303.602912513747
302.574365593913
302.512652184028
302.456699441146
302.420582082443
302.39955511068
302.387865319276
302.38156470018
302.378286648016
302.376653326181
302.37587814532
302.375528144021
302.375377945121
302.375316630312
302.375292631346
302.375283543976
302.37528013177
302.375278884029
302.375278324736
302.375277967723
302.375277719192
302.375277497157
302.375277274109
302.375277073379
302.375276937548
302.375276830225
302.375276734011
302.375276679895
302.375276636074
302.375276590512
302.375276579314
302.375276585472
302.37527665993
302.375276993065
302.375277676616
302.375279108603
302.375282885986
302.375293055932
302.375319523014
302.375385849639
302.375544632776
302.375907888422
302.376700578284
302.37835020698
302.381631318555
302.387904583331
302.399535125797
302.420557144754
302.456987982893
302.513814607689
302.575097548394
301.697363198905
301.628388520447
301.573568021084
301.539536942969
301.520350675827
301.509996431102
301.504559140893
301.501789845101
301.500432981062
301.499797351684
301.499513376787
301.499392555396
301.499343613386
301.49932465302
301.499317596466
301.499315055271
301.49931418526
301.499313855165
301.499313681503
301.499313566457
301.499313455127
301.499313326264
301.499313199298
301.499313112654
301.499313052551
301.499312998042
301.499312964712
301.499312932143
301.499312888975
301.499312865248
301.499312842339
301.499312821123
301.499313026918
301.499313523901
301.499314538424
301.499317338833
301.499325093394
301.499345633528
301.499397759655
301.499524136295
301.499816930917
301.500464668733
301.50183381518
301.50460782064
301.510031579992
301.520360999691
301.539606294867
301.574064476644
301.63001621937
301.699555066424
301.036571288729
300.974791031564
300.930358647188
300.903831856551
300.889367750503
300.881798747886
300.877928032077
300.87599718285
300.875065515075
300.874633779842
300.874442358903
300.874361346452
300.874328667745
300.874316075091
300.874311438728
300.8743098207
300.874309304643
300.874309141625
300.874309076371
300.874309039607
300.874308998684
300.874308936243
300.874308864087
300.874308814487
300.874308786148
300.874308760557
300.874308743305
300.874308722747
300.874308691012
300.874308666541
300.874308633574
300.874308576872
300.874308685072
300.87430898626
300.874309593508
300.87431135255
300.874316329144
300.874329676346
300.874363873436
300.874447552207
300.874643309975
300.875081238116
300.876019577551
300.877953761825
300.881819924651
300.88938818818
300.903942958249
300.930913268087
300.976533529724
301.039673310746
300.588974189729
300.541835292672
300.510580742291
300.492601335804
300.483109439715
300.478288064958
300.475884472889
300.474708595572
300.474148850105
300.473891708019
300.473778279271
300.473730404291
300.473711124008
300.473703712455
300.473701004932
300.473700084924
300.473699814304
300.473699747321
300.473699731313
300.473699731583
300.473699729094
300.473699706787
300.473699670161
300.473699644908
300.47369963506
300.47369962606
300.473699618587
300.473699607311
300.473699587558
300.473699567988
300.47369953753
300.473699481667
300.473699528387
300.473699684305
300.473700003951
300.473700990719
300.473703830807
300.473711512753
300.473731332822
300.473780142736
300.473895122672
300.474154562428
300.474716793988
300.475893690465
300.478295490381
300.483123698853
300.492700503184
300.511055794111
300.543360285584
300.592156004598
300.312868680602
300.28118009123
300.261568172008
300.250672078014
300.245092252955
300.242336587065
300.240995577425
300.240351352743
300.240048356902
300.239910125702
300.239849344071
300.239823709613
300.239813383995
300.239809417544
300.239807977868
300.239807499295
300.239807372554
300.239807358492
300.239807365261
300.239807369746
300.23980737453
300.239807372677
300.239807356147
300.239807345049
300.239807344531
300.239807342798
300.239807340185
300.239807335076
300.23980732414
300.239807310736
300.239807288202
300.239807247376
300.239807261686
300.239807330045
300.239807481499
300.239807989605
300.239809470565
300.239813496883
300.239823936305
300.239849748294
300.239910827811
300.240049513572
300.240352845722
300.240996500864
300.24233567791
300.245096560599
300.250736923312
300.261904231846
300.282318742105
300.315527826968
300.156133024802
300.136952811326
300.125769376647
300.119754670328
300.116760956816
300.115320898731
300.114635922174
300.114312432355
300.114161929886
300.114093650634
300.114063679071
300.114051030113
300.114045927461
300.114043966803
300.114043259418
300.11404303152
300.114042980109
300.114042981693
300.114042990407
300.114042997172
300.114043001191
300.114043002512
300.114042997717
300.11404299448
300.114042996987
300.114042997455
300.114042996601
300.114042994392
300.114042988769
300.114042980581
300.114042966385
300.11404294348
300.114042941941
300.11404296454
300.114043032732
300.114043276518
300.11404399348
300.114045948405
300.114051033321
300.114063630774
300.114093511407
300.114161642051
300.114311752082
300.114634116343
300.115316947346
300.116758683957
300.119787741792
300.125973858005
300.137699466614
300.158044007667
300.073537879747
300.062922544739
300.057047424425
300.05398211247
300.052496303343
300.051798949314
300.051474329563
300.051323486362
300.051254003426
300.051222624156
300.051208858501
300.051203038851
300.051200685549
300.051199780597
300.051199455904
300.051199355001
300.051199336328
300.051199340691
300.051199347604
300.051199353016
300.051199355688
300.051199356897
300.051199356668
300.051199357119
300.051199359134
300.051199360093
300.051199359885
300.051199358769
300.051199356017
300.051199351441
300.051199343464
300.051199331518
300.05119932773
300.051199333407
300.051199360664
300.05119947046
300.051199796216
300.051200686053
300.051203004547
300.051208749499
300.051222382831
300.051253539679
300.051322571499
300.051472381412
300.051795025382
300.052491777662
300.053994976972
300.057157120797
300.063361552273
300.07475614584
300.032832398439
300.027397235279
300.024523479078
300.023066066099
300.022376864935
300.022060734563
300.021916554298
300.021850586075
300.021820481137
300.02180693713
300.021800994393
300.021798475721
300.02179745419
300.021797060984
300.021796920687
300.02179687899
300.021796873062
300.021796876302
300.021796880637
300.021796884072
300.021796886126
300.021796887317
300.021796887733
300.021796888426
300.021796889685
300.02179689042
300.021796890387
300.021796889822
300.021796888511
300.021796886139
300.021796882042
300.021796876213
300.021796873884
300.02179687448
300.021796884005
300.021796930578
300.021797070595
300.021797453724
300.021798452336
300.02180092341
300.021806780457
300.021820173786
300.021849967396
300.02191521561
300.022057920036
300.022372710569
300.023069134035
300.024576177054
300.027632298934
300.033535626212
300.013951364365
300.011353078859
300.010033127643
300.009381255485
300.009080015097
300.008944770674
300.008884273736
300.008857002852
300.008844667452
300.00883913602
300.008836707105
300.00883567456
300.008835254369
300.008835092475
300.00883503504
300.008835018895
300.008835017345
300.00883501912
300.00883502148
300.008835023377
300.008835024623
300.008835025397
300.008835025816
300.008835026341
300.008835027015
300.008835027432
300.008835027427
300.008835027154
300.008835026552
300.008835025401
300.008835023447
300.008835020756
300.008835019441
300.008835019174
300.008835022333
300.008835040868
300.008835098153
300.008835255288
300.00883566451
300.008836674407
300.008839061704
300.008844515595
300.008856678631
300.008883524443
300.008943080016
300.009077111869
300.009380793072
300.010056003993
300.011469080337
300.014324336243
300.005663080744
300.004494654617
300.003921402774
300.003645230831
300.003520329192
300.003465366599
300.003441229293
300.003430503774
300.003425693534
300.00342354282
300.00342259732
300.003422194034
300.003422029334
300.003421965823
300.003421943465
300.003421937478
300.003421937167
300.003421938103
300.003421939267
300.003421940215
300.003421940871
300.003421941298
300.003421941572
300.003421941878
300.003421942201
300.003421942403
300.003421942402
300.003421942277
300.003421942008
300.003421941481
300.003421940605
300.003421939426
300.003421938744
300.003421938462
300.003421939448
300.003421946501
300.003421968932
300.003422030667
300.003422191138
300.00342258565
300.003423514569
300.003425631813
300.003430359136
300.003440861713
300.003464467531
300.00351860459
300.003644077194
300.003930403772
300.004547917244
300.005846855025
300.002203266286
300.001705934227
300.001469180133
300.001357725817
300.001308325981
300.001286991411
300.001277784053
300.001273749052
300.001271954341
300.001271154059
300.001270801743
300.001270650937
300.001270589124
300.00127056527
300.00127055695
300.00127055482
300.001270554806
300.001270555255
300.001270555786
300.001270556222
300.001270556536
300.001270556747
300.001270556895
300.001270557047
300.00127055719
300.001270557278
300.001270557278
300.001270557223
300.001270557106
300.001270556877
300.001270556507
300.001270556015
300.001270555691
300.001270555518
300.001270555811
300.001270558394
300.001270566839
300.00127059018
300.001270650682
300.001270798724
300.001271145573
300.00127193335
300.001273692114
300.001277620418
300.001286555613
300.001307413297
300.001356808282
300.001472375701
300.001728863045
300.002288124577
300.000824102787
300.000622688597
300.000529257846
300.00048620714
300.000467482337
300.000459535948
300.000456162521
300.000454703775
300.000454060162
300.000453773896
300.000453647677
300.000453593454
300.000453571148
300.000453562533
300.000453559557
300.000453558827
300.000453558857
300.000453559056
300.000453559281
300.000453559469
300.000453559607
300.000453559703
300.000453559773
300.000453559841
300.0004535599
300.000453559935
300.000453559935
300.000453559912
300.000453559863
300.000453559769
300.00045355962
300.000453559425
300.000453559283
300.000453559197
300.000453559281
300.000453560195
300.000453563266
300.00045357179
300.000453593807
300.000453647392
300.000453772212
300.000454054421
300.000454683682
300.000456095006
300.000459339833
300.000467040671
300.000485655454
300.000530263544
300.000632000873
300.000861081714
300.000297163089
300.000219203844
300.000183830858
300.000167850937
300.000161021792
300.000158170614
300.000156978819
300.000156470017
300.000156247287
300.000156148463
300.000156104821
300.000156086004
300.000156078234
300.000156075231
300.000156074202
300.000156073959
300.000156073981
300.000156074062
300.000156074152
300.000156074227
300.000156074284
300.000156074324
300.000156074354
300.000156074382
300.000156074404
300.000156074417
300.000156074417
300.000156074408
300.000156074389
300.000156074352
300.000156074295
300.000156074221
300.000156074164
300.000156074129
300.000156074153
300.000156074465
300.000156075548
300.000156078564
300.000156086323
300.000156105097
300.000156148547
300.000156246257
300.000156463628
300.000156952605
300.000158087616
300.000160823057
300.000167565341
300.000184097702
300.000222790507
300.000312459322
300.000103560723
300.000074610728
300.00006171846
300.000055998913
300.00005359432
300.000052605546
300.00005219818
300.000052026376
300.000051951739
300.000051918701
300.000051904087
300.000051897762
300.00005189514
300.000051894125
300.000051893779
300.000051893699
300.000051893709
300.000051893739
300.000051893772
300.0000518938
300.000051893822
300.000051893837
300.000051893848
300.000051893859
300.000051893867
300.000051893872
300.000051893871
300.000051893868
300.000051893861
300.000051893847
300.000051893827
300.0000518938
300.000051893779
300.000051893766
300.000051893773
300.000051893879
300.000051894251
300.000051895289
300.000051897945
300.00005190433
300.000051919006
300.00005195181
300.000052024551
300.000052188483
300.000052572189
300.000053510192
300.000055865299
300.000061768413
300.000075926429
300.000109596077
300.000034959922
300.000024611244
300.000020074591
300.000018094863
300.00001727508
300.000016942703
300.000016807599
300.000016751271
300.000016726979
300.000016716249
300.000016711495
300.000016709428
300.000016708568
300.000016708233
300.000016708118
300.00001670809
300.000016708093
300.000016708103
300.000016708114
300.000016708123
300.00001670813
300.000016708135
300.000016708139
300.000016708142
300.000016708145
300.000016708146
300.000016708146
300.000016708145
300.000016708142
300.000016708138
300.000016708131
300.000016708122
300.000016708115
300.000016708111
300.000016708114
300.000016708151
300.000016708277
300.000016708626
300.000016709512
300.000016711626
300.000016716449
300.000016727158
300.000016750807
300.000016804143
300.000016929874
300.000017241282
300.000018036966
300.000020073646
300.000025072584
300.000037240861
300.000011455753
300.000007884267
300.000006339057
300.000005674721
300.000005403442
300.000005294876
300.000005251291
300.000005233313
300.000005225612
300.000005222216
300.000005220708
300.000005220048
300.000005219771
300.000005219662
300.000005219623
300.000005219612
300.000005219611
300.000005219613
300.000005219616
300.000005219618
300.000005219619
300.00000521962
300.000005219621
300.000005219622
300.000005219622
300.000005219622
300.000005219622
300.000005219622
300.000005219621
300.00000521962
300.000005219618
300.000005219616
300.000005219615
300.000005219614
300.000005219617
300.000005219631
300.000005219673
300.000005219789
300.000005220079
300.000005220763
300.00000522231
300.000005225718
300.000005233207
300.00000525009
300.000005290124
300.000005390468
300.000005651139
300.000006331836
300.00000803936
300.000012284406
300.000003650823
300.000002457771
300.00000194723
300.000001730644
300.000001643323
300.000001608792
300.000001595084
300.000001589484
300.000001587099
300.000001586048
300.000001585578
300.00000158537
300.000001585281
300.000001585244
300.00000158523
300.000001585224
300.000001585222
300.000001585221
300.00000158522
300.00000158522
300.000001585219
300.000001585219
300.000001585218
300.000001585218
300.000001585218
300.000001585217
300.000001585217
300.000001585217
300.000001585217
300.000001585217
300.000001585217
300.000001585218
300.000001585218
300.000001585219
300.000001585222
300.000001585228
300.000001585243
300.000001585283
300.000001585377
300.000001585595
300.000001586082
300.000001587143
300.000001589459
300.000001594671
300.000001607086
300.000001638538
300.000001721525
300.000001942383
300.000002507883
300.000003941113
300.000001133661
300.000000747029
300.000000583103
300.000000514381
300.000000486991
300.000000476275
300.000000472063
300.000000470356
300.000000469631
300.000000469309
300.000000469164
300.000000469097
300.000000469067
300.000000469053
300.000000469046
300.000000469042
300.000000469039
300.000000469037
300.000000469035
300.000000469034
300.000000469032
300.000000469031
300.000000469031
300.00000046903
300.000000469029
300.000000469029
300.000000469029
300.000000469029
300.000000469029
300.00000046903
300.000000469031
300.000000469031
300.000000469033
300.000000469034
300.000000469037
300.00000046904
300.000000469047
300.000000469062
300.000000469094
300.000000469164
300.000000469316
300.000000469642
300.000000470345
300.000000471919
300.000000475676
300.000000485285
300.000000511009
300.000000580702
300.000000762623
300.000001231987
300.000000343724
300.000000221938
300.000000170725
300.000000149478
300.000000141094
300.000000137843
300.000000136575
300.000000136062
300.000000135843
300.000000135744
300.000000135697
300.000000135674
300.000000135662
300.000000135654
300.00000013565
300.000000135646
300.000000135643
300.000000135641
300.000000135639
300.000000135637
300.000000135635
300.000000135634
300.000000135633
300.000000135632
300.000000135632
300.000000135631
300.000000135631
300.000000135631
300.000000135632
300.000000135632
300.000000135633
300.000000135634
300.000000135636
300.000000135638
300.00000013564
300.000000135643
300.000000135647
300.000000135654
300.000000135667
300.000000135691
300.00000013574
300.000000135841
300.000000136052
300.00000013652
300.000000137634
300.000000140502
300.000000148278
300.000000169693
300.000000226617
300.000000376002
300.000000102091
300.000000064752
300.000000049186
300.000000042787
300.00000004028
300.000000039314
300.000000038937
300.000000038783
300.000000038715
300.000000038682
300.000000038665
300.000000038654
300.000000038647
300.000000038642
300.000000038638
300.000000038635
300.000000038632
300.000000038629
300.000000038627
300.000000038625
300.000000038623
300.000000038622
300.000000038621
300.00000003862
300.000000038619
300.000000038619
300.000000038619
300.000000038619
300.00000003862
300.00000003862
300.000000038621
300.000000038622
300.000000038624
300.000000038626
300.000000038628
300.000000038631
300.000000038635
300.000000038639
300.000000038646
300.000000038656
300.000000038674
300.000000038707
300.000000038772
300.000000038911
300.000000039237
300.000000040076
300.000000042372
300.00000004878
300.000000066106
300.00000011238
300.000000029934
300.00000001879
300.000000014208
300.000000012339
300.000000011608
300.000000011325
300.000000011212
300.000000011164
300.00000001114
300.000000011126
300.000000011117
300.000000011111
300.000000011105
300.000000011101
300.000000011097
300.000000011094
300.00000001109
300.000000011088
300.000000011086
300.000000011084
300.000000011082
300.000000011081
300.00000001108
300.000000011079
300.000000011078
300.000000011078
300.000000011078
300.000000011078
300.000000011078
300.000000011079
300.00000001108
300.000000011081
300.000000011083
300.000000011085
300.000000011087
300.00000001109
300.000000011093
300.000000011097
300.000000011102
300.000000011108
300.000000011117
300.00000001113
300.000000011153
300.000000011196
300.000000011293
300.000000011535
300.000000012197
300.000000014058
300.000000019166
300.000000033122
300.000000008868
300.000000005644
300.000000004365
300.000000003846
300.000000003639
300.000000003556
300.00000000352
300.000000003502
300.000000003491
300.000000003483
300.000000003477
300.000000003471
300.000000003466
300.000000003462
300.000000003458
300.000000003455
300.000000003452
300.000000003449
300.000000003447
300.000000003445
300.000000003443
300.000000003442
300.000000003441
300.00000000344
300.000000003439
300.000000003439
300.000000003439
300.000000003439
300.000000003439
300.00000000344
300.000000003441
300.000000003442
300.000000003444
300.000000003446
300.000000003448
300.000000003451
300.000000003454
300.000000003458
300.000000003462
300.000000003467
300.000000003473
300.000000003481
300.000000003491
300.000000003507
300.000000003538
300.00000000361
300.000000003796
300.000000004311
300.000000005742
300.000000009828
300.000000002848
300.000000001961
300.000000001652
300.000000001527
300.000000001472
300.000000001447
300.000000001433
300.000000001423
300.000000001416
300.000000001409
300.000000001404
300.000000001398
300.000000001394
300.000000001389
300.000000001386
300.000000001382
300.000000001379
300.000000001376
300.000000001374
300.000000001372
300.000000001371
300.000000001369
300.000000001368
300.000000001367
300.000000001367
300.000000001366
300.000000001366
300.000000001366
300.000000001367
300.000000001368
300.000000001369
300.00000000137
300.000000001371
300.000000001373
300.000000001376
300.000000001379
300.000000001382
300.000000001385
300.00000000139
300.000000001394
300.000000001399
300.000000001405
300.000000001412
300.000000001421
300.000000001434
300.000000001457
300.000000001508
300.000000001633
300.000000001984
300.000000003127
300.000000001163
300.00000000095
300.00000000092
300.000000000907
300.000000000895
300.000000000886
300.000000000878
300.000000000871
300.000000000864
300.000000000858
300.000000000853
300.000000000847
300.000000000843
300.000000000838
300.000000000835
300.000000000831
300.000000000828
300.000000000826
300.000000000823
300.000000000821
300.00000000082
300.000000000818
300.000000000817
300.000000000816
300.000000000816
300.000000000816
300.000000000816
300.000000000816
300.000000000816
300.000000000817
300.000000000818
300.000000000819
300.000000000821
300.000000000823
300.000000000825
300.000000000828
300.000000000831
300.000000000835
300.000000000839
300.000000000843
300.000000000848
300.000000000854
300.00000000086
300.000000000866
300.000000000874
300.000000000884
300.000000000897
300.000000000912
300.000000000952
300.000000001238
300.0000000007
300.000000000678
300.000000000727
300.000000000745
300.000000000745
300.00000000074
300.000000000733
300.000000000727
300.00000000072
300.000000000714
300.000000000709
300.000000000704
300.000000000699
300.000000000695
300.000000000691
300.000000000688
300.000000000685
300.000000000682
300.00000000068
300.000000000678
300.000000000676
300.000000000675
300.000000000674
300.000000000673
300.000000000672
300.000000000672
300.000000000672
300.000000000672
300.000000000673
300.000000000673
300.000000000674
300.000000000676
300.000000000677
300.000000000679
300.000000000682
300.000000000684
300.000000000688
300.000000000691
300.000000000695
300.0000000007
300.000000000705
300.00000000071
300.000000000716
300.000000000722
300.000000000728
300.000000000735
300.000000000738
300.000000000723
300.000000000676
300.000000000717
300.000000000577
300.000000000607
300.000000000677
300.000000000703
300.000000000706
300.000000000702
300.000000000696
300.00000000069
300.000000000683
300.000000000677
300.000000000672
300.000000000667
300.000000000662
300.000000000658
300.000000000654
300.000000000651
300.000000000648
300.000000000645
300.000000000643
300.000000000641
300.000000000639
300.000000000638
300.000000000637
300.000000000636
300.000000000636
300.000000000635
300.000000000635
300.000000000635
300.000000000636
300.000000000637
300.000000000638
300.000000000639
300.000000000641
300.000000000642
300.000000000645
300.000000000648
300.000000000651
300.000000000654
300.000000000658
300.000000000663
300.000000000668
300.000000000673
300.000000000679
300.000000000685
300.000000000691
300.000000000697
300.000000000698
300.000000000674
300.000000000603
300.000000000576
300.000000000545
300.00000000059
300.000000000665
300.000000000693
300.000000000697
300.000000000693
300.000000000687
300.00000000068
300.000000000674
300.000000000668
300.000000000662
300.000000000657
300.000000000652
300.000000000648
300.000000000644
300.000000000641
300.000000000638
300.000000000636
300.000000000633
300.000000000632
300.00000000063
300.000000000629
300.000000000628
300.000000000627
300.000000000626
300.000000000626
300.000000000626
300.000000000626
300.000000000626
300.000000000627
300.000000000628
300.000000000629
300.000000000631
300.000000000633
300.000000000635
300.000000000638
300.000000000641
300.000000000645
300.000000000649
300.000000000653
300.000000000658
300.000000000664
300.00000000067
300.000000000676
300.000000000682
300.000000000688
300.000000000688
300.000000000663
300.000000000586
300.00000000054
300.000000000538
300.000000000587
300.000000000663
300.000000000692
300.000000000695
300.00000000069
300.000000000684
300.000000000677
300.000000000671
300.000000000665
300.000000000659
300.000000000654
300.000000000649
300.000000000645
300.000000000641
300.000000000638
300.000000000635
300.000000000633
300.000000000631
300.000000000629
300.000000000627
300.000000000626
300.000000000625
300.000000000624
300.000000000624
300.000000000623
300.000000000623
300.000000000623
300.000000000624
300.000000000624
300.000000000625
300.000000000627
300.000000000628
300.00000000063
300.000000000632
300.000000000635
300.000000000638
300.000000000642
300.000000000646
300.00000000065
300.000000000655
300.000000000661
300.000000000667
300.000000000673
300.00000000068
300.000000000686
300.000000000687
300.000000000662
300.000000000584
300.000000000532
300.000000000539
300.000000000588
300.000000000664
300.000000000692
300.000000000694
300.00000000069
300.000000000683
300.000000000676
300.000000000669
300.000000000663
300.000000000658
300.000000000652
300.000000000648
300.000000000644
300.00000000064
300.000000000637
300.000000000634
300.000000000631
300.000000000629
300.000000000627
300.000000000626
300.000000000625
300.000000000624
300.000000000623
300.000000000622
300.000000000622
300.000000000622
300.000000000622
300.000000000623
300.000000000623
300.000000000624
300.000000000626
300.000000000627
300.000000000629
300.000000000631
300.000000000634
300.000000000637
300.000000000641
300.000000000645
300.000000000649
300.000000000654
300.00000000066
300.000000000666
300.000000000673
300.00000000068
300.000000000686
300.000000000687
300.000000000663
300.000000000585
300.000000000533
300.000000000541
300.000000000591
300.000000000666
300.000000000693
300.000000000695
300.000000000689
300.000000000682
300.000000000675
300.000000000668
300.000000000662
300.000000000656
300.000000000651
300.000000000646
300.000000000642
300.000000000639
300.000000000636
300.000000000633
300.00000000063
300.000000000628
300.000000000627
300.000000000625
300.000000000624
300.000000000623
300.000000000622
300.000000000622
300.000000000621
300.000000000621
300.000000000621
300.000000000622
300.000000000623
300.000000000624
300.000000000625
300.000000000626
300.000000000628
300.00000000063
300.000000000633
300.000000000636
300.000000000639
300.000000000643
300.000000000648
300.000000000653
300.000000000659
300.000000000665
300.000000000672
300.00000000068
300.000000000687
300.000000000689
300.000000000665
300.000000000588
300.000000000535
300.000000000545
300.000000000595
300.000000000669
300.000000000694
300.000000000695
300.000000000689
300.000000000681
300.000000000674
300.000000000667
300.00000000066
300.000000000655
300.00000000065
300.000000000645
300.000000000641
300.000000000637
300.000000000634
300.000000000632
300.000000000629
300.000000000627
300.000000000626
300.000000000624
300.000000000623
300.000000000622
300.000000000621
300.000000000621
300.000000000621
300.00000000062
300.000000000621
300.000000000621
300.000000000622
300.000000000623
300.000000000624
300.000000000625
300.000000000627
300.000000000629
300.000000000632
300.000000000635
300.000000000638
300.000000000642
300.000000000647
300.000000000652
300.000000000658
300.000000000664
300.000000000672
300.00000000068
300.000000000687
300.00000000069
300.000000000668
300.000000000592
300.000000000539
300.000000000549
300.000000000599
300.000000000672
300.000000000696
300.000000000695
300.000000000689
300.00000000068
300.000000000673
300.000000000665
300.000000000659
300.000000000653
300.000000000648
300.000000000643
300.000000000639
300.000000000636
300.000000000633
300.00000000063
300.000000000628
300.000000000626
300.000000000624
300.000000000623
300.000000000622
300.000000000621
300.00000000062
300.00000000062
300.00000000062
300.00000000062
300.00000000062
300.00000000062
300.000000000621
300.000000000622
300.000000000623
300.000000000624
300.000000000626
300.000000000628
300.000000000631
300.000000000634
300.000000000637
300.000000000641
300.000000000645
300.000000000651
300.000000000657
300.000000000663
300.000000000671
300.00000000068
300.000000000688
300.000000000692
300.000000000672
300.000000000597
300.000000000544
300.000000000554
300.000000000604
300.000000000675
300.000000000698
300.000000000696
300.000000000688
300.000000000679
300.000000000671
300.000000000663
300.000000000657
300.000000000651
300.000000000646
300.000000000642
300.000000000638
300.000000000634
300.000000000631
300.000000000629
300.000000000627
300.000000000625
300.000000000623
300.000000000622
300.000000000621
300.00000000062
300.000000000619
300.000000000619
300.000000000619
300.000000000618
300.000000000619
300.000000000619
300.00000000062
300.000000000621
300.000000000622
300.000000000623
300.000000000625
300.000000000627