/*--------------------------------*- C++ -*----------------------------------*\
  =========                 |
  \\      /  F ield         | OpenFOAM: The Open Source CFD Toolbox
   \\    /   O peration     | Website:  https://openfoam.org
    \\  /    A nd           | Version:  10
     \\/     M anipulation  |
\*---------------------------------------------------------------------------*/
FoamFile
{
    format      ascii;
    class       volVectorField;
    location    "5.8";
    object      U;
}
// * * * * * * * * * * * * * * * * * * * * * * * * * * * * * * * * * * * * * //

dimensions      [0 1 -1 0 0 0 0];

internalField   nonuniform List<vector> 
2500
(
(-1.52130775338429e-06 -3.24928212080379e-06 5.92822659365639e-25)
(-3.63401832997251e-06 -4.31181953547356e-06 5.0423842136354e-24)
(-3.41595697973827e-06 -4.59810475125047e-06 8.18123297769479e-25)
(-2.62721155006359e-06 -4.693146756347e-06 4.43069800062855e-25)
(-1.75293343721611e-06 -4.67959216035884e-06 4.2990901221344e-25)
(-1.14551257270044e-06 -4.64646846334845e-06 -5.28714479539254e-25)
(-7.36848177879185e-07 -4.61451895808923e-06 -1.4349890455774e-26)
(-4.81806181366826e-07 -4.59140949747021e-06 -1.9581165394142e-26)
(-3.20772068851524e-07 -4.57608614037097e-06 -2.12382939281342e-25)
(-2.17890217137931e-07 -4.56663079945111e-06 5.79840029327165e-24)
(-1.50540889357185e-07 -4.56115268075095e-06 2.72002010687643e-24)
(-1.04731648406598e-07 -4.55808579205978e-06 7.53395556293653e-24)
(-7.2456442106456e-08 -4.55641434166946e-06 6.44171184339772e-24)
(-4.88700731925446e-08 -4.55550877353742e-06 2.10980380606066e-24)
(-3.10828610053076e-08 -4.55500333615203e-06 6.26653591913463e-24)
(-1.73358091335221e-08 -4.5547182930956e-06 1.65755361012706e-24)
(-6.50873453502558e-09 -4.55454975154088e-06 7.18755336073382e-24)
(2.13704610980351e-09 -4.55444777013257e-06 6.70961925554791e-24)
(9.11846603551335e-09 -4.55439289352892e-06 1.53280818391254e-24)
(1.48105070609475e-08 -4.55435675474726e-06 5.68499733352546e-24)
(1.94956911423038e-08 -4.55434250708494e-06 6.24074491056305e-25)
(2.34008248158334e-08 -4.55434022629701e-06 -1.00336652289737e-25)
(2.6712559338504e-08 -4.5543487273828e-06 6.20390190561972e-24)
(2.95873786698339e-08 -4.55435966320358e-06 7.43366978781346e-25)
(3.21619383644448e-08 -4.55437873889968e-06 7.71610315465329e-26)
(3.45724250159204e-08 -4.5543989214264e-06 5.82596308241206e-24)
(3.69447714201146e-08 -4.55443085167666e-06 2.06822918067289e-25)
(3.9402391638027e-08 -4.55446507069049e-06 1.36426277110714e-24)
(4.20852085424441e-08 -4.55450786562947e-06 5.97583354881468e-24)
(4.51396490177715e-08 -4.55455332967402e-06 -2.07623903371226e-25)
(4.87432976376597e-08 -4.55460892237032e-06 4.48889603771875e-25)
(5.31096813420233e-08 -4.55468563373798e-06 -8.76724028679289e-25)
(5.85022002799399e-08 -4.55478365450434e-06 9.43499780909894e-25)
(6.52791250431682e-08 -4.55491688690621e-06 1.02065913987103e-24)
(7.39436834473326e-08 -4.55512064050316e-06 -1.62245797731357e-25)
(8.52299251871137e-08 -4.55544267779189e-06 5.3513961835336e-24)
(1.0025581008406e-07 -4.55598203857689e-06 -4.96859502371902e-24)
(1.20788862901257e-07 -4.55693544567009e-06 -6.63559957433539e-25)
(1.49704123630135e-07 -4.55866350022509e-06 -1.70687872712734e-26)
(1.91872943029052e-07 -4.56177682610192e-06 -3.42004939727144e-24)
(2.55297815799801e-07 -4.56727747703087e-06 -8.00813511181381e-24)
(3.54023619073095e-07 -4.57668371150236e-06 -7.89670264405285e-24)
(5.10558326238845e-07 -4.59185373175783e-06 -4.10695346830069e-24)
(7.61123035069445e-07 -4.61476693594859e-06 -6.54332534283025e-24)
(1.16583944699896e-06 -4.64672513082445e-06 -8.11185816078249e-24)
(1.7731138955259e-06 -4.68071975025277e-06 -4.51583618278403e-24)
(2.65619870943889e-06 -4.69617278564546e-06 -7.21149910773149e-24)
(3.46811753350897e-06 -4.60091279776539e-06 -7.96854122297708e-24)
(3.68885871275527e-06 -4.30498151858078e-06 -3.86345883166898e-24)
(1.53670588294633e-06 -3.24170891983705e-06 -4.79576254255827e-24)
(-1.71692655657929e-06 -4.25822509796682e-06 4.4820937761914e-25)
(-5.94605779875338e-06 -6.60530038395511e-06 1.77718055215281e-25)
(-5.90039944924469e-06 -7.9753915029159e-06 8.80811659188563e-25)
(-4.74488590773406e-06 -8.36347806206972e-06 6.26159628414976e-25)
(-3.30343548093116e-06 -8.24746838231041e-06 -5.432608467999e-25)
(-2.25106483203972e-06 -8.01850921096875e-06 -2.67822136804964e-24)
(-1.51821524616345e-06 -7.82614926759868e-06 -3.38805405494965e-25)
(-1.04324715692998e-06 -7.69273758445144e-06 -3.81393684827253e-25)
(-7.32158811790379e-07 -7.6079320352769e-06 -2.69979514012257e-24)
(-5.24344497413447e-07 -7.55593200753391e-06 8.0421683221998e-25)
(-3.81268291909373e-07 -7.52472429750037e-06 5.65029691156135e-24)
(-2.78692204786124e-07 -7.50598174524978e-06 5.49935420124219e-24)
(-2.02513648505368e-07 -7.49453072805052e-06 2.02899037114227e-24)
(-1.44063673213645e-07 -7.48730413968027e-06 3.73326153805172e-24)
(-9.80154689448644e-08 -7.48253921422406e-06 1.52695742231352e-24)
(-6.09985298047909e-08 -7.47925059850476e-06 1.82346792606562e-24)
(-3.07639208285681e-08 -7.47686849886358e-06 4.47663331373695e-24)
(-5.77039811917295e-09 -7.47510128220141e-06 2.47842950663971e-24)
(1.5109536650653e-08 -7.47375388561173e-06 1.3563222600727e-24)
(3.27169865207999e-08 -7.47271532674717e-06 7.13233782302699e-25)
(4.77093809309144e-08 -7.4719132007362e-06 3.29560203931951e-26)
(6.06332176803634e-08 -7.47130431721304e-06 -2.47608365220983e-24)
(7.19470189350114e-08 -7.47085373785327e-06 3.02011221592837e-24)
(8.20447518947416e-08 -7.47053825239548e-06 6.51760531272163e-25)
(9.12793667069322e-08 -7.47035281736771e-06 -1.75578468607096e-24)
(9.99962011631637e-08 -7.47028385685476e-06 2.68120257203973e-24)
(1.08529918619885e-07 -7.4703351571232e-06 -1.30112771196071e-24)
(1.17211633754137e-07 -7.47050708278427e-06 3.45546428835633e-24)
(1.26399096638577e-07 -7.47081176411984e-06 2.9640913258715e-24)
(1.36475473092399e-07 -7.47126928655613e-06 -2.10849399298544e-24)
(1.47876952962396e-07 -7.4719079990488e-06 1.96864683812094e-24)
(1.61135385576693e-07 -7.47278338543494e-06 -2.76303369291027e-24)
(1.76888075732052e-07 -7.47395090716238e-06 3.41678453383336e-24)
(1.95949793590368e-07 -7.47552157205154e-06 3.3960753931847e-24)
(2.19431296105198e-07 -7.47770010829115e-06 -2.23120097968129e-24)
(2.48879865471356e-07 -7.48080627829083e-06 1.83365590118216e-24)
(2.86537193063849e-07 -7.48539190629133e-06 -2.9908001990727e-24)
(3.35789972871463e-07 -7.4924512104649e-06 -5.51420490225387e-25)
(4.01978932048393e-07 -7.50376780213715e-06 8.6298955319929e-25)
(4.93827959647801e-07 -7.52240023380565e-06 -7.74600404026184e-24)
(6.25440930592012e-07 -7.55348545806751e-06 -6.91544537574642e-24)
(8.21214858867891e-07 -7.60528999791141e-06 -6.69564111642579e-24)
(1.1195479208314e-06 -7.68984868410982e-06 -9.19286427204186e-24)
(1.58178554861175e-06 -7.8233351195075e-06 -6.89662832340557e-24)
(2.30291601770519e-06 -8.01736195146681e-06 -7.14944277337704e-24)
(3.35062762918374e-06 -8.25233728206491e-06 -9.94906888598287e-24)
(4.8043472723351e-06 -8.37913192423747e-06 -7.06330686371868e-24)
(6.00115660966165e-06 -7.98894586151799e-06 -6.89527488439124e-24)
(6.05880869697866e-06 -6.57867576274674e-06 -8.58820388375816e-24)
(1.7530427388008e-06 -4.21111666199465e-06 -4.00952338265146e-24)
(-6.19028324012182e-07 7.80405708610898e-08 -1.16711954769464e-25)
(-5.06169235748062e-06 -2.14653965014119e-06 -5.72494161378011e-24)
(-5.33780204789828e-06 -4.54865006066904e-06 2.98931030959338e-25)
(-4.5872033074989e-06 -5.24464995176875e-06 9.49488067285901e-26)
(-3.39170912669131e-06 -5.05516529141549e-06 -5.08167821773573e-24)
(-2.45751143845217e-06 -4.64721199177857e-06 -6.27052246604326e-24)
(-1.76364138083758e-06 -4.30492095038811e-06 -6.73358222870753e-25)
(-1.28647769528389e-06 -4.06824806847803e-06 -7.19620743368642e-25)
(-9.55143568394223e-07 -3.91799460041315e-06 -6.58091309007381e-24)
(-7.20216160978771e-07 -3.82498136443949e-06 -4.90200053774753e-24)
(-5.49084738871106e-07 -3.76766118635642e-06 8.22452550455507e-24)
(-4.20061797152838e-07 -3.73174293852027e-06 3.21614555900724e-24)
(-3.2004611792186e-07 -3.70858135135229e-06 -3.20991177614877e-24)
(-2.40575021426771e-07 -3.69307628912853e-06 5.51205829405359e-24)
(-1.76147338776793e-07 -3.68226155358512e-06 -5.35305885590088e-24)
(-1.23083991325895e-07 -3.67440781395248e-06 8.70079420393902e-25)
(-7.88187703473366e-08 -3.66851509541176e-06 1.67379298884438e-24)
(-4.14966067024114e-08 -3.66398693617086e-06 -2.82927641395746e-24)
(-9.7209604919624e-09 -3.66044360494086e-06 1.95991849957775e-25)
(1.75874575456798e-08 -3.65765730630439e-06 -4.81360654445088e-24)
(4.1299326920145e-08 -3.65546333101706e-06 -9.55167830452885e-25)
(6.21388539481011e-08 -3.65375650454788e-06 -6.31326235372723e-24)
(8.0729947724131e-08 -3.65246601867717e-06 5.29110236835933e-25)
(9.7620172678599e-08 -3.65154183616134e-06 8.29237640337085e-26)
(1.1331084356466e-07 -3.65095863722244e-06 -5.53032302491945e-24)
(1.2828619534063e-07 -3.65069836387836e-06 -2.64134870483637e-26)
(1.43015771149162e-07 -3.65075519869449e-06 -4.38115830122956e-24)
(1.57969512453249e-07 -3.65114761394246e-06 6.29319500158634e-24)
(1.73648303125012e-07 -3.65189900500004e-06 8.83612494448256e-25)
(1.90591744288659e-07 -3.65305799961506e-06 -5.10401614779006e-24)
(2.09407677394739e-07 -3.65468963123607e-06 4.88121215358973e-24)
(2.30812033351236e-07 -3.65690113128064e-06 -5.4687218859089e-24)
(2.55660053934454e-07 -3.65983383872848e-06 6.66446697957285e-24)
(2.85008569830471e-07 -3.66373680640053e-06 6.41633952281406e-24)
(3.20238360657138e-07 -3.66899922949164e-06 -5.61456815708127e-24)
(3.63211091535906e-07 -3.67622570029183e-06 -3.05990925863815e-25)
(4.16504927564232e-07 -3.68642979276422e-06 -9.7723122312613e-25)
(4.8379805402197e-07 -3.70133855295336e-06 1.05900686557092e-25)
(5.70591098868332e-07 -3.72393868772305e-06 3.71028208733243e-24)
(6.85419477567737e-07 -3.75937928038671e-06 -1.01276152733436e-23)
(8.4138035550651e-07 -3.81631355405964e-06 -4.41670057174885e-24)
(1.06037713860842e-06 -3.90905924930969e-06 -4.25787558281415e-24)
(1.37493375911578e-06 -4.05930841134612e-06 -1.13400917608234e-23)
(1.83540083888039e-06 -4.29697657236166e-06 -4.55662845440371e-24)
(2.51360878520819e-06 -4.64344409455414e-06 -4.82006016806507e-24)
(3.43935298965536e-06 -5.06348803198185e-06 -1.17384798732099e-23)
(4.64388721633013e-06 -5.27385704205447e-06 -4.52974436241491e-24)
(5.43623858964513e-06 -4.57673729508858e-06 -4.44890945415576e-24)
(5.19131823741928e-06 -2.1077558577203e-06 -1.10181741688522e-23)
(6.74381607212495e-07 1.72560410019023e-07 -2.3847121468094e-24)
(8.07337834272155e-08 3.98234033654676e-06 4.43253111108586e-26)
(-2.97776000515103e-06 2.45940446921339e-06 -4.17892423400017e-24)
(-3.51107659962284e-06 -8.87071654877282e-07 4.81109065618295e-25)
(-3.38342137129744e-06 -2.01163869044349e-06 2.47895036086264e-25)
(-2.75773056534915e-06 -1.93095659179998e-06 -2.17359284616153e-24)
(-2.1851350309735e-06 -1.48936572714455e-06 -2.75885058200138e-24)
(-1.69787129740652e-06 -1.08914656961044e-06 -1.50907719654261e-25)
(-1.32522092346646e-06 -8.00628922469091e-07 -1.53957288665437e-25)
(-1.04165850952031e-06 -6.11274376042628e-07 -2.95717450393467e-24)
(-8.24023786861195e-07 -4.89777090821514e-07 -4.79052401087128e-24)
(-6.55055411886254e-07 -4.11699383761108e-07 4.25525548399386e-24)
(-5.21194738817247e-07 -3.6050190322382e-07 9.6028574729095e-26)
(-4.1350129593038e-07 -3.25945138193507e-07 -3.11825686019298e-24)
(-3.25518752937828e-07 -3.01815352544082e-07 2.26446865428715e-24)
(-2.52662175079948e-07 -2.84367341250586e-07 -4.00665407591627e-24)
(-1.91636540837106e-07 -2.71348161869374e-07 6.04270738961788e-25)
(-1.39984693269953e-07 -2.61375291689627e-07 -5.44927604171851e-25)
(-9.58443325727161e-08 -2.53582677712298e-07 -2.11005500848164e-24)
(-5.77720416182365e-08 -2.47424815951103e-07 3.61543527726629e-25)
(-2.46156831110037e-08 -2.42522475130923e-07 -3.81609862397672e-24)
(4.57534027511249e-09 -2.38640853520672e-07 -2.991027841883e-25)
(3.05994613122919e-08 -2.3559743958095e-07 -2.63579047423431e-24)
(5.41541243779714e-08 -2.33292220965674e-07 -1.39282544521891e-24)
(7.58615321140942e-08 -2.31625940524027e-07 3.0265717477245e-25)
(9.62926401999537e-08 -2.30567979814103e-07 -1.98583033153175e-24)
(1.16000569674407e-07 -2.30078554066237e-07 -1.36425988439685e-24)
(1.35520707243548e-07 -2.30172267970194e-07 -1.73266890401384e-24)
(1.55393705003686e-07 -2.30862551289355e-07 2.67993527167001e-24)
(1.76192185015041e-07 -2.32193102143855e-07 -1.31848033683625e-24)
(1.98531187327745e-07 -2.34236261027827e-07 -2.48886706018211e-24)
(2.23094158589284e-07 -2.37106044002e-07 1.6781382422031e-24)
(2.50675398368701e-07 -2.40969890868513e-07 -2.86575088422981e-24)
(2.82207574690756e-07 -2.46058937534477e-07 3.03603363139851e-24)
(3.18826418046717e-07 -2.52760407821526e-07 3.03578362712596e-24)
(3.61973352578904e-07 -2.61635339236877e-07 -2.62669905084674e-24)
(4.13500717802017e-07 -2.73543983407062e-07 -1.5861786909583e-24)
(4.75859706447546e-07 -2.89887969487662e-07 1.80200392338095e-24)
(5.52347491325496e-07 -3.12932768801406e-07 1.98393617151278e-25)
(6.47526812810732e-07 -3.46430321839912e-07 1.53592257755296e-24)
(7.67885847143195e-07 -3.96643656644168e-07 -4.45108476221693e-24)
(9.22327858986959e-07 -4.73871987690613e-07 -4.00961388742459e-25)
(1.12463175781023e-06 -5.94753686022093e-07 -1.71534766996557e-25)
(1.39195037532482e-06 -7.84068518368262e-07 -5.10084304610581e-24)
(1.74830863649165e-06 -1.07424323260528e-06 -8.55370224913992e-26)
(2.21976976075573e-06 -1.48106407282873e-06 -7.59474674902255e-25)
(2.78202873064764e-06 -1.94095954233945e-06 -5.91084724051003e-24)
(3.41144450093497e-06 -2.05367416254489e-06 -3.51278319516331e-25)
(3.57129793329707e-06 -9.34911969355228e-07 -8.87524547886441e-25)
(3.08170942619082e-06 2.49731003772004e-06 -5.50650886775285e-24)
(-2.38454663677614e-08 4.09826275955485e-06 7.67629607092318e-25)
(3.27255943442511e-07 6.38575006648951e-06 6.79737313118706e-25)
(-1.04014807960539e-06 5.47272027299828e-06 -9.94670280575376e-26)
(-1.71367546854003e-06 1.52121836135732e-06 1.16477230523744e-24)
(-2.07918667183876e-06 -2.71699534009534e-08 5.58954967773622e-25)
(-1.98634336196329e-06 -1.63361765715133e-07 2.90056928646743e-25)
(-1.77170364538008e-06 2.00511296539833e-07 -3.03152198261357e-25)
(-1.50604478857981e-06 5.85145110616148e-07 4.01311111532016e-25)
(-1.25741401606634e-06 8.83288947080128e-07 4.37771595498752e-25)
(-1.04099719308012e-06 1.08960992235876e-06 -2.43755497437268e-25)
(-8.57988128758066e-07 1.22843993050456e-06 -5.14511930389159e-25)
(-7.06038860442509e-07 1.32180391168202e-06 2.25461786110994e-24)
(-5.79808106742089e-07 1.38564655559096e-06 1.33950665742878e-24)
(-4.74820941501838e-07 1.4303802019969e-06 7.7768943105112e-26)
(-3.86994857072564e-07 1.46261046914862e-06 1.27890275957956e-24)
(-3.12992956267663e-07 1.48649730547847e-06 -3.90044666169854e-25)
(-2.50156472269926e-07 1.50465635109658e-06 1.16717186965814e-24)
(-1.9635881079032e-07 1.51875768767304e-06 1.02026773275978e-24)
(-1.49911008895888e-07 1.52987911683373e-06 6.88174957034287e-25)
(-1.09442241882466e-07 1.53873311431606e-06 1.29902578261978e-24)
(-7.38350993711356e-08 1.54580855526023e-06 -1.26803267468218e-25)
(-4.21497958064379e-08 1.55143297440559e-06 8.0845534124188e-25)
(-1.35871520854958e-08 1.55583887564977e-06 -2.0561123627823e-26)
(1.25633783863125e-08 1.55918395334368e-06 6.05711384816338e-25)
(3.69395861627248e-08 1.56158027246266e-06 8.32917485998292e-25)
(6.01314565456672e-08 1.5630918051012e-06 2.41994368935438e-25)
(8.27055677748004e-08 1.5637526479553e-06 4.47911098065904e-25)
(1.0521095616282e-07 1.56355837553494e-06 3.30770023657963e-26)
(1.28214790068004e-07 1.56249201476231e-06 8.98873900118386e-25)
(1.52300951434961e-07 1.56048615395213e-06 -2.85534834401385e-27)
(1.78099486570611e-07 1.55744145917579e-06 -6.55822686392489e-25)
(2.06306855390178e-07 1.55319070632794e-06 1.55444495966235e-25)
(2.37718086638418e-07 1.54752046000206e-06 -1.34673106690906e-24)
(2.7325608557949e-07 1.5401028274777e-06 6.41010540034882e-25)
(3.14029591279662e-07 1.53044832167952e-06 8.14704024446817e-25)
(3.61396301048451e-07 1.51783352005003e-06 -6.7113550275143e-25)
(4.17026030373508e-07 1.50117170355554e-06 -1.64332382021543e-25)
(4.83030546866311e-07 1.478786526239e-06 2.23141541802554e-25)
(5.62051182479714e-07 1.44806313926756e-06 -1.53439007506824e-25)
(6.57383410927e-07 1.40482526885413e-06 3.77777067059045e-25)
(7.73105070285209e-07 1.34242721639841e-06 -2.20162179360204e-24)
(9.13597940463131e-07 1.25039642402598e-06 -5.88538311586876e-25)
(1.08433876272695e-06 1.1126600881109e-06 -3.9660263929732e-25)
(1.28744406206767e-06 9.06710778485323e-07 -2.12657611922985e-24)
(1.52230158486369e-06 6.0681247388873e-07 -5.57078220314878e-25)
(1.77365161090071e-06 2.14125239725966e-07 -6.61384833002836e-25)
(1.97700015316515e-06 -1.7276012767351e-07 -2.84940376731303e-24)
(2.06806513390233e-06 -7.79442122374471e-08 -3.26114302667371e-25)
(1.72239136213765e-06 1.45538168685429e-06 -3.86637998627763e-25)
(1.09259759801092e-06 5.50400010844221e-06 -3.04725583841417e-24)
(-2.88238343224855e-07 6.5072052293051e-06 1.83246732665205e-25)
(3.40317094933135e-07 7.26946448965488e-06 9.99891142422521e-25)
(2.18845101089732e-07 6.7163699948451e-06 2.15373802955773e-24)
(-4.86785133205843e-07 2.58548835558374e-06 1.46503943726205e-24)
(-1.10423346927715e-06 7.52657468081606e-07 6.37453940119909e-25)
(-1.3563519074169e-06 4.13106504343524e-07 6.45666173386794e-25)
(-1.38998174605456e-06 6.66938850915608e-07 8.30379462433516e-25)
(-1.29281286347041e-06 1.00547528443241e-06 6.2501352438358e-25)
(-1.14695855382705e-06 1.29131016113201e-06 6.82279728036363e-25)
(-9.92468756788568e-07 1.5007722828706e-06 1.05572336551392e-24)
(-8.46093500707464e-07 1.64848656080644e-06 1.2841273097692e-24)
(-7.15921042719018e-07 1.75207867399165e-06 1.24190545598242e-24)
(-6.02745521149298e-07 1.82555259501323e-06 1.67017811072636e-24)
(-5.05679360033344e-07 1.87866717844586e-06 1.54786368177277e-24)
(-4.22701452309036e-07 1.9179187575686e-06 9.53796718105354e-25)
(-3.5166204206615e-07 1.94759116473937e-06 1.36280426259063e-24)
(-2.90599945533089e-07 1.97048605064638e-06 1.4314559314698e-24)
(-2.37793212314014e-07 1.98845271367964e-06 1.8341409615408e-24)
(-1.91789308006515e-07 2.00272655930065e-06 2.1021923949247e-24)
(-1.5136888405829e-07 2.01414849786941e-06 1.74494668712567e-24)
(-1.15504798627275e-07 2.0232973273745e-06 1.7194458791957e-24)
(-8.33156844220866e-08 2.03057794250093e-06 1.31692722079005e-24)
(-5.40387417163307e-08 2.03627001110981e-06 1.15210453757451e-24)
(-2.6992468263617e-08 2.04058399444125e-06 1.39239582037575e-24)
(-1.55628961663377e-09 2.04363995118957e-06 1.07897933001978e-24)
(2.28454358689853e-08 2.04553637246631e-06 1.29056260265332e-24)
(4.67655558502015e-08 2.04630230572259e-06 1.44168066003754e-24)
(7.07479886702399e-08 2.04594887670529e-06 8.40516662671972e-25)
(9.53411404606739e-08 2.04443600280189e-06 1.86678513700826e-25)
(1.21114741190478e-07 2.04168772812657e-06 6.54671939545863e-25)
(1.48678357929067e-07 2.03758166674914e-06 3.18261763654993e-25)
(1.78705787255315e-07 2.03190649369435e-06 -3.20074756330907e-25)
(2.11952009561244e-07 2.02439882050001e-06 -4.75640127035779e-25)
(2.49276391044701e-07 2.01465229391809e-06 -4.82577973377332e-25)
(2.91699616665498e-07 2.00209189598862e-06 -3.03890640677481e-25)
(3.4042344482347e-07 1.98586728651545e-06 2.7139745873518e-25)
(3.96868790638146e-07 1.9647329204862e-06 4.93460516322754e-25)
(4.62734740068562e-07 1.93684102899076e-06 -3.25685431126086e-25)
(5.39954057876593e-07 1.89939479277481e-06 -4.01811871678098e-25)
(6.30614305774164e-07 1.84810157849311e-06 -1.85597922198488e-25)
(7.36699661449145e-07 1.7764244510765e-06 -9.06878507663143e-26)
(8.5895503613487e-07 1.67455794124345e-06 -7.11436915546131e-25)
(9.96622232449156e-07 1.52837284219153e-06 -5.77853364492436e-25)
(1.14122381230227e-06 1.31975063875021e-06 -7.47000107719396e-26)
(1.27626652907718e-06 1.03254005259896e-06 -5.4490061859286e-25)
(1.36105861785543e-06 6.85635939532065e-07 -5.76646758088317e-25)
(1.31592886673727e-06 4.0628203623602e-07 -3.07292621141494e-25)
(1.05780930258899e-06 6.98328602125444e-07 -6.00637842117225e-25)
(4.49823069270214e-07 2.50785780577352e-06 -5.05937862778669e-25)
(-2.20771005294612e-07 6.73917414843632e-06 -1.45478807845052e-25)
(-3.2608713520773e-07 7.38764418808614e-06 -4.80368240703164e-26)
(2.96315134831718e-07 7.07454109021681e-06 9.3773203066344e-25)
(7.99338755800112e-07 6.70906754432488e-06 2.96905342906319e-24)
(1.38648260016182e-07 2.71514254124505e-06 1.30336599206772e-24)
(-5.26020379670792e-07 7.4677437695724e-07 4.99597710525874e-25)
(-9.32392745607497e-07 2.60238060753571e-07 4.87149400175677e-25)
(-1.0959340086392e-06 4.10907590517225e-07 9.178448688587e-25)
(-1.10277641421448e-06 6.96921092433568e-07 5.33519023067568e-25)
(-1.02860712326465e-06 9.61406955838733e-07 5.92880466681639e-25)
(-9.22693775206927e-07 1.16644704823759e-06 1.20204520014234e-24)
(-8.08450208624207e-07 1.3174608751828e-06 1.72210022647739e-24)
(-6.99589584264629e-07 1.42739839608714e-06 7.4185076087651e-25)
(-6.006779854402e-07 1.50787677889591e-06 1.77374499318846e-24)
(-5.13291596001695e-07 1.56762073577635e-06 2.03850397693926e-24)
(-4.36998839478845e-07 1.61273492565444e-06 7.62452151846557e-25)
(-3.70657941001758e-07 1.64740786329664e-06 1.83424791310818e-24)
(-3.1294284738065e-07 1.67449805158669e-06 1.25985848721129e-24)
(-2.62540376086657e-07 1.6959556823903e-06 1.91320917319518e-24)
(-2.18265703888438e-07 1.71311093658171e-06 2.31446806105669e-24)
(-1.79068642257433e-07 1.72689684395366e-06 1.56138880925228e-24)
(-1.44039080849015e-07 1.73795395216109e-06 2.19924206620178e-24)
(-1.12377850297745e-07 1.74675660460468e-06 1.20436490051639e-24)
(-8.33767396535746e-08 1.75362706976769e-06 1.25359761221739e-24)
(-5.6400178970563e-08 1.7588049850752e-06 1.70910127419449e-24)
(-3.08599047384456e-08 1.76244642049409e-06 9.47580618892749e-25)
(-6.20491957975785e-09 1.76465108253471e-06 1.32166437329521e-24)
(1.80883222905539e-08 1.76546980994482e-06 1.76069198553175e-24)
(4.25349654528066e-08 1.764903742925e-06 8.89655297619984e-25)
(6.76622802943501e-08 1.76291175219006e-06 2.66216819567056e-26)
(9.40162956811182e-08 1.75939939362945e-06 1.04024038189415e-24)
(1.22165287896238e-07 1.75421479065729e-06 5.66101429291203e-25)
(1.52739789739166e-07 1.74713225444997e-06 -3.234543881733e-25)
(1.8643541092342e-07 1.73782696667887e-06 -1.23474037807192e-25)
(2.24031291686514e-07 1.72584586347296e-06 -6.63733381002566e-25)
(2.66433163051541e-07 1.71053658448657e-06 -5.28590508167255e-25)
(3.14660408732582e-07 1.69095806664064e-06 5.0031349443599e-25)
(3.69865554925139e-07 1.66578461635729e-06 8.80897819853733e-25)
(4.33334062544889e-07 1.63306357876506e-06 -6.85040558645253e-25)
(5.06349478983996e-07 1.58995340078479e-06 -4.18986276608648e-25)
(5.89980767762079e-07 1.53226047648473e-06 -2.7101991797786e-25)
(6.84604342115044e-07 1.45384046749492e-06 5.73562982571382e-25)
(7.88467166380002e-07 1.34595560949639e-06 -9.63486807050812e-25)
(8.96958228371865e-07 1.19687797524188e-06 -8.93054079012753e-25)
(9.95864061915809e-07 9.93226917022319e-07 4.75438735781802e-25)
(1.0617935042555e-06 7.28054742067633e-07 -7.74592159582078e-25)
(1.04450105976333e-06 4.34071904762616e-07 -7.91889348791942e-25)
(8.70088537402565e-07 2.56808855462409e-07 4.68049220866314e-25)
(4.55645570944703e-07 6.91861121327241e-07 -9.36777086819975e-25)
(-2.05536881025903e-07 2.63017670309191e-06 -7.80231122849363e-25)
(-8.41548894318569e-07 6.72080198535846e-06 1.03376748562765e-24)
(-3.01948334383511e-07 7.18260293953919e-06 -3.22940577040158e-25)
(2.6292866532264e-07 6.38313551759012e-06 6.41014320604331e-25)
(9.21351343823368e-07 6.15499091395009e-06 2.14039231446901e-24)
(3.49917650448477e-07 2.4490220276553e-06 8.8112348042197e-25)
(-2.44295141323858e-07 4.47127943303883e-07 3.00220534875991e-25)
(-6.75561175004308e-07 -1.32476538007806e-07 7.07461680867834e-26)
(-8.84781019596659e-07 -6.64781006427571e-08 7.20502970003587e-25)
(-9.45633804288735e-07 1.69703740719377e-07 3.61387452199054e-25)
(-9.1681391779261e-07 4.09341528267848e-07 4.0649438415137e-25)
(-8.46360340314401e-07 6.05280806702936e-07 9.56744483016312e-25)
(-7.58263475587544e-07 7.55428545053922e-07 1.15470007349584e-24)
(-6.68271932239677e-07 8.68471891656555e-07 2.95576712019165e-25)
(-5.82882296538816e-07 9.53606529041995e-07 1.01002834806117e-24)
(-5.05197747505014e-07 1.01831464565909e-06 1.3563092958128e-24)
(-4.35932584535634e-07 1.06812978498886e-06 3.90880061411075e-25)
(-3.74740580943966e-07 1.1070022924786e-06 1.24260518344015e-24)
(-3.20846091527959e-07 1.13773274137385e-06 8.21585943167514e-25)
(-2.73318560224021e-07 1.16227856216805e-06 1.22957071917808e-24)
(-2.31227023982944e-07 1.18201614269836e-06 1.62149063318664e-24)
(-1.93704882667978e-07 1.19793694364039e-06 1.0382731049147e-24)
(-1.59960615154611e-07 1.21073838975527e-06 1.48147739909313e-24)
(-1.29278477521608e-07 1.22092698289078e-06 8.14521510192863e-25)
(-1.01019390523956e-07 1.22886883490353e-06 9.46543277906527e-25)
(-7.45918743416173e-08 1.23482508200245e-06 9.91449066251627e-25)
(-4.94511594341095e-08 1.23897768667887e-06 6.20316179267376e-25)
(-2.50798329464277e-08 1.2414415503851e-06 9.92068331892662e-25)
(-9.83331563898721e-10 1.24226337103702e-06 1.07479740564075e-24)
(2.33272966810436e-08 1.24145217526487e-06 6.62556040349461e-25)
(4.83461026943514e-08 1.23896865167037e-06 -1.12920474798719e-25)
(7.45807401228552e-08 1.23469630968014e-06 5.83522348198866e-25)
(1.02568927344409e-07 1.22846147140982e-06 4.92149279069092e-25)
(1.32889147291641e-07 1.22001851170852e-06 -2.85746940926907e-25)
(1.66170133311072e-07 1.20900736226437e-06 5.32672584251973e-26)
(2.03103925259483e-07 1.19493283539076e-06 -5.69133386833861e-25)
(2.44465600104196e-07 1.17708696888325e-06 -4.92515767698463e-25)
(2.91104210250955e-07 1.15448701612551e-06 4.62273381564765e-25)
(3.439100713033e-07 1.1257563438717e-06 5.20164172146794e-25)
(4.03780227554724e-07 1.08893577842997e-06 -3.56136994850712e-25)
(4.7144769317816e-07 1.04124822527819e-06 -2.86941306233223e-25)
(5.47171151014648e-07 9.78747688895897e-07 -2.30296706703996e-25)
(6.30179453679019e-07 8.95891281708353e-07 9.89278214279691e-25)
(7.17174672016353e-07 7.85174841698123e-07 -3.97020464842608e-25)
(8.01573114188473e-07 6.37365153079177e-07 -3.86016315982854e-25)
(8.67095808926288e-07 4.43399720839785e-07 8.58886645236031e-25)
(8.89667118034894e-07 2.03883282590565e-07 -3.33673149935661e-25)
(8.20177004574263e-07 -3.95899132626345e-08 -3.27779106929019e-25)
(6.01465661361909e-07 -1.32631982738431e-07 9.36203964889192e-25)
(1.6215030856887e-07 3.92444871738107e-07 -4.139737356413e-25)
(-4.30343952741666e-07 2.35840226986489e-06 -2.88785014201085e-25)
(-9.84511353583441e-07 6.15207200346293e-06 1.65293020695434e-24)
(-2.79289398501695e-07 6.47449895952025e-06 -4.77397762834348e-26)
(2.39690270620485e-07 5.61916862422338e-06 4.02410556504222e-25)
(8.1425689836669e-07 5.53987404570568e-06 1.73557944770394e-24)
(3.48854068294745e-07 2.13997343459232e-06 5.46981185941098e-25)
(-1.32846513538169e-07 1.53907114376173e-07 2.14272981052093e-25)
(-5.24187335600833e-07 -4.82463753583722e-07 4.4584041311104e-25)
(-7.3301042035264e-07 -4.83386731098054e-07 8.42185387772354e-25)
(-8.16802910893979e-07 -2.92005480407981e-07 2.50024849502166e-25)
(-8.15238177578902e-07 -7.8260723581728e-08 2.72827769456157e-25)
(-7.70077880671871e-07 1.05548823166627e-07 8.44686099649223e-25)
(-7.02761453606852e-07 2.51674401242017e-07 8.64496576894059e-25)
(-6.28896649397138e-07 3.65170478700971e-07 -2.07841086784136e-25)
(-5.55704487947853e-07 4.52922042197432e-07 4.8111722898317e-25)
(-4.87129393141207e-07 5.21103170158631e-07 1.04154724397471e-24)
(-4.24664237017078e-07 5.74546214352542e-07 -1.16051351903378e-25)
(-3.68583100568538e-07 6.16859657112513e-07 8.95327602088745e-25)
(-3.18570488161628e-07 6.5068311794662e-07 4.70445880851217e-25)
(-2.74032251685701e-07 6.77922362949204e-07 6.61538542467744e-25)
(-2.34272296359238e-07 6.9996087699874e-07 1.23315334104404e-24)
(-1.98585603634857e-07 7.17799594305908e-07 6.34850685137744e-25)
(-1.66310242631664e-07 7.32178518945007e-07 1.16897610370343e-24)
(-1.36819170360268e-07 7.43631967359218e-07 5.15009850174754e-25)
(-1.09532982552559e-07 7.52546678661223e-07 8.72930526745761e-25)
(-8.39143780498818e-08 7.59211647368692e-07 5.24109838945188e-25)
(-5.94546123676495e-08 7.63818348429031e-07 3.70429042246324e-25)
(-3.56765821266336e-08 7.66495006678301e-07 8.25637913332675e-25)
(-1.21176198889248e-08 7.67298163051541e-07 6.09257661050627e-25)
(1.1686797649784e-08 7.6623857358393e-07 6.21357756359233e-25)
(3.61950804869402e-08 7.63258964837117e-07 -4.32658679291762e-25)
(6.18799427912379e-08 7.58246633221079e-07 2.61617550370224e-25)
(8.92391323209781e-08 7.5101596024794e-07 5.25596819520448e-25)
(1.18801048819271e-07 7.41286864325336e-07 -4.7840763271975e-25)
(1.5112675180055e-07 7.28681231297478e-07 3.16110668868534e-25)
(1.86818352596095e-07 7.12672152798524e-07 -6.42145952594396e-25)
(2.265344645239e-07 6.92531511318002e-07 -6.48016968308401e-25)
(2.70950114151173e-07 6.67259857490035e-07 5.96502039770964e-25)
(3.20716916603001e-07 6.35467482508465e-07 2.89526928695515e-25)
(3.76399105212138e-07 5.95264059104105e-07 -1.58058439616589e-25)
(4.38265946756721e-07 5.44031396748478e-07 -1.82394448843172e-25)
(5.05964820445789e-07 4.78182565352834e-07 -4.55819872455826e-25)
(5.77930354137071e-07 3.92889683209561e-07 8.03983878440041e-25)
(6.50030735840069e-07 2.81977855661729e-07 -9.70821460152953e-26)
(7.14954609169915e-07 1.38577736997529e-07 -9.39451169703374e-26)
(7.56580032246568e-07 -4.26921763187247e-08 8.22074088198823e-25)
(7.53394359676343e-07 -2.55543432184105e-07 -8.19186111451834e-26)