/*--------------------------------*- C++ -*----------------------------------*\
  =========                 |
  \\      /  F ield         | OpenFOAM: The Open Source CFD Toolbox
   \\    /   O peration     | Website:  https://openfoam.org
    \\  /    A nd           | Version:  10
     \\/     M anipulation  |
\*---------------------------------------------------------------------------*/
FoamFile
{
    format      ascii;
    class       volScalarField;
    location    "5.8";
    object      wallHeatFlux;
}
// * * * * * * * * * * * * * * * * * * * * * * * * * * * * * * * * * * * * * //

dimensions      [1 0 -3 0 0 0 0];

internalField   uniform 0;

boundaryField
{
    back
    {
        type            calculated;
        value           uniform 0;
    }
    bottom
    {
        type            calculated;
        value           nonuniform List<scalar> 
50
(
103.838323319189
106.021318205503
109.749807576383
112.249857005539
113.669454422345
114.429424235152
114.822310116454
115.017689791135
115.110513408195
115.152643303415
115.170612758214
115.177959362518
115.180823891606
115.181822862064
115.18215276964
115.182197810684
115.182233365603
115.18220888504
115.182162220962
115.182146352273
115.182131898551
115.182123198713
115.18211654177
115.182119497368
115.182113511398
115.182109417883
115.182114780818
115.182119432752
115.182130535464
115.182143811159
115.182158929401
115.182190232787
115.182200486823
115.182201452951
115.182179962247
115.18206324565
115.181662038807
115.180439101076
115.177310620612
115.169318748024
115.150190586271
115.106590257382
115.011895470614
114.815271754805
114.423897920686
113.668692179786
112.253935048149
109.74338325953
105.979617139689
103.867440108873
)
;
    }
    left
    {
        type            calculated;
        value           uniform 0;
    }
    front
    {
        type            calculated;
        value           uniform 0;
    }
    right
    {
        type            calculated;
        value           uniform 0;
    }
    top
    {
        type            calculated;
        value           uniform 0;
    }
}


// ************************************************************************* //
