/*--------------------------------*- C++ -*----------------------------------*\
  =========                 |
  \\      /  F ield         | OpenFOAM: The Open Source CFD Toolbox
   \\    /   O peration     | Website:  https://openfoam.org
    \\  /    A nd           | Version:  10
     \\/     M anipulation  |
\*---------------------------------------------------------------------------*/
FoamFile
{
    format      ascii;
    class       volScalarField;
    location    "6.8";
    object      alphat;
}
// * * * * * * * * * * * * * * * * * * * * * * * * * * * * * * * * * * * * * //

dimensions      [1 -1 -1 0 0 0 0];

internalField   nonuniform List<scalar> 
2500
(
7.98365747545884e-15
1.56719284330496e-13
6.68962630891028e-13
1.15741744861238e-12
1.5744158450077e-12
1.90496122406162e-12
2.14908581382935e-12
2.31740626305847e-12
2.42598550581145e-12
2.49167180499078e-12
2.52903278802405e-12
2.54906387161593e-12
2.55921378740986e-12
2.56408676400168e-12
2.56630877360804e-12
2.56727314884863e-12
2.56767217543043e-12
2.56782967999627e-12
2.56788887791985e-12
2.56790988618893e-12
2.56791674369452e-12
2.56791862809039e-12
2.56791889014457e-12
2.56791869547034e-12
2.56791844215702e-12
2.56791824192767e-12
2.56791806320974e-12
2.56791772641611e-12
2.56791667809545e-12
2.5679133596356e-12
2.56790352047074e-12
2.56787598715297e-12
2.56780257932047e-12
2.56761520315364e-12
2.56715669380373e-12
2.56608158952109e-12
2.5636693880212e-12
2.55850046083135e-12
2.54794559496215e-12
2.52745723665614e-12
2.4897480148669e-12
2.42411588032622e-12
2.31638458513491e-12
2.15005632754352e-12
1.90912938666205e-12
1.58246726448311e-12
1.16871169373028e-12
6.80549424343415e-13
1.61570211574148e-13
8.3826520551337e-15
7.91926815855526e-13
4.07820587098238e-11
1.77725181632677e-10
3.07753970431353e-10
4.18968236770197e-10
5.07387547145182e-10
5.72933824407195e-10
6.18326279225466e-10
6.47753813593961e-10
6.65653737224666e-10
6.75894513195393e-10
6.81418967804449e-10
6.84236160102754e-10
6.85597567124509e-10
6.86222484820339e-10
6.86495533840114e-10
6.86609285347689e-10
6.86654499487887e-10
6.86671619406971e-10
6.86677748767453e-10
6.86679775657345e-10
6.86680348803242e-10
6.86680442471659e-10
6.86680398245408e-10
6.86680331540614e-10
6.86680277163314e-10
6.86680225755022e-10
6.8668012466097e-10
6.86679812818304e-10
6.866788375974e-10
6.86675971876428e-10
6.86668010845922e-10
6.866469217044e-10
6.8659342191147e-10
6.86463299155844e-10
6.86160024785432e-10
6.85483657196656e-10
6.84042976545421e-10
6.8111858394802e-10
6.75475054481621e-10
6.65146944402438e-10
6.47268942065575e-10
6.18074008606826e-10
5.732132062015e-10
5.08508695617841e-10
4.21101002641409e-10
3.10720843033806e-10
1.8075099619779e-10
4.20170168140254e-11
8.29937037767932e-13
2.81336094158185e-12
7.33902677602243e-10
2.5126930519674e-07
4.34160830264767e-07
5.89562881868462e-07
7.12709943417538e-07
8.03877036427738e-07
8.67033149649225e-07
9.08047824505725e-07
9.33067017237761e-07
9.47433614928048e-07
9.55217055717791e-07
9.59204971653427e-07
9.61141824652294e-07
9.62035557933954e-07
9.6242818384254e-07
9.62592669472964e-07
9.62658433533811e-07
9.62683493930184e-07
9.626925359587e-07
9.62695560883991e-07
9.62696437725212e-07
9.62696598913976e-07
9.62696550046905e-07
9.62696461590858e-07
9.62696386539519e-07
9.62696311655694e-07
9.62696160001635e-07
9.62695696705853e-07
9.62694263003626e-07
9.62690079413762e-07
9.62678517876777e-07
9.6264802557196e-07
9.62570987826758e-07
9.62384360755218e-07
9.6195110857713e-07
9.60988665828917e-07
9.5894666480174e-07
9.54817620787567e-07
9.46878865869665e-07
9.32400374533599e-07
9.07413700068943e-07
8.66706826121494e-07
8.04246921068069e-07
7.14177777788952e-07
5.92348484081477e-07
4.38031421249449e-07
2.55208426200166e-07
7.54070315136039e-10
2.92740215567943e-12
4.98502917098026e-12
1.30956881687783e-09
4.49613587269913e-07
7.73731486166183e-07
1.04726866028595e-06
1.26294535054219e-06
1.42205658000731e-06
1.53204373514011e-06
1.60339617367412e-06
1.64691326932957e-06
1.67191314235313e-06
1.68546998169855e-06
1.69242482927671e-06
1.69580788440459e-06
1.69737170014059e-06
1.69806004438668e-06
1.69834903878448e-06
1.69846485995684e-06
1.69850911752815e-06
1.69852514281212e-06
1.69853053348213e-06
1.69853211397007e-06
1.69853241832948e-06
1.69853234473335e-06
1.69853219786593e-06
1.69853206953088e-06
1.69853193973452e-06
1.69853167660947e-06
1.69853087581363e-06
1.69852840052696e-06
1.69852117574041e-06
1.69850119392425e-06
1.69844844338087e-06
1.69831504451384e-06
1.69799159487511e-06
1.69724012110522e-06
1.69556964499108e-06
1.69202342417115e-06
1.68484937099152e-06
1.67105020874577e-06
1.64587213372579e-06
1.6023937803057e-06
1.53149488942038e-06
1.42254719823464e-06
1.26508176563809e-06
1.0513805455278e-06
7.79455473513944e-07
4.55393931416144e-07
1.33858718480707e-09
5.14631941867042e-12
7.11889079245055e-12
1.87115383233138e-09
6.40610955484895e-07
1.09829745806084e-06
1.48235432520248e-06
1.78389363315467e-06
2.00570190317212e-06
2.15875605440911e-06
2.25796164254683e-06
2.31845684213277e-06
2.35322377430354e-06
2.37209194757515e-06
2.38178221031094e-06
2.38650218949698e-06
2.38868738617053e-06
2.38965092524976e-06
2.3900562487709e-06
2.39021905192353e-06
2.39028142655084e-06
2.39030409123044e-06
2.39031175863198e-06
2.39031403367224e-06
2.39031449200163e-06
2.39031440794928e-06
2.39031421572468e-06
2.3903140413392e-06
2.39031386138883e-06
2.39031349574825e-06
2.39031238894347e-06
2.39030897528613e-06
2.39029901301164e-06
2.390271442163e-06
2.39019858696876e-06
2.39001415557106e-06
2.38956651998405e-06
2.38852556290094e-06
2.3862096822598e-06
2.38128982750434e-06
2.37133072199075e-06
2.35216389643629e-06
2.31717260033243e-06
2.25670948627814e-06
2.15802775772089e-06
2.00619208711043e-06
1.786319945701e-06
1.48710329065591e-06
1.10492928971389e-06
6.47287879817596e-07
1.90479061940208e-09
7.30807262234371e-12
9.14936333029418e-12
2.40515405213669e-09
8.20675612407948e-07
1.40224029775012e-06
1.88782869994531e-06
2.26771022617374e-06
2.54646670920867e-06
2.73853768156871e-06
2.86295005222107e-06
2.93881195241889e-06
2.98242792302046e-06
3.00611645494002e-06
3.01829490325386e-06
3.02423429529109e-06
3.02698803905674e-06
3.02820426990197e-06
3.02871683991923e-06
3.02892315893635e-06
3.02900241087129e-06
3.02903131066539e-06
3.02904114573083e-06
3.0290441024479e-06
3.02904472643876e-06
3.02904464655779e-06
3.02904442272327e-06
3.02904421022055e-06
3.02904398463783e-06
3.02904352389523e-06
3.02904213901827e-06
3.02903788338309e-06
3.02902547534965e-06
3.0289911277649e-06
3.02890030105274e-06
3.02867017368287e-06
3.02811113010063e-06
3.02681000731788e-06
3.02391313451655e-06
3.01775495862975e-06
3.00528204416761e-06
2.98126511984287e-06
2.93739796539486e-06
2.86155608990721e-06
2.73768458384736e-06
2.5468890772256e-06
2.270164580958e-06
1.89271876770772e-06
1.4090991880576e-06
8.27593113052598e-07
2.44059218539574e-09
9.35337426814677e-12
1.10370173587067e-11
2.90183533493015e-09
9.8707545469658e-07
1.68146385834031e-06
2.25876982011171e-06
2.70902106717242e-06
3.03874725240097e-06
3.2656721092694e-06
3.41258813509101e-06
3.50217442805857e-06
3.55370311980647e-06
3.58170975860572e-06
3.59612228206675e-06
3.60315954789145e-06
3.60642677456067e-06
3.60787203080648e-06
3.60848219323348e-06
3.60872829727923e-06
3.60882307112478e-06
3.60885775426254e-06
3.60886962966917e-06
3.60887324972682e-06
3.60887405089475e-06
3.60887399080439e-06
3.60887374733228e-06
3.60887350466698e-06
3.60887323775728e-06
3.60887268836281e-06
3.60887105088357e-06
3.60886604419509e-06
3.60885147082474e-06
3.60881113583744e-06
3.60870442739772e-06
3.60843386866002e-06
3.60777609997059e-06
3.60624407009482e-06
3.6028308037244e-06
3.59557060963735e-06
3.58085820580022e-06
3.55251657891195e-06
3.50072875502181e-06
3.41115194354702e-06
3.26476045204713e-06
3.03908389115306e-06
2.71134728353239e-06
2.26347665867628e-06
1.68809359875991e-06
9.93794545548059e-07
2.93717642485135e-09
1.12466598372977e-11
1.27562767287814e-11
3.35467668431777e-09
1.13801725283219e-06
1.9334614176429e-06
2.59235258386266e-06
3.10491107052797e-06
3.47964158948538e-06
3.73729980163298e-06
3.9040547064914e-06
4.00574815748834e-06
4.0642665245781e-06
4.0960947522201e-06
4.11248909834571e-06
4.1205029461777e-06
4.12422835177433e-06
4.12587868536613e-06
4.12657658540571e-06
4.12685862622031e-06
4.12696750519911e-06
4.12700748988775e-06
4.12702126430718e-06
4.127025522764e-06
4.12702651040437e-06
4.12702648506766e-06
4.12702623335424e-06
4.12702596802855e-06
4.1270256638208e-06
4.12702503159822e-06
4.12702316496607e-06
4.12701749235378e-06
4.12700101888331e-06
4.12695544854905e-06
4.12683486037923e-06
4.12652893848114e-06
4.12578470955669e-06
4.12405018153288e-06
4.1201834717275e-06
4.11195451115379e-06
4.09527156081993e-06
4.06312166932589e-06
4.00435450202693e-06
3.90266749501096e-06
3.7364050799359e-06
3.47991741334826e-06
3.1070454916368e-06
2.59670153335043e-06
1.93959716169872e-06
1.14427413452055e-06
3.38871408152823e-09
1.296522576851e-11
1.42927695168586e-11
3.75996758906363e-09
1.2725741610078e-06
2.15713739965227e-06
2.88756620091016e-06
3.45455755956762e-06
3.86852272876281e-06
4.15295152260259e-06
4.33698935027997e-06
4.44923937483839e-06
4.51386124477688e-06
4.54903311492099e-06
4.56716556001929e-06
4.57603825086026e-06
4.58016785224535e-06
4.58199973505432e-06
4.58277561707083e-06
4.58308975018964e-06
4.58321130224378e-06
4.58325609273549e-06
4.58327161486684e-06
4.58327647985913e-06
4.58327765961246e-06
4.58327768214601e-06
4.58327743262723e-06
4.58327715141801e-06
4.58327681367774e-06
4.5832761041591e-06
4.58327403023832e-06
4.5832677708843e-06
4.58324964462377e-06
4.58319954263003e-06
4.58306695442721e-06
4.58273044532461e-06
4.58191135457276e-06
4.58000128072798e-06
4.57574102455371e-06
4.56667041288073e-06
4.54827404869818e-06
4.51281063159628e-06
4.44796760154202e-06
4.33573305913932e-06
4.15215441287407e-06
3.86879585905299e-06
3.45651138503535e-06
2.89150496002206e-06
2.16266995931411e-06
1.27824539357803e-06
3.79204217188004e-09
1.44970329482828e-11
1.56414450231746e-11
4.11635983066349e-09
1.39054500448864e-06
2.3525399486128e-06
3.14483679355665e-06
3.75876919591638e-06
4.20651902815239e-06
4.51399028700969e-06
4.71291043141647e-06
4.83426050367859e-06
4.90415220948743e-06
4.94221693044747e-06
4.9618567959153e-06
4.97147641466274e-06
4.97595863933254e-06
4.97794946171155e-06
4.97879388638036e-06
4.97913636101174e-06
4.97926917344205e-06
4.9793182721079e-06
4.97933538485126e-06
4.97934081859894e-06
4.97934219182786e-06
4.97934227278353e-06
4.97934203412322e-06
4.97934174289669e-06
4.97934137520438e-06
4.97934059394268e-06
4.97933833345917e-06
4.97933156078391e-06
4.97931200981471e-06
4.97925802516931e-06
4.97911517372418e-06
4.97875250182451e-06
4.97786932379568e-06
4.97580880884427e-06
4.97121093338193e-06
4.96141761447224e-06
4.94154887930708e-06
4.90323644470302e-06
4.83316703439126e-06
4.7118564118477e-06
4.51337163133352e-06
4.20686944559893e-06
3.76060818410288e-06
3.14840506090513e-06
2.35747843760233e-06
1.3956145737239e-06
4.14624107143836e-09
1.58389290653253e-11
1.68048038474685e-11
4.42442655715201e-09
1.49230827857055e-06
2.52060502076819e-06
3.36568310517243e-06
4.01957725458218e-06
4.49606155003946e-06
4.82313029168152e-06
5.03471645843076e-06
5.16382114356953e-06
5.23821131242908e-06
5.27875069905259e-06
5.29968327406314e-06
5.3099452307674e-06
5.31473165380592e-06
5.31686006984667e-06
5.31776406838572e-06
5.31813129276333e-06
5.31827399855577e-06
5.31832691602509e-06
5.31834545975627e-06
5.31835141956296e-06
5.31835298352737e-06
5.31835313064946e-06
5.31835290922128e-06
5.31835261291294e-06
5.31835221875508e-06
5.31835137153516e-06
5.31834894441521e-06
5.31834172636367e-06
5.31832095915853e-06
5.31826368326709e-06
5.31811215179132e-06
5.31772735715813e-06
5.31678995188373e-06
5.31460202087466e-06
5.30971792598956e-06
5.29931141235337e-06
5.2781925720929e-06
5.23745997962696e-06
5.16294932239741e-06
5.03392404945543e-06
4.82276588497914e-06
4.49657947045083e-06
4.02140118244867e-06
3.3689823476167e-06
2.52504056078186e-06
1.49683653188676e-06
4.45220242443496e-09
1.69948978538395e-11
1.77912625980135e-11
4.68625976677742e-09
1.5786916695648e-06
2.66293916892233e-06
3.55243382421866e-06
4.23990717072347e-06
4.74052530463544e-06
5.08405894402045e-06
5.30629639372078e-06
5.44193151351118e-06
5.52011700162075e-06
5.56274886299913e-06
5.5847772747067e-06
5.5955852957741e-06
5.60063114212977e-06
5.60287731256005e-06
5.60383249873118e-06
5.60422108947042e-06
5.60437238812835e-06
5.60442865162039e-06
5.60444846740404e-06
5.60445490674035e-06
5.60445665567398e-06
5.6044568743528e-06
5.6044566731669e-06
5.60445637575457e-06
5.60445595857671e-06
5.60445505153304e-06
5.6044524770895e-06
5.60444487635478e-06
5.60442308180461e-06
5.60436304739682e-06
5.60420426079891e-06
5.60380098305333e-06
5.60281824815431e-06
5.60052371732125e-06
5.59539995357671e-06
5.58447957761996e-06
5.56231249116455e-06
5.51954961643234e-06
5.44131205183286e-06
5.30581170642919e-06
5.08401479083975e-06
4.7413004898553e-06
4.24183094499652e-06
3.55559961205119e-06
2.66701191877177e-06
1.58278709682413e-06
4.71223386340428e-09
1.79744330478054e-11
1.86136495923679e-11
4.90509964571261e-09
1.65085560632781e-06
2.78163279171157e-06
3.7079904237463e-06
4.42330735232087e-06
4.94393610022538e-06
5.30113003385748e-06
5.53221458285259e-06
5.67328258470709e-06
5.75463172800118e-06
5.79901181699957e-06
5.82195816539614e-06
5.83322492680278e-06
5.83848940789065e-06
5.84083517023517e-06
5.84183382224131e-06
5.84224064200729e-06
5.84239931618234e-06
5.84245847664033e-06
5.84247940926535e-06
5.8424862787265e-06
5.84248820109012e-06
5.84248849223312e-06
5.84248831701988e-06
5.84248802177012e-06
5.84248758500761e-06
5.84248662461845e-06
5.84248392156387e-06
5.84247599568203e-06
5.84245334329284e-06
5.84239102456501e-06
5.84222624859009e-06
5.84180772190121e-06
5.84078757389233e-06
5.83840499277211e-06
5.83308310396981e-06
5.82173763030747e-06
5.79870287229383e-06
5.75425876387575e-06
5.67293421155244e-06
5.5320697724846e-06
5.30145861084953e-06
4.94504900521449e-06
4.42544509752552e-06
3.7111689807761e-06
2.78550389270351e-06
1.6546505154765e-06
4.92969893448596e-09
1.87910593182609e-11
1.92878027073903e-11
5.08498418317588e-09
1.71018576695456e-06
2.87909193964479e-06
3.83561679793894e-06
4.57371088820035e-06
5.11071441250559e-06
5.47909654722915e-06
5.71743691500806e-06
5.86296836456741e-06
5.94692205316924e-06
5.99274484412045e-06
6.01645073380052e-06
6.02809819831559e-06
6.03354471029317e-06
6.035973687583e-06
6.03700880408903e-06
6.03743098899856e-06
6.03759591738123e-06
6.0376575554064e-06
6.03767945622906e-06
6.03768670657096e-06
6.03768878860289e-06
6.03768915112165e-06
6.03768900412115e-06
6.03768871353935e-06
6.03768826057893e-06
6.03768725355433e-06
6.03768443987473e-06
6.03767624120961e-06
6.03765288140901e-06
6.03758869506837e-06
6.03741903862915e-06
6.03698809589533e-06
6.03593747551157e-06
6.03348312811094e-06
6.02799963097461e-06
6.0163071707476e-06
5.99256378563568e-06
5.94674607603653e-06
5.86289877770807e-06
5.71765013894302e-06
5.47983442948932e-06
5.11222974089085e-06
4.57616381614384e-06
3.83894673962196e-06
2.88292135775979e-06
1.71381667309171e-06
5.10868141921029e-09
1.94609768753668e-11
1.9831272336174e-11
5.23041956949476e-09
1.75819340846934e-06
2.95788467804793e-06
3.93874866842148e-06
4.69522056962375e-06
5.24544478028005e-06
5.62287031019917e-06
5.8670845486096e-06
6.01623614437011e-06
6.10230692775286e-06
6.14930532451691e-06
6.17363184089876e-06
6.18559131993976e-06
6.19118751186504e-06
6.19368516279741e-06
6.19475049392563e-06
6.19518547083978e-06
6.19535563723659e-06
6.19541936774585e-06
6.19544209710366e-06
6.19544968089455e-06
6.19545190757063e-06
6.19545233720452e-06
6.19545221884104e-06
6.19545193483533e-06
6.19545146898594e-06
6.19545042211987e-06
6.19544751489666e-06
6.19543909059448e-06
6.19541515523989e-06
6.19534946247463e-06
6.19517588305748e-06
6.19473496873486e-06
6.1936598687501e-06
6.19114782985627e-06
6.18553432163408e-06
6.17356252829895e-06
6.14924837200592e-06
6.10232385210809e-06
6.01644330088892e-06
5.86766069610075e-06
5.6240373178309e-06
5.24740769171584e-06
4.69806895598481e-06
3.94234830352295e-06
2.96181533550688e-06
1.76178656848598e-06
5.25367344816031e-09
2.00018287455458e-11
2.02621666210453e-11
5.34608244049637e-09
1.79642604761819e-06
3.02060472704319e-06
4.02082520081332e-06
4.79191931579849e-06
5.35267253780382e-06
5.73731008214589e-06
5.98621670162078e-06
6.13826613856586e-06
6.22603552771275e-06
6.2739795823947e-06
6.29880674878456e-06
6.31101870411216e-06
6.31673642167058e-06
6.31929003397383e-06
6.32038008754519e-06
6.32082558108252e-06
6.32100007945849e-06
6.32106555484652e-06
6.32108898390575e-06
6.32109685540387e-06
6.32109921024049e-06
6.32109970167988e-06
6.3210996117773e-06
6.32109933577576e-06
6.32109886021249e-06
6.32109778020657e-06
6.32109479540001e-06
6.32108618737513e-06
6.3210617905032e-06
6.32099489991563e-06
6.32081821194236e-06
6.32036940303872e-06
6.31927491718873e-06
6.31671716020285e-06
6.31100054560885e-06
6.29880707286024e-06
6.2740397002919e-06
6.22623597110743e-06
6.13873985574708e-06
5.98714885917426e-06
5.73890989972371e-06
5.35510743678913e-06
4.79521847169186e-06
4.02478523387841e-06
3.02475275787167e-06
1.80008811785127e-06
5.3692965600313e-09
2.04316195035338e-11
2.05981858579881e-11
5.43656771844447e-09
1.826392148852e-06
3.0697573529598e-06
4.08514860249569e-06
4.86771231934102e-06
5.43673459513615e-06
5.82704509212562e-06
6.07964969118264e-06
6.23398782191341e-06
6.32310202747323e-06
6.37179679111886e-06
6.3970225649534e-06
6.40943617664551e-06
6.41525129265213e-06
6.41784992402507e-06
6.41895994860088e-06
6.41941397831074e-06
6.41959201382276e-06
6.4196589255834e-06
6.41968293772869e-06
6.41969105369167e-06
6.41969352020282e-06
6.41969406771713e-06
6.41969400521899e-06
6.41969373818791e-06
6.41969325588096e-06
6.41969214915582e-06
6.41968910140574e-06
6.41968034639381e-06
6.41965558527208e-06
6.4195877567244e-06
6.41940864256037e-06
6.41895367682052e-06
6.41784406716105e-06
6.41525061690909e-06
6.40945343914327e-06
6.39708662737374e-06
6.37196465529355e-06
6.32347271542785e-06
6.23471160762197e-06
6.0809212107542e-06
5.82906714882981e-06
5.43964617569162e-06
4.87149208904232e-06
4.08952963015411e-06
3.07420783449476e-06
1.8302055162855e-06
5.46006748263588e-09
2.07678232058476e-11
2.0855878659795e-11
5.50619176372333e-09
1.84950245944117e-06
3.10767118109081e-06
4.13477608377615e-06
4.92620583814653e-06
5.50162961207949e-06
5.8963396718696e-06
6.15181808820373e-06
6.30793896656277e-06
6.39810339446524e-06
6.4473860680705e-06
6.47292496012347e-06
6.48549750037668e-06
6.49138964972102e-06
6.49402402381209e-06
6.4951499714555e-06
6.49561084022239e-06
6.49579172659591e-06
6.49585980546147e-06
6.49588429713344e-06
6.49589261797368e-06
6.49589518047643e-06
6.49589577789687e-06
6.49589574104582e-06
6.49589548357155e-06
6.49589499723872e-06
6.49589386978482e-06
6.49589077226588e-06
6.49588190200344e-06
6.49585685845975e-06
6.49578830771126e-06
6.49560733080657e-06
6.49514764055841e-06
6.49402641933259e-06
6.49140554022294e-06
6.48554639403263e-06
6.47304613717524e-06
6.4476509823709e-06
6.39862855339114e-06
6.30889196572001e-06
6.15340506134499e-06
5.89876195793311e-06
5.505005656315e-06
4.93047290552489e-06
4.13960996534888e-06
3.11247834580443e-06
1.85352446871154e-06
5.53021674893661e-09
2.10267053585325e-11
2.10501276764447e-11
5.55885382775054e-09
1.86702877182719e-06
3.13643689273532e-06
4.17244529669521e-06
4.97062391337078e-06
5.55092900840244e-06
5.9490005672984e-06
6.20667967438421e-06
6.36416913941459e-06
6.45514201196557e-06
6.50487859399557e-06
6.53066001004467e-06
6.543356070747e-06
6.54930831171551e-06
6.55197067862004e-06
6.55310915126717e-06
6.55357542639625e-06
6.55375858013007e-06
6.5538275948369e-06
6.55385247569345e-06
6.55386096598441e-06
6.55386360987461e-06
6.55386425098842e-06
6.55386423769935e-06
6.55386399010092e-06
6.55386350216674e-06
6.55386235942566e-06
6.55385922376319e-06
6.55385026527554e-06
6.55382500727293e-06
6.55375591116939e-06
6.55357353066593e-06
6.55311028051522e-06
6.55198030181221e-06
6.54933871007414e-06
6.54343271097744e-06
6.53083144743133e-06
6.50522932372122e-06
6.45580468456418e-06
6.36532807196353e-06
6.20855358842123e-06
5.95179300964817e-06
5.55474434911388e-06
4.9753660714746e-06
4.1777393137781e-06
3.14162763215876e-06
1.87129387977393e-06
5.58356214286723e-09
2.12228616298822e-11
2.11938477067065e-11
5.59795211082893e-09
1.88007898861373e-06
3.15787094747815e-06
4.20053090222882e-06
5.00376037510681e-06
5.58772601786562e-06
5.98832406217462e-06
6.24766130446779e-06
6.40618475274974e-06
6.49777022235655e-06
6.54785185108492e-06
6.57381825804055e-06
6.58660888208616e-06
6.59260730736209e-06
6.59529127902167e-06
6.59643946284674e-06
6.59690995162804e-06
6.59709488371916e-06
6.59716463866934e-06
6.59718983122163e-06
6.59719845984348e-06
6.59720117184378e-06
6.59720185078631e-06
6.59720185897059e-06
6.59720162138796e-06
6.59720113396475e-06
6.59719998075533e-06
6.59719681701744e-06
6.59718779302507e-06
6.59716237641403e-06
6.59709287843635e-06
6.596909464563e-06
6.59644359106239e-06
6.59530714758986e-06
6.59265023624438e-06
6.58670951996483e-06
6.57403329115399e-06
6.54827734857542e-06
6.49855345039226e-06
6.40752573055072e-06
6.24979166855417e-06
5.9914520907902e-06
5.59194707809026e-06
5.0089519087312e-06
4.20627360912433e-06
3.16345039539994e-06
1.88460283173743e-06
5.6234329197165e-09
2.13689538579622e-11
2.12978609477674e-11
5.62634588328787e-09
1.8895859730486e-06
3.17350039159251e-06
4.22102733812135e-06
5.02796055546629e-06
5.61461679300308e-06
6.01707667030416e-06
6.27763928472787e-06
6.43692919883807e-06
6.52897027965038e-06
6.57930944805044e-06
6.6054144571333e-06
6.6182762194206e-06
6.62430953851502e-06
6.62700990881024e-06
6.62816550080631e-06
6.62863922225792e-06
6.62882552808669e-06
6.6288958601253e-06
6.62892129895413e-06
6.62893003910671e-06
6.6289328074976e-06
6.62893351896473e-06
6.62893354660441e-06
6.62893331902699e-06
6.6289328338947e-06
6.62893167436526e-06
6.62892849111476e-06
6.62891942051165e-06
6.62889389088482e-06
6.62882410680902e-06
6.62863995644028e-06
6.62817220810927e-06
6.62703112892783e-06
6.62436319549545e-06
6.61839742473578e-06
6.60566695140272e-06
6.57979945448441e-06
6.52985811404618e-06
6.4384293326625e-06
6.27999604889508e-06
6.0205046569061e-06
5.61920618360285e-06
5.03356797447335e-06
4.22719510901406e-06
3.17945847802736e-06
1.89437040766157e-06
5.65263644538804e-09
2.1475608319647e-11
2.13709040560107e-11
5.64635234279803e-09
1.8963068337185e-06
3.18456355758706e-06
4.23555128931863e-06
5.04512532185626e-06
5.63370558785103e-06
6.03750105277592e-06
6.29894569955312e-06
6.45878937070428e-06
6.55116094249184e-06
6.60168772662138e-06
6.62789416816376e-06
6.64080824397313e-06
6.64686735527465e-06
6.64957991323648e-06
6.65074104373249e-06
6.65121719813363e-06
6.65140454620188e-06
6.65147532079686e-06
6.65150095147486e-06
6.65150978055773e-06
6.65151259530056e-06
6.65151333462141e-06
6.65151337982152e-06
6.6515131621174e-06
6.65151268072102e-06
6.65151151835253e-06
6.65150832274919e-06
6.6514992211588e-06
6.65147361574677e-06
6.65140363925533e-06
6.65121899116408e-06
6.65074996760377e-06
6.64960571363008e-06
6.64693018292062e-06
6.64094704376873e-06
6.62817878137181e-06
6.6022332464412e-06
6.55213926134867e-06
6.46042811223335e-06
6.30150134282301e-06
6.0411953831959e-06
5.63862635820778e-06
5.05111283560362e-06
4.24211475458937e-06
3.19088162259506e-06
1.90134516362507e-06
5.67345647120387e-09
2.15514327863899e-11
2.14197195105814e-11
5.65976615150365e-09
1.90082905206782e-06
3.1920210884211e-06
4.24535687933774e-06
5.05672946505008e-06
5.64662539245615e-06
6.05133810741716e-06
6.31339136984537e-06
6.47361909774368e-06
6.56622114976873e-06
6.61687954547818e-06
6.64315758676153e-06
6.65610883413403e-06
6.66218639974311e-06
6.6649077420783e-06
6.66607289601972e-06
6.6665508334414e-06
6.66673895344509e-06
6.66681006045747e-06
6.66683583819251e-06
6.66684473747306e-06
6.66684759016481e-06
6.66684835334589e-06
6.66684841438976e-06
6.66684820631149e-06
6.66684772976452e-06
6.66684656737792e-06
6.66684336532443e-06
6.66683424567391e-06
6.66680859522506e-06
6.66673850333541e-06
6.66655355282465e-06
6.66608374211425e-06
6.6649374973909e-06
6.66225713442517e-06
6.65626281097756e-06
6.64346995904027e-06
6.61747319829536e-06
6.56727828141657e-06
6.47537929178647e-06
6.31612258532503e-06
6.05526973201877e-06
5.65184465340666e-06
5.06306375937911e-06
4.25228665658894e-06
3.19867787428433e-06
1.90611084890378e-06
5.68767170049992e-09
2.16031075756244e-11
2.14491870231869e-11
5.66789027833759e-09
1.90358002387293e-06
3.19657195878017e-06
4.25135688125864e-06
5.06384677343854e-06
5.65456569221256e-06
6.05985647338124e-06
6.32229641738745e-06
6.48277031014809e-06
6.57552150254719e-06
6.62626591655652e-06
6.65259124927454e-06
6.66556732003841e-06
6.67165735107754e-06
6.67438469789551e-06
6.67555263674081e-06
6.67603182546602e-06
6.67622049613538e-06
6.67629184538803e-06
6.67631773352324e-06
6.67632668767678e-06
6.67632957143234e-06
6.67633035522018e-06
6.67633043064623e-06
6.67633023181139e-06
6.67632976090611e-06
6.67632860070671e-06
6.67632539701841e-06
6.67631627014092e-06
6.67629060076097e-06
6.67622045902407e-06
6.67603537180122e-06
6.67556518585485e-06
6.67441794371549e-06
6.67173505465718e-06
6.66573467679445e-06
6.65292813085908e-06
6.62690217928947e-06
6.57664866528513e-06
6.48463895922753e-06
6.32518536873283e-06
6.06400285610841e-06
5.66005744662793e-06
5.07050081457627e-06
4.25862821243997e-06
3.203548523833e-06
1.90909513107181e-06
5.69658397436735e-09
2.16355090849393e-11
2.14624578030295e-11
5.67156851537369e-09
1.90483707832073e-06
3.1986699103857e-06
4.25414407570828e-06
5.06717499981137e-06
5.65829996037813e-06
6.06388168631461e-06
6.32652044707246e-06
6.48712381653741e-06
6.579955371688e-06
6.63074728202487e-06
6.65709939375324e-06
6.67008988500671e-06
6.6761873466234e-06
6.67891836751934e-06
6.68008805741377e-06
6.68056805677291e-06
6.68075709714549e-06
6.68082861677738e-06
6.68085458754311e-06
6.68086358597609e-06
6.68086649663828e-06
6.68086729953467e-06
6.68086738871872e-06
6.68086719850937e-06
6.68086673335531e-06
6.68086557618034e-06
6.68086237352526e-06
6.68085324705693e-06
6.68082757979767e-06
6.68075744454874e-06
6.68057236663611e-06
6.68010217076449e-06
6.67895481063343e-06
6.67627142694438e-06
6.67026948597639e-06
6.65745872640049e-06
6.63142264546e-06
6.58114696345905e-06
6.48909259951843e-06
6.32955563558425e-06
6.0682281760573e-06
5.66404712868693e-06
5.07413078626776e-06
4.2617401873838e-06
3.20595318372227e-06
1.91057854228166e-06
5.70104701673834e-09
2.16518310243583e-11
2.14610583348237e-11
5.67121078477769e-09
1.90473545211393e-06
3.19853664934577e-06
4.25400855144693e-06
5.06705610504632e-06
5.65820784585228e-06
6.06381957333e-06
6.32648664863335e-06
6.48711378913212e-06
6.57996351109397e-06
6.63076821112049e-06
6.65712869514523e-06
6.67012431233634e-06
6.67622472848759e-06
6.67895736395844e-06
6.68012789808636e-06
6.68060832564701e-06
6.68079758134011e-06
6.68086921193028e-06
6.68089524374277e-06
6.68090427919831e-06
6.68090721448133e-06
6.68090803567807e-06
6.68090813812483e-06
6.68090795666225e-06
6.68090749684699e-06
6.6809063425283e-06
6.68090314211115e-06
6.68089402177525e-06
6.68086837525213e-06
6.68079829947352e-06
6.6806133710654e-06
6.68014351730309e-06
6.6789968836856e-06
6.6763149438475e-06
6.670315694619e-06
6.65750963790833e-06
6.63148123391668e-06
6.58121720560853e-06
6.48917918350089e-06
6.32966318085581e-06
6.06835990626457e-06
5.66420310323995e-06
5.07430593607702e-06
4.26192240471005e-06
3.20612154691087e-06
1.91070146006853e-06
5.70148870608588e-09
2.1653677008046e-11
2.14449593130884e-11
5.66681056732471e-09
1.90327343907634e-06
3.19616965446831e-06
4.25094744515012e-06
5.06348736534286e-06
5.65428719718932e-06
6.05966886500517e-06
6.32219476671924e-06
6.48274094947915e-06
6.57554746189332e-06
6.62633087910852e-06
6.65268176072955e-06
6.66567348352995e-06
6.67177253974366e-06
6.67450481905463e-06
6.67567533623677e-06
6.67615583153834e-06
6.67634515803632e-06
6.67641684422023e-06
6.67644291694125e-06
6.67645198252092e-06
6.67645494014903e-06
6.67645577862768e-06
6.67645589394304e-06
6.67645572087922e-06
6.6764552659458e-06
6.67645411441381e-06
6.67645091779867e-06
6.67644181021828e-06
6.67641620514394e-06
6.67634624658609e-06
6.67616161843642e-06
6.67569248131083e-06
6.67454746443123e-06
6.67186899484005e-06
6.66587685106096e-06
6.65308468152449e-06
6.62708217848267e-06
6.57686422194314e-06
6.48490430930561e-06
6.32551447248915e-06
6.06440533842639e-06
5.66053322384296e-06
5.07103417768772e-06
4.2591821386101e-06
3.20405943750742e-06
1.90946744540944e-06
5.69792051934039e-09
2.16410933626123e-11
2.14125952977703e-11
5.6579492627732e-09
1.90031321519794e-06
3.19134295089421e-06
4.24466549854497e-06
5.05612171857263e-06
5.64615425330801e-06
6.05102127259112e-06
6.31322109916842e-06
6.47357251738816e-06
6.56626949240509e-06
6.61699496681711e-06
6.64331702530252e-06
6.65629527523778e-06
6.66238842530884e-06
6.66511828903225e-06
6.66628789702427e-06
6.6667680896878e-06
6.66695733948611e-06
6.66702902487495e-06
6.66705511780289e-06
6.66706420615845e-06
6.66706718353503e-06
6.66706803808786e-06
6.66706816552651e-06
6.66706800032922e-06
6.66706754990531e-06
6.66706640143874e-06
6.66706321100794e-06
6.66705412461737e-06
6.66702858586999e-06
6.66695881208204e-06
6.66677465804227e-06
6.6663066655738e-06
6.66516427590725e-06
6.66249156362872e-06
6.65651148161308e-06
6.64374346551762e-06
6.61778715047209e-06
6.5676534407399e-06
6.47583993369849e-06
6.31669228708082e-06
6.05596435016603e-06
5.65266315292021e-06
5.0639782904815e-06
4.25323323916941e-06
3.19954801546937e-06
1.90674286900903e-06
5.68993755076093e-09
2.16125818427877e-11
2.13608027921918e-11
5.64378130388885e-09
1.89557685598026e-06
3.18360093459506e-06