/*--------------------------------*- C++ -*----------------------------------*\
  =========                 |
  \\      /  F ield         | OpenFOAM: The Open Source CFD Toolbox
   \\    /   O peration     | Website:  https://openfoam.org
    \\  /    A nd           | Version:  10
     \\/     M anipulation  |
\*---------------------------------------------------------------------------*/
FoamFile
{
    format      ascii;
    class       volScalarField;
    location    "6.8";
    object      h;
}
// * * * * * * * * * * * * * * * * * * * * * * * * * * * * * * * * * * * * * //

dimensions      [0 2 -2 0 0 0 0];

internalField   nonuniform List<scalar> 
2500
(
6368.04609214548
6362.76375551542
6350.87989730939
6342.16007958748
6336.8005519083
6333.70865057676
6331.9849882777
6331.05314468227
6330.56746053617
6330.3255156361
6330.20888300142
6330.15529796189
6330.13166653828
6330.12105890845
6330.11619821041
6330.11358430709
6330.11241507139
6330.11147768702
6330.11058753681
6330.10998458122
6330.10948485445
6330.10906059164
6330.10871536368
6330.10850096593
6330.10828395359
6330.10810669671
6330.10804403536
6330.1080289888
6330.1080741567
6330.10819074909
6330.10839403912
6330.10877396269
6330.10925242884
6330.1099665402
6330.11115140685
6330.11345730874
6330.11842674829
6330.12944309874
6330.15502020512
6330.2110453463
6330.33084057015
6330.5776075203
6331.06611217958
6331.99628225621
6333.71162185491
6336.7842263019
6342.13444691146
6350.89909724168
6362.87080922548
6367.93699984708
5464.43254802116
5435.82334574167
5401.43797067062
5376.75871021897
5361.27032739424
5352.071849934
5346.77726677605
5343.8217957221
5342.23163539065
5341.41156407638
5341.00651273444
5340.81537654658
5340.72911683713
5340.69154330128
5340.67564902266
5340.66893956883
5340.66621220486
5340.66489995866
5340.66408962447
5340.66358500689
5340.66319833781
5340.66286911881
5340.66259795676
5340.66241313436
5340.66224827824
5340.66211196749
5340.6620444793
5340.66200974681
5340.66200859413
5340.66206291871
5340.66219993143
5340.66251450785
5340.6631547627
5340.66450252569
5340.66751847741
5340.67472892439
5340.69200605352
5340.73237301485
5340.82394127675
5341.02293563696
5341.43836879152
5342.26998330949
5343.86670138762
5346.81486148697
5352.07942810818
5361.22955368136
5376.71079350196
5401.55069691408
5436.25513767012
5464.03777301402
4544.70662545029
4495.04878375028
4446.17577866343
4412.27237551141
4391.20610981095
4378.74996913048
4371.59425634067
4367.60031171534
4365.44817048547
4364.33487272109
4363.78337458096
4363.52218875962
4363.40391314925
4363.35251199968
4363.33099582159
4363.322238086
4363.31879703857
4363.31737261234
4363.3166822783
4363.31630651074
4363.31604145287
4363.31581399319
4363.31562151812
4363.31548562415
4363.31537395105
4363.31528021197
4363.31522453204
4363.31518521835
4363.31515894226
4363.31516431557
4363.31523792877
4363.31548542278
4363.31616304192
4363.3177791498
4363.32164403664
4363.33122826388
4363.35457577588
4363.40951162216
4363.53400767783
4363.80452926737
4364.36834968863
4365.49485225436
4367.65448133492
4371.63974649585
4378.76133501726
4391.17162683462
4412.27080620702
4446.47874055986
4495.98083167974
4545.01630201712
3724.31460595273
3664.78047512244
3613.88066711684
3579.95244275881
3559.47095927418
3547.67087658921
3541.04843143985
3537.42504998208
3535.50443509436
3534.5241286114
3534.04394709861
3533.81866720553
3533.71748492898
3533.67389383226
3533.6558414461
3533.64862843217
3533.64586065046
3533.64478826215
3533.64432915808
3533.6441042043
3533.64395270321
3533.64381567792
3533.64369252288
3533.64360396834
3533.64353643047
3533.64347884572
3533.64343982294
3533.64340526578
3533.64337090688
3533.6433544375
3533.64336311909
3533.64348415526
3533.64398804265
3533.64525707741
3533.64833890861
3533.65614986777
3533.67548761004
3533.72157284648
3533.82715380018
3534.0592207324
3534.54870117484
3535.53954386944
3537.4675175798
3541.08760154244
3547.69069456924
3559.4753162617
3580.04721038198
3614.39485656011
3666.1832625781
3725.82780890386
3069.43424963151
3011.94000530241
2967.52764048658
2939.06423323427
2922.40070170188
2913.0624577763
2907.94855938254
2905.20674651702
2903.77643177514
2903.05525231405
2902.70529377618
2902.54227703295
2902.4694699697
2902.43826881899
2902.42543126544
2902.4203630699
2902.41845763784
2902.41775768565
2902.41749002118
2902.41737689175
2902.41730666921
2902.4172365355
2902.41716618888
2902.41711492017
2902.41707938543
2902.41704850482
2902.41702462707
2902.41699880977
2902.41696735483
2902.41694270536
2902.41692284702
2902.41695065799
2902.41726499365
2902.41812652093
2902.42021930361
2902.42561797552
2902.43914734911
2902.4716948126
2902.54689702776
2902.7136913292
2903.0690099775
2903.79660141036
2905.23206478662
2907.97368774447
2913.08072163881
2922.42760994475
2939.2134306843
2968.1367201291
3013.57226242279
3071.90325064452
2594.94421969646
2547.379144445
2513.44807012529
2492.49642415222
2480.59725859428
2474.1095990703
2470.64155681536
2468.81824952125
2467.88109090757
2467.41359203735
2467.18842488172
2467.08406809928
2467.03762061281
2467.01777322454
2467.00963936903
2467.00645638531
2467.00528241182
2467.0048729112
2467.00473478167
2467.00468907873
2467.00466697972
2467.00463951133
2467.00460434768
2467.00457828156
2467.00456297666
2467.00454904184
2467.00453610729
2467.0045190476
2467.00449507013
2467.00447112839
2467.00444534092
2467.00443124197
2467.00460176636
2467.00511920671
2467.00638849424
2467.00971961368
2467.01814760552
2467.03856123639
2467.08602473405
2467.192011034
2467.41956889784
2467.89006092646
2468.82977652297
2470.6533658051
2474.12030487812
2480.62563770879
2492.64454834748
2514.01858710723
2548.94467367334
2597.76421270761
2279.55771243671
2244.72496135356
2221.45830016623
2207.58324012193
2199.93020269866
2195.8669829283
2193.74512615904
2192.65028992879
2192.09523811748
2191.8209262259
2191.68958353201
2191.6289167655
2191.60196267313
2191.59045869789
2191.58575506134
2191.58392706083
2191.58326476792
2191.58304720118
2191.58298475386
2191.58297015129
2191.58297046973
2191.58296718853
2191.58295283503
2191.58294173955
2191.58293758193
2191.58293278029
2191.58292654383
2191.58291638751
2191.58290024659
2191.58288124949
2191.58285731557
2191.58283260892
2191.58291479766
2191.58319526254
2191.5838997563
2191.58578141352
2191.59057770599
2191.60224935843
2191.62950552399
2191.69066130041
2191.82274849531
2192.09801500927
2192.65376877694
2193.74825440016
2195.87006025724
2199.94901981238
2207.6968386278
2221.9075585496
2246.01365549168
2282.16246934849
2085.57998192377
2062.53012735415
2047.97334797276
2039.56959485382
2035.06157634774
2032.72820050645
2031.5367827183
2030.93297980694
2030.63077436891
2030.48264714323
2030.41205057187
2030.37950913728
2030.3650577778
2030.3588897764
2030.35637100702
2030.35539770514
2030.35505109662
2030.35494520277
2030.35492459446
2030.35492615496
2030.35492897085
2030.35493088505
2030.35492771255
2030.35492433334
2030.35492546761
2030.35492486073
2030.35492223938
2030.35491669409
2030.35490679129
2030.35489366491
2030.35487579414
2030.35485488244
2030.35488815332
2030.35502644146
2030.35539065251
2030.35637879997
2030.35891162673
2030.3650929816
2030.37956676813
2030.4121416285
2030.48279714771
2030.63097415708
2030.93296440644
2031.53584309329
2032.72656898006
2035.06978306595
2039.64156550291
2048.28140917332
2063.4656869915
2087.64562849094
1974.38012609394
1960.3976236713
1951.98659236124
1947.27543296064
1944.81392246499
1943.57029763441
1942.94888101637
1942.63935158734
1942.48630022162
1942.41183290584
1942.37647079924
1942.36018692689
1942.35295146763
1942.3498604802
1942.34859892741
1942.34811390592
1942.34794455702
1942.34789903461
1942.34789521071
1942.34789889805
1942.34790270293
1942.34790562527
1942.34790605618
1942.34790630387
1942.34790797721
1942.34790834353
1942.3479073819
1942.34790453912
1942.34789888705
1942.34789072657
1942.34787923827
1942.34786569118
1942.34787572931
1942.34793806566
1942.34811552511
1942.34860297685
1942.34985758339
1942.35292372476
1942.36011180227
1942.37631361107
1942.41155020936
1942.48580762901
1942.63838328279
1942.9468331598
1943.56696150565
1944.81510675964
1947.31408206397
1952.17473355271
1961.00837992164
1975.83318483072
1914.59219187258
1906.73199804295
1902.20111484835
1899.7337953243
1898.47631573035
1897.85544970314
1897.55159443359
1897.40275663929
1897.33001138955
1897.2948542224
1897.27820661251
1897.2705418307
1897.26713160148
1897.26567250613
1897.26507705829
1897.26484927606
1897.26477206973
1897.26475409705
1897.26475466956
1897.26475812921
1897.26476132783
1897.26476373113
1897.26476493072
1897.26476596666
1897.26476728151
1897.26476786187
1897.26476756661
1897.26476606893
1897.26476303642
1897.26475837927
1897.26475175002
1897.26474448022
1897.26474606459
1897.26477172519
1897.26485337363
1897.26508093724
1897.26566857727
1897.26710501925
1897.27047211458
1897.27806212877
1897.29459018668
1897.32954411511
1897.40186567793
1897.54978283371
1897.85225310434
1898.47438985439
1899.75138591921
1902.30504210321
1907.09579375216
1915.51785373222
1884.2779063382
1880.14828338535
1877.85543639478
1876.63921214277
1876.03372303056
1875.74123085408
1875.60091738662
1875.53329802174
1875.5006179894
1875.48492221276
1875.47750653345
1875.4740905855
1875.47256782792
1875.47191501056
1875.47164856572
1875.47154717392
1875.47151395225
1875.47150742687
1875.47150875146
1875.47151117468
1875.4715133266
1875.47151493374
1875.47151593843
1875.47151681923
1875.47151765708
1875.47151811229
1875.47151801806
1875.47151724781
1875.47151571569
1875.47151324302
1875.4715097091
1875.47150591196
1875.47150547928
1875.47151552235
1875.47155098763
1875.47165212551
1875.47191405022
1875.47255386427
1875.47405166727
1875.4774239266
1875.48476701267
1875.5003315856
1875.53272532859
1875.59969509453
1875.73887626312
1876.03119241071
1876.64575114258
1877.90792497989
1880.34824305356
1884.81973733881
1869.71364346962
1867.67178458036
1866.57489962332
1866.00712076782
1865.73063254922
1865.59981199717
1865.53825136782
1865.50905226359
1865.49509449647
1865.48843014259
1865.48528704285
1865.48383776387
1865.48319016627
1865.48291190089
1865.48279829826
1865.48275530277
1865.48274177787
1865.48273964971
1865.48274063281
1865.48274207222
1865.48274332991
1865.48274427157
1865.48274491549
1865.48274547612
1865.4827459458
1865.48274622039
1865.48274618483
1865.48274580645
1865.48274506883
1865.48274383578
1865.48274207458
1865.48274018309
1865.48273960546
1865.48274332159
1865.48275800207
1865.48280101749
1865.48291269682
1865.48318512991
1865.48382140035
1865.48525057314
1865.48835867356
1865.49495385524
1865.5087466207
1865.53754491619
1865.59832844374
1865.72858129277
1866.00881653505
1866.59931742962
1867.77412131344
1870.0082349766
1863.05508251031
1862.0994575037
1861.60075940642
1861.34842159119
1861.22807115727
1861.17223689838
1861.14644468317
1861.13439972205
1861.12870373311
1861.12599941168
1861.12472578407
1861.12413769881
1861.1238742016
1861.12376069726
1861.12371434443
1861.12369689775
1861.12369163466
1861.12369103368
1861.12369162612
1861.12369239206
1861.12369305555
1861.12369355539
1861.12369391365
1861.1236942215
1861.12369446078
1861.12369460262
1861.1236945883
1861.12369441185
1861.12369406974
1861.12369348835
1861.12369266146
1861.12369177027
1861.12369139918
1861.12369269991
1861.12369853016
1861.12371611552
1861.12376186834
1861.12387327215
1861.12413261339
1861.12471317155
1861.12597275721
1861.12864545817
1861.13425644309
1861.14607835561
1861.17140068287
1861.22672268994
1861.34842273109
1861.61126952998
1862.14858326057
1863.20511782567
1860.14730114487
1859.72187590907
1859.50542691287
1859.39818951012
1859.34803337621
1859.32519420716
1859.31482968101
1859.31006238418
1859.30783180129
1859.30677855972
1859.30628309848
1859.30605393694
1859.30595095265
1859.30590647397
1859.30588830406
1859.30588151354
1859.30587956352
1859.30587942316
1859.30587971895
1859.30588009269
1859.30588041532
1859.30588066019
1859.30588084069
1859.30588099346
1859.3058811062
1859.30588117226
1859.30588116649
1859.30588108782
1859.30588093498
1859.30588067465
1859.30588030684
1859.3058799086
1859.30587971127
1859.30588014345
1859.30588238361
1859.30588931999
1859.30590739839
1859.30595131922
1859.30605315559
1859.30628015415
1859.3067709982
1859.30781140629
1859.31000183838
1859.31465494116
1859.32476200341
1859.34725636548
1859.39781143809
1859.50961891467
1859.74413014913
1860.21936971072
1858.93028780619
1858.74937812785
1858.65934842084
1858.61560421756
1858.59551595759
1858.58652836287
1858.58251855898
1858.58070128658
1858.57985987028
1858.5794646904
1858.57927897021
1858.57919290551
1858.57915410539
1858.57913730147
1858.57913043435
1858.57912788867
1858.57912718818
1858.57912716654
1858.57912730756
1858.57912747728
1858.57912762354
1858.57912773539
1858.57912781929
1858.57912788919
1858.57912793877
1858.57912796722
1858.57912796494
1858.57912793131
1858.57912786571
1858.57912775475
1858.57912759921
1858.57912743022
1858.57912733897
1858.5791274775
1858.57912831173
1858.57913095947
1858.57913787196
1858.57915462234
1858.5791932811
1858.57927902269
1858.5794636386
1858.57985415978
1858.58067789752
1858.58244063102
1858.58632024563
1858.59510936286
1858.61527346069
1858.66089420557
1858.75894027115
1858.96312195539
1858.44063146137
1858.36687636643
1858.33087069195
1858.31368654711
1858.30592913844
1858.30251562989
1858.30101720807
1858.30034779318
1858.30004103018
1858.29989771008
1858.29983040912
1858.29979915535
1858.29978501801
1858.29977887728
1858.29977636607
1858.29977544196
1858.29977519667
1858.29977519901
1858.29977526107
1858.29977533306
1858.29977539507
1858.29977544281
1858.29977547902
1858.29977550873
1858.29977552913
1858.29977554059
1858.29977553971
1858.29977552591
1858.29977549898
1858.29977545399
1858.29977539146
1858.29977532337
1858.29977528419
1858.29977532804
1858.29977563215
1858.2997766137
1858.29977917916
1858.2997853769
1858.29979960719
1858.29983099172
1858.29989823084
1858.30004004673
1858.30033946413
1858.30098432695
1858.30242121234
1858.30573198316
1858.31347925338
1858.33139329963
1858.37079030153
1858.45488737338
1858.25073035941
1858.22180982822
1858.20792423364
1858.20140492166
1858.19850841918
1858.19725360716
1858.19671120132
1858.19647221712
1858.19636380279
1858.19631341069
1858.19628976282
1858.19627875563
1858.19627375854
1858.19627158064
1858.19627068848
1858.19627036141
1858.19627027643
1858.19627027964
1858.19627030444
1858.19627033266
1858.196270357
1858.19627037583
1858.1962703902
1858.19627040184
1858.19627040959
1858.19627041388
1858.19627041354
1858.19627040815
1858.19627039768
1858.19627038048
1858.19627035678
1858.19627033099
1858.19627031564
1858.19627033034
1858.19627043987
1858.1962707949
1858.19627172209
1858.19627395308
1858.19627904607
1858.19629020934
1858.19631399089
1858.19636396158
1858.19646946681
1858.19669794869
1858.1972129071
1858.19841866469
1858.20129411954
1858.208082979
1858.22334159641
1858.25665300473
1858.17956553275
1858.16862764589
1858.16345083169
1858.16105633208
1858.16000804365
1858.15956049149
1858.15936982319
1858.15928692193
1858.15924968129
1858.15923245687
1858.15922437725
1858.15922060637
1858.15921888708
1858.15921813419
1858.15921782432
1858.15921770999
1858.15921767963
1858.15921768023
1858.15921768868
1858.15921769841
1858.15921770682
1858.15921771333
1858.15921771831
1858.1592177223
1858.15921772489
1858.15921772629
1858.15921772613
1858.15921772419
1858.15921772047
1858.15921771447
1858.15921770628
1858.15921769747
1858.15921769237
1858.15921769844
1858.15921773833
1858.15921786469
1858.15921819262
1858.15921897655
1858.1592207537
1858.15922462217
1858.15923281126
1858.15924994054
1858.15928607364
1858.15936467865
1858.15954370985
1858.15996932462
1858.16100286596
1858.16349199922
1858.16920265545
1858.18192825108
1858.15373904264
1858.14973900126
1858.14786906084
1858.14701576232
1858.14664723905
1858.14649202685
1858.14642679686
1858.14639878966
1858.14638632562
1858.14638058701
1858.14637789475
1858.14637663354
1858.14637605486
1858.14637579916
1858.14637569241
1858.14637565188
1858.1463756396
1858.14637563809
1858.14637563986
1858.14637564215
1858.14637564415
1858.14637564565
1858.14637564681
1858.14637564774
1858.14637564831
1858.1463756486
1858.14637564849
1858.14637564792
1858.14637564687
1858.14637564521
1858.14637564298
1858.14637564071
1858.14637563992
1858.14637564344
1858.14637565884
1858.14637570409
1858.14637581882
1858.14637608934
1858.14637669634
1858.14637800631
1858.14638075885
1858.14638648484
1858.1463985404
1858.14642485806
1858.14648537121
1858.14663130089
1858.14699184008
1858.14787673137
1858.14994661381
1858.15464689374
1858.1446441305
1858.14322647191
1858.14257077591
1858.14227520184
1858.14214912761
1858.14209669092
1858.14207492993
1858.14206569505
1858.14206162023
1858.14205975078
1858.1420588721
1858.14205845763
1858.14205826505
1858.14205817807
1858.14205814019
1858.1420581244
1858.14205811816
1858.14205811576
1858.14205811473
1858.14205811415
1858.14205811368
1858.14205811325
1858.1420581129
1858.14205811265
1858.14205811246
1858.14205811233
1858.14205811224
1858.14205811219
1858.14205811216
1858.14205811213
1858.14205811211
1858.1420581123
1858.14205811326
1858.14205811596
1858.14205812291
1858.14205814016
1858.14205818101
1858.14205827407
1858.14205847871
1858.14205891443
1858.14205982078
1858.14206169259
1858.14206562039
1858.14207421377
1858.1420941386
1858.14214283205
1858.14226512385
1858.14257071512
1858.14329874239
1858.14498102581
1858.14153057143
1858.14104268326
1858.14081911926
1858.14071944738
1858.14067741076
1858.14066012559
1858.14065303349
1858.14065005442
1858.14064874868
1858.14064814997
1858.14064786655
1858.1406477306
1858.14064766542
1858.14064763425
1858.14064761913
1858.14064761144
1858.14064760712
1858.14064760433
1858.14064760227
1858.14064760062
1858.14064759924
1858.14064759809
1858.14064759717
1858.14064759648
1858.140647596
1858.14064759573
1858.14064759566
1858.1406475958
1858.14064759615
1858.1406475967
1858.14064759748
1858.14064759857
1858.14064760017
1858.14064760261
1858.14064760674
1858.14064761456
1858.14064763043
1858.14064766364
1858.14064773329
1858.14064787746
1858.14064817204
1858.14064877327
1858.14065002696
1858.14065276998
1858.14065917315
1858.1406750123
1858.14071540947
1858.14081808867
1858.1410669875
1858.14165160013
1858.14049265135
1858.14032932093
1858.14025511351
1858.14022236107
1858.14020868624
1858.1402031191
1858.14020085629
1858.14019991259
1858.14019949958
1858.14019930857
1858.140199216
1858.14019916955
1858.14019914544
1858.14019913229
1858.14019912453
1858.14019911942
1858.1401991157
1858.14019911276
1858.14019911033
1858.14019910828
1858.14019910657
1858.14019910515
1858.14019910403
1858.14019910318
1858.1401991026
1858.14019910228
1858.14019910222
1858.14019910243
1858.14019910292
1858.14019910368
1858.14019910475
1858.14019910615
1858.14019910798
1858.14019911035
1858.14019911357
1858.14019911828
1858.14019912591
1858.1401991394
1858.14019916478
1858.14019921394
1858.14019931039
1858.14019950238
1858.14019989704
1858.14020075628
1858.1402027693
1858.14020779958
1858.14022081068
1858.14025441318
1858.14033723044
1858.14053483148
1858.14015522442
1858.140101962
1858.14007797829
1858.14006749451
1858.14006315466
1858.14006140099
1858.14006069176
1858.14006039564
1858.14006026422
1858.14006020121
1858.14006016853
1858.14006015022
1858.14006013907
1858.14006013163
1858.14006012618
1858.14006012189
1858.14006011835
1858.14006011535
1858.14006011279
1858.14006011061
1858.14006010877
1858.14006010727
1858.14006010607
1858.14006010516
1858.14006010454
1858.14006010421
1858.14006010416
1858.1400601044
1858.14006010493
1858.14006010577
1858.14006010694
1858.14006010846
1858.14006011036
1858.14006011273
1858.14006011565
1858.14006011936
1858.14006012432
1858.14006013146
1858.14006014264
1858.14006016149
1858.14006019515
1858.14006025818
1858.140060383
1858.14006064959
1858.14006127124
1858.1400628333
1858.14006691994
1858.1400776282
1858.14010445594
1858.14016951134
1858.14004809477
1858.14003116368
1858.14002363763
1858.14002038347
1858.14001904444
1858.14001850401
1858.14001828381
1858.14001818945
1858.14001814504
1858.14001812142
1858.14001810716
1858.14001809753
1858.14001809039
1858.14001808472
1858.14001808
1858.14001807597
1858.14001807249
1858.14001806946
1858.14001806686
1858.14001806463
1858.14001806276
1858.14001806122
1858.14001806
1858.14001805908
1858.14001805845
1858.14001805811
1858.14001805807
1858.14001805832
1858.14001805887
1858.14001805974
1858.14001806094
1858.14001806249
1858.14001806443
1858.14001806679
1858.14001806962
1858.14001807302
1858.14001807713
1858.14001808225
1858.14001808896
1858.14001809835
1858.14001811251
1858.14001813573
1858.14001817756
1858.14001826175
1858.14001845236
1858.14001892751
1858.14002017589
1858.14002348535
1858.14003192574
1858.14005280432
1858.14001483595
1858.14000959642
1858.14000733331
1858.14000637209
1858.14000597633
1858.14000581367
1858.14000574423
1858.14000571149
1858.14000569344
1858.14000568171
1858.14000567302
1858.14000566601
1858.1400056601
1858.14000565498
1858.14000565049
1858.14000564655
1858.14000564309
1858.14000564007
1858.14000563745
1858.14000563522
1858.14000563334
1858.14000563179
1858.14000563057
1858.14000562964
1858.14000562901
1858.14000562868
1858.14000562864
1858.14000562889
1858.14000562945
1858.14000563033
1858.14000563154
1858.14000563311
1858.14000563506
1858.14000563741
1858.14000564021
1858.1400056435
1858.14000564734
1858.14000565184
1858.14000565717
1858.14000566364
1858.14000567187
1858.14000568305
1858.14000569988
1858.1400057291
1858.14000578906
1858.14000593116
1858.14000629748
1858.14000727227
1858.14000982152
1858.14001634754
1858.14000472793
1858.14000316196
1858.14000254339
1858.14000229334
1858.14000218778
1858.14000214028
1858.14000211637
1858.14000210204
1858.14000209181
1858.14000208359
1858.14000207654
1858.14000207033
1858.14000206479
1858.14000205985
1858.14000205545
1858.14000205154
1858.1400020481
1858.14000204509
1858.14000204249
1858.14000204026
1858.14000203839
1858.14000203685
1858.14000203562
1858.1400020347
1858.14000203408
1858.14000203375
1858.14000203371
1858.14000203397
1858.14000203453
1858.14000203541
1858.14000203663
1858.14000203819
1858.14000204014
1858.14000204248
1858.14000204526
1858.14000204851
1858.14000205226
1858.14000205656
1858.14000206146
1858.14000206706
1858.14000207352
1858.14000208114
1858.14000209061
1858.14000210364
1858.14000212488
1858.14000216714
1858.14000226539
1858.14000252008
1858.14000322553
1858.14000519933
1858.14000171783
1858.14000128043
1858.14000116447
1858.14000113023
1858.14000111197
1858.14000109878
1858.14000108826
1858.14000107928
1858.14000107128
1858.14000106406
1858.14000105748
1858.1400010515
1858.14000104608
1858.14000104121
1858.14000103685
1858.14000103297
1858.14000102956
1858.14000102657
1858.14000102398
1858.14000102177
1858.14000101991
1858.14000101839
1858.14000101717
1858.14000101626
1858.14000101565
1858.14000101532
1858.14000101529
1858.14000101555
1858.14000101611
1858.14000101699
1858.1400010182
1858.14000101976
1858.14000102169
1858.14000102403
1858.14000102679
1858.14000103001
1858.14000103372
1858.14000103795
1858.14000104272
1858.14000104807
1858.14000105402
1858.14000106063
1858.14000106802
1858.14000107644
1858.14000108652
1858.1400010996
1858.14000111823
1858.14000115572
1858.14000129688
1858.1400018592
1858.14000083935
1858.14000074139
1858.14000077568
1858.14000080536
1858.14000081265
1858.1400008093
1858.14000080252
1858.14000079496
1858.14000078753
1858.14000078054
1858.14000077408
1858.14000076816
1858.1400007628
1858.14000075796
1858.14000075363
1858.14000074979
1858.14000074641
1858.14000074345
1858.14000074089
1858.14000073871
1858.14000073687
1858.14000073536
1858.14000073416
1858.14000073327
1858.14000073266
1858.14000073234
1858.14000073231
1858.14000073257
1858.14000073313
1858.14000073401
1858.1400007352
1858.14000073675
1858.14000073867
1858.14000074099
1858.14000074373
1858.14000074693
1858.14000075061
1858.14000075481
1858.14000075954
1858.14000076481
1858.14000077064
1858.14000077702
1858.1400007839
1858.14000079113
1858.14000079819
1858.14000080308
1858.14000079877
1858.14000077234
1858.14000074457
1858.14000087848
1858.14000058874
1858.14000059089
1858.14000066897
1858.14000071687
1858.14000073118
1858.14000073038
1858.14000072445
1858.14000071713
1858.14000070976
1858.14000070278
1858.14000069632
1858.14000069042
1858.14000068508
1858.14000068027
1858.14000067599
1858.14000067219
1858.14000066884
1858.14000066592
1858.1400006634
1858.14000066125
1858.14000065944
1858.14000065795
1858.14000065678
1858.1400006559
1858.1400006553
1858.14000065499
1858.14000065497
1858.14000065523
1858.14000065578
1858.14000065665
1858.14000065783
1858.14000065936
1858.14000066126
1858.14000066355
1858.14000066627
1858.14000066944
1858.1400006731
1858.14000067727
1858.14000068198
1858.14000068725
1858.14000069307
1858.14000069945
1858.14000070629
1858.14000071335
1858.1400007198
1858.14000072267
1858.14000071218
1858.14000066764
1858.14000059056
1858.140000597
1858.14000051992
1858.14000055108
1858.14000064134
1858.1400006939
1858.14000070973
1858.14000070927
1858.1400007033
1858.14000069586
1858.14000068837
1858.14000068132
1858.14000067483
1858.14000066892
1858.1400006636
1858.14000065883
1858.14000065459
1858.14000065084
1858.14000064754
1858.14000064467
1858.14000064219
1858.14000064008
1858.1400006383
1858.14000063685
1858.1400006357
1858.14000063483
1858.14000063426
1858.14000063395
1858.14000063393
1858.14000063419
1858.14000063474
1858.14000063559
1858.14000063676
1858.14000063827
1858.14000064014
1858.1400006424
1858.14000064509
1858.14000064823
1858.14000065185
1858.140000656
1858.1400006607
1858.14000066598
1858.14000067184
1858.1400006783
1858.14000068526
1858.14000069247
1858.14000069903
1858.14000070173
1858.14000068999
1858.14000064086
1858.14000054998
1858.14000051916
1858.1400005031
1858.14000054257
1858.14000063572
1858.14000068889
1858.14000070453
1858.14000070371
1858.14000069738
1858.14000068967
1858.14000068201
1858.14000067485
1858.14000066831
1858.1400006624
1858.1400006571
1858.14000065238
1858.14000064819
1858.14000064449
1858.14000064126
1858.14000063844
1858.14000063601
1858.14000063394
1858.14000063221
1858.14000063079
1858.14000062967
1858.14000062883
1858.14000062827
1858.14000062798
1858.14000062796
1858.14000062821
1858.14000062875
1858.14000062959
1858.14000063074
1858.14000063222
1858.14000063406
1858.14000063629
1858.14000063893
1858.14000064203
1858.14000064562
1858.14000064974
1858.14000065443
1858.14000065972
1858.14000066564
1858.14000067221
1858.14000067936
1858.14000068685
1858.14000069378
1858.1400006969
1858.14000068542
1858.1400006357
1858.14000054144
1858.14000049987
1858.14000050127
1858.14000054311
1858.14000063637
1858.14000068883
1858.14000070369
1858.1400007022
1858.14000069539
1858.14000068733
1858.14000067945
1858.14000067217
1858.14000066558
1858.14000065967
1858.1400006544
1858.14000064973
1858.1400006456
1858.14000064197
1858.1400006388
1858.14000063605
1858.14000063368
1858.14000063167
1858.14000062998
1858.1400006286
1858.14000062751
1858.1400006267
1858.14000062615
1858.14000062587
1858.14000062586
1858.14000062611
1858.14000062664
1858.14000062746
1858.14000062859
1858.14000063004
1858.14000063184
1858.14000063402
1858.14000063662
1858.14000063967
1858.14000064321
1858.1400006473
1858.14000065197
1858.14000065728
1858.14000066326
1858.14000066996
1858.14000067733
1858.14000068517
1858.1400006926
1858.14000069639
1858.14000068572
1858.1400006367
1858.14000054216
1858.1400004975
1858.14000050412
1858.14000054664
1858.14000063905
1858.14000069025
1858.14000070399
1858.14000070167
1858.14000069427
1858.14000068582
1858.1400006777
1858.14000067028
1858.14000066364
1858.14000065774
1858.14000065251
1858.1400006479
1858.14000064385
1858.1400006403
1858.14000063721
1858.14000063453
1858.14000063223
1858.14000063027
1858.14000062864
1858.1400006273
1858.14000062625
1858.14000062547
1858.14000062494
1858.14000062468
1858.14000062467
1858.14000062492
1858.14000062544
1858.14000062623
1858.14000062733
1858.14000062875
1858.1400006305
1858.14000063263
1858.14000063518
1858.14000063817
1858.14000064166
1858.1400006457
1858.14000065035
1858.14000065566
1858.14000066171
1858.14000066854
1858.14000067617
1858.1400006844
1858.14000069242
1858.14000069705
1858.14000068749
1858.14000063971
1858.14000054594
1858.14000050038
1858.14000050892
1858.1400005516
1858.14000064267
1858.14000069223
1858.1400007046
1858.14000070129
1858.14000069321
1858.14000068433
1858.14000067595
1858.1400006684
1858.14000066172
1858.14000065583
1858.14000065066
1858.14000064613
1858.14000064216
1858.1400006387
1858.1400006357
1858.1400006331
1858.14000063088
1858.14000062899
1858.14000062742
1858.14000062613
1858.14000062512
1858.14000062437
1858.14000062387
1858.14000062361
1858.14000062361
1858.14000062386
1858.14000062436
1858.14000062514
1858.1400006262
1858.14000062757
1858.14000062928
1858.14000063135
1858.14000063383
1858.14000063676
1858.14000064018
1858.14000064416
1858.14000064877
1858.14000065409
1858.14000066019
1858.14000066716
1858.14000067505
1858.14000068372
1858.14000069241
1858.14000069803
1858.14000068983
1858.14000064367
1858.14000055118
1858.14000050537
1858.14000051507
1858.14000055771
1858.14000064701
1858.14000069452
1858.14000070526
1858.14000070081
1858.14000069198
1858.14000068264
1858.14000067399
1858.14000066632
1858.14000065961
1858.14000065375
1858.14000064865
1858.14000064421
1858.14000064035
1858.14000063699
1858.14000063409
1858.14000063159
1858.14000062945
1858.14000062764
1858.14000062613
1858.1400006249
1858.14000062393
1858.14000062322
1858.14000062274
1858.1400006225
1858.1400006225
1858.14000062274
1858.14000062323
1858.14000062398
1858.14000062501
1858.14000062633
1858.14000062798
1858.14000062999
1858.14000063239
1858.14000063524