/*--------------------------------*- C++ -*----------------------------------*\
  =========                 |
  \\      /  F ield         | OpenFOAM: The Open Source CFD Toolbox
   \\    /   O peration     | Website:  https://openfoam.org
    \\  /    A nd           | Version:  10
     \\/     M anipulation  |
\*---------------------------------------------------------------------------*/
FoamFile
{
    format      ascii;
    class       volScalarField;
    location    "6.8";
    object      k;
}
// * * * * * * * * * * * * * * * * * * * * * * * * * * * * * * * * * * * * * //

dimensions      [0 2 -2 0 0 0 0];

internalField   nonuniform List<scalar> 
2500
(
8.92267447583396e-10
1.75163403726859e-08
7.47643684913314e-08
1.29348738625932e-07
1.75945813707759e-07
2.12881688600342e-07
2.40160646056437e-07
2.5896916413447e-07
2.7110212964658e-07
2.78442158568504e-07
2.82617035452904e-07
2.84855406465913e-07
2.85989612512816e-07
2.86534145819091e-07
2.8678244518937e-07
2.86890208615425e-07
2.86934797406468e-07
2.86952396645225e-07
2.8695901024991e-07
2.86961356762019e-07
2.86962122130754e-07
2.86962331904919e-07
2.86962360534027e-07
2.86962338381527e-07
2.86962309661728e-07
2.86962286950514e-07
2.86962266868165e-07
2.86962229209657e-07
2.86962112157876e-07
2.86961741557496e-07
2.86960642436673e-07
2.86957566356811e-07
2.86949363997215e-07
2.86928426189993e-07
2.86877190290497e-07
2.8675705231221e-07
2.86487499251308e-07
2.85909894169933e-07
2.84730438544843e-07
2.82440971137491e-07
2.78227183182223e-07
2.70893213901269e-07
2.58855008601118e-07
2.40269113781952e-07
2.13347487676954e-07
1.76845567104512e-07
1.30610922344792e-07
7.60593347851035e-08
1.80585334360927e-08
9.3685918329704e-10
2.19900997588207e-08
5.03207702475549e-07
2.19244717969131e-06
3.79588914011303e-06
5.16709946802511e-06
6.25718961188273e-06
7.06527200968158e-06
7.62489217723527e-06
7.98769455284132e-06
8.20838103692241e-06
8.3346410444572e-06
8.40275407447221e-06
8.437488827923e-06
8.45427459725372e-06
8.46197973070531e-06
8.46534639323369e-06
8.46674893971746e-06
8.46730641355851e-06
8.46751747849233e-06
8.46759303311591e-06
8.46761800571366e-06
8.46762505502686e-06
8.46762619501026e-06
8.46762563937793e-06
8.46762480766625e-06
8.46762412955371e-06
8.46762349187694e-06
8.4676222433326e-06
8.46761839786033e-06
8.46760637519006e-06
8.46757104489024e-06
8.46747289293528e-06
8.4672128730934e-06
8.46655322880123e-06
8.46494882045045e-06
8.46120946945762e-06
8.45286997121549e-06
8.43510681295879e-06
8.39905043525346e-06
8.32946948137135e-06
8.20213306134634e-06
7.98171742908974e-06
7.62178354722225e-06
7.06871901756719e-06
6.27101611756298e-06
5.19340129796055e-06
3.83248184008456e-06
2.22977577664541e-06
5.18447254762811e-07
2.30455019741325e-08
7.76504194737635e-08
2.24994770597377e-06
1.10890977545737e-05
1.91562505491801e-05
2.6009367140046e-05
3.14395891645725e-05
3.54595492630484e-05
3.82444018279067e-05
4.00529713484056e-05
4.11562382711015e-05
4.17897764299298e-05
4.2133019073274e-05
4.23088864027361e-05
4.23943033225587e-05
4.24337183415448e-05
4.24510339414737e-05
4.24582881549244e-05
4.24611884951115e-05
4.2462293672637e-05
4.24626923957523e-05
4.24628257458602e-05
4.24628643582274e-05
4.24628714141889e-05
4.24628692207686e-05
4.24628652879175e-05
4.24628619513374e-05
4.24628586327841e-05
4.24628519326039e-05
4.24628314900938e-05
4.24627682534909e-05
4.24625837432051e-05
4.24620738531159e-05
4.24607290800274e-05
4.24573315308408e-05
4.24491008153953e-05
4.24299934920644e-05
4.2387548327768e-05
4.2297494489407e-05
4.21154039465158e-05
4.17653131553611e-05
4.11268426876693e-05
4.00250131300498e-05
3.82300214912787e-05
3.54758757429697e-05
3.15043417192136e-05
2.61322518332771e-05
1.93270304051241e-05
1.12629627648594e-05
2.31179042187607e-06
8.07981887805017e-08
1.36848150953308e-07
3.99288195721192e-06
1.97339581544085e-05
3.39521910027652e-05
4.59490922111109e-05
5.54076284559921e-05
6.23853902389261e-05
6.7208901367326e-05
7.03381546350463e-05
7.22467051732865e-05
7.3343165830102e-05
7.39377647178047e-05
7.42428086017003e-05
7.43911940920523e-05
7.44597862213974e-05
7.44899787511632e-05
7.45026549079177e-05
7.4507735188198e-05
7.45096764399679e-05
7.45103793215788e-05
7.45106157233354e-05
7.45106849883142e-05
7.45106982792997e-05
7.45106950072654e-05
7.45106885313244e-05
7.45106828732506e-05
7.45106771602009e-05
7.45106656005253e-05
7.45106304545699e-05
7.45105218613637e-05
7.45102049309256e-05
7.4509328434291e-05
7.45070146374853e-05
7.45011633610335e-05
7.44869758867638e-05
7.44540143040221e-05
7.43807438592971e-05
7.42252018803682e-05
7.39105440671148e-05
7.33053182144538e-05
7.22010444021493e-05
7.02941977011275e-05
6.7184843004162e-05
6.24069297158865e-05
5.55013639950014e-05
4.61295032085788e-05
3.42033872732891e-05
1.99877306515732e-05
4.08139688298502e-06
1.41277272909676e-07
1.94583228052258e-07
5.68060996627346e-06
2.79972120688386e-05
4.79908731947563e-05
6.47653675150819e-05
7.79350719462747e-05
8.76225083969865e-05
9.43072296986021e-05
9.86401831947512e-05
0.000101282463088316
0.000102801028691207
0.000103625176696542
0.000104048447104781
0.000104254618456502
0.000104350070159873
0.000104392158970505
0.000104409864256418
0.000104416975846229
0.000104419700503662
0.000104420690534501
0.000104421025437274
0.000104421124774227
0.000104421144747824
0.000104421141040592
0.000104421132618712
0.000104421124979349
0.000104421117101719
0.000104421101110852
0.000104421052738254
0.000104420903595254
0.000104420468378521
0.000104419263962265
0.000104416081492413
0.000104408025182025
0.000104388471618349
0.00010434300102177
0.000104241840850792
0.000104026938832901
0.000103591925613833
0.000102754733432736
0.00010122636982289
9.85854952750698e-05
9.42754291811067e-05
8.76439374859912e-05
7.80410825613628e-05
6.49728655668604e-05
4.82807033440535e-05
2.82891338037802e-05
5.78278983313357e-06
1.99757464190752e-07
2.49299038154768e-07
7.27936221044511e-06
3.57591229791751e-05
6.10910385438463e-05
8.22400601564519e-05
9.87847102988882e-05
0.000110925194331833
0.000119290448441496
0.000124709065645497
0.000128013186072298
0.000129912882276885
0.000130944650881301
0.000131475096419833
0.000131733795417649
0.000131853739706935
0.000131906715194358
0.000131929041403077
0.000131938028174606
0.000131941480219401
0.000131942739036718
0.00013194316742682
0.000131943296195609
0.000131943323345555
0.000131943319843227
0.000131943310079775
0.000131943300811127
0.000131943290973596
0.000131943270889038
0.000131943210543709
0.000131943025149951
0.000131942484641131
0.00013194098846918
0.000131937032262568
0.000131927008508225
0.000131902658022927
0.000131845984824197
0.000131719806177882
0.000131451577578775
0.000130908306139806
0.000129862234310068
0.000127951598567489
0.00012464835255967
0.000119253296689689
0.000110943601544647
9.88916325271629e-05
8.24531031765587e-05
6.13899182650263e-05
3.60606740131075e-05
7.38669470983929e-06
2.54862624160137e-07
3.00105586988559e-07
8.76500837527596e-06
4.292649506931e-05
7.31177241505382e-05
9.82166391738879e-05
0.000117791452093749
0.000132126479299888
0.000141992271963252
0.000148379672899058
0.000152274616918377
0.000154514950952062
0.00015573261648866
0.000156359244567733
0.000156665212638565
0.000156807266614853
0.000156870104387255
0.000156896633531653
0.000156907333897504
0.000156911454594838
0.000156912962600843
0.000156913478943313
0.000156913636339858
0.000156913671159693
0.000156913668535447
0.000156913657944989
0.00015691364738894
0.000156913635777251
0.00015691361187906
0.000156913540664767
0.000156913322954446
0.000156912689280117
0.000156910935491112
0.000156906295898777
0.000156894532309566
0.000156865933291075
0.000156799322661104
0.000156650918981272
0.000156335258171529
0.000155695591610425
0.000154463361278564
0.000152211760864291
0.000148317229878598
0.000141952636145076
0.000132141119287817
0.000117892601148595
9.84213158950851e-05
7.34060708124045e-05
4.32188274090035e-05
8.87183210591717e-06
3.05811218257935e-07
3.46407866312426e-07
1.01205840983348e-05
4.94338359447557e-05
8.39821069441946e-05
0.000112598430775798
0.000134859241367009
0.000151134156684915
0.000162324589151745
0.000169567024175326
0.000173983762596913
0.000176525338885422
0.000177907711953099
0.00017861975858417
0.000178967820649816
0.000179129625020966
0.000179201303609183
0.000179231615430312
0.000179243865320822
0.000179248594290185
0.000179250330966571
0.000179250929241032
0.000179251114202971
0.000179251157095893
0.00017925115599144
0.000179251145060023
0.000179251133535306
0.000179251120319409
0.000179251092853205
0.000179251011767106
0.000179250765370179
0.000179250049848664
0.000179248070545243
0.000179242833019977
0.000179229545929274
0.000179197221904038
0.000179121886475581
0.000178953944786184
0.000178596539638429
0.000177871957941955
0.000176475613916784
0.000173923231401385
0.000169506772857
0.000162285728102599
0.000151146135829875
0.000134951946720532
0.000112787332860193
8.42486602234021e-05
4.97057274757347e-05
1.02233335425796e-05
3.52086884131868e-07
3.87846485297399e-07
1.13356067236242e-05
5.52436065980831e-05
9.36403773734723e-05
0.000125345920193273
0.000149957124009485
0.000167926034086831
0.000180272237096313
0.000188260800579376
0.000193133274059341
0.000195938344253201
0.000197465068562074
0.000198252154768009
0.000198637297685965
0.000198816554326494
0.000198896072306623
0.000198929751675994
0.000198943387549381
0.00019894866389258
0.00019895060816928
0.000198951281961139
0.000198951493145281
0.000198951544356775
0.000198951545335271
0.000198951534506364
0.000198951522300107
0.000198951507638187
0.000198951476835577
0.000198951386803102
0.000198951115085454
0.000198950328243109
0.000198948153391039
0.000198942397997444
0.000198927790846536
0.000198892235877215
0.00019880932377312
0.000198624395642361
0.000198230661316641
0.000197432118811099
0.000195892738880125
0.000193078068365061
0.000188206266656992
0.000180237634823819
0.000167937887929826
0.000150041933300093
0.000125516898172944
9.38805674102234e-05
5.54898692568815e-05
1.1432351986807e-05
3.93393140281393e-07
4.24275609481018e-07
1.24056453525501e-05
6.03448917554781e-05
0.000102090506626926
0.000136471774847892
0.000163113008226032
0.000182542889291858
0.000195885483885394
0.000204517563390641
0.000209783521819619
0.000212816460262452
0.000214468273935338
0.000215320544085002
0.000215737986841263
0.000215932492819801
0.000216018884537556
0.000216055528365611
0.000216070390079311
0.00021607615349606
0.000216078284145232
0.000216079026759992
0.000216079262561792
0.000216079322155027
0.000216079325669628
0.000216079315314844
0.000216079302677886
0.000216079286721427
0.000216079252816334
0.00021607915471798
0.000216078860810038
0.000216078012383232
0.000216075669700817
0.000216069470642622
0.000216053732476431
0.000216015406946763
0.000215925990908809
0.000215726466235108
0.000215301485700986
0.000214439283653515
0.000212776720301647
0.000209736070175116
0.000204471823395874
0.000195858636045078
0.000182558093545855
0.000163192808253451
0.000136626619859081
0.00010230482857333
6.05649354739604e-05
1.24957298628246e-05
4.29635021159854e-07
4.55740147374005e-07
1.33317272121248e-05
6.47506093314306e-05
0.000109367076407728
0.000146033765325084
0.000174405267410772
0.000195079242672453
0.000209270307328553
0.000218450750512874
0.000224052435947203
0.000227280131158957
0.000229039084618244
0.000229947323295332
0.000230392577108393
0.000230600254236106
0.0002306926036692
0.000230731827102519
0.000230747760547025
0.0002307539523936
0.000230756248427078
0.000230757053022139
0.000230757311613976
0.000230757379474215
0.000230757385859061
0.000230757376252857
0.000230757363397099
0.000230757346294917
0.000230757309533843
0.000230757204221507
0.000230756891034572
0.000230755989963412
0.000230753504820837
0.000230746930039174
0.000230730234246403
0.000230689561335744
0.000230594629614492
0.000230382714607863
0.000229931188611551
0.000229014868055783
0.000227247531545102
0.000224014608369721
0.000218416368353979
0.000209254495328886
0.000195101713096436
0.000174484403013803
0.00014617691383929
0.000109559535768074
6.49471109057561e-05
1.34154395426654e-05
4.60897084867589e-07
4.82445933401424e-07
1.41195170955785e-05
6.84936219895386e-05
0.000115534695584154
0.000154126167079957
0.000183952778833177
0.000205672532792674
0.000220577047908993
0.000230219023483593
0.000236103679577946
0.000239495830728225
0.000241345454610899
0.000242301178368288
0.00024277009478301
0.000242989013717913
0.000243086466011306
0.000243127907702021
0.000243144767098588
0.000243151331344626
0.000243153772395167
0.000243154632124936
0.000243154911503576
0.000243154987383898
0.00024315499687244
0.000243154988144581
0.000243154975241524
0.000243154957141818
0.000243154917788236
0.000243154806092252
0.00024315447632477
0.000243153530743478
0.0002431509260873
0.000243144036970175
0.000243126540365695
0.000243083903447645
0.000242984352989637
0.000242762053527418
0.00024228826247349
0.000241326522154564
0.000239471214093807
0.000236076803498064
0.000230197994622406
0.000220575131831974
0.00020570616403164
0.000184036241967911
0.000154263516094748
0.000115711397849492
6.86713186369602e-05
1.41977856748852e-05
4.8741392224642e-07
5.04724330146872e-07
1.47783271605206e-05
7.16221882604751e-05
0.000120680629510555
0.000160870357308192
0.000191904155412335
0.000214491475209864
0.000229988229477098
0.000240013767021245
0.000246133963116944
0.000249663273487622
0.000251588691684637
0.000252584212885988
0.000253073018348202
0.000253301416478123
0.000253403186766987
0.000253446513028049
0.000253464162801842
0.000253471046842656
0.000253473613505802
0.000253474521663712
0.000253474819694464
0.000253474903096376
0.0002534749157281
0.000253474908126956
0.000253474895317892
0.000253474876369067
0.000253474834702556
0.000253474717430657
0.000253474373567286
0.000253473390797626
0.000253470687113583
0.000253463538348131
0.000253445380673631
0.000253401121814833
0.0002532977541528
0.000253066865402458
0.000252574645025054
0.000251575288187459
0.000249647092511348
0.000246118848991114
0.000240007484367231
0.000230002484491734
0.000214539757803662
0.000191996899923498
0.000161008256872621
0.000120848576519987
7.17868349831795e-05
1.48524459590786e-05
5.09535447359068e-07
5.22994473057516e-07
1.53200511355546e-05
7.41951922282245e-05
0.00012490726562329
0.000166405330832945
0.000198426954047911
0.000221724426599755
0.000237706395568978
0.000248046605699308
0.000254360373993811
0.000258002639366773
0.000259990625513498
0.000261019087124634
0.000261524403336042
0.000261760696037058
0.000261866075336575
0.000261910983066602
0.000261929299233948
0.000261936454525524
0.000261939128644528
0.000261940078795478
0.000261940393346453
0.000261940483674162
0.000261940499402064
0.000261940493024795
0.000261940480418278
0.000261940460766962
0.00026194041707787
0.000261940295008309
0.000261939939315105
0.000261938925867511
0.000261936141191827
0.000261928780777395
0.000261910084659154
0.000261864504305887
0.000261758024343945
0.000261520127070166
0.000261012858753494
0.000259982770429953
0.000257995004730119
0.00025435735500964
0.000248055856223242
0.000237738407929569
0.000221790167703724
0.000198533371884837
0.000166549796973561
0.000125073401770976
7.43527185757329e-05
1.5391448492112e-05
5.27690394245618e-07
5.37726493536683e-07
1.57581181766634e-05
7.62775446994805e-05
0.000128324969340923
0.00017087878323178
0.000203697569361007
0.000227568504541967
0.0002439427400137
0.000254537734952117
0.000261008530629071
0.000264742627196929
0.000266781606594601
0.000267836988683643
0.000268355838973194
0.000268598624282821
0.000268706982424995
0.000268753200774464
0.000268772071823127
0.000268779454326381
0.000268782219212641
0.000268783205303941
0.000268783534319547
0.000268783630921906
0.000268783649561318
0.000268783644426362
0.000268783632105139
0.000268783611894749
0.000268783566477459
0.000268783440350334
0.00026878307487004
0.000268782036457803
0.000268779186441055
0.000268771655867406
0.000268752527230351
0.000268705885068886
0.000268596902719301
0.000268353366159185
0.00026783398162597
0.000266779135767111
0.000264743361444611
0.000261017517911542
0.000254562730539883
0.000243993369463843
0.000227653663422896
0.000203821143547144
0.000171034949441657
0.000128495496836123
7.64334313055141e-05
1.58281780672704e-05
5.42351262056689e-07
5.49408465034837e-07
1.61065451282301e-05
7.79360649265536e-05
0.000131045761435945
0.000174439266480064
0.000207892367808585
0.000232220052882146
0.000248907145981535
0.000259705696582683
0.000266302200750418
0.000270109982984162
0.000272189985159826
0.000273267085555537
0.000273796888342729
0.0002740449454823
0.00027415573125639
0.000274203022080186
0.000274222349347365
0.000274229919775475
0.000274232760356288
0.000274233776801466
0.00027423411829824
0.000274234220460451
0.000274234241781127
0.000274234237880875
0.000274234225906898
0.000274234205275121
0.000274234158420212
0.00027423402892751
0.000274233655477379
0.000274232597044741
0.000274229695067068
0.000274222029645702
0.000274202558545008
0.000274155075431654
0.000274044109845052
0.00027379610055659
0.000273267099616749
0.000272192593313123
0.000270118679011402
0.000266322752472508
0.000259746137254126
0.00024897655236687
0.000232325688356961
0.000208035498079544
0.00017461106811605
0.000131225719213914
7.80949402841636e-05
1.61764844744907e-05
5.54003230837874e-07
5.58518945066179e-07
1.6379141913831e-05
7.92360518317821e-05
0.000133178103266625
0.000177229751224163
0.00021118042944048
0.000235866844032743
0.000252800041952871
0.000263759018779804
0.000270454811373214
0.000274320934643934
0.000276433504216659
0.000277527897090156
0.000278066448187641
0.000278318730697222
0.000278431469504918
0.000278479626719073
0.000278499324306459
0.000278507048184465
0.000278509951078849
0.000278510992819864
0.000278511344922211
0.000278511451929197
0.000278511475682576
0.000278511472971216
0.000278511461386408
0.000278511440462079
0.000278511392448031
0.000278511260224706
0.000278510880397991
0.00027850980616352
0.0002785068634954
0.000278499092821335
0.000278479354625405
0.000278431215412061
0.000278318701381808
0.000278067197103507
0.000277530676370145
0.000276440786823591
0.000274337016541264
0.000270486212034526
0.00026381418228094
0.000252887766689986
0.000235993159783012
0.000211344410601022
0.00017741981726313
0.000133371182497996
7.94014907454707e-05
1.64499415253182e-05
5.63118676773419e-07
5.65506033217646e-07
1.65888982253052e-05
8.02386476796238e-05
0.000134822923737081
0.000179382748125519
0.000213718063699206
0.000238682195796986
0.00025580626078195
0.000266889912952918
0.000273663046821043
0.000277574732094524
0.000279712807088838
0.000280820784041136
0.000281366229975464
0.000281621854442836
0.000281736143887145
0.00028178499189666
0.000281804986185119
0.000281812833743062
0.000281815787270404
0.000281816849814924
0.000281817210805554
0.000281817321976993
0.000281817347895477
0.00028181734629678
0.000281817335126581
0.000281817314027598
0.000281817265114272
0.000281817130731819
0.000281816745905183
0.000281815659418386
0.000281812685418995
0.000281804833933535
0.000281784890773908
0.000281736247814949
0.000281622543835769
0.000281368351174309
0.000280826041176329
0.000279724300107832
0.000277597515542758
0.000273704391650949
0.000266958762051968
0.000255911349018496
0.00023882866178412
0.000213903185737339
0.000179592460756998
0.000135031477286278
8.04131381889368e-05
1.66612800823527e-05
5.70137998951418e-07
5.70773013064792e-07
1.67475556600591e-05
8.09990029465274e-05
0.00013607088627186
0.000181016978013775
0.000215645084532995
0.00024082098658002
0.000258090885930609
0.000269270012264457
0.000276102520520172
0.00028004927913531
0.000282207046370135
0.000283325544919005
0.000283876349632259
0.000284134581099285
0.000284250084976806
0.00028429947636801
0.000284319705204786
0.000284327651129353
0.000284330645257015
0.000284331724685829
0.00028433209302787
0.000284332207730203
0.000284332235544269
0.00028433223496778
0.000284332224226032
0.000284332203057578
0.000284332153481039
0.000284332017443781
0.000284331628789614
0.000284330532998806
0.000284327535339912
0.000284319622961174
0.000284299525359853
0.000284250502469206
0.000284135899899646
0.000283879674585754
0.000283332982543576
0.000282222262396932
0.000280078028462758
0.000276152799543177
0.000269351309977664
0.000258212032989784
0.000240986510963661
0.00021585081786955
0.0001812466531393
0.00013629608080692
8.11840399983191e-05
1.68219961876905e-05
5.75456687844561e-07
5.74669964990432e-07
1.68653498872606e-05
8.15651731879605e-05
0.000137000781239006
0.000182235444169218
0.00021708267725714
0.000242417388649898
0.000259796897129919
0.000271047960050932
0.000277925326662594
0.000281898662201705
0.000284071398948598
0.000285197923145464
0.00028575283039568
0.00028601306552292
0.000286129506701134
0.000286179319402029
0.000286199731043844
0.000286207754120629
0.000286210780362985
0.000286211873314392
0.00028621224765777
0.000286212365314985
0.000286212394770208
0.000286212395125315
0.000286212384818091
0.000286212363671804
0.000286212313641108
0.000286212176385829
0.000286211784889808
0.000286210682217933
0.000286207667124123
0.00028619970991363
0.000286179498500799
0.000286130195142345
0.000286014927946365
0.000285757196460955
0.000285207252123096
0.000284089858693372
0.000281932641695446
0.000277983503520639
0.000271140383570578
0.000259932603234942
0.00024260051473608
0.000217307906268941
0.000182484585227235
0.000137242839483261
8.17614351805305e-05
1.69421177471341e-05
5.7941795953672e-07
5.77490292431681e-07
1.695089435877e-05
8.19776261042855e-05
0.000137678852448333
0.000183124666202465
0.000218132583501257
0.000243584024349368
0.000261044307061116
0.000272348531827032
0.000279259150973644
0.000283252252852759
0.000285436162756507
0.00028656870009647
0.000287126693621883
0.000287388442588833
0.000287505595208195
0.000287555729306313
0.000287576281194741
0.000287584363869923
0.000287587415148739
0.000287588518784622
0.000287588897966652
0.000287589018070314
0.000287589048936581
0.000287589050135739
0.00028758904026258
0.000287589019215682
0.000287588968910797
0.00028758883080898
0.000287588437290791
0.000287587329715811
0.000287584302209839
0.000287576313047011
0.000287556020295977
0.000287506515820559
0.000287390770439174
0.000287131951983102
0.000286579654285806
0.000285457421152055
0.000283290770580488
0.000279324232644157
0.000272450777470456
0.000261193026521134
0.000243783130054393
0.000218375855257097
0.000183392248211909
0.000137937337525426
8.21851935804717e-05
1.70301018170255e-05
5.82309902815795e-07
5.7947087457977e-07
1.70111699436707e-05
8.22692067528403e-05
0.000138158821674499
0.000183754779780476
0.000218877267473243
0.000244412181290672
0.000261930407763473
0.000273272899025261
0.00028020754261298
0.000284214982653498
0.000286407032154497
0.000287543970079547
0.000288104233193933
0.000288367101138857
0.000288484782511853
0.000288535156893895
0.000288555814334062
0.000288563942226013
0.000288567012704784
0.00028856812466388
0.00028856850770407
0.000288568629818665
0.000288568661893337
0.000288568663854334
0.000288568654409517
0.000288568633524697
0.000288568583096642
0.000288568444458905
0.00028856804959635
0.000288566938733465
0.000288563902879622
0.000288555892123307
0.000288535544046974
0.000288485901834543
0.000288369826848633
0.000288110254872745
0.000287556317714515
0.000286430698938723
0.00028425742595264
0.000280278637630539
0.000273383772826273
0.000262090682266316
0.000244625663554288
0.00021913702923665
0.000184039528572759
0.000138432924043136
8.24877892086867e-05
1.70928284927654e-05
5.84365901227122e-07
5.80794528074482e-07
1.70515834366182e-05
8.24654019309603e-05
0.000138482364694589
0.000184180192837398
0.000219380710376074
0.000244972703875326
0.000262530725026671
0.000273899620923563
0.000280850926705482
0.000284868366059515
0.000287066125483718
0.00028820616973646
0.000288768045523718
0.000289031714100449
0.000289149776579186
0.000289200325516281
0.000289221060311778
0.00028922922169367
0.000289232306594144
0.0002892334249332
0.000289233811018856
0.000289233934779829
0.000289233967889652
0.000289233970538014
0.000289233961510804
0.000289233940836369
0.000289233890407526
0.000289233751489951
0.00028923335584386
0.000289232243027053
0.000289229202166649
0.000289221178289835
0.000289200796062944
0.000289151067481788
0.00028903478284851
0.000288774725642522
0.000288219721669081
0.000287091880466759
0.000284914228567799
0.000280927290811469
0.000274018111738955
0.000262701294286767
0.000245199135838468
0.000219655516849922
0.000184480833690103
0.000138771162112389
8.26945469447458e-05
1.71356564859917e-05
5.85767085529513e-07
5.81593564157365e-07
1.70760603461857e-05
8.25847535846868e-05
0.000138679805532346
0.000184440504746687
0.000219689497009106
0.000245317196255186
0.000262900296976956
0.000274285969149401
0.000281247954841549
0.0002852718646708
0.000287473356005122
0.000288615451997062
0.000289178404745658
0.000289442614133483
0.000289560937115534
0.000289611606874949
0.00028963239595783
0.000289640581230123
0.000289643676640068
0.000289644799768765
0.000289645188235043
0.000289645313343692
0.000289645347347518
0.000289645350619835
0.000289645341993641
0.000289645321563964
0.000289645271230008
0.000289645132241503
0.00028964473628186
0.000289643622643698
0.000289640579620588
0.000289632549812305
0.000289612151305287
0.000289562379450069
0.000289445985219742
0.00028918566533775
0.000288630067239931
0.000287500959574284
0.000285320765404005
0.000281329024155059
0.000274411303169512
0.000263080183292999
0.000245555450061877
0.000219978175363816
0.000184755963559856
0.00013898247623667
8.28240205258464e-05
1.71625079063587e-05
5.8664567696277e-07
5.81953427030993e-07
1.70871428112556e-05
8.26392932837736e-05
0.000138770829195407
0.000184561432545632
0.000219833898495366
0.000245479214590432
0.000263074938435492
0.000274469236575156
0.000281436839790486
0.000285464236253656
0.000287667788264815
0.000288811046087047
0.000289374624478563
0.000289639156245959
0.000289757638629283
0.000289808384358371
0.00028982920861067
0.000289837409922509
0.000289840512724312
0.000289841639437896
0.000289842029825207
0.000289842156101176
0.000289842190934007
0.000289842194803201
0.000289842186551213
0.000289842166371046
0.0002898421161683
0.000289841977224614
0.000289841581282704
0.000289840467736496
0.000289837424994722
0.000289829395589989
0.000289808996651448
0.000289759219675026
0.000289642803980389
0.00028938241627293
0.000288826635345617
0.00028769708817684
0.000285515932172893
0.000281522253308534
0.000274600914942021
0.000263263506185824
0.000245728549263065
0.000220135667757035
0.000184890981623165
0.000139086806120272
8.28883804787852e-05
1.71759548148309e-05
5.87088272086246e-07
5.81915506995799e-07
1.70860658282261e-05
8.26348881030026e-05
0.000138765054127761
0.000184555561375846
0.000219828750384537
0.000245475229479132
0.000263072255709855
0.000274467782764301
0.000281436417577499
0.000285464602371515
0.000287668709349864
0.000288812330447177
0.000289376131247615
0.000289640791206341
0.000289759343641645
0.000289810125999199
0.000289830968829505
0.000289839179483164
0.000289842287098913
0.000289843416460995
0.000289843808454507
0.000289843935798629
0.000289843971425402
0.000289843975869985
0.000289843967997466
0.000289843948048916
0.000289843897970085
0.000289843759123482
0.000289843363447604
0.000289842250800961
0.000289839210639105
0.000289831187720099
0.000289810803622673
0.000289761058162991
0.000289644705102967
0.000289384434161861
0.000288828857237967
0.000287699643073884
0.000285518992553484
0.000281526022480031
0.000274605593181222
0.00026326923314606
0.000245735327239562
0.000220143276465882
0.000184898895343634
0.000139094116708079
8.28937169077529e-05
1.7177286305956e-05
5.87138352543849e-07
5.81479009318862e-07
1.70728097532978e-05
8.25714640092684e-05
0.000138662370930529
0.000184422766989726
0.000219673934477735
0.000245305147550181
0.000262892193692347
0.00027428159660207
0.00028124671946857
0.00028527302984648
0.000287476213593426
0.000288619418152908
0.000289183050025086
0.000289447650996444
0.000289566187985533
0.000289616969610224
0.000289637815380345
0.000289646029106171
0.000289649139133935
0.00028965027027084
0.000289650663571272
0.000289650791884817
0.000289650828261349
0.000289650833264222
0.000289650825756074
0.000289650806019316
0.000289650756061381
0.000289650617379719
0.000289650222257207
0.000289649111408724
0.000289646076332227
0.000289638066439245
0.000289617713431402
0.000289568038109885
0.00028945183559748
0.000289191872906776
0.000288636898437641
0.000287508807906879
0.000285330156061109
0.000281340574500833
0.000274425618455099
0.000263097680480848
0.000245576124676415
0.000220001344787201
0.00018478002027883
0.000139004660653087
8.28401842893952e-05
1.71665369542225e-05
5.86797174357738e-07
5.80601487095102e-07
1.70461134371834e-05
8.24430416469801e-05
0.000138452975912734
0.000184150239905466
0.00021935439383521
0.000244952319716768
0.000262517039187971
0.000273892296198019
0.000280848969732063
0.000284870528131418
0.000287071198192634
0.000288213152343504
0.000288776199735616
0.000289040544487388
0.000289158976684211
0.00028920971886698
0.000289230551508423
0.00028923876190709
0.000289241871900501
0.000289243003914113
0.00028924339820267
0.000289243527372986
0.00028924356444688
0.000289243569975709
0.000289243562808842
0.000289243543267724
0.000289243493442776
0.000289243355029409
0.000289242960826177
0.000289241852855169
0.000289238825794577
0.000289230836469979
0.000289210533120926
0.000289160971775955
0.000289045019033066
0.000288785579617133
0.000288231652993738
0.000287105566228049
0.000284930569240009
0.000280947339147054
0.000274042889947169
0.000262731489284465
0.000245234701315461
0.000219695242744574
0.000184521942103287
0.000138808943800679
8.27219852513218e-05
1.71424868687599e-05
5.86024112605035e-07
5.79197162194942e-07
1.70034293761874e-05
8.2237563551356e-05