/*--------------------------------*- C++ -*----------------------------------*\
  =========                 |
  \\      /  F ield         | OpenFOAM: The Open Source CFD Toolbox
   \\    /   O peration     | Website:  https://openfoam.org
    \\  /    A nd           | Version:  10
     \\/     M anipulation  |
\*---------------------------------------------------------------------------*/
FoamFile
{
    format      ascii;
    class       volScalarField;
    location    "6.8";
    object      nut;
}
// * * * * * * * * * * * * * * * * * * * * * * * * * * * * * * * * * * * * * //

dimensions      [0 2 -1 0 0 0 0];

internalField   nonuniform List<scalar> 
2500
(
6.97266611362082e-15
1.3687114864329e-13
5.84217354861114e-13
1.01076509906098e-12
1.37490297830918e-12
1.66354421989317e-12
1.87672015939478e-12
2.02370225066969e-12
2.11851698549922e-12
2.17587650545081e-12
2.20850150292578e-12
2.22599344369052e-12
2.23485677819457e-12
2.23911207176907e-12
2.24105242623135e-12
2.24189455649854e-12
2.24224300150599e-12
2.24238053692211e-12
2.24243222551785e-12
2.2424505667577e-12
2.24245655147211e-12
2.24245819392682e-12
2.24245842023653e-12
2.24245824866343e-12
2.24245802586403e-12
2.24245784971223e-12
2.24245769318581e-12
2.24245739896753e-12
2.24245648384338e-12
2.24245358682341e-12
2.24244499617452e-12
2.24242095524168e-12
2.242356854696e-12
2.24219323199785e-12
2.24179284324166e-12
2.24085401558346e-12
2.23874757513361e-12
2.23423384301323e-12
2.22501689631215e-12
2.20712565358976e-12
2.17419657498135e-12
2.11688438591588e-12
2.02281014420139e-12
1.87756774383171e-12
1.66718416467543e-12
1.38193403335156e-12
1.02062820401528e-12
5.94336351756346e-13
1.41107766541433e-13
7.32113235788057e-15
6.89599526061936e-13
3.55091520758596e-11
1.54728794531452e-10
2.67911083954244e-10
3.64708638002467e-10
4.41663641558187e-10
4.98710788896332e-10
5.3821747540014e-10
5.63829510637824e-10
5.79408724821719e-10
5.88321879205124e-10
5.93130182957762e-10
5.95582194141008e-10
5.967671350911e-10
5.97311053281997e-10
5.97548711148055e-10
5.97647718923381e-10
5.97687072252254e-10
5.97701972414192e-10
5.97707306625323e-10
5.97709070139961e-10
5.97709568379799e-10
5.97709649380232e-10
5.97709610521836e-10
5.97709552136516e-10
5.97709504537433e-10
5.97709459657631e-10
5.97709371593912e-10
5.97709100153391e-10
5.97708251395026e-10
5.97705757244253e-10
5.97698828313645e-10
5.97680472874231e-10
5.9763390750566e-10
5.97520650213896e-10
5.97256684171853e-10
5.96667984973198e-10
5.9541404702935e-10
5.9286873532049e-10
5.87956799564341e-10
5.78967645212427e-10
5.63407530936313e-10
5.37997967592927e-10
4.98954038584693e-10
4.42639574263164e-10
3.66565145310499e-10
2.70493812517695e-10
1.57363148184233e-10
3.65844883745814e-11
7.22697395119314e-13
2.44244875178675e-12
6.37041217808649e-10
2.18071376088496e-07
3.7675707154755e-07
5.11576749065742e-07
6.1840882534294e-07
6.97496857854085e-07
7.52285387623842e-07
7.87866382243604e-07
8.09571282170507e-07
8.22034902071253e-07
8.28787443742945e-07
8.32247207321535e-07
8.33927562635151e-07
8.34702944564677e-07
8.35043579422817e-07
8.35186284684615e-07
8.35243340461218e-07
8.35265082027639e-07
8.35272926242583e-07
8.35275550067595e-07
8.35276310227009e-07
8.35276449552139e-07
8.35276406779457e-07
8.35276329724284e-07
8.35276264348906e-07
8.35276199223499e-07
8.3527606753397e-07
8.35275665486689e-07
8.35274421560577e-07
8.35270791902785e-07
8.35260761302798e-07
8.35234306747175e-07
8.35167469970427e-07
8.35005555018955e-07
8.34629673352618e-07
8.33794681185012e-07
8.32023104595792e-07
8.28440909028214e-07
8.21553634694544e-07
8.08992961851558e-07
7.87316306062147e-07
7.5200238555697e-07
6.97817898698951e-07
6.1968246865318e-07
5.13993819371745e-07
3.80115899822749e-07
2.21490277643758e-07
6.54549110582394e-10
2.54145741445484e-12
4.31612634200334e-12
1.13362517760626e-09
3.89141594168438e-07
6.69591414620574e-07
9.0625071085384e-07
1.09284331220716e-06
1.23049746923951e-06
1.32565287624284e-06
1.38738420286429e-06
1.4250339986987e-06
1.44666348818222e-06
1.45839278864508e-06
1.4644101460751e-06
1.46733720250609e-06
1.46869024292905e-06
1.46928581378046e-06
1.46953585945823e-06
1.46963607121004e-06
1.46967436387224e-06
1.46968822902944e-06
1.46969289269681e-06
1.46969425958608e-06
1.46969452234285e-06
1.46969445823268e-06
1.46969433082475e-06
1.46969421950066e-06
1.46969410700216e-06
1.46969387915959e-06
1.46969318608587e-06
1.46969104420694e-06
1.46968479283521e-06
1.46966750369307e-06
1.46962186250754e-06
1.46950644220228e-06
1.46922658485194e-06
1.468576392613e-06
1.46713106803353e-06
1.46406284067925e-06
1.45785583137955e-06
1.44591688679132e-06
1.42413324487931e-06
1.38651701411555e-06
1.32517815457922e-06
1.23092215752849e-06
1.09469205203981e-06
9.09808931172075e-07
6.74545195188808e-07
3.94145164020363e-07
1.15875022216361e-09
4.45579652725482e-12
6.15034810625716e-12
1.61627150798685e-09
5.532678226318e-07
9.48462476732354e-07
1.28005393287e-06
1.54039388801135e-06
1.73189625390609e-06
1.86403952444399e-06
1.94969219792152e-06
2.00192348254607e-06
2.03194141695865e-06
2.04823244058503e-06
2.05659920555012e-06
2.06067455674507e-06
2.06256132232993e-06
2.06339327540726e-06
2.06374324733889e-06
2.06388381829339e-06
2.06393767512176e-06
2.0639572446336e-06
2.06396386473003e-06
2.06396582868178e-06
2.06396622395569e-06
2.06396615102915e-06
2.06396598480645e-06
2.06396583401907e-06
2.06396567847436e-06
2.06396536257838e-06
2.06396440667044e-06
2.06396145890963e-06
2.06395285664334e-06
2.06392905021683e-06
2.06386614404625e-06
2.06370689884179e-06
2.06332039296494e-06
2.06242159397126e-06
2.06042199132554e-06
2.05617406254548e-06
2.04757517571121e-06
2.03102629914864e-06
2.00081466624418e-06
1.94861112295857e-06
1.86341081191753e-06
1.73231966502301e-06
1.54248910442802e-06
1.28415491007899e-06
9.54190033034875e-07
5.59035517676634e-07
1.64533528306414e-09
6.31384280841058e-12
7.89217249041969e-12
2.07434122682569e-09
7.07717658657107e-07
1.20915176641489e-06
1.62781048104164e-06
1.95532738709287e-06
2.19565923743538e-06
2.3612557844313e-06
2.46852049328367e-06
2.53392695137986e-06
2.57153195955983e-06
2.59195597201532e-06
2.60245616347778e-06
2.60757709782807e-06
2.60995138032028e-06
2.61100002009462e-06
2.61144196174006e-06
2.61161985206125e-06
2.61168818403845e-06
2.61171310183108e-06
2.6117215817008e-06
2.6117241308252e-06
2.61172466854311e-06
2.61172459944229e-06
2.61172440631388e-06
2.61172422296791e-06
2.61172402835265e-06
2.61172363094045e-06
2.61172243665465e-06
2.61171876712342e-06
2.61170806835692e-06
2.61167845281425e-06
2.61160014103024e-06
2.61140172343441e-06
2.61091971184288e-06
2.60979787721227e-06
2.60730018750652e-06
2.60199061661102e-06
2.59123653698226e-06
2.57052938899011e-06
2.53270782183667e-06
2.46731865091728e-06
2.36052030610126e-06
2.19602350489732e-06
1.95744371768648e-06
1.63202717355276e-06
1.2150667833756e-06
7.13684381495066e-07
2.10491599352021e-09
8.06822612609069e-12
9.51050839234548e-12
2.50019933191688e-09
8.50391146299451e-07
1.44855816939675e-06
1.94585001235869e-06
2.33369404350731e-06
2.61771920750951e-06
2.81319269727537e-06
2.93974717439184e-06
3.01691783749954e-06
3.06130544992487e-06
3.085430895395e-06
3.09784615423067e-06
3.10390822317115e-06
3.10672269670331e-06
3.10796768037805e-06
3.10849329228016e-06
3.10870529407056e-06
3.10878693547152e-06
3.10881681278643e-06
3.10882704274812e-06
3.1088301611794e-06
3.10883085119035e-06
3.10883079931196e-06
3.10883058953256e-06
3.10883038044154e-06
3.1088301504506e-06
3.10882967707539e-06
3.10882826631802e-06
3.10882395315738e-06
3.10881139881709e-06
3.10877665236448e-06
3.10868473022273e-06
3.10845166281492e-06
3.10788504137768e-06
3.1065653079216e-06
3.10362503080041e-06
3.09737092408674e-06
3.08469733909683e-06
3.06028332592968e-06
3.01567249320275e-06
2.9385100055531e-06
2.81240738833589e-06
2.61800923105273e-06
2.33569799315995e-06
1.94990490832264e-06
1.45427014793379e-06
8.5618109261664e-07
2.53065975643859e-09
9.69123927488858e-12
1.09849141920333e-11
2.8886186367437e-09
9.79867645374101e-07
1.66472298820977e-06
2.23199923974785e-06
2.67328817748448e-06
2.99591445702144e-06
3.21774751635417e-06
3.36131710334839e-06
3.44887154264391e-06
3.49925390339977e-06
3.5266570035868e-06
3.54077204337378e-06
3.54767173579969e-06
3.55087920684812e-06
3.55230010002883e-06
3.55290097410154e-06
3.55314380442723e-06
3.55323754683591e-06
3.55327197288213e-06
3.5532838324188e-06
3.5532874988889e-06
3.55328834919065e-06
3.55328832733668e-06
3.55328811063002e-06
3.55328788218293e-06
3.55328762023541e-06
3.55328707583912e-06
3.55328546858918e-06
3.55328058442749e-06
3.55326640088421e-06
3.5532271654798e-06
3.55312334183855e-06
3.55285995075367e-06
3.55221918863351e-06
3.55072580588372e-06
3.54739667486405e-06
3.54031177475914e-06
3.52594825266516e-06
3.49826820650576e-06
3.44767163401912e-06
3.36012274279096e-06
3.21697717700224e-06
2.99615192752186e-06
2.67512587191681e-06
2.23574371871516e-06
1.67000630281577e-06
9.85256018454485e-07
2.91793634490525e-09
1.11649246240027e-11
1.23035079809294e-11
3.23650677498975e-09
1.09537645370334e-06
1.85674097049205e-06
2.48543216847808e-06
2.97344977129743e-06
3.32975615805273e-06
3.57456907325399e-06
3.73297401761364e-06
3.82958996194494e-06
3.88521143237892e-06
3.91548467067941e-06
3.9310916974352e-06
3.9387286390703e-06
3.9422830900703e-06
3.94385983830035e-06
3.94452766020074e-06
3.94479804307583e-06
3.94490266639844e-06
3.94494121892007e-06
3.94495457931807e-06
3.94495876679636e-06
3.94495978225016e-06
3.94495980164898e-06
3.94495958690313e-06
3.94495934486328e-06
3.94495905414812e-06
3.94495844340792e-06
3.94495665825051e-06
3.94495127053669e-06
3.94493566858928e-06
3.94489254417555e-06
3.9447784218021e-06
3.94448877949047e-06
3.94378376668714e-06
3.94213971720067e-06
3.93847280774907e-06
3.93066550959442e-06
3.91483131940846e-06
3.88430713709148e-06
3.82849530603125e-06
3.73189268486718e-06
3.57388296569431e-06
3.32999122705235e-06
2.97513145934376e-06
2.48882241000821e-06
1.86150332133216e-06
1.1002586906592e-06
3.26412256428651e-09
1.24794022716022e-11
1.34618051230197e-11
3.54265149624105e-09
1.19672294962077e-06
2.02461300257067e-06
2.70645814083116e-06
3.23480396573018e-06
3.6201346784029e-06
3.88474284696474e-06
4.05593266783042e-06
4.16036610488701e-06
4.22051469566737e-06
4.25327309647085e-06
4.27017512116393e-06
4.27845374659727e-06
4.28231114171872e-06
4.2840244406752e-06
4.28475115164018e-06
4.2850458851307e-06
4.28516018354696e-06
4.28520243791951e-06
4.28521716519619e-06
4.2852218415152e-06
4.28522302333372e-06
4.28522309301923e-06
4.28522288764712e-06
4.28522263702606e-06
4.28522232058606e-06
4.28522164821103e-06
4.28521970279553e-06
4.28521387416367e-06
4.28519704850109e-06
4.28515058919981e-06
4.28502765123636e-06
4.28471553608201e-06
4.28395547403024e-06
4.28218219762739e-06
4.27822527329661e-06
4.26979716114146e-06
4.25269817051997e-06
4.21972658623504e-06
4.15942506123935e-06
4.05502557187399e-06
3.88421042002988e-06
3.6204362262681e-06
3.23638656816215e-06
2.70952898755966e-06
2.02886322056985e-06
1.20108630772808e-06
3.56837241426409e-09
1.36318115759191e-11
1.44615951052585e-11
3.80744632238238e-09
1.28419815799357e-06
2.1690848376619e-06
2.89630365036541e-06
3.45900211381199e-06
3.86903352739076e-06
4.15048780145951e-06
4.33256530812431e-06
4.4436645764246e-06
4.50768003632983e-06
4.54256566868286e-06
4.56057892226675e-06
4.56940971621548e-06
4.57352861114129e-06
4.57536019251045e-06
4.57613811711165e-06
4.57645412754866e-06
4.57657693132803e-06
4.57662246885906e-06
4.57663842647767e-06
4.57664355514266e-06
4.57664490100909e-06
4.57664502762696e-06
4.57664483709265e-06
4.5766445821153e-06
4.57664424292634e-06
4.57664351384999e-06
4.57664142519801e-06
4.57663521375298e-06
4.57661734273013e-06
4.57656805459095e-06
4.57643765598973e-06
4.57610652573395e-06
4.57529985340176e-06
4.57341705713675e-06
4.56921411180603e-06
4.56025892092544e-06
4.54208537863596e-06
4.50703348465421e-06
4.44291433885369e-06
4.33188340590607e-06
4.15017420769748e-06
3.86947920209602e-06
3.46057164744378e-06
2.89914275485472e-06
2.17290185039287e-06
1.28809514729425e-06
3.83135142529902e-09
1.46252093007446e-11
1.53097655466932e-11
4.03260037159877e-09
1.35848411230189e-06
2.29148845614155e-06
3.05690558954373e-06
3.64848184194165e-06
4.0792678389711e-06
4.37488143177739e-06
4.56611867499958e-06
4.68283388612761e-06
4.75011319359107e-06
4.78679829284833e-06
4.80575394026343e-06
4.81505434069954e-06
4.81939633763983e-06
4.82132918795982e-06
4.82215113452403e-06
4.82248552051543e-06
4.82261571446497e-06
4.82266412975817e-06
4.82268118144889e-06
4.82268672257446e-06
4.82268822755917e-06
4.8226884157437e-06
4.8226882426292e-06
4.82268798670778e-06
4.82268762772201e-06
4.82268684719656e-06
4.8226846318519e-06
4.82267809132794e-06
4.8226593368824e-06
4.82260767667376e-06
4.82247103928781e-06
4.82212401501386e-06
4.82127836252653e-06
4.81930389762111e-06
4.81489485199675e-06
4.80549776901752e-06
4.78642279048356e-06
4.74962495267268e-06
4.68230083235331e-06
4.5657015948389e-06
4.37484343311404e-06
4.07993488378808e-06
3.65013725067102e-06
3.05962976148719e-06
2.29499311512171e-06
1.36200838953443e-06
4.05495286816649e-09
1.54674027945134e-11
1.60170937345437e-11
4.22083757672447e-09
1.42055867322525e-06
2.39358867230024e-06
3.19071602723321e-06
3.80624366148935e-06
4.2542428854029e-06
4.56160706215842e-06
4.76045455823739e-06
4.88184311972802e-06
4.95184379937305e-06
4.99003272663554e-06
5.00977798801253e-06
5.01947300138832e-06
5.02400307120623e-06
5.0260215925572e-06
5.02688092960234e-06
5.02723099681238e-06
5.02736753548658e-06
5.02741844290099e-06
5.02743645537514e-06
5.02744236653513e-06
5.02744402072977e-06
5.02744427126299e-06
5.02744412049687e-06
5.02744386643802e-06
5.02744349060525e-06
5.02744266419055e-06
5.02744033821457e-06
5.02743351800698e-06
5.02741402567874e-06
5.02736040058094e-06
5.02721861133014e-06
5.02685847035949e-06
5.02598063607689e-06
5.02393043227995e-06
5.01935096328211e-06
5.00958821820586e-06
4.98976688054325e-06
4.95152286463392e-06
4.88154334522195e-06
4.76032994842585e-06
4.56188979955013e-06
4.25520053180158e-06
3.80808317472661e-06
3.19345115293065e-06
2.39691974588835e-06
1.42382423629221e-06
4.24200595295878e-09
1.61697633149136e-11
1.65970444532119e-11
4.37559377070075e-09
1.47160198414286e-06
2.47743606859471e-06
3.30051766946115e-06
3.93564145027104e-06
4.39772851458531e-06
4.71471829451911e-06
4.91980821820732e-06
5.04503683574642e-06
5.11727829703865e-06
5.15670843387762e-06
5.17710715830633e-06
5.18712970648007e-06
5.19181638563867e-06
5.19390650081912e-06
5.19479721016086e-06
5.19516049685627e-06
5.19530241640015e-06
5.19535545542879e-06
5.19537430091543e-06
5.19538053978059e-06
5.19538233135574e-06
5.19538264330323e-06
5.19538251681281e-06
5.19538226677101e-06
5.19538187700248e-06
5.19538101046492e-06
5.19537858931407e-06
5.19537153442488e-06
5.19535143349945e-06
5.19529620166624e-06
5.19515021367035e-06
5.19477939094372e-06
5.19387534064633e-06
5.19176339469403e-06
5.1870448901047e-06
5.17698362347598e-06
5.15655263451246e-06
5.11712687009952e-06
5.04497695670013e-06
4.9199916953555e-06
4.71535323530247e-06
4.39903243989236e-06
3.93775216940736e-06
3.30338304921559e-06
2.48073124978851e-06
1.47472637207296e-06
4.3959854033235e-09
1.67460638444061e-11
1.70646284415359e-11
4.5007254928458e-09
1.51290798479876e-06
2.54523005052825e-06
3.38925343452714e-06
4.04018974208778e-06
4.5136520420521e-06
4.83842285408919e-06
5.04856671442603e-06
5.1769101421873e-06
5.2509731745024e-06
5.29141481638595e-06
5.3123475361355e-06
5.32263854616431e-06
5.32745401239309e-06
5.32960321562439e-06
5.3305199222351e-06
5.33089421545478e-06
5.33104064191501e-06
5.33109548137484e-06
5.33111503975957e-06
5.33112156553707e-06
5.33112348157115e-06
5.33112385126838e-06
5.33112374941907e-06
5.33112350503591e-06
5.33112310417754e-06
5.33112220335964e-06
5.33111970172273e-06
5.33111245269453e-06
5.33109185656236e-06
5.33103532860188e-06
5.33088596527387e-06
5.33050656297721e-06
5.32958145036764e-06
5.32741986644398e-06
5.32258949971888e-06
5.31228789336458e-06
5.29136580934401e-06
5.25098773774878e-06
5.17708839826111e-06
5.0490624834098e-06
4.83942705195063e-06
4.51534110627965e-06
4.04264074691679e-06
3.39235087959358e-06
2.5486123389925e-06
1.51599987112565e-06
4.52073537418428e-09
1.72113925471802e-11
1.74353810961821e-11
4.60024654072968e-09
1.54580514156415e-06
2.59919747746035e-06
3.45987621506616e-06
4.12339424108331e-06
4.60591624201023e-06
4.93689263587019e-06
5.1510740569601e-06
5.28191093341004e-06
5.35743553243373e-06
5.39869086698788e-06
5.42005437209525e-06
5.43056262608885e-06
5.43548265951823e-06
5.43768001498242e-06
5.43861799416427e-06
5.43900133648522e-06
5.43915149043241e-06
5.43920783129006e-06
5.43922799174108e-06
5.4392347650805e-06
5.43923679139276e-06
5.43923721427193e-06
5.4392371369125e-06
5.43923689941678e-06
5.43923649020012e-06
5.43923556086691e-06
5.4392329924733e-06
5.43922558536144e-06
5.43920459211889e-06
5.43914703349829e-06
5.43899499542768e-06
5.43860880027177e-06
5.43766700716433e-06
5.43546608524772e-06
5.43054700090878e-06
5.42005465097402e-06
5.39874259779881e-06
5.35760801180447e-06
5.28231856188695e-06
5.15187616834214e-06
4.93826926128894e-06
4.6080114454934e-06
4.12623312741726e-06
3.46328377805345e-06
2.60276681103735e-06
1.54895631599464e-06
4.62022210137023e-09
1.75811943497209e-11
1.7724511345844e-11
4.67810600524541e-09
1.57159004140827e-06
2.6414918527253e-06
3.51522462729377e-06
4.18861192511499e-06
4.6782492111146e-06
5.01410701713179e-06
5.2314704426259e-06
5.36427667401347e-06
5.44095844901997e-06
5.48285974734942e-06
5.50456624300694e-06
5.51524801674314e-06
5.52025185889686e-06
5.52248795207207e-06
5.52344311578152e-06
5.52383380326039e-06
5.5239870008247e-06
5.52404457764605e-06
5.52406523982896e-06
5.52407222352497e-06
5.52407434593088e-06
5.52407481706144e-06
5.52407476328303e-06
5.52407453350623e-06
5.52407411848686e-06
5.52407316616251e-06
5.52407054360784e-06
5.52406301001814e-06
5.52404170335015e-06
5.52398333764459e-06
5.52382921191321e-06
5.52343771899206e-06
5.52248291231459e-06
5.52025127743712e-06
5.51526287093988e-06
5.50462136801428e-06
5.48300419260562e-06
5.44127742186958e-06
5.36489948352683e-06
5.23256457098426e-06
5.01584697423578e-06
4.68075459336815e-06
4.19186437404686e-06
3.51899445149513e-06
2.64532144132008e-06
1.57487140231884e-06
4.69832731464214e-09
1.78704827606866e-11
1.7946249324931e-11
4.73801599288061e-09
1.5914760068635e-06
2.67411598042485e-06
3.55792814565455e-06
4.23894450912977e-06
4.73409016733593e-06
5.07373371608159e-06
5.29357000825136e-06
5.42791026109915e-06
5.50549573316356e-06
5.54790291730655e-06
5.56987884554015e-06
5.58069737446445e-06
5.58576750244481e-06
5.58803435160527e-06
5.58900321683993e-06
5.58939978921097e-06
5.58955543989377e-06
5.58961402098963e-06
5.58963509579747e-06
5.58964225578714e-06
5.58964446079236e-06
5.5896449748664e-06
5.58964494315694e-06
5.58964472160364e-06
5.58964430312009e-06
5.58964333295904e-06
5.58964066757922e-06
5.58963303481871e-06
5.58961148513223e-06
5.5895524979872e-06
5.58939676940413e-06
5.58900121113599e-06
5.58803641293116e-06
5.58578117605076e-06
5.58073944691278e-06
5.56998311703564e-06
5.54813087308324e-06
5.50594762650444e-06
5.42873030613088e-06
5.2949355807369e-06
5.07581806588706e-06
4.736995215214e-06
4.24261627220863e-06
3.56208764573199e-06
2.6782524909416e-06
1.59493690070023e-06
4.75868923113944e-09
1.80932439223124e-11
1.81133972819724e-11
4.78333091492283e-09
1.60655715452148e-06
2.69886848638661e-06
3.59034200073891e-06
4.2771656733287e-06
4.77651164491174e-06
5.11904771969573e-06
5.34077767741105e-06
5.47629558114531e-06
5.55457670924436e-06
5.59737447565824e-06
5.61955909263301e-06
5.63048390930156e-06
5.63560574534819e-06
5.63789668196448e-06
5.63887632480434e-06
5.63927754928101e-06
5.6394351509985e-06
5.6394945373739e-06
5.63951594707015e-06
5.63952325287001e-06
5.63952552790809e-06
5.63952607957972e-06
5.63952606814504e-06
5.63952585508978e-06
5.6395254352283e-06
5.63952445191286e-06
5.63952175371106e-06
5.639514045034e-06
5.63949231080858e-06
5.63943285439298e-06
5.63927591803221e-06
5.63887729651598e-06
5.63790496261975e-06
5.63563190280004e-06
5.63054985736201e-06
5.61970661257535e-06
5.597676274632e-06
5.55514693153435e-06
5.4772928295125e-06
5.34239015926395e-06
5.12145058476842e-06
4.7797947024316e-06
4.28124624667103e-06
3.59489744239812e-06
2.70333505876668e-06
1.61022723174439e-06
4.80459214424778e-09
1.82620329543953e-11
1.82370666108831e-11
4.81697455139826e-09
1.61778672696157e-06
2.71731226731323e-06
3.61450937512122e-06
4.30567925924457e-06
4.80817509555939e-06
5.15288518566474e-06
5.37604195199903e-06
5.51244958784896e-06
5.59125784948598e-06
5.63435252506179e-06
5.65669632481576e-06
5.66770251226806e-06
5.6728640894339e-06
5.67517361671759e-06
5.67616161592472e-06
5.67656646620488e-06
5.67672559818002e-06
5.6767856215269e-06
5.67680729943394e-06
5.676814724266e-06
5.67681705791205e-06
5.67681764213485e-06
5.67681764917774e-06
5.67681744474095e-06
5.67681702531915e-06
5.67681603299582e-06
5.67681331063544e-06
5.67680554559228e-06
5.67678367488596e-06
5.67672387266175e-06
5.67656604709658e-06
5.67616516821402e-06
5.6751872714483e-06
5.6729010292598e-06
5.66778911003392e-06
5.65688135838917e-06
5.63471866085413e-06
5.59193180837088e-06
5.51360348410499e-06
5.37787510623355e-06
5.15557681895013e-06
4.81180727018236e-06
4.31014651523582e-06
3.61945090944431e-06
2.72211331911893e-06
1.62167944285862e-06
4.83890050076125e-09
1.83877434971761e-11
1.83265690583047e-11
4.84140714703307e-09
1.62596740723643e-06
2.73076127547186e-06
3.63214639159406e-06
4.32650331890532e-06
4.83131439094829e-06
5.1776265736653e-06
5.40183776297408e-06
5.53890493651065e-06
5.61810524788553e-06
5.6614215342276e-06
5.6838845999547e-06
5.69495200126142e-06
5.70014360425813e-06
5.70246724242468e-06
5.70346161629727e-06
5.70386924826108e-06
5.70402956232482e-06
5.70409008225084e-06
5.70411197207645e-06
5.70411949287955e-06
5.70412187504911e-06
5.70412248725896e-06
5.70412251104299e-06
5.70412231521558e-06
5.70412189776509e-06
5.70412090000344e-06
5.70411816085264e-06
5.70411035570133e-06
5.70408838774582e-06
5.70402833933635e-06
5.70386988002236e-06
5.70346738786214e-06
5.70248550210348e-06
5.70018977549203e-06
5.69505629707577e-06
5.68410186843326e-06
5.66184317924413e-06
5.61886921937447e-06
5.54019578474886e-06
5.40386573195562e-06
5.18057631746251e-06
4.83526350977539e-06
4.33132843967853e-06
3.63745368882516e-06
2.73588814158428e-06
1.63008435923021e-06
4.86402987947091e-09
1.84795186738852e-11
1.83894221844193e-11
4.85862257887116e-09
1.63175066611924e-06
2.74028106286908e-06
3.64464416505505e-06
4.34127349899193e-06
4.84774018665694e-06
5.19520163488082e-06
5.42017180788075e-06
5.55771548603757e-06
5.63720018286286e-06
5.68067791135025e-06
5.70322825904499e-06
5.71434067578402e-06
5.71955447279502e-06
5.7218885983609e-06
5.72288773807145e-06
5.72329746356959e-06
5.72345867447207e-06
5.72351957521414e-06
5.72354163012425e-06
5.72354922745103e-06
5.72355164950595e-06
5.72355228568363e-06
5.72355232457821e-06
5.72355213724665e-06
5.72355172301086e-06
5.72355072280623e-06
5.72354797302589e-06
5.72354014121022e-06
5.72351810804194e-06
5.72345789405971e-06
5.72329900645775e-06
5.72289541696852e-06
5.72191079931598e-06
5.71960853528427e-06
5.71446011145274e-06
5.70347316551295e-06
5.68114732501874e-06
5.63804201522712e-06
5.55912560467115e-06
5.42237091013231e-06
5.19838056459573e-06
4.85197445411812e-06
4.34642568711812e-06
3.65029195297126e-06
2.74571768661891e-06
1.63608609224058e-06
4.88194537614698e-09
1.85447651257861e-11
1.84314277323625e-11
4.87016511740706e-09
1.63564202035793e-06
2.74669824528924e-06
3.65308184624366e-06
4.35125883054578e-06
4.85885764138133e-06
5.20710838070915e-06
5.43260226565702e-06
5.57047642339707e-06
5.65015944764943e-06
5.69375042739189e-06
5.71636238636193e-06
5.72750678906104e-06
5.73273646591252e-06
5.73507815038498e-06
5.73608075224736e-06
5.73649201202375e-06
5.73665388717157e-06
5.73671507395644e-06
5.73673725540797e-06
5.73674491313922e-06
5.73674736784881e-06
5.73674802455797e-06
5.73674807708593e-06
5.7367478980373e-06
5.73674748797436e-06
5.73674648775412e-06
5.73674373242346e-06
5.73673588506707e-06
5.73671381314463e-06
5.7366534998622e-06
5.73649435202811e-06
5.73609008519608e-06
5.73510375450388e-06
5.73279733231861e-06
5.72763928441147e-06
5.71663117920345e-06
5.69426125897368e-06
5.65106909755264e-06
5.57199105058403e-06
5.43495244586931e-06
5.21049149946945e-06
4.86334875673667e-06
4.3567094195803e-06
3.65904484163183e-06
2.75242633465527e-06
1.64018694713181e-06
4.89417752851337e-09
1.85892311006989e-11
1.84567846094147e-11
4.87715594712809e-09
1.6380092376732e-06
2.75061428027613e-06
3.65824486321052e-06
4.35738329300239e-06
4.86569029016801e-06
5.21443845686446e-06
5.44026508207512e-06
5.57835106503739e-06
5.65816242471139e-06
5.70182742322212e-06
5.72448007645267e-06
5.73564583965368e-06
5.74088624298616e-06
5.74323309430162e-06
5.74423809256521e-06
5.74465042908354e-06
5.74481277807666e-06
5.74487417330793e-06
5.74489644975806e-06
5.74490415470708e-06
5.74490663614678e-06
5.74490731058783e-06
5.7449073754915e-06
5.74490720439674e-06
5.7449067991884e-06
5.74490580085021e-06
5.74490304411274e-06
5.74489519053746e-06
5.74487310232452e-06
5.74481274614774e-06
5.74465348067083e-06
5.74424889094333e-06
5.74326170196352e-06
5.74095310605173e-06
5.7357898482716e-06
5.72476995928274e-06
5.70237492016956e-06
5.65913233560192e-06
5.57995901659992e-06
5.44275099228199e-06
5.21800637265715e-06
4.87041588319238e-06
4.36310902070027e-06
3.66450176205812e-06
2.75661753617735e-06
1.64275492549861e-06
4.9018465504209e-09
1.8617112651926e-11
1.84682043851275e-11
4.88032113962142e-09
1.6390909561606e-06
2.75241960664805e-06
3.6606432959691e-06
4.3602472935679e-06
4.86890369670501e-06
5.21790222604389e-06
5.44389993597618e-06
5.58209733533125e-06
5.66197784806699e-06
5.70568371762806e-06
5.72835941441194e-06
5.73953758653649e-06
5.74478438391681e-06
5.74713439678854e-06
5.74814090183312e-06
5.74855393590222e-06
5.7487166030245e-06
5.74877814486658e-06
5.74880049241985e-06
5.748808235471e-06
5.74881074006361e-06
5.74881143094736e-06
5.74881150768965e-06
5.74881134401701e-06
5.74881094375754e-06
5.74880994802181e-06
5.74880719217336e-06
5.74879933894998e-06
5.74877725256138e-06
5.74871690196605e-06
5.74855764449687e-06
5.74815304621961e-06
5.74716575568683e-06
5.74485673409837e-06
5.73969213116628e-06
5.72866861613643e-06
5.70626486030393e-06
5.6630031994404e-06
5.58379145103031e-06
5.44651168168219e-06
5.22164233176172e-06
4.8738490706295e-06
4.36623266986103e-06
3.66717966493489e-06
2.75868678172748e-06
1.64403142155106e-06
4.90568705966062e-09
1.86311579196935e-11
1.8467000578471e-11
4.88001342751295e-09
1.63900354525824e-06
2.75230499967547e-06
3.66052676219978e-06
4.36014508522339e-06
4.86882454403801e-06
5.21784889731341e-06
5.44387097674073e-06
5.58208883395082e-06
5.66198498084301e-06
5.70570185678396e-06
5.72838475835144e-06
5.73956734154244e-06
5.74481668138612e-06
5.74716808363498e-06
5.74817531515592e-06
5.74858871769704e-06
5.7487515701039e-06
5.74881320742574e-06
5.74883560750957e-06
5.74884338241839e-06
5.748845908197e-06
5.74884661482801e-06
5.7488467029827e-06
5.74884654683657e-06
5.74884615117106e-06
5.74884515789311e-06
5.74884240397031e-06
5.74883455602364e-06
5.74881248747777e-06
5.74875218805462e-06
5.74859305922879e-06
5.74818875532355e-06
5.74720208992511e-06
5.74489431070168e-06
5.73973202386375e-06
5.72871255534586e-06
5.70631540493189e-06
5.66306377095572e-06
5.58386608270665e-06
5.44660434718778e-06
5.22175580301418e-06
4.87398339595172e-06
4.36638348371918e-06
3.66733654439571e-06
2.7588317191719e-06
1.64413722835559e-06
4.90606724004383e-09
1.86327467917216e-11
1.84531479705613e-11
4.87622720067415e-09
1.63774553669666e-06
2.75026828970561e-06
3.65789279779231e-06
4.35707432387403e-06
4.86545098054522e-06
5.21427737800046e-06
5.44017798427878e-06
5.57832618140678e-06
5.65818514878545e-06
5.70188371210061e-06
5.72455835142352e-06
5.73573758378947e-06
5.74098575354162e-06
5.74333684937242e-06
5.74434406633463e-06
5.74475752717545e-06
5.74492044051282e-06
5.74498212567385e-06
5.74500456095951e-06
5.74501236178998e-06
5.74501490679635e-06
5.74501562829827e-06
5.74501572752624e-06
5.74501557860715e-06
5.7450151871424e-06
5.74501419626235e-06
5.74501144561108e-06
5.74500360864021e-06
5.74498157576005e-06
5.7449213772027e-06
5.74476250674229e-06
5.74435881948575e-06
5.74337354524975e-06
5.7410687520825e-06
5.73591257928688e-06
5.72490506027633e-06
5.70253019683033e-06
5.65931820611143e-06
5.58018772838524e-06
5.44303455402655e-06
5.21835306048827e-06
4.87082561672895e-06
4.36356827161579e-06
3.66497865954937e-06
2.75705735989594e-06
1.64307540996919e-06
4.90299696692845e-09
1.86219191296096e-11
1.84252995165174e-11
4.86860225797462e-09
1.63519833435875e-06
2.74611502774136e-06
3.6524873360993e-06
4.35073636619784e-06
4.85845278383979e-06
5.20683633991626e-06
5.4324563673205e-06
5.5704369748799e-06
5.65020168836852e-06
5.6938503935429e-06
5.71650023139542e-06
5.72766787076573e-06
5.7329109584675e-06
5.73525997576566e-06
5.73626641040284e-06
5.73667961083639e-06
5.73684245817826e-06
5.73690414265653e-06
5.73692659533053e-06
5.73693441575957e-06
5.73693697775933e-06
5.73693771309291e-06
5.73693782275285e-06
5.73693768060281e-06
5.73693729301844e-06
5.73693630477613e-06
5.73693355944635e-06
5.73692574070892e-06
5.73690376490187e-06
5.73684372533558e-06
5.73668526283786e-06
5.73628256053684e-06
5.73529954696594e-06
5.73299970784956e-06
5.72785391394947e-06
5.71686717845492e-06
5.69453205875515e-06
5.65139256049041e-06
5.57238806134495e-06
5.43544328582799e-06
5.21108980306762e-06
4.8640536193959e-06
4.3574968587387e-06
3.65985978138953e-06
2.75317539433295e-06
1.64073097978018e-06
4.89612782314947e-09
1.85973857088226e-11
1.83807330616089e-11
4.85641099794244e-09
1.63112278721485e-06