/*--------------------------------*- C++ -*----------------------------------*\
  =========                 |
  \\      /  F ield         | OpenFOAM: The Open Source CFD Toolbox
   \\    /   O peration     | Website:  https://openfoam.org
    \\  /    A nd           | Version:  10
     \\/     M anipulation  |
\*---------------------------------------------------------------------------*/
FoamFile
{
    format      ascii;
    class       volScalarField;
    location    "6.8";
    object      omega;
}
// * * * * * * * * * * * * * * * * * * * * * * * * * * * * * * * * * * * * * //

dimensions      [0 0 -1 0 0 0 0];

internalField   nonuniform List<scalar> 
2500
(
127966.466921511
127976.863979834
127973.549346382
127971.11687582
127969.621481316
127968.758542537
127968.277451597
127968.017058227
127967.88107068
127967.81337129
127967.78045136
127967.765257047
127967.758517328
127967.755357911
127967.753825213
127967.752891777
127967.752475423
127967.752092201
127967.7517048
127967.751448331
127967.751233517
127967.751051988
127967.750904277
127967.750816572
127967.750723521
127967.750647951
127967.750624755
127967.750621163
127967.750645509
127967.75070114
127967.750792644
127967.750963995
127967.751161586
127967.75143877
127967.751862241
127967.752614864
127967.754128873
127967.757298106
127967.764656875
127967.780483235
127967.814126747
127967.883226682
127968.019808065
127968.279478222
127968.75845956
127969.615652068
127971.108216442
127973.553292404
127976.892262625
127966.431625648
31888.217621608
14171.2114499532
14169.6132664282
14168.4662093387
14167.7463312239
14167.3187990014
14167.0727142626
14166.9353481444
14166.861439738
14166.823323981
14166.8044977658
14166.7956140256
14166.7916047963
14166.7898584313
14166.7891196889
14166.7888078437
14166.7886810807
14166.7886200906
14166.7885824284
14166.7885589759
14166.7885410052
14166.7885257047
14166.7885131023
14166.7885045134
14166.7884968522
14166.7884905173
14166.7884873818
14166.7884857686
14166.7884857153
14166.7884882416
14166.7884946103
14166.7885092322
14166.788538991
14166.7886016341
14166.7887418121
14166.789076944
14166.7898799618
14166.7917561626
14166.7960121276
14166.8052611063
14166.8245698547
14166.8632221247
14166.9374353273
14167.0744616437
14167.3191512575
14167.7444361533
14168.4639822726
14169.61850582
14171.2315190671
31888.1763373836
31792.0363393332
3531.87147562185
50.8507716761215
50.8450988603738
50.841573991674
50.8394897940495
50.8382924793999
50.8376242009763
50.8372640984464
50.8370778182241
50.8369855399491
50.8369418375768
50.8369220473579
50.8369134467695
50.8369098466225
50.8369083812559
50.8369078054935
50.8369075671583
50.8369074516537
50.8369073887834
50.8369073444373
50.8369073063821
50.8369072741807
50.8369072514464
50.8369072327646
50.8369072170835
50.8369072077703
50.8369072011955
50.836907196802
50.836907197704
50.8369072100239
50.836907251438
50.836907364822
50.8369076352366
50.8369082819235
50.8369098855876
50.8369137921649
50.8369229841949
50.8369438152425
50.8369890797082
50.8370834197884
50.8372719094813
50.8376332649047
50.8383000910593
50.8394916959411
50.8415682220044
50.8450985979184
50.8508223687117
3531.88230569763
31792.0687244069
31706.2430776272
3522.22413200384
50.711510797447
50.705833828536
50.7024068072942
50.7004323832006
50.699324296443
50.6987180217261
50.6983966588572
50.6982326311232
50.698152285754
50.6981145912663
50.698097661154
50.6980903673665
50.6980873467913
50.6980861398921
50.6980856767825
50.6980854973513
50.6980854205367
50.6980853829009
50.6980853575555
50.6980853346321
50.6980853140294
50.698085299216
50.6980852879191
50.6980852782874
50.6980852717614
50.6980852659824
50.6980852602364
50.6980852574836
50.698085258939
50.6980852791939
50.6980853635084
50.6980855758497
50.6980860915135
50.6980873984691
50.69809063412
50.6980983452401
50.6981160113576
50.6981548414779
50.6982367427762
50.6984025334646
50.6987251276376
50.6993308506122
50.7004356993204
50.7024075364393
50.7058496854543
50.7115968332433
3522.24043190626
31706.401323652
31637.7584960265
3514.63843679888
50.60336228422
50.5985997043284
50.5958115138727
50.5942490117828
50.5933933394476
50.5929345713484
50.5926952469251
50.5925745770782
50.5925160209964
50.5924887445605
50.5924765622718
50.5924713416065
50.5924691935924
50.5924683455705
50.5924680267518
50.5924679096378
50.5924678648554
50.5924678459304
50.5924678341847
50.5924678224538
50.5924678106872
50.5924678021126
50.5924677961705
50.592467791007
50.592467787015
50.5924677826984
50.5924677774383
50.5924677733168
50.5924677699968
50.5924677746529
50.5924678272511
50.592467971407
50.5924683215802
50.5924692249048
50.5924714886823
50.5924769346225
50.5924895176807
50.592517426194
50.5925768791502
50.5926986218716
50.592938807784
50.5933975441114
50.5942520678625
50.5958160163588
50.598624668603
50.6034641973207
3514.65740305778
31638.0166963704
31588.1385584757
3509.24048382557
50.5273855212657
50.5238798310488
50.5218888281309
50.5208032941013
50.5202230111981
50.5199179301224
50.5197611220178
50.5196828987466
50.519645223123
50.5196277618433
50.5196199901163
50.519616669196
50.5196153082186
50.5196147756361
50.5196145792072
50.5196145106924
50.5196144875843
50.5196144799413
50.5196144762477
50.5196144716557
50.5196144657759
50.5196144614183
50.5196144588611
50.519614456533
50.5196144543721
50.5196144515209
50.5196144475119
50.5196144435088
50.5196144391967
50.5196144368403
50.5196144653755
50.5196145519577
50.5196147643412
50.5196153217166
50.5196167319158
50.5196201475874
50.5196280893219
50.5196458232626
50.5196838989115
50.5197626230115
50.5199198589623
50.5202249872252
50.5208050855447
50.5218935767269
50.523904615743
50.5274809819512
3509.25867473027
31588.433464448
31555.1571596424
3505.72382905003
50.4785300930146
50.4762084776946
50.4749279492684
50.4742480795472
50.4738930443164
50.473709853141
50.4736169802609
50.4735710815991
50.4735491049592
50.4735389540213
50.4735344439866
50.4735325191109
50.4735317320881
50.4735314262255
50.4735313154127
50.4735312790129
50.4735312685682
50.4735312661291
50.4735312661864
50.4735312656414
50.4735312632437
50.473531261391
50.473531260699
50.4735312598991
50.4735312588589
50.4735312571627
50.473531254465
50.4735312512892
50.4735312472872
50.4735312431558
50.4735312569104
50.4735313038411
50.4735314217215
50.4735317365684
50.4735325391007
50.4735344920385
50.4735390526225
50.4735492853883
50.4735713866054
50.473617445002
50.4737104353399
50.4738935678548
50.4742485945706
50.474931097922
50.4762274854497
50.4786052643597
3505.73880322915
31555.429556913
31534.8723036593
3503.6068692486
50.4495032345746
50.4480970942249
50.4473427995065
50.4469523723062
50.4467530208367
50.446651990789
50.4466014249031
50.4465766398295
50.4465648274094
50.4465593824853
50.4465569644451
50.4465559324007
50.4465555109567
50.446555348105
50.4465552901136
50.4465552723993
50.4465552689553
50.4465552692206
50.4465552696959
50.4465552700202
50.4465552694934
50.4465552689317
50.4465552691252
50.4465552690271
50.4465552685918
50.4465552676671
50.4465552660132
50.4465552638197
50.4465552608322
50.4465552573357
50.4465552629052
50.4465552860463
50.4465553469894
50.4465555123314
50.4465559361336
50.4465569704181
50.4465593922164
50.4465648427388
50.4465766650272
50.4466014584354
50.4466519883195
50.4467528637273
50.4469520994295
50.4473441727971
50.4481091366852
50.4495547803963
3503.61774012982
31535.0883224898
31523.2440941693
3502.4202053957
50.4334435995141
50.4326553146811
50.4322434476364
50.4320353607496
50.4319313835386
50.4318795921904
50.4318539832013
50.4318415231207
50.4318356062356
50.4318328815753
50.4318316709215
50.4318311537327
50.4318309426502
50.4318308614993
50.4318308331677
50.431830825555
50.4318308249195
50.4318308255407
50.4318308261815
50.4318308266746
50.4318308267507
50.4318308267959
50.4318308270795
50.4318308271443
50.4318308269867
50.4318308265142
50.4318308255715
50.4318308242088
50.4318308222893
50.431830820025
50.431830821707
50.4318308321395
50.4318308618346
50.4318309433984
50.4318311533246
50.4318316663619
50.4318328690932
50.4318355800276
50.4318414759172
50.4318539008819
50.4318794302778
50.4319310409961
50.4320348026532
50.4322436459138
50.4326617816825
50.4334750799701
3502.42730217635
31523.3960505134
31516.9923798337
3501.79670953047
50.4251144967187
50.4247016576997
50.4244912526087
50.4243873675396
50.4243365256207
50.4243116216677
50.4242994497342
50.4242935671442
50.4242907816249
50.4242894991371
50.4242889285328
50.4242886843975
50.4242885847701
50.4242885466614
50.4242885337475
50.4242885307447
50.4242885308449
50.424288531428
50.4242885319674
50.4242885323736
50.4242885325783
50.4242885327554
50.4242885329791
50.4242885330797
50.4242885330336
50.4242885327862
50.4242885322817
50.4242885315052
50.4242885303986
50.4242885291847
50.424288529452
50.4242885337477
50.4242885474112
50.4242885854895
50.4242886838165
50.4242889241671
50.4242894875597
50.4242907575423
50.4242935230628
50.4242993716508
50.4243114726959
50.4243362226088
50.4243868327892
50.4244909304825
50.4247046011291
50.4251318862524
3501.80093671686
31517.0891826891
31513.8229259571
3501.48789590367
50.4210420552205
50.4208385530999
50.4207372409519
50.4206883003517
50.4206648227246
50.4206535084775
50.4206480403747
50.4206454141229
50.4206441733183
50.4206436017589
50.4206433469726
50.4206432377466
50.4206431931693
50.4206431762089
50.4206431706548
50.4206431695675
50.4206431697936
50.4206431702034
50.4206431705677
50.4206431708407
50.4206431710128
50.420643171164
50.4206431713078
50.4206431713875
50.420643171375
50.4206431712493
50.4206431709958
50.4206431705848
50.4206431699961
50.4206431693632
50.4206431692929
50.4206431709753
50.4206431769111
50.4206431938352
50.4206432376622
50.4206433447181
50.4206435953344
50.420644159589
50.4206453882519
50.4206479925548
50.4206534127589
50.4206646183169
50.4206879064879
50.4207368176373
50.4208396473431
50.4210508378846
3501.49021937301
31513.8795890001
31512.3005594052
3501.3430031453
50.4191557113459
50.4190607089913
50.4190144462269
50.4189925569923
50.4189822565193
50.4189773708629
50.4189750354253
50.4189739203386
50.4189733944355
50.4189731519457
50.4189730435942
50.4189729970399
50.4189729780369
50.4189729708478
50.4189729685897
50.4189729682382
50.4189729684073
50.4189729686525
50.4189729688673
50.4189729690289
50.4189729691406
50.4189729692382
50.4189729693205
50.4189729693699
50.4189729693672
50.418972969307
50.4189729691865
50.4189729689829
50.4189729686908
50.4189729683766
50.418972968282
50.4189729689056
50.4189729713635
50.4189729785621
50.4189729972492
50.4189730428334
50.4189731492949
50.4189733884257
50.4189739084775
50.4189750119945
50.4189773198277
50.4189821384231
50.4189923088724
50.4190141031201
50.4190609928497
50.419159797124
3501.34419227046
31512.3313669258
31511.6049460548
3501.27833442696
50.4183245721652
50.4182823503173
50.418262212977
50.4182528706647
50.4182485550659
50.4182465396909
50.4182455866385
50.4182451341567
50.4182449210599
50.4182448226681
50.4182447785861
50.4182447596004
50.4182447518502
50.4182447489362
50.4182447480606
50.4182447479648
50.4182447480685
50.4182447482012
50.4182447483165
50.4182447484042
50.4182447484682
50.4182447485235
50.4182447485671
50.4182447485944
50.4182447485952
50.4182447485688
50.4182447485145
50.4182447484199
50.418244748284
50.4182447481371
50.4182447480771
50.4182447482964
50.4182447492732
50.4182447522165
50.4182447598723
50.4182447785122
50.4182448219043
50.4182449190418
50.4182451297939
50.4182455769892
50.4182465158224
50.4182484938799
50.4182527308588
50.4182619874622
50.4182823506248
50.4183263308679
3501.27890525922
31511.6206363464
31511.3015773302
3501.2507875248
50.4179751235113
50.4179571802802
50.4179487880495
50.4179449665685
50.417943232374
50.4179424347184
50.417942061508
50.4179418852901
50.4179418023988
50.4179417640637
50.4179417468395
50.4179417394037
50.4179417363694
50.4179417352387
50.4179417349175
50.4179417348989
50.4179417349531
50.4179417350201
50.4179417350784
50.4179417351235
50.4179417351577
50.4179417351871
50.4179417352096
50.4179417352241
50.4179417352264
50.4179417352164
50.4179417351937
50.4179417351528
50.4179417350937
50.4179417350293
50.4179417349982
50.417941735072
50.417941735448
50.4179417366093
50.4179417396343
50.4179417469823
50.4179417640199
50.4179418019982
50.4179418841217
50.4179420581967
50.4179424246929
50.4179432032447
50.4179448943626
50.4179486581519
50.417957117136
50.4179758250463
3501.2510461194
31511.3091141051
31511.1750237608
3501.23956720133
50.4178347036926
50.417827384322
50.4178240231306
50.4178225193319
50.4178218484261
50.4178215443763
50.4178214036051
50.4178213374961
50.4178213064318
50.4178212920404
50.417821285556
50.4178212827511
50.4178212816082
50.4178212811878
50.4178212810759
50.4178212810772
50.4178212811056
50.4178212811385
50.4178212811673
50.4178212811902
50.4178212812082
50.4178212812237
50.4178212812357
50.4178212812439
50.4178212812468
50.4178212812442
50.4178212812361
50.4178212812202
50.4178212811966
50.4178212811705
50.4178212811571
50.4178212811817
50.4178212813223
50.4178212817658
50.4178212829222
50.4178212857238
50.41782129219
50.4178213065325
50.4178213374167
50.4178214027506
50.4178215405677
50.4178218354954
50.4178224846205
50.4178239552116
50.4178273290941
50.4178349624538
3501.23967831814
31511.1784575238
31511.1245348771
3501.23520242359
50.4177808903474
50.4177780150774
50.4177767171153
50.4177761459856
50.4177758952895
50.4177757833014
50.4177757319894
50.4177757080222
50.4177756967723
50.4177756915521
50.4177756891946
50.417775688174
50.4177756877602
50.4177756876113
50.4177756875756
50.417775687581
50.4177756875961
50.4177756876127
50.4177756876275
50.4177756876396
50.4177756876497
50.4177756876585
50.4177756876655
50.4177756876709
50.417775687674
50.4177756876748
50.4177756876731
50.4177756876682
50.4177756876602
50.4177756876509
50.4177756876461
50.4177756876548
50.4177756877067
50.4177756878713
50.4177756883002
50.4177756893358
50.4177756917143
50.4177756969615
50.4177757082058
50.4177757319257
50.4177757820125
50.4177758898959
50.4177761302984
50.41777668424
50.4177779805071
50.417780977907
3501.2352479101
31511.126025785
31511.1053934438
3501.23359655928
50.4177614670938
50.4177603762897
50.4177598916645
50.417759681731
50.4177595909962
50.4177595510277
50.4177595329034
50.4177595244848
50.417759520539
50.4177595187066
50.4177595178785
50.4177595175211
50.4177595173783
50.4177595173293
50.4177595173206
50.4177595173261
50.4177595173351
50.4177595173444
50.4177595173528
50.4177595173601
50.4177595173665
50.4177595173723
50.4177595173772
50.4177595173814
50.4177595173846
50.4177595173868
50.4177595173879
50.4177595173877
50.4177595173861
50.4177595173838
50.417759517383
50.4177595173868
50.417759517406
50.4177595174657
50.4177595176203
50.4177595179922
50.4177595188417
50.4177595207053
50.4177595246782
50.4177595330305
50.417759550672
50.4177595888866
50.4177596750317
50.4177598767594
50.4177603578643
50.4177614937704
3501.23361436584
31511.1060128845
31511.0986690709
3501.23305835856
50.4177551741788
50.4177547735461
50.4177545981659
50.4177545233026
50.4177544914195
50.4177544775659
50.4177544713497
50.4177544684804
50.4177544671393
50.4177544665176
50.417754466238
50.4177544661192
50.4177544660737
50.4177544660604
50.4177544660608
50.417754466066
50.4177544660722
50.4177544660784
50.4177544660842
50.4177544660895
50.4177544660943
50.4177544660987
50.4177544661028
50.4177544661065
50.4177544661097
50.4177544661125
50.4177544661147
50.4177544661163
50.4177544661173
50.4177544661179
50.4177544661188
50.4177544661211
50.4177544661286
50.41775446615
50.4177544662043
50.417754466334
50.4177544666286
50.4177544672717
50.4177544686358
50.4177544714935
50.4177544775282
50.4177544906663
50.4177545206051
50.4177545917999
50.417754764714
50.4177551811816
3501.23306504789
31511.0989162275
31511.0966860349
3501.23291863642
50.417753715493
50.417753572735
50.417753511092
50.4177534851412
50.4177534742448
50.4177534695749
50.4177534675036
50.4177534665556
50.4177534661156
50.4177534659137
50.4177534658248
50.4177534657891
50.4177534657777
50.4177534657768
50.4177534657801
50.417753465785
50.4177534657901
50.4177534657951
50.4177534657997
50.4177534658042
50.4177534658083
50.4177534658123
50.4177534658161
50.4177534658196
50.4177534658228
50.4177534658258
50.4177534658285
50.4177534658308
50.4177534658328
50.4177534658345
50.417753465836
50.4177534658379
50.4177534658413
50.4177534658491
50.4177534658677
50.4177534659115
50.4177534660104
50.4177534662255
50.4177534666802
50.4177534676304
50.4177534696372
50.4177534740278
50.4177534841377
50.4177535085375
50.417753568846
50.4177537168907
3501.23292105666
31511.0967810438
31511.0964527319
3501.23292272014
50.4177539774673
50.4177539280264
50.417753906948
50.4177538981915
50.4177538945667
50.4177538930365
50.4177538923679
50.4177538920667
50.4177538919298
50.4177538918693
50.4177538918449
50.4177538918374
50.4177538918374
50.4177538918406
50.417753891845
50.4177538918496
50.4177538918543
50.4177538918587
50.417753891863
50.4177538918671
50.417753891871
50.4177538918748
50.4177538918784
50.4177538918818
50.4177538918851
50.4177538918881
50.417753891891
50.4177538918936
50.417753891896
50.4177538918981
50.4177538918999
50.4177538919017
50.4177538919037
50.4177538919068
50.4177538919131
50.4177538919272
50.4177538919589
50.417753892028
50.4177538921741
50.41775389248
50.4177538931278
50.417753894554
50.4177538978744
50.4177539060067
50.4177539264537
50.4177539775713
3501.23292356783
31511.0964880331
31511.0968449378
3501.23297710209
50.4177548328713
50.4177548162068
50.4177548091875
50.4177548063105
50.4177548051385
50.4177548046537
50.4177548044475
50.4177548043583
50.4177548043205
50.4177548043064
50.4177548043031
50.4177548043048
50.4177548043085
50.417754804313
50.4177548043176
50.4177548043222
50.4177548043266
50.4177548043309
50.417754804335
50.4177548043389
50.4177548043428
50.4177548043464
50.41775480435
50.4177548043534
50.4177548043566
50.4177548043597
50.4177548043627
50.4177548043654
50.4177548043679
50.4177548043702
50.4177548043722
50.4177548043739
50.4177548043755
50.417754804377
50.4177548043792
50.4177548043835
50.4177548043928
50.4177548044133
50.4177548044576
50.4177548045514
50.4177548047527
50.4177548052013
50.4177548062609
50.417754808898
50.4177548156446
50.4177548328129
3501.2329773924
31511.0968576634
31511.0974542058
3501.23304856972
50.4177558869944
50.417755881525
50.4177558792492
50.417755878331
50.4177558779655
50.41775587782
50.4177558777622
50.4177558777405
50.4177558777342
50.4177558777347
50.417755877738
50.4177558777426
50.4177558777474
50.4177558777522
50.4177558777569
50.4177558777614
50.4177558777657
50.4177558777699
50.4177558777739
50.4177558777778
50.4177558777815
50.4177558777852
50.4177558777887
50.4177558777921
50.4177558777954
50.4177558777985
50.4177558778015
50.4177558778042
50.4177558778068
50.4177558778092
50.4177558778112
50.417755877813
50.4177558778144
50.4177558778156
50.4177558778165
50.4177558778176
50.4177558778198
50.4177558778247
50.4177558778363
50.4177558778623
50.4177558779208
50.4177558780554
50.417755878382
50.4177558792125
50.4177558813788
50.4177558869911
3501.23304866956
31511.0974586879
31511.0981367278
3501.23312568439
50.417757005848
50.4177570041029
50.4177570033873
50.4177570031055
50.4177570029984
50.4177570029601
50.4177570029485
50.4177570029475
50.4177570029507
50.4177570029555
50.4177570029607
50.417757002966
50.4177570029711
50.4177570029759
50.4177570029806
50.4177570029849
50.4177570029892
50.4177570029933
50.4177570029973
50.4177570030011
50.4177570030048
50.4177570030085
50.4177570030119
50.4177570030154
50.4177570030187
50.4177570030218
50.4177570030247
50.4177570030276
50.4177570030302
50.4177570030326
50.4177570030348
50.4177570030366
50.417757003038
50.4177570030391
50.4177570030397
50.41775700304
50.41775700304
50.4177570030403
50.4177570030418
50.417757003047
50.4177570030612
50.4177570030979
50.417757003193
50.417757003445
50.4177570041197
50.4177570059033
3501.23312572127
31511.0981382919
31511.0988433325
3501.23320461813
50.4177581452465
50.4177581447095
50.4177581444945
50.4177581444142
50.4177581443876
50.4177581443819
50.417758144384
50.4177581443888
50.4177581443945
50.4177581444004
50.417758144406
50.4177581444113
50.4177581444163
50.4177581444211
50.4177581444256
50.4177581444299
50.4177581444341
50.4177581444381
50.417758144442
50.4177581444458
50.4177581444495
50.4177581444531
50.4177581444566
50.41775814446
50.4177581444633
50.4177581444665
50.4177581444695
50.4177581444724
50.417758144475
50.4177581444775
50.4177581444797
50.4177581444816
50.4177581444832
50.4177581444843
50.417758144485
50.4177581444851
50.4177581444847
50.4177581444837
50.4177581444825
50.4177581444818
50.417758144483
50.4177581444902
50.4177581445146
50.4177581445862
50.4177581447876
50.4177581453348
3501.23320463489
31511.0988438951
31511.0995576614
3501.23328412383
50.4177592910082
50.4177592908536
50.417759290795
50.4177592907765
50.4177592907739
50.4177592907774
50.417759290783
50.4177592907891
50.4177592907952
50.4177592908011
50.4177592908065
50.4177592908117
50.4177592908165
50.4177592908211
50.4177592908256
50.4177592908298
50.4177592908338
50.4177592908378
50.4177592908417
50.4177592908454
50.4177592908491
50.4177592908527
50.4177592908562
50.4177592908596
50.4177592908629
50.4177592908661
50.4177592908691
50.417759290872
50.4177592908747
50.4177592908773
50.4177592908795
50.4177592908816
50.4177592908832
50.4177592908845
50.4177592908853
50.4177592908856
50.4177592908853
50.4177592908842
50.4177592908826
50.4177592908805
50.4177592908784
50.4177592908775
50.4177592908812
50.4177592908985
50.4177592909538
50.4177592911116
3501.23328413434
31511.0995578908
31511.1002744107
3501.23336380529
50.4177604386956
50.4177604386587
50.4177604386475
50.417760438647
50.4177604386508
50.4177604386564
50.4177604386625
50.4177604386685
50.4177604386743
50.4177604386798
50.417760438685
50.4177604386898
50.4177604386945
50.4177604386989
50.4177604387032
50.4177604387073
50.4177604387113
50.4177604387152
50.417760438719
50.4177604387228
50.4177604387264
50.41776043873
50.4177604387335
50.4177604387369
50.4177604387402
50.4177604387434
50.4177604387465
50.4177604387494
50.4177604387522
50.4177604387548
50.4177604387571
50.4177604387592
50.417760438761
50.4177604387625
50.4177604387635
50.417760438764
50.4177604387639
50.4177604387632
50.4177604387618
50.4177604387598
50.4177604387573
50.4177604387547
50.4177604387531
50.4177604387549
50.4177604387666
50.4177604388051
3501.23336381392
31511.1002745291
31511.1009919017
3501.23344353959
50.4177615869529
50.4177615869511
50.4177615869534
50.4177615869574
50.4177615869624
50.4177615869679
50.4177615869735
50.417761586979
50.4177615869843
50.4177615869894
50.4177615869942
50.4177615869988
50.4177615870032
50.4177615870075
50.4177615870116
50.4177615870156
50.4177615870195
50.4177615870233
50.4177615870271
50.4177615870308
50.4177615870344
50.4177615870379
50.4177615870414
50.4177615870449
50.4177615870482
50.4177615870514
50.4177615870545
50.4177615870575
50.4177615870603
50.417761587063
50.4177615870654
50.4177615870676
50.4177615870696
50.4177615870712
50.4177615870724
50.4177615870732
50.4177615870735
50.4177615870732
50.4177615870723
50.4177615870708
50.4177615870688
50.4177615870664
50.4177615870639
50.417761587062
50.4177615870614
50.4177615870647
3501.23344354763
31511.1009919867
31511.1017096151
3501.23352328944
50.4177627353752
50.4177627353831
50.4177627353886
50.4177627353933
50.4177627353979
50.4177627354027
50.4177627354076
50.4177627354124
50.4177627354172
50.4177627354218
50.4177627354263
50.4177627354306
50.4177627354347
50.4177627354388
50.4177627354428
50.4177627354466
50.4177627354504
50.4177627354542
50.4177627354579
50.4177627354615
50.4177627354651
50.4177627354686
50.4177627354721
50.4177627354755
50.4177627354788
50.4177627354821
50.4177627354852
50.4177627354883
50.4177627354912
50.4177627354939
50.4177627354965
50.4177627354988
50.4177627355009
50.4177627355027
50.4177627355042
50.4177627355053
50.4177627355059
50.417762735506
50.4177627355057
50.4177627355048
50.4177627355035
50.4177627355018
50.4177627354998
50.4177627354976
50.4177627354942
50.4177627354878
3501.23352329736
31511.1017096894
31511.1024273939
3501.23360304376
50.4177638838441
50.4177638838542
50.4177638838599
50.417763883864
50.4177638838678
50.4177638838718
50.4177638838759
50.4177638838801
50.4177638838843
50.4177638838884
50.4177638838925
50.4177638838965
50.4177638839004
50.4177638839043
50.4177638839081
50.4177638839118
50.4177638839155
50.4177638839192
50.4177638839228
50.4177638839264
50.4177638839299
50.4177638839335
50.4177638839369
50.4177638839403
50.4177638839437
50.4177638839469
50.4177638839501
50.4177638839532
50.4177638839562
50.417763883959
50.4177638839617
50.4177638839642
50.4177638839664
50.4177638839684
50.4177638839701
50.4177638839715
50.4177638839725
50.4177638839731
50.4177638839733
50.4177638839731
50.4177638839725
50.4177638839716
50.4177638839705
50.4177638839689
50.4177638839654
50.4177638839569
3501.23360305164
31511.102427466
31511.1031451913
3501.23368279934
50.4177650323259
50.4177650323358
50.4177650323409
50.417765032344
50.417765032347
50.4177650323501
50.4177650323535
50.417765032357
50.4177650323606
50.4177650323643
50.4177650323679
50.4177650323716
50.4177650323753
50.4177650323789
50.4177650323826
50.4177650323861
50.4177650323898
50.4177650323933
50.4177650323969
50.4177650324004
50.4177650324039
50.4177650324075
50.4177650324109
50.4177650324143
50.4177650324177
50.417765032421
50.4177650324242
50.4177650324273
50.4177650324304
50.4177650324333
50.4177650324361
50.4177650324387
50.4177650324411
50.4177650324434
50.4177650324453
50.417765032447
50.4177650324484
50.4177650324495
50.4177650324502
50.4177650324507
50.4177650324508
50.4177650324508
50.4177650324506
50.4177650324499
50.4177650324471
50.4177650324387
3501.23368280724
31511.1031452624
31511.1038629939
3501.23376255525
50.4177661808108
50.41776618082
50.4177661808242
50.4177661808264
50.4177661808284
50.4177661808307
50.4177661808333
50.4177661808362
50.4177661808393
50.4177661808425
50.4177661808457
50.4177661808491
50.4177661808525
50.4177661808559
50.4177661808594
50.4177661808628
50.4177661808663
50.4177661808698
50.4177661808733
50.4177661808768
50.4177661808803
50.4177661808838
50.4177661808872
50.4177661808906
50.417766180894
50.4177661808974
50.4177661809006
50.4177661809038
50.4177661809069
50.4177661809099
50.4177661809128
50.4177661809156
50.4177661809182
50.4177661809206
50.4177661809229
50.4177661809248
50.4177661809266
50.4177661809282
50.4177661809294
50.4177661809305
50.4177661809314
50.4177661809322
50.4177661809329
50.4177661809332
50.4177661809313
50.4177661809236
3501.2337625631
31511.1038630647
31511.1045807979
3501.23384231124
50.4177673292964
50.4177673293046
50.4177673293079
50.4177673293091
50.4177673293102
50.4177673293117
50.4177673293136
50.4177673293159
50.4177673293184
50.4177673293211
50.417767329324
50.4177673293271
50.4177673293302
50.4177673293334
50.4177673293367
50.41776732934
50.4177673293434
50.4177673293468
50.4177673293502
50.4177673293536
50.4177673293571
50.4177673293605
50.417767329364
50.4177673293674
50.4177673293708
50.4177673293742
50.4177673293775
50.4177673293808
50.4177673293839
50.417767329387
50.41776732939
50.417767329393
50.4177673293957
50.4177673293984
50.4177673294009
50.4177673294032
50.4177673294053
50.4177673294073
50.4177673294091
50.4177673294108
50.4177673294124
50.4177673294141
50.4177673294156
50.4177673294169
50.4177673294159
50.4177673294092
3501.23384231905
31511.1045808664
31511.1052986022
3501.23392206724
50.4177684777821
50.4177684777892
50.4177684777914
50.4177684777917
50.417768477792
50.4177684777926
50.4177684777938
50.4177684777955
50.4177684777975
50.4177684777998
50.4177684778023
50.417768477805
50.4177684778079
50.4177684778109
50.417768477814
50.4177684778172
50.4177684778204
50.4177684778237
50.4177684778271
50.4177684778305
50.4177684778339
50.4177684778373
50.4177684778408
50.4177684778442
50.4177684778476
50.417768477851
50.4177684778544
50.4177684778577
50.4177684778609
50.4177684778641
50.4177684778673
50.4177684778703
50.4177684778733
50.4177684778761
50.4177684778789
50.4177684778815
50.417768477884
50.4177684778864
50.4177684778888
50.4177684778911
50.4177684778934
50.4177684778958
50.4177684778982
50.4177684779004
50.4177684779005
50.4177684778948
3501.23392207509
31511.1052986717
31511.1060164066
3501.23400182324
50.4177696262675
50.4177696262735
50.4177696262747
50.417769626274
50.4177696262734
50.4177696262733
50.4177696262739
50.4177696262749
50.4177696262764
50.4177696262782
50.4177696262804
50.4177696262828
50.4177696262854
50.4177696262882
50.4177696262911
50.4177696262942
50.4177696262973
50.4177696263005
50.4177696263038
50.4177696263072
50.4177696263105
50.4177696263139
50.4177696263174
50.4177696263208
50.4177696263243
50.4177696263276
50.4177696263311
50.4177696263344
50.4177696263378
50.4177696263411
50.4177696263443
50.4177696263475
50.4177696263507
50.4177696263538
50.4177696263567
50.4177696263597
50.4177696263626
50.4177696263654
50.4177696263683
50.4177696263712
50.4177696263742
50.4177696263774
50.4177696263806
50.4177696263838
50.4177696263848
50.4177696263803
3501.23400183113
31511.1060164772
31511.106734211
3501.23408157924
50.4177707747528
50.4177707747576
50.4177707747577
50.417770774756
50.4177707747546
50.4177707747537
50.4177707747536
50.4177707747541
50.4177707747551
50.4177707747565
50.4177707747584
50.4177707747605
50.4177707747628
50.4177707747654
50.4177707747682
50.4177707747711
50.4177707747741
50.4177707747772
50.4177707747804
50.4177707747837
50.4177707747871
50.4177707747905
50.4177707747939
50.4177707747973
50.4177707748008
50.4177707748042
50.4177707748077
50.4177707748111
50.4177707748145
50.4177707748179
50.4177707748213
50.4177707748246
50.417770774828
50.4177707748312