/*--------------------------------*- C++ -*----------------------------------*\
  =========                 |
  \\      /  F ield         | OpenFOAM: The Open Source CFD Toolbox
   \\    /   O peration     | Website:  https://openfoam.org
    \\  /    A nd           | Version:  10
     \\/     M anipulation  |
\*---------------------------------------------------------------------------*/
FoamFile
{
    format      ascii;
    class       volScalarField;
    location    "6.8";
    object      p;
}
// * * * * * * * * * * * * * * * * * * * * * * * * * * * * * * * * * * * * * //

dimensions      [1 -1 -2 0 0 0 0];

internalField   nonuniform List<scalar> 
2500
(
100095.812368149
100095.812369046
100095.812369991
100095.812370825
100095.812371397
100095.812371787
100095.812372036
100095.812372195
100095.812372295
100095.812372357
100095.812372397
100095.812372421
100095.812372436
100095.812372445
100095.812372451
100095.812372454
100095.812372456
100095.812372457
100095.812372457
100095.812372457
100095.812372456
100095.812372455
100095.812372454
100095.812372454
100095.812372453
100095.812372452
100095.812372451
100095.81237245
100095.81237245
100095.812372449
100095.812372448
100095.812372446
100095.812372445
100095.812372443
100095.812372439
100095.812372435
100095.812372428
100095.812372417
100095.8123724
100095.812372375
100095.812372334
100095.81237227
100095.812372169
100095.812372008
100095.812371758
100095.812371365
100095.812370787
100095.812369944
100095.812368982
100095.812368086
100095.8101191
100095.810119782
100095.810120543
100095.810121257
100095.810121761
100095.810122116
100095.810122345
100095.810122494
100095.810122588
100095.810122648
100095.810122685
100095.810122709
100095.810122724
100095.810122733
100095.810122739
100095.810122742
100095.810122744
100095.810122745
100095.810122745
100095.810122745
100095.810122744
100095.810122744
100095.810122743
100095.810122742
100095.810122741
100095.81012274
100095.81012274
100095.810122739
100095.810122738
100095.810122737
100095.810122736
100095.810122735
100095.810122733
100095.810122731
100095.810122728
100095.810122723
100095.810122716
100095.810122705
100095.810122689
100095.810122664
100095.810122625
100095.810122564
100095.810122468
100095.810122318
100095.810122087
100095.810121729
100095.81012122
100095.810120496
100095.810119722
100095.810119041
100095.807862516
100095.807863002
100095.807863479
100095.807863987
100095.807864354
100095.807864626
100095.807864806
100095.807864926
100095.807865004
100095.807865055
100095.807865087
100095.807865108
100095.807865122
100095.807865131
100095.807865136
100095.80786514
100095.807865141
100095.807865142
100095.807865143
100095.807865142
100095.807865142
100095.807865141
100095.80786514
100095.80786514
100095.807865139
100095.807865138
100095.807865137
100095.807865137
100095.807865136
100095.807865135
100095.807865134
100095.807865132
100095.807865131
100095.807865128
100095.807865125
100095.807865121
100095.807865114
100095.807865104
100095.807865089
100095.807865067
100095.807865033
100095.807864981
100095.807864901
100095.807864779
100095.807864597
100095.807864323
100095.80786395
100095.807863435
100095.807862945
100095.807862456
100095.805599233
100095.805599491
100095.805599692
100095.805599967
100095.805600172
100095.805600338
100095.805600453
100095.805600535
100095.80560059
100095.805600628
100095.805600654
100095.805600672
100095.805600683
100095.805600691
100095.805600696
100095.805600699
100095.805600701
100095.805600701
100095.805600702
100095.805600701
100095.805600701
100095.8056007
100095.8056007
100095.805600699
100095.805600698
100095.805600697
100095.805600696
100095.805600696
100095.805600695
100095.805600694
100095.805600693
100095.805600692
100095.80560069
100095.805600688
100095.805600685
100095.80560068
100095.805600674
100095.805600665
100095.805600652
100095.805600634
100095.805600607
100095.805600568
100095.805600511
100095.805600427
100095.805600311
100095.805600142
100095.805599932
100095.805599652
100095.805599443
100095.805599177
100095.803330366
100095.803330417
100095.803330409
100095.803330488
100095.803330555
100095.803330627
100095.803330684
100095.803330729
100095.803330764
100095.803330789
100095.803330808
100095.803330821
100095.80333083
100095.803330837
100095.803330841
100095.803330843
100095.803330845
100095.803330846
100095.803330846
100095.803330845
100095.803330845
100095.803330844
100095.803330844
100095.803330843
100095.803330842
100095.803330841
100095.803330841
100095.80333084
100095.803330839
100095.803330838
100095.803330837
100095.803330836
100095.803330834
100095.803330832
100095.80333083
100095.803330826
100095.80333082
100095.803330813
100095.803330802
100095.803330788
100095.803330768
100095.803330742
100095.803330706
100095.803330659
100095.803330601
100095.803330527
100095.803330457
100095.803330375
100095.803330379
100095.803330319
100095.801057227
100095.801057127
100095.801056989
100095.801056928
100095.801056895
100095.801056896
100095.801056906
100095.801056923
100095.801056939
100095.801056953
100095.801056965
100095.801056974
100095.801056981
100095.801056986
100095.801056989
100095.801056991
100095.801056993
100095.801056993
100095.801056993
100095.801056993
100095.801056992
100095.801056992
100095.801056991
100095.80105699
100095.80105699
100095.801056989
100095.801056988
100095.801056987
100095.801056987
100095.801056986
100095.801056985
100095.801056984
100095.801056982
100095.80105698
100095.801056978
100095.801056975
100095.80105697
100095.801056964
100095.801056956
100095.801056946
100095.801056933
100095.801056917
100095.8010569
100095.801056883
100095.801056871
100095.801056869
100095.801056901
100095.801056961
100095.8010571
100095.801057193
100095.798781129
100095.798780948
100095.798780749
100095.798780606
100095.798780511
100095.798780464
100095.798780442
100095.798780437
100095.798780439
100095.798780444
100095.79878045
100095.798780456
100095.79878046
100095.798780464
100095.798780466
100095.798780468
100095.798780468
100095.798780469
100095.798780469
100095.798780468
100095.798780468
100095.798780467
100095.798780466
100095.798780465
100095.798780465
100095.798780464
100095.798780463
100095.798780462
100095.798780462
100095.798780461
100095.79878046
100095.798780459
100095.798780458
100095.798780456
100095.798780454
100095.798780452
100095.798780448
100095.798780444
100095.798780438
100095.798780432
100095.798780424
100095.798780418
100095.798780415
100095.79878042
100095.798780441
100095.798780487
100095.798780582
100095.798780727
100095.798780929
100095.798781109
100095.796503158
100095.796502952
100095.796502742
100095.796502563
100095.796502439
100095.796502364
100095.796502322
100095.796502301
100095.796502293
100095.796502291
100095.796502292
100095.796502294
100095.796502296
100095.796502298
100095.796502299
100095.7965023
100095.7965023
100095.7965023
100095.7965023
100095.796502299
100095.796502299
100095.796502298
100095.796502297
100095.796502297
100095.796502296
100095.796502295
100095.796502294
100095.796502294
100095.796502293
100095.796502292
100095.796502292
100095.796502291
100095.79650229
100095.796502288
100095.796502287
100095.796502285
100095.796502282
100095.796502279
100095.796502276
100095.796502273
100095.796502271
100095.796502272
100095.79650228
100095.7965023
100095.796502342
100095.796502416
100095.796502542
100095.796502725
100095.796502939
100095.796503147
100095.794224094
100095.794223901
100095.794223709
100095.794223525
100095.794223392
100095.794223305
100095.794223251
100095.79422322
100095.794223204
100095.794223196
100095.794223193
100095.794223192
100095.794223192
100095.794223192
100095.794223193
100095.794223193
100095.794223193
100095.794223192
100095.794223192
100095.794223191
100095.79422319
100095.79422319
100095.794223189
100095.794223188
100095.794223187
100095.794223187
100095.794223186
100095.794223185
100095.794223185
100095.794223184
100095.794223183
100095.794223183
100095.794223182
100095.794223181
100095.79422318
100095.794223179
100095.794223177
100095.794223176
100095.794223175
100095.794223175
100095.794223177
100095.794223184
100095.7942232
100095.79422323
100095.794223283
100095.794223371
100095.794223506
100095.794223694
100095.794223891
100095.794224088
100095.791944444
100095.791944282
100095.791944118
100095.791943947
100095.791943819
100095.791943728
100095.791943669
100095.791943633
100095.791943611
100095.791943598
100095.791943592
100095.791943588
100095.791943586
100095.791943585
100095.791943584
100095.791943584
100095.791943583
100095.791943582
100095.791943582
100095.791943581
100095.79194358
100095.791943579
100095.791943578
100095.791943578
100095.791943577
100095.791943576
100095.791943575
100095.791943575
100095.791943574
100095.791943574
100095.791943573
100095.791943573
100095.791943572
100095.791943572
100095.791943571
100095.791943571
100095.79194357
100095.79194357
100095.791943571
100095.791943574
100095.79194358
100095.791943591
100095.791943613
100095.791943649
100095.791943708
100095.791943799
100095.79194393
100095.791944104
100095.791944273
100095.791944439
100095.789664504
100095.789664377
100095.789664244
100095.789664094
100095.789663976
100095.789663888
100095.789663828
100095.789663788
100095.789663763
100095.789663747
100095.789663737
100095.789663731
100095.789663728
100095.789663725
100095.789663724
100095.789663722
100095.789663721
100095.78966372
100095.789663719
100095.789663718
100095.789663717
100095.789663716
100095.789663716
100095.789663715
100095.789663714
100095.789663713
100095.789663713
100095.789663712
100095.789663712
100095.789663711
100095.789663711
100095.78966371
100095.78966371
100095.78966371
100095.78966371
100095.78966371
100095.789663711
100095.789663712
100095.789663715
100095.78966372
100095.789663729
100095.789663744
100095.789663769
100095.789663808
100095.789663869
100095.789663957
100095.789664077
100095.78966423
100095.789664368
100095.789664499
100095.787384435
100095.78738434
100095.787384233
100095.787384106
100095.787384002
100095.787383919
100095.78738386
100095.787383819
100095.787383792
100095.787383773
100095.787383761
100095.787383754
100095.787383748
100095.787383745
100095.787383742
100095.78738374
100095.787383739
100095.787383738
100095.787383736
100095.787383735
100095.787383734
100095.787383733
100095.787383732
100095.787383731
100095.787383731
100095.78738373
100095.787383729
100095.787383729
100095.787383728
100095.787383728
100095.787383728
100095.787383728
100095.787383728
100095.787383728
100095.787383728
100095.787383729
100095.787383731
100095.787383733
100095.787383737
100095.787383744
100095.787383755
100095.787383773
100095.7873838
100095.787383841
100095.7873839
100095.787383983
100095.787384089
100095.787384219
100095.787384329
100095.787384427
100095.785104314
100095.785104245
100095.785104161
100095.785104055
100095.785103964
100095.785103889
100095.785103832
100095.785103791
100095.785103763
100095.785103743
100095.785103729
100095.78510372
100095.785103714
100095.785103709
100095.785103706
100095.785103703
100095.785103701
100095.785103699
100095.785103698
100095.785103697
100095.785103696
100095.785103694
100095.785103693
100095.785103693
100095.785103692
100095.785103691
100095.785103691
100095.78510369
100095.78510369
100095.785103689
100095.785103689
100095.785103689
100095.78510369
100095.78510369
100095.785103691
100095.785103693
100095.785103695
100095.785103698
100095.785103704
100095.785103712
100095.785103725
100095.785103745
100095.785103773
100095.785103814
100095.78510387
100095.785103946
100095.785104038
100095.785104146
100095.785104232
100095.785104304
100095.782824178
100095.782824127
100095.782824061
100095.782823974
100095.782823896
100095.782823828
100095.782823775
100095.782823735
100095.782823706
100095.782823685
100095.782823671
100095.78282366
100095.782823653
100095.782823648
100095.782823644
100095.782823641
100095.782823638
100095.782823636
100095.782823634
100095.782823633
100095.782823632
100095.782823631
100095.78282363
100095.782823629
100095.782823628
100095.782823627
100095.782823627
100095.782823626
100095.782823626
100095.782823626
100095.782823626
100095.782823626
100095.782823626
100095.782823627
100095.782823629
100095.782823631
100095.782823634
100095.782823638
100095.782823645
100095.782823654
100095.782823668
100095.782823689
100095.782823717
100095.782823757
100095.782823809
100095.782823878
100095.782823957
100095.782824046
100095.782824113
100095.782824164
100095.780544039
100095.780544003
100095.780543951
100095.780543878
100095.780543812
100095.780543751
100095.780543703
100095.780543665
100095.780543636
100095.780543615
100095.780543599
100095.780543588
100095.78054358
100095.780543574
100095.780543569
100095.780543566
100095.780543563
100095.780543561
100095.780543559
100095.780543557
100095.780543556
100095.780543555
100095.780543554
100095.780543553
100095.780543552
100095.780543551
100095.780543551
100095.78054355
100095.78054355
100095.78054355
100095.78054355
100095.780543551
100095.780543551
100095.780543552
100095.780543554
100095.780543557
100095.78054356
100095.780543565
100095.780543573
100095.780543583
100095.780543598
100095.780543619
100095.780543647
100095.780543685
100095.780543733
100095.780543794
100095.780543861
100095.780543934
100095.780543986
100095.780544024
100095.778263904
100095.778263876
100095.778263835
100095.778263776
100095.778263719
100095.778263665
100095.778263621
100095.778263585
100095.778263557
100095.778263536
100095.778263521
100095.778263509
100095.7782635
100095.778263493
100095.778263488
100095.778263485
100095.778263482
100095.778263479
100095.778263477
100095.778263475
100095.778263474
100095.778263473
100095.778263472
100095.778263471
100095.77826347
100095.778263469
100095.778263469
100095.778263468
100095.778263468
100095.778263468
100095.778263468
100095.778263469
100095.77826347
100095.778263471
100095.778263473
100095.778263476
100095.77826348
100095.778263486
100095.778263494
100095.778263505
100095.77826352
100095.77826354
100095.778263568
100095.778263603
100095.778263647
100095.778263701
100095.778263758
100095.778263818
100095.778263859
100095.778263886
100095.775983771
100095.775983751
100095.775983718
100095.775983669
100095.77598362
100095.775983573
100095.775983533
100095.775983499
100095.775983473
100095.775983452
100095.775983437
100095.775983425
100095.775983416
100095.775983409
100095.775983403
100095.775983399
100095.775983396
100095.775983393
100095.775983391
100095.775983389
100095.775983388
100095.775983386
100095.775983385
100095.775983384
100095.775983384
100095.775983383
100095.775983382
100095.775983382
100095.775983382
100095.775983382
100095.775983382
100095.775983383
100095.775983384
100095.775983385
100095.775983388
100095.775983391
100095.775983395
100095.775983401
100095.77598341
100095.775983421
100095.775983436
100095.775983456
100095.775983482
100095.775983516
100095.775983555
100095.775983602
100095.775983651
100095.7759837
100095.775983732
100095.775983752
100095.773703641
100095.773703626
100095.773703599
100095.773703559
100095.773703517
100095.773703476
100095.77370344
100095.773703409
100095.773703384
100095.773703364
100095.773703349
100095.773703337
100095.773703328
100095.773703321
100095.773703315
100095.773703311
100095.773703307
100095.773703304
100095.773703302
100095.7737033
100095.773703299
100095.773703297
100095.773703296
100095.773703295
100095.773703294
100095.773703294
100095.773703293
100095.773703293
100095.773703293
100095.773703293
100095.773703293
100095.773703294
100095.773703295
100095.773703297
100095.773703299
100095.773703303
100095.773703307
100095.773703314
100095.773703322
100095.773703334
100095.773703348
100095.773703368
100095.773703392
100095.773703423
100095.773703459
100095.7737035
100095.773703541
100095.773703581
100095.773703607
100095.773703622
100095.771423514
100095.771423502
100095.771423481
100095.771423447
100095.771423412
100095.771423376
100095.771423343
100095.771423315
100095.771423292
100095.771423273
100095.771423258
100095.771423246
100095.771423237
100095.77142323
100095.771423224
100095.77142322
100095.771423216
100095.771423213
100095.771423211
100095.771423209
100095.771423207
100095.771423206
100095.771423205
100095.771423204
100095.771423203
100095.771423202
100095.771423202
100095.771423201
100095.771423201
100095.771423202
100095.771423202
100095.771423203
100095.771423204
100095.771423206
100095.771423208
100095.771423212
100095.771423217
100095.771423223
100095.771423232
100095.771423243
100095.771423257
100095.771423276
100095.771423299
100095.771423326
100095.771423359
100095.771423394
100095.77142343
100095.771423462
100095.771423483
100095.771423494
100095.769143388
100095.769143379
100095.769143362
100095.769143334
100095.769143304
100095.769143273
100095.769143244
100095.769143218
100095.769143197
100095.769143179
100095.769143165
100095.769143153
100095.769143144
100095.769143137
100095.769143131
100095.769143127
100095.769143123
100095.76914312
100095.769143118
100095.769143116
100095.769143114
100095.769143113
100095.769143111
100095.76914311
100095.76914311
100095.769143109
100095.769143108
100095.769143108
100095.769143108
100095.769143108
100095.769143109
100095.76914311
100095.769143111
100095.769143113
100095.769143115
100095.769143119
100095.769143124
100095.76914313
100095.769143139
100095.76914315
100095.769143163
100095.769143181
100095.769143202
100095.769143227
100095.769143255
100095.769143286
100095.769143316
100095.769143343
100095.76914336
100095.769143368
100095.766863264
100095.766863257
100095.766863243
100095.76686322
100095.766863194
100095.766863167
100095.766863142
100095.766863119
100095.766863099
100095.766863083
100095.766863069
100095.766863058
100095.766863049
100095.766863042
100095.766863036
100095.766863032
100095.766863028
100095.766863025
100095.766863023
100095.766863021
100095.766863019
100095.766863018
100095.766863016
100095.766863015
100095.766863015
100095.766863014
100095.766863014
100095.766863013
100095.766863013
100095.766863013
100095.766863014
100095.766863015
100095.766863016
100095.766863018
100095.766863021
100095.766863024
100095.766863029
100095.766863035
100095.766863044
100095.766863054
100095.766863067
100095.766863083
100095.766863102
100095.766863125
100095.76686315
100095.766863177
100095.766863202
100095.766863225
100095.766863238
100095.766863244
100095.764583141
100095.764583136
100095.764583124
100095.764583105
100095.764583083
100095.76458306
100095.764583038
100095.764583017
100095.764582999
100095.764582984
100095.764582971
100095.764582961
100095.764582953
100095.764582946
100095.76458294
100095.764582936
100095.764582932
100095.764582929
100095.764582927
100095.764582925
100095.764582923
100095.764582922
100095.76458292
100095.764582919
100095.764582919
100095.764582918
100095.764582917
100095.764582917
100095.764582917
100095.764582917
100095.764582918
100095.764582919
100095.76458292
100095.764582922
100095.764582925
100095.764582928
100095.764582933
100095.764582939
100095.764582947
100095.764582957
100095.764582969
100095.764582984
100095.764583001
100095.764583021
100095.764583043
100095.764583066
100095.764583088
100095.764583106
100095.764583117
100095.764583122
100095.762303019
100095.762303015
100095.762303006
100095.76230299
100095.762302972
100095.762302952
100095.762302932
100095.762302914
100095.762302898
100095.762302884
100095.762302872
100095.762302863
100095.762302855
100095.762302848
100095.762302843
100095.762302838
100095.762302835
100095.762302832
100095.76230283
100095.762302828
100095.762302826
100095.762302825
100095.762302823
100095.762302822
100095.762302822
100095.762302821
100095.76230282
100095.76230282
100095.76230282
100095.76230282
100095.762302821
100095.762302822
100095.762302823
100095.762302825
100095.762302827
100095.762302831
100095.762302835
100095.762302841
100095.762302848
100095.762302858
100095.762302869
100095.762302882
100095.762302898
100095.762302916
100095.762302935
100095.762302955
100095.762302973
100095.762302988
100095.762302996
100095.762303
100095.760022898
100095.760022895
100095.760022888
100095.760022875
100095.76002286
100095.760022843
100095.760022826
100095.76002281
100095.760022796
100095.760022783
100095.760022772
100095.760022763
100095.760022756
100095.76002275
100095.760022744
100095.76002274
100095.760022737
100095.760022734
100095.760022732
100095.76002273
100095.760022728
100095.760022727
100095.760022726
100095.760022725
100095.760022724
100095.760022723
100095.760022723
100095.760022722
100095.760022722
100095.760022723
100095.760022723
100095.760022724
100095.760022725
100095.760022727
100095.760022729
100095.760022733
100095.760022737
100095.760022742
100095.760022749
100095.760022758
100095.760022768
100095.76002278
100095.760022794
100095.760022809
100095.760022826
100095.760022843
100095.760022858
100095.76002287
100095.760022877
100095.760022879
100095.757742778
100095.757742776
100095.75774277
100095.75774276
100095.757742747
100095.757742733
100095.757742719
100095.757742705
100095.757742692
100095.757742681
100095.757742671
100095.757742663
100095.757742656
100095.75774265
100095.757742645
100095.757742641
100095.757742638
100095.757742635
100095.757742633
100095.757742631
100095.75774263
100095.757742628
100095.757742627
100095.757742626
100095.757742626
100095.757742625
100095.757742624
100095.757742624
100095.757742624
100095.757742624
100095.757742625
100095.757742625
100095.757742627
100095.757742628
100095.757742631
100095.757742634
100095.757742638
100095.757742643
100095.757742649
100095.757742656
100095.757742666
100095.757742676
100095.757742689
100095.757742702
100095.757742716
100095.75774273
100095.757742743
100095.757742752
100095.757742758
100095.757742759
100095.755462658
100095.755462657
100095.755462653
100095.755462645
100095.755462635
100095.755462623
100095.755462611
100095.755462599
100095.755462588
100095.755462578
100095.755462569
100095.755462562
100095.755462555
100095.75546255
100095.755462546
100095.755462542
100095.755462539
100095.755462536
100095.755462534
100095.755462532
100095.755462531
100095.75546253
100095.755462529
100095.755462528
100095.755462527
100095.755462526
100095.755462526
100095.755462525
100095.755462525
100095.755462525
100095.755462526
100095.755462526
100095.755462528
100095.755462529
100095.755462531
100095.755462534
100095.755462538
100095.755462542
100095.755462548
100095.755462555
100095.755462563
100095.755462572
100095.755462583
100095.755462594
100095.755462606
100095.755462618
100095.755462628
100095.755462635
100095.755462639
100095.75546264
100095.753182539
100095.753182539
100095.753182536
100095.75318253
100095.753182522
100095.753182513
100095.753182503
100095.753182492
100095.753182483
100095.753182474
100095.753182467
100095.75318246
100095.753182454
100095.75318245
100095.753182446
100095.753182442
100095.753182439
100095.753182437
100095.753182435
100095.753182433
100095.753182432
100095.753182431
100095.753182429
100095.753182429
100095.753182428
100095.753182427
100095.753182427
100095.753182426
100095.753182426
100095.753182426
100095.753182427
100095.753182427
100095.753182428
100095.753182429
100095.753182431
100095.753182434
100095.753182437
100095.753182441
100095.753182446
100095.753182452
100095.753182459
100095.753182467
100095.753182476
100095.753182486
100095.753182496
100095.753182505
100095.753182513
100095.753182518
100095.753182521
100095.753182521
100095.750902421
100095.750902421
100095.75090242
100095.750902416
100095.75090241
100095.750902402
100095.750902394
100095.750902386
100095.750902378
100095.75090237
100095.750902364
100095.750902358
100095.750902353
100095.750902349
100095.750902345
100095.750902342
100095.750902339
100095.750902337
100095.750902335
100095.750902334
100095.750902332
100095.750902331
100095.75090233
100095.750902329
100095.750902328
100095.750902328
100095.750902327
100095.750902327
100095.750902327
100095.750902327
100095.750902327
100095.750902327
100095.750902328
100095.750902329
100095.750902331
100095.750902333
100095.750902336
100095.75090234
100095.750902344
100095.750902349
100095.750902355
100095.750902362
100095.75090237
100095.750902377
100095.750902385
100095.750902392
100095.750902398
100095.750902402
100095.750902403
100095.750902403
100095.748622302
100095.748622304
100095.748622304
100095.748622301
100095.748622297
100095.748622291
100095.748622285
100095.748622278
100095.748622272
100095.748622266
100095.74862226
100095.748622255
100095.748622251
100095.748622247
100095.748622244
100095.748622241
100095.748622239
100095.748622237
100095.748622235
100095.748622234
100095.748622233
100095.748622231
100095.74862223
100095.74862223
100095.748622229
100095.748622228
100095.748622228
100095.748622227
100095.748622227
100095.748622227
100095.748622227
100095.748622228
100095.748622228
100095.748622229
100095.748622231
100095.748622232
100095.748622235
100095.748622238
100095.748622241
100095.748622246
100095.748622251
100095.748622256
100095.748622262
100095.748622269
100095.748622275
100095.74862228
100095.748622284
100095.748622286
100095.748622286
100095.748622285
100095.746342185
100095.746342187
100095.746342188
100095.746342187
100095.746342185
100095.746342181
100095.746342176
100095.746342171
100095.746342166
100095.746342161
100095.746342157
100095.746342152
100095.746342149
100095.746342146
100095.746342143
100095.74634214
100095.746342138
100095.746342137
100095.746342135
100095.746342134
100095.746342133
100095.746342132
100095.746342131
100095.74634213
100095.746342129
100095.746342129
100095.746342128
100095.746342128
100095.746342127
100095.746342127
100095.746342127
100095.746342127
100095.746342128
100095.746342129
100095.74634213
100095.746342131
100095.746342133
100095.746342136
100095.746342139
100095.746342142
100095.746342146
100095.74634215
100095.746342155
100095.74634216
100095.746342164
100095.746342167
100095.74634217
100095.74634217
100095.746342169
100095.746342167
100095.744062067
100095.74406207
100095.744062072
100095.744062073
100095.744062072
100095.74406207
100095.744062067
100095.744062064
100095.74406206
100095.744062056
100095.744062053
100095.744062049
100095.744062046
100095.744062044
100095.744062041
100095.744062039
100095.744062038
100095.744062036
100095.744062035
100095.744062034
100095.744062033
100095.744062032
100095.744062031
100095.74406203
100095.744062029
100095.744062029
100095.744062028
100095.744062028
100095.744062027
100095.744062027
100095.744062027
100095.744062027
100095.744062027
100095.744062028
100095.744062029
100095.74406203
100095.744062031
100095.744062033
100095.744062035
100095.744062038
100095.744062041
100095.744062044
100095.744062048
100095.744062051
100095.744062053
100095.744062055
100095.744062056
100095.744062055
100095.744062053
100095.744062049
100095.74178195
100095.741781954
100095.741781957
100095.74178196
100095.74178196
100095.74178196
100095.741781958
100095.741781956
100095.741781954
100095.741781951
100095.741781948
100095.741781946
100095.741781944
100095.741781942
100095.74178194
100095.741781938
100095.741781937
100095.741781936
100095.741781934
100095.741781933
100095.741781932
100095.741781932
100095.741781931
100095.74178193
100095.741781929
100095.741781929
100095.741781928
100095.741781928
100095.741781927
100095.741781927
100095.741781927
100095.741781927
100095.741781927
100095.741781927
100095.741781928
100095.741781928
100095.741781929
100095.741781931
100095.741781932
100095.741781934
100095.741781936
100095.741781938
100095.74178194
100095.741781942
100095.741781943
100095.741781943
100095.741781942
100095.741781939
100095.741781936
100095.741781932
100095.739501832
100095.739501837
100095.739501842
100095.739501846
100095.739501848
100095.73950185
100095.739501849
100095.739501849
100095.739501847
100095.739501846
100095.739501844
100095.739501843
100095.739501841
100095.73950184
100095.739501838
100095.739501837
100095.739501836
100095.739501835
100095.739501834
100095.739501833
100095.739501832
100095.739501831
100095.739501831
100095.73950183
100095.739501829
100095.739501829
100095.739501828
100095.739501828
100095.739501827
100095.739501827
100095.739501826
100095.739501826
100095.739501826
100095.739501826
100095.739501826
100095.739501827
100095.739501827
100095.739501828
100095.739501829
100095.73950183
100095.739501831
100095.739501832
100095.739501833
100095.739501833
100095.739501833
100095.739501831
100095.739501829
100095.739501824
100095.73950182
100095.739501815
100095.737221715
100095.737221721
100095.737221727
100095.737221733
100095.737221737
100095.737221739
100095.737221741
100095.737221741
100095.737221741
100095.737221741
100095.73722174
100095.737221739
100095.737221738
100095.737221737
100095.737221736
100095.737221736
100095.737221735
100095.737221734
100095.737221733
100095.737221733
100095.737221732
100095.737221731
100095.737221731
100095.73722173
100095.737221729
100095.737221729
100095.737221728
100095.737221727
100095.737221727
100095.737221726
100095.737221726
100095.737221726
100095.737221725
100095.737221725
100095.737221725
100095.737221725
100095.737221725
100095.737221725
100095.737221725
100095.737221725
100095.737221726
100095.737221726
100095.737221725
100095.737221724
100095.737221723
100095.73722172
100095.737221716
100095.73722171
100095.737221704
100095.737221698
100095.734941598
100095.734941606
100095.734941613
100095.73494162
100095.734941625
100095.73494163
100095.734941632
100095.734941634
100095.734941635
100095.734941636
100095.734941636
100095.734941636
100095.734941635
100095.734941635
100095.734941635
100095.734941634
100095.734941634
100095.734941633
100095.734941633
100095.734941632
100095.734941632
100095.734941631
100095.73494163
100095.73494163
100095.734941629
100095.734941629
100095.734941628
100095.734941627
100095.734941627
100095.734941626
100095.734941625
100095.734941625
100095.734941624
100095.734941624
100095.734941623
100095.734941623