/*--------------------------------*- C++ -*----------------------------------*\
  =========                 |
  \\      /  F ield         | OpenFOAM: The Open Source CFD Toolbox
   \\    /   O peration     | Website:  https://openfoam.org
    \\  /    A nd           | Version:  10
     \\/     M anipulation  |
\*---------------------------------------------------------------------------*/
FoamFile
{
    format      ascii;
    class       volScalarField;
    location    "6.8";
    object      p_rgh;
}
// * * * * * * * * * * * * * * * * * * * * * * * * * * * * * * * * * * * * * //

dimensions      [1 -1 -2 0 0 0 0];

internalField   nonuniform List<scalar> 
2500
(
95.9258152513357
95.9258181073965
95.9258234618173
95.9258275303146
95.9258300910733
95.925831628716
95.9258325163391
95.9258330214652
95.9258333015314
95.9258334539481
95.925833536312
95.9258335805207
95.9258336044295
95.9258336176717
95.9258336251223
95.9258336294006
95.9258336315688
95.9258336326602
95.9258336330822
95.9258336329804
95.9258336325875
95.9258336320054
95.9258336313214
95.9258336305356
95.9258336297935
95.9258336290368
95.9258336282655
95.9258336274943
95.9258336266939
95.9258336257917
95.925833624744
95.9258336233906
95.9258336216008
95.9258336190978
95.9258336154599
95.9258336098865
95.9258336009952
95.9258335862105
95.9258335602353
95.9258335137711
95.9258334288752
95.9258332732716
95.925832990717
95.9258324846742
95.9258315982443
95.9258300650545
95.9258275023167
95.925823407204
95.9258180045872
95.9258152283874
95.9261555219709
95.9261670916458
95.9261809408781
95.9261910515925
95.9261974534747
95.9262013107509
95.9262035561114
95.9262048306991
95.9262055304862
95.9262059024331
95.9262060942419
95.9262061906484
95.9262062383787
95.9262062619673
95.9262062737398
95.926206279677
95.9262062825728
95.9262062839116
95.9262062843918
95.9262062843482
95.9262062839553
95.9262062833877
95.9262062827038
95.9262062819616
95.9262062812049
95.9262062804482
95.9262062796915
95.9262062789203
95.9262062781199
95.9262062772177
95.9262062761554
95.926206274773
95.9262062728521
95.9262062700291
95.9262062656053
95.9262062580674
95.9262062444031
95.9262062183989
95.9262061673362
95.9262060666224
95.9262058695313
95.9262054918363
95.9262047880766
95.9262035146821
95.9262012787221
95.9261974369147
95.9261910323403
95.9261808514275
95.9261668667896
95.9261556124693
95.9265099364566
95.9265298055107
95.9265493664861
95.9265631159506
95.9265717131493
95.9265768510086
95.926579826657
95.9265815076797
95.9265824265603
95.9265829121723
95.9265831603698
95.9265832835226
95.9265833433601
95.9265833721583
95.9265833860409
95.9265833927639
95.9265833959653
95.9265833974059
95.9265833979007
95.9265833978425
95.9265833974641
95.9265833968966
95.9265833962127
95.9265833954851
95.9265833947284
95.9265833939717
95.926583393215
95.9265833924437
95.9265833916288
95.9265833907411
95.9265833896789
95.926583388311
95.926583386361
95.926583383407
95.9265833786339
95.9265833702375
95.9265833543177
95.926583322871
95.9265832593373
95.9265831313096
95.9265828770731
95.9265823850001
95.9265814617975
95.9265797825501
95.9265768181212
95.9265716950904
95.9265630798764
95.9265492036939
95.9265293854696
95.9265097553143
95.9268337651738
95.9268578338524
95.9268783993757
95.9268922523916
95.9269006560207
95.9269055453915
95.9269083114923
95.9269098439254
95.9269106685097
95.9269110990426
95.9269113170885
95.9269114246563
95.9269114768249
95.9269115019561
95.9269115141069
95.9269115200441
95.9269115228817
95.9269115241332
95.9269115245406
95.9269115244242
95.9269115240168
95.9269115234492
95.9269115227798
95.9269115220377
95.926911521281
95.9269115205097
95.9269115197676
95.9269115189963
95.926911518196
95.9269115173374
95.9269115163042
95.92691151498
95.9269115131319
95.9269115104107
95.9269115060742
95.9269114985946
95.9269114846247
95.9269114572671
95.9269114021736
95.9269112907205
95.9269110678142
95.9269106319116
95.9269098030927
95.9269082704413
95.9269055100158
95.9269006239483
95.9268921798357
95.92687815307
95.9268572241126
95.9268331037456
95.9270982989401
95.9271218764479
95.9271400474972
95.9271517798479
95.9271586704272
95.927162566586
95.9271647171699
95.9271658858197
95.9271665058332
95.9271668266883
95.9271669885929
95.9271670685848
95.9271671077004
95.9271671268216
95.9271671362803
95.927167140966
95.9271671432361
95.9271671442402
95.9271671444876
95.9271671442984
95.9271671438619
95.9271671432507
95.9271671425668
95.9271671418392
95.9271671410825
95.9271671403258
95.9271671395545
95.9271671388124
95.9271671380266
95.927167137168
95.9271671362076
95.9271671349852
95.9271671332972
95.9271671308816
95.9271671271999
95.9271671210736
95.927167110116
95.9271670892485
95.927167048023
95.9271669653826
95.9271668002184
95.927166475667
95.9271658523649
95.9271646824491
95.927162532942
95.9271586310206
95.9271516875451
95.9271397635021
95.9271211699379
95.9270972422237
95.9272941180534
95.9273139007273
95.92732794935
95.9273366497655
95.9273415931384
95.9273443072307
95.927345768112
95.9273465471779
95.9273469553591
95.9273471653723
95.9273472714558
95.9273473243375
95.9273473506473
95.9273473638168
95.9273473705252
95.9273473739595
95.927347375633
95.9273473762878
95.9273473763751
95.9273473761132
95.9273473756184
95.9273473749781
95.9273473742796
95.9273473735375
95.9273473727808
95.9273473720386
95.9273473712819
95.9273473705398
95.9273473697976
95.9273473689827
95.927347368066
95.92734736696
95.9273473654757
95.9273473634094
95.9273473604117
95.9273473556823
95.9273473476496
95.9273473330686
95.9273473052308
95.9273472506175
95.9273471425113
95.9273469302716
95.9273465199512
95.9273457396484
95.9273442779231
95.9273415550997
95.9273365604895
95.9273276826716
95.9273132183152
95.9272929059662
95.9274268794106
95.9274415499822
95.9274512744742
95.9274570491398
95.927460218998
95.9274619052885
95.9274627885898
95.9274632502347
95.9274634890753
95.9274636113842
95.9274636734772
95.9274637048511
95.9274637208437
95.9274637291091
95.9274637334602
95.9274637357157
95.9274637367635
95.9274637371273
95.9274637370254
95.927463736647
95.9274637360941
95.9274637354101
95.9274637346825
95.9274637339404
95.9274637331837
95.9274637324415
95.9274637316994
95.9274637309863
95.9274637302733
95.9274637295166
95.9274637286726
95.9274637276976
95.9274637264316
95.9274637247436
95.9274637224007
95.9274637188937
95.9274637133349
95.9274637038761
95.9274636866758
95.9274636540649
95.9274635906913
95.9274634670292
95.9274632269662
95.9274627645937
95.9274618804775
95.9274601869402
95.9274569769041
95.927451060561
95.927440981468
95.9274257480283
95.9275100400555
95.9275198484538
95.9275259648275
95.9275294375402
95.9275312721147
95.9275322117028
95.9275326872739
95.9275329290831
95.9275330518576
95.9275331141398
95.927533145863
95.9275331621029
95.9275331705867
95.9275331751269
95.9275331775279
95.9275331787503
95.9275331792451
95.9275331792451
95.927533178954
95.9275331784447
95.9275331778044
95.9275331770914
95.9275331763347
95.9275331755634
95.9275331748067
95.9275331740791
95.9275331733661
95.9275331726676
95.9275331719982
95.9275331713143
95.9275331705576
95.9275331697281
95.9275331686949
95.9275331673998
95.9275331656536
95.927533163238
95.9275331596727
95.9275331540412
95.9275331444951
95.9275331272511
95.927533094582
95.9275330313831
95.927532907881
95.9275326657953
95.9275321900786
95.9275312463433
95.9275293853134
95.9275258130365
95.9275194291549
95.9275091313757
95.9275585225987
95.92756451483
95.9275680435094
95.927569943844
95.9275708999339
95.9275713628158
95.9275715840486
95.927571690394
95.927571741835
95.9275717668352
95.9275717792625
95.9275717855198
95.927571788794
95.9275717905257
95.9275717913697
95.9275717916753
95.9275717916171
95.9275717912969
95.9275717907731
95.9275717901182
95.9275717893761
95.9275717885903
95.9275717878045
95.9275717870332
95.927571786262
95.9275717855489
95.927571784865
95.9275717842102
95.927571783599
95.9275717829732
95.927571782333
95.9275717816636
95.9275717808778
95.9275717799464
95.9275717788114
95.9275717773271
95.9275717753626
95.9275717725977
95.9275717683195
95.9275717611454
95.927571747874
95.9275717221462
95.9275716701814
95.9275715638069
95.927571342967
95.9275708786445
95.9275699077843
95.9275679450802
95.9275642351276
95.9275578740198
95.9275849935657
95.9275883696391
95.9275902452355
95.92759118494
95.9275916224869
95.927591811429
95.9275918891799
95.927591919477
95.9275919305219
95.9275919338688
95.927591934611
95.9275919344509
95.9275919341017
95.9275919336942
95.9275919332576
95.9275919327483
95.9275919321517
95.9275919314678
95.9275919307111
95.9275919299107
95.9275919290812
95.9275919282372
95.9275919274078
95.9275919266074
95.9275919258507
95.9275919251231
95.9275919244683
95.9275919238571
95.9275919232896
95.9275919227512
95.9275919222418
95.9275919217471
95.9275919212378
95.9275919206848
95.9275919200882
95.9275919194479
95.9275919188076
95.9275919181964
95.9275919175852
95.9275919168576
95.9275919153297
95.9275919112843
95.9275918998028
95.9275918695348
95.9275917923951
95.9275916036568
95.9275911592704
95.9275901845394
95.9275881972717
95.9275845727825
95.9275985981221
95.9276003618725
95.9276012778864
95.9276016845834
95.9276018442033
95.9276018900855
95.9276018940291
95.9276018849923
95.9276018746023
95.9276018659293
95.9276018597011
95.9276018553792
95.9276018524542
95.9276018503733
95.9276018488454
95.9276018475939
95.927601846488
95.9276018454548
95.9276018444652
95.9276018435048
95.9276018425589
95.9276018416422
95.9276018407836
95.9276018399541
95.9276018391829
95.9276018384844
95.9276018378441
95.9276018372766
95.9276018367673
95.9276018363307
95.9276018359524
95.9276018356177
95.9276018353703
95.9276018351957
95.9276018351375
95.927601835283
95.9276018357486
95.9276018368109
95.9276018388191
95.9276018422825
95.9276018477394
95.9276018557575
95.927601865711
95.9276018747623
95.9276018714154
95.9276018263918
95.9276016644726
95.9276012401533
95.9276002610131
95.9275983449479
95.9276052050263
95.9276060602715
95.9276064643782
95.9276066011662
95.9276066255843
95.9276066041057
95.9276065737504
95.9276065460872
95.927606525016
95.9276065098093
95.9276064993901
95.9276064922742
95.927606487443
95.9276064840524
95.9276064815786
95.9276064796431
95.9276064780861
95.9276064767182
95.9276064754813
95.9276064743462
95.927606473284
95.9276064722944
95.9276064713777
95.9276064705336
95.9276064697624
95.9276064690639
95.9276064684527
95.9276064679143
95.9276064674777
95.9276064671285
95.9276064668957
95.9276064667647
95.9276064667647
95.9276064669248
95.9276064673759
95.9276064682199
95.9276064696751
95.9276064720907
95.9276064760343
95.9276064823061
95.9276064919686
95.9276065065496
95.9276065271843
95.9276065548038
95.9276065856102
95.9276066081075
95.9276065834565
95.9276064388832
95.9276060017146
95.9276050603366
95.9276082428405
95.9276086251775
95.9276087772596
95.9276087903854
95.9276087565377
95.9276087076723
95.9276086636819
95.927608628248
95.9276086022583
95.9276085836173
95.9276085706806
95.927608561673
95.9276085553865
95.9276085509046
95.9276085476013
95.9276085450983
95.9276085430756
95.9276085413876
95.9276085399324
95.9276085386373
95.9276085374731
95.9276085364108
95.9276085354504
95.9276085345773
95.9276085337915
95.9276085331076
95.9276085325109
95.9276085320307
95.9276085316524
95.9276085313904
95.927608531274
95.9276085313177
95.9276085315651
95.9276085320889
95.9276085330057
95.9276085344609
95.9276085367601
95.9276085402817
95.9276085457095
95.9276085539168
95.9276085661404
95.9276085841993
95.927608609767
95.92760864507
95.927608689366
95.9276087390899
95.927608773447
95.9276087573817
95.9276085891324
95.9276081612916
95.9276095632085
95.9276097170514
95.9276097551774
95.9276097190013
95.9276096648973
95.9276096081157
95.9276095605601
95.9276095228852
95.9276094950183
95.9276094746601
95.9276094601955
95.9276094498637
95.9276094425149
95.9276094371453
95.9276094331726
95.9276094301313
95.9276094277011
95.9276094257366
95.9276094240631
95.9276094226079
95.9276094213419
95.9276094202069
95.9276094191882
95.9276094183006
95.9276094175148
95.9276094168308
95.9276094162633
95.9276094158122
95.9276094155066
95.927609415332
95.927609415332
95.9276094155503
95.9276094160305
95.9276094168745
95.9276094181987
95.9276094202069
95.9276094232046
95.9276094276574
95.9276094341767
95.9276094437373
95.9276094575325
95.9276094773086
95.9276095047826
95.9276095422974
95.9276095900132
95.9276096474205
95.9276097021066
95.9276097374095
95.9276096917019
95.9276095151581
95.9276101002324
95.927610151688
95.9276101436117
95.9276100928255
95.9276100356365
95.9276099796552
95.9276099331619
95.9276098958944
95.927609867751
95.9276098467235
95.9276098314003
95.9276098201954
95.9276098120317
95.9276098059927
95.9276098014379
95.9276097979455
95.9276097951806
95.9276097929396
95.927609791077
95.9276097894908
95.9276097881229
95.9276097869151
95.9276097858674
95.9276097849506
95.9276097841503
95.9276097834809
95.9276097829279
95.9276097825204
95.9276097822731
95.9276097821858
95.9276097823022
95.9276097826805
95.927609783379
95.927609784485
95.927609786173
95.9276097886614
95.9276097922557
95.9276097974216
95.9276098047703
95.9276098152332
95.927609829916
95.9276098504051
95.9276098781411
95.9276099152194
95.9276099617855
95.9276100181451
95.9276100757561
95.927610126324
95.927610130806
95.9276100683492
95.9276102975273
95.9276103070442
95.9276102835429
95.9276102327276
95.9276101793366
95.9276101276337
95.927610084138
95.9276100485731
95.9276100210554
95.9276100000279
95.9276099843119
95.9276099725685
95.9276099638373
95.9276099572744
95.9276099522831
95.9276099484268
95.9276099453709
95.9276099429117
95.9276099408744
95.9276099391573
95.9276099377021
95.9276099364361
95.9276099353447
95.9276099343988
95.9276099335984
95.927609932929
95.9276099324052
95.9276099320414
95.9276099318377
95.9276099318231
95.9276099320559
95.9276099325652
95.9276099334384
95.9276099348062
95.9276099367999
95.9276099396666
95.9276099437266
95.9276099494309
95.9276099573763
95.9276099683921
95.927609983497
95.9276100040297
95.9276100311545
95.9276100665156
95.9276101099822
95.9276101618743
95.927610215469
95.9276102661097
95.9276102876465
95.9276102728036
95.9276103545708
95.927610349012
95.9276103229058
95.9276102773001
95.9276102299191
95.9276101836003
95.9276101437863
95.9276101105206
95.9276100841525
95.927610063547
95.9276100478019
95.9276100358111
95.9276100267161
95.9276100198185
95.9276100144925
95.9276100103452
95.9276100070565
95.9276100044081
95.9276100022398
95.9276100004208
95.9276099988783
95.9276099975687
95.9276099964336
95.9276099954732
95.9276099946728
95.9276099940034
95.9276099934941
95.9276099931594
95.9276099929994
95.9276099930721
95.9276099933777
95.9276099940034
95.9276099950512
95.9276099966082
95.9276099988492
95.9276100020215
95.9276100064308
95.9276100124989
95.9276100208226
95.9276100321295
95.927610047278
95.9276100673887
95.9276100933785
95.9276101264404
95.9276101661235
95.927610212515
95.927610259896
95.9276103051816
95.9276103299489
95.9276103327138
95.9276103567245
95.9276103471348
95.9276103230659
95.9276102839212
95.9276102428121
95.9276102019066
95.9276101659634
95.9276101352298
95.9276101103314
95.927610090439
95.9276100749703
95.927610062965
95.9276100537099
95.9276100465795
95.9276100410207
95.9276100366696
95.9276100332063
95.9276100304123
95.9276100281277
95.9276100262359
95.9276100246352
95.9276100232673
95.9276100221177
95.9276100211282
95.9276100203278
95.927610019673
95.9276100191782
95.9276100188581
95.9276100187417
95.9276100188581
95.927610019251
95.9276100199786
95.9276100211428
95.9276100228599
95.9276100253046
95.9276100286952
95.9276100333373
95.9276100396528
95.9276100481511
95.9276100595016
95.9276100744028
95.9276100938005
95.9276101183204
95.9276101488213
95.927610184619
95.9276102254807
95.9276102664298
95.9276103051088
95.9276103280135
95.9276103358861
95.927610338651
95.927610329134
95.9276103084267
95.9276102754811
95.9276102401782
95.9276102043368
95.9276101721625
95.9276101440337
95.9276101207797
95.9276101018477
95.9276100868447
95.9276100750139
95.9276100657735
95.9276100585412
95.9276100528659
95.9276100483839
95.9276100448042
95.9276100419229
95.9276100395509
95.9276100375864
95.9276100359275
95.9276100345451
95.9276100333664
95.9276100323768
95.9276100315619
95.9276100309071
95.9276100304414
95.9276100301358
95.9276100300631
95.9276100302086
95.9276100306597
95.9276100314601
95.9276100327261
95.9276100345451
95.9276100371208
95.9276100406569
95.927610045459
95.9276100518618
95.9276100603747
95.9276100715506
95.9276100860006
95.9276101044525
95.9276101273281
95.9276101551804
95.9276101871801
95.9276102228905
95.9276102579315
95.9276102903241
95.9276103099401
95.9276103182201
95.9276103138836
95.92761030572
95.9276102884032
95.9276102608856
95.927610230734
95.9276101995347
95.927610170882
95.927610145387
95.9276101238647
95.9276101060677
95.927610091705
95.927610080209
95.927610071114
95.9276100639108
95.927610058221
95.9276100536808
95.9276100500429
95.9276100470888
95.9276100446586
95.9276100426505
95.927610040977
95.9276100395655
95.9276100383722
95.9276100373681
95.9276100365532
95.9276100359129
95.9276100354473
95.9276100351708
95.9276100351126
95.9276100352872
95.927610035782
95.9276100366405
95.9276100379502
95.9276100398565
95.927610042505
95.9276100461138
95.9276100509451
95.9276100573479
95.9276100657298
95.927610076571
95.9276100903662
95.9276101077121
95.9276101288269
95.9276101540454
95.9276101824798
95.9276102135045
95.9276102433359
95.9276102702424
95.927610286526
95.9276102937001
95.9276102874137
95.9276102807926
95.9276102665171
95.9276102436415
95.9276102179865
95.9276101909636
95.9276101656142
95.9276101426367
95.9276101229188
95.9276101063442
95.9276100927527
95.9276100817369
95.9276100728894
95.9276100658317
95.9276100601855
95.9276100556599
95.9276100520074
95.9276100490388
95.9276100465941
95.9276100445713
95.9276100428688
95.9276100414427
95.9276100402494
95.9276100392453
95.9276100384304
95.9276100377901
95.927610037339
95.9276100370771
95.9276100370189
95.9276100372226
95.9276100377319
95.9276100386196
95.9276100399729
95.9276100419083
95.9276100445713
95.9276100481802
95.9276100529678
95.9276100592542
95.9276100673742
95.9276100777497
95.9276100907737
95.9276101068826
95.9276101262076
95.9276101488649
95.927610173967
95.9276102007861
95.9276102261065
95.9276102483564
95.9276102616859
95.927610267463
95.9276102609583
95.9276102557487
95.9276102441072
95.9276102251606
95.9276102034346
95.9276101801224
95.9276101578434
95.9276101373252
95.9276101193973
95.9276101041032
95.9276100913848
95.9276100809511
95.9276100724819
95.9276100656425
95.9276100601273
95.9276100556744
95.9276100520656
95.927610049097
95.9276100466668
95.9276100446441
95.9276100429561
95.92761004153
95.9276100403367
95.9276100393472
95.9276100385323
95.927610037892
95.9276100374409
95.927610037179
95.9276100371353
95.9276100373536
95.9276100378629
95.9276100387506
95.9276100401039
95.9276100420248
95.9276100446586
95.9276100482093
95.9276100528805
95.9276100589486
95.9276100667048
95.9276100765128
95.9276100886636
95.9276101034775
95.9276101209834
95.9276101411815
95.927610163184
95.9276101862633
95.9276102076401
95.9276102259755
95.9276102367876
95.9276102412987
95.9276102350123
95.9276102310832
95.9276102216681
95.927610206083
95.9276101877622
95.927610167797
95.927610148341
95.9276101301512
95.9276101140131
95.9276101000432
95.9276100882707
95.9276100785064
95.9276100704883
95.9276100639399
95.9276100586285
95.927610054292
95.9276100507559
95.9276100478601
95.927610045459
95.9276100434654
95.9276100417919
95.9276100403804
95.9276100392017
95.9276100382122
95.9276100373972
95.9276100367715
95.9276100363059
95.9276100360439
95.9276100360003
95.927610036204
95.9276100367133
95.9276100375864
95.9276100389106
95.9276100407733
95.927610043349
95.9276100467687
95.9276100512507
95.9276100570278
95.9276100643474
95.927610073486
95.9276100847055
95.9276100981806
95.9276101138967
95.9276101317373
95.9276101509022
95.9276101706055
95.9276101885771
95.9276102035947
95.9276102122822
95.9276102156437
95.927610209721
95.9276102068834
95.9276101994037
95.9276101867144
95.9276101714058
95.9276101544383
95.9276101376163
95.9276101216237
95.9276101072173
95.9276100946008
95.9276100838324
95.9276100747811
95.9276100672723
95.9276100611023
95.9276100560237
95.9276100518764
95.9276100484713
95.9276100456627
95.9276100433199
95.9276100413699
95.9276100397401
95.9276100383577
95.927610037179
95.927610036204
95.9276100354036
95.9276100347779
95.9276100343122
95.9276100340503
95.9276100339921
95.9276100341813
95.9276100346469
95.9276100354909
95.927610036757
95.9276100385468
95.9276100409916
95.9276100442512
95.9276100484858
95.9276100538991
95.9276100606949
95.9276100691204
95.9276100793359
95.9276100914576
95.9276101054274
95.9276101210417
95.9276101375726
95.9276101542637
95.927610169223
95.9276101813884
95.9276101882569
95.927610190658
95.927610185041
95.9276101831783
95.9276101774012
95.9276101672585
95.9276101546129
95.927610140352
95.9276101259311
95.927610112034
95.9276100993302
95.9276100880525
95.9276100783027
95.9276100700226
95.9276100630959
95.9276100573334
95.9276100525749
95.9276100486459
95.9276100454008
95.9276100426941
95.9276100404531
95.9276100385614
95.9276100369752
95.9276100356365
95.9276100344869
95.9276100335264
95.9276100327406
95.9276100321149
95.9276100316492
95.9276100313582
95.9276100312854
95.927610031431
95.9276100318675
95.9276100326388
95.9276100338175
95.9276100355055
95.9276100378047
95.927610040846
95.9276100447751
95.9276100497809
95.9276100560237
95.9276100636635
95.9276100728603
95.9276100836287
95.9276100958959
95.9276101094001
95.9276101235009
95.9276101374708
95.9276101497671
95.9276101594442
95.9276101647265
95.927610166269
95.9276101609139
95.9276101599389
95.9276101556752
95.9276101477881
95.927610137529
95.9276101257419
95.9276101135474
95.9276101016148
95.9276100905554
95.9276100806019
95.9276100718998
95.9276100644347
95.9276100581046
95.9276100528077
95.9276100483985
95.9276100447169
95.9276100416755
95.9276100391289
95.9276100369898
95.9276100351854
95.9276100336574
95.9276100323477
95.9276100312418
95.9276100302959
95.9276100295247
95.9276100288989
95.9276100284333
95.9276100281277
95.9276100280113
95.9276100281277
95.927610028506
95.92761002919
95.9276100302668
95.9276100318093
95.9276100339193
95.9276100366988
95.9276100403076
95.9276100448478
95.9276100504794
95.9276100573188
95.9276100654679
95.9276100749121
95.9276100855204
95.9276100970455
95.9276101088908
95.9276101203868
95.9276101302967
95.9276101377909
95.9276101416472
95.9276101424184
95.9276101372525
95.9276101371215
95.9276101342402
95.9276101283758
95.927610120285
95.9276101107389
95.9276101006253
95.9276100905699
95.9276100810821
95.9276100724237
95.9276100647694
95.9276100581337
95.9276100524585
95.9276100476563
95.9276100436255
95.9276100402494
95.9276100374118
95.9276100350253
95.9276100330171
95.9276100313145
95.9276100298594
95.9276100286224
95.9276100275456
95.9276100266434
95.9276100258721
95.9276100252464
95.9276100247662
95.927610024446
95.927610024286
95.9276100243587
95.9276100246498
95.9276100252464
95.9276100262068
95.9276100275747
95.9276100294665
95.9276100319694
95.9276100351854
95.9276100392308
95.9276100442221
95.9276100502466
95.9276100573334
95.9276100654679
95.9276100745046
95.9276100841525
95.9276100939169
95.9276101031428
95.927610110899
95.9276101163996
95.9276101189753
95.9276101189898
95.927610113984
95.9276101146679
95.9276101130672
95.9276101090654
95.9276101029536
95.927610095503
95.9276100873249
95.9276100790157
95.9276100710413
95.927610063678
95.9276100570714
95.9276100512652
95.9276100462448
95.9276100419811
95.9276100383577
95.9276100352872
95.927610032697
95.9276100305142
95.9276100286515
95.9276100270654
95.9276100256975
95.9276100245188
95.9276100234856
95.9276100226125
95.9276100218558
95.9276100212301
95.9276100207353
95.9276100203861
95.9276100201969
95.9276100201969
95.9276100204152
95.9276100208954
95.9276100216957
95.927610022889
95.9276100245334
95.9276100267161
95.9276100295247
95.9276100330608
95.9276100373827
95.9276100425632
95.9276100486168
95.9276100554707
95.9276100629795
95.9276100708521
95.927610078681
95.927610085826
95.9276100916177
95.9276100952848
95.9276100966381
95.9276100959396
95.9276100910065
95.9276100924908
95.9276100921124
95.9276100898569
95.9276100855932
95.9276100800635
95.9276100736897
95.9276100670686
95.9276100605493
95.927610054423
95.927610048835
95.9276100438874
95.9276100395509
95.9276100358256
95.9276100326242
95.927610029903
95.9276100275893
95.9276100256102
95.9276100239076
95.9276100224379
95.9276100211719
95.9276100200659
95.9276100190909
95.9276100182469
95.9276100175048
95.927610016879
95.9276100163697
95.9276100159914
95.927610015744
95.9276100156712
95.9276100158022
95.9276100161514
95.9276100167917
95.9276100177813
95.9276100191637
95.9276100210118
95.9276100233837
95.9276100263814
95.9276100300194
95.9276100343559
95.9276100393763
95.9276100449788
95.9276100510469
95.9276100572461
95.927610063256
95.9276100684656
95.9276100724383
95.9276100743882
95.9276100745919
95.9276100731513
95.9276100682619
95.9276100705902
95.9276100713905
95.9276100708084
95.9276100682619
95.9276100645511
95.92761005988
95.9276100548304
95.9276100496936
95.9276100447751
95.9276100402203
95.9276100361021
95.9276100324641
95.9276100292918
95.9276100265415
95.9276100241841
95.9276100221468
95.9276100203861
95.9276100188727
95.9276100175339
95.9276100163697
95.9276100153365
95.9276100144343
95.9276100136049
95.9276100128918
95.9276100122661
95.9276100117422
95.9276100113202
95.9276100110292
95.9276100108691
95.9276100108837
95.9276100111165
95.9276100115821
95.9276100123388
95.9276100134302
95.9276100149291
95.9276100168645
95.9276100192947
95.9276100222487
95.9276100257412
95.9276100297429
95.9276100341522
95.9276100388088
95.9276100434363
95.9276100477291
95.9276100511343
95.9276100533898
95.9276100537099
95.9276100527932
95.9276100505813
95.9276100456482
95.9276100488496
95.9276100508287
95.9276100518764
95.9276100509596
95.927610048966
95.9276100459101
95.927610042374
95.9276100385759
95.9276100348361
95.9276100312709
95.9276100279967
95.9276100250427
95.9276100224379
95.9276100201532
95.9276100181451
95.9276100164134
95.9276100149
95.9276100135612
95.9276100123825
95.9276100113202
95.9276100103743
95.9276100095158
95.9276100087445
95.927610008046
95.9276100074203
95.9276100068819
95.9276100064162
95.927610006067
95.9276100058196
95.9276100057323
95.927610005805
95.9276100060815
95.9276100066054
95.9276100074057
95.9276100085262
95.9276100100105
95.9276100118732
95.9276100141433
95.9276100168063
95.927610019804
95.9276100230345
95.9276100263669
95.927610029481
95.9276100321731
95.9276100338757
95.9276100345014
95.9276100332354
95.9276100311836
95.9276100281422
95.9276100231218
95.9276100272837
95.9276100304414
95.9276100331044
95.9276100337593
95.9276100333955
95.9276100318675
95.9276100297575
95.9276100272546
95.9276100246352
95.927610022045
95.9276100195857
95.9276100173302
95.9276100152783
95.9276100134593
95.9276100118441
95.927610010418
95.927610009152
95.9276100080169
95.9276100069837
95.9276100060524
95.9276100051939
95.9276100043935
95.9276100036514
95.927610002982
95.9276100023562
95.9276100017887
95.9276100012794
95.9276100008574
95.9276100005372
95.927610000319
95.9276100002462
95.9276100003335
95.9276100005955
95.9276100010902
95.9276100018324
95.9276100028364
95.9276100041461
95.9276100057177
95.9276100075513
95.9276100095885
95.9276100116986
95.9276100137504
95.9276100154384
95.9276100166026
95.9276100166753
95.9276100157585
95.9276100129064
95.9276100097195
95.9276100057759
95.92761000061
95.9276100058196
95.9276100102143
95.927610014478
95.9276100166899
95.9276100178686
95.9276100178104
95.9276100170537
95.9276100157731
95.9276100142451
95.9276100126008
95.9276100109564
95.9276100093703
95.9276100079005
95.9276100065472
95.9276100053248
95.9276100042043
95.9276100031857
95.9276100022544
95.9276100013813
95.9276100005663
95.9276099998096
95.9276099990821
95.9276099983836
95.9276099977287
95.927609997103
95.9276099965064
95.9276099959534
95.9276099954732
95.9276099950512
95.9276099947019
95.9276099944691
95.9276099943527
95.9276099943672
95.9276099945419
95.9276099948911
95.9276099954295
95.9276099961717
95.9276099970593
95.9276099980925
95.9276099991839
95.9276100002025
95.927610001032
95.9276100013521
95.9276100010902
95.9276099996059
95.9276099971758
95.9276099927374
95.9276099883718
95.9276099834242
95.92760997804
95.9276099844574
95.9276099901326
95.9276099960698
95.927609999766
95.9276100024581
95.9276100037678
95.9276100043207
95.9276100042189
95.9276100037387
95.9276100029965
95.927610002138
95.9276100012357
95.9276100003335
95.9276099994458
95.9276099986018
95.927609997816
95.9276099970448
95.9276099963172
95.9276099956187
95.9276099949348
95.9276099942508
95.927609993596
95.9276099929411
95.9276099923009
95.9276099916751
95.9276099910639
95.9276099904673
95.9276099899143
95.9276099893905
95.9276099889248
95.9276099885174
95.9276099881827
95.9276099879498
95.9276099878043
95.9276099877607
95.9276099878334
95.9276099879935
95.9276099882263
95.9276099884592
95.9276099886338
95.9276099886192
95.92760998827
95.9276099873096
95.9276099856652
95.927609982682
95.9276099787821
95.927609972714
95.9276099671115
95.9276099610142
95.9276099553826
95.9276099631679
95.9276099702256
95.9276099778654
95.9276099830313
95.9276099871786
95.9276099898125
95.9276099915878
95.9276099926064
95.9276099931303
95.9276099932758
95.9276099931885
95.9276099929411
95.9276099925919
95.9276099921844
95.9276099917188
95.9276099912386
95.9276099907438
95.9276099902199
95.9276099896815
95.927609989114
95.9276099885465
95.9276099879644
95.9276099873532
95.9276099867275
95.9276099861017
95.9276099854615
95.9276099848212
95.9276099841954
95.9276099835697
95.9276099829731
95.927609982391
95.9276099818526
95.9276099813433
95.9276099808776
95.9276099804556