/*--------------------------------*- C++ -*----------------------------------*\
  =========                 |
  \\      /  F ield         | OpenFOAM: The Open Source CFD Toolbox
   \\    /   O peration     | Website:  https://openfoam.org
    \\  /    A nd           | Version:  10
     \\/     M anipulation  |
\*---------------------------------------------------------------------------*/
FoamFile
{
    format      ascii;
    class       surfaceScalarField;
    location    "6.8";
    object      phi;
}
// * * * * * * * * * * * * * * * * * * * * * * * * * * * * * * * * * * * * * //

dimensions      [1 0 -1 0 0 0 0];

internalField   nonuniform List<scalar> 
4900
(
-5.72183396877568e-12
5.75697822398116e-12
-8.01774631844154e-12
2.34967360502131e-12
-7.33610268167534e-12
-6.24333111367288e-13
-5.52227840121183e-12
-1.75748369161417e-12
-3.8034677924208e-12
-1.66340822798357e-12
-2.52488249560247e-12
-1.22360855408899e-12
-1.66057687895091e-12
-8.09554666019937e-13
-1.09624116386864e-12
-5.09820582877839e-13
-7.30743968849652e-13
-3.1129615199588e-13
-4.92334956344423e-13
-1.84603565722205e-13
-3.33965800657949e-13
-1.05019054305972e-13
-2.26065355673369e-13
-5.50422570015187e-14
-1.50266886874549e-13
-2.34456777708125e-14
-9.52954650413131e-14
-3.12241322151866e-15
-5.4216604340472e-14
1.02802788387477e-14
-2.27115177987296e-14
1.93832910417694e-14
1.94884254231272e-15
2.57820513325091e-14
2.15777155653293e-14
3.03920707527053e-14
3.74172784964648e-14
3.37873664949274e-14
5.03446374760742e-14
3.63313725316091e-14
6.1026397521793e-14
3.82363362371028e-14
6.99772652553338e-14
3.96519436505051e-14
7.76172109167139e-14
4.06743519579015e-14
8.4307992107062e-14
4.13602662468894e-14
9.03731120263391e-14
4.17482463751072e-14
9.61184658780675e-14
4.185440486963e-14
1.01851794891663e-13
4.16771258914473e-14
1.07891372514774e-13
4.12041661062205e-14
1.14592356335573e-13
4.03996426650635e-14
1.22362699678395e-13
3.92085664367809e-14
1.31716730622388e-13
3.75264167833404e-14
1.43293793093311e-13
3.5227565791072e-14
1.57961979137342e-13
3.20847633392134e-14
1.7694058330408e-13
2.77476057254639e-14
2.02047188096439e-13
2.1619318017239e-14
2.36030441676043e-13
1.27684513851483e-14
2.83222692664353e-13
-3.89274515743253e-16
3.50575891334651e-13
-2.04783488067049e-14
4.49358904263957e-13
-5.18220198084368e-14
5.97966669894206e-13
-1.01558685663309e-13
8.25961292061255e-13
-1.8087104741191e-13
1.18042144520674e-12
-3.0729223965406e-13
1.73349540242479e-12
-5.05899638173795e-13
2.58806084876533e-12
-8.07397443047951e-13
3.8633200232513e-12
-1.22800335532848e-12
5.59478970157123e-12
-1.68380257795936e-12
7.44189882451864e-12
-1.79842805556553e-12
8.14293440095472e-12
-6.50598870649253e-13
5.78870688997616e-12
2.40482820977138e-12
5.82376657351777e-12
-8.6138144222821e-12
1.44195210809997e-11
-1.372588611274e-11
7.53100845095875e-12
-1.31697517947962e-11
-1.10796860404593e-12
-1.03112215820282e-11
-4.54486596370194e-12
-7.34631642533311e-12
-4.55845805998229e-12
-5.04992238917006e-12
-3.45086177305474e-12
-3.44465184429115e-12
-2.34613972976616e-12
-2.36684960345114e-12
-1.519362976984e-12
-1.64746572793375e-12
-9.62899829618639e-13
-1.16224018963146e-12
-6.02595603565008e-13
-8.27646852339677e-13
-3.72974861074382e-13
-5.90320889402305e-13
-2.26356582033901e-13
-4.16694786114274e-13
-1.31693333420367e-13
-2.85787791282806e-13
-6.92777672563877e-14
-1.84401248255014e-13
-2.69621613618861e-14
-1.04092508478332e-13
2.63601689764211e-15
-3.93184081724179e-14
2.40175989063214e-14
1.37044574861377e-14
3.98577783530672e-14
5.76580778397501e-14
5.18352574920402e-14
9.45231811917762e-14
6.10120571678354e-14
1.25827939460772e-13
6.80565029665981e-14
1.52800045058603e-13
7.34156497032152e-14
1.76468890314496e-13
7.73855431537744e-14
1.97728100530941e-13
8.01563964618523e-14
2.17395003397345e-13
8.18444986947508e-14
2.36250729125506e-13
8.24990260988823e-14
2.55070248175945e-13
8.21256941212893e-14
2.74660803671465e-13
8.06780534901562e-14
2.95908725377442e-13
7.80410516751762e-14
3.19820241645082e-13
7.4039198752933e-14
3.47603904642285e-13
6.83658074486706e-14
3.80756632866862e-13
6.06077495762779e-14
4.21222756832622e-13
5.00922403773327e-14
4.71658455063006e-13
3.57571719431716e-14
5.35849363633393e-13
1.58782118452222e-14
6.19365947521416e-13
-1.22608605875627e-14
7.30673056349029e-13
-5.31405244243843e-14
8.83003288389686e-13
-1.14158477112759e-13
1.09736274649382e-12
-2.07420468548628e-13
1.40737835999155e-12
-3.52699899491286e-13
1.86647608296248e-12
-5.80996028972149e-13
2.55840130991064e-12
-9.40177783829464e-13
3.6084156128564e-12
-1.49684087039256e-12
5.18907031156835e-12
-2.32892699566794e-12
7.47356575083815e-12
-3.4531337235251e-12
1.04569175302561e-11
-4.60702787125219e-12
1.33736843334336e-11
-4.65345095961e-12
1.39674810995206e-11
-1.18058625512603e-12
8.76002741055186e-12
7.67401469638711e-12
1.46237860989759e-11
-6.77832485309171e-12
2.12493860698261e-11
-1.25149671893806e-11
1.33380385081196e-11
-1.27156173487201e-11
-8.35002339015958e-13
-1.04545115022798e-11
-6.73544834477739e-12
-7.80270159994919e-12
-7.14141127496068e-12
-5.62526505556176e-12
-5.56050998996643e-12
-4.02780063395587e-12
-3.87654810527387e-12
-2.90647062054041e-12
-2.5742500746415e-12
-2.12344712496823e-12
-1.68007210138849e-12
-1.57029145028459e-12
-1.09050365039622e-12
-1.17091190594369e-12
-7.07724451353629e-13
-8.74976028330864e-13
-4.58288913564904e-13
-6.4976402234626e-13
-2.93524777093739e-13
-4.74063728052191e-13
-1.82209290887648e-13
-3.33981425857932e-13
-1.04866501098192e-13
-2.20250472364922e-13
-4.94838696402147e-14
-1.26503777446915e-13
-8.65557552744271e-15
-4.82323157442913e-14
2.21521384151484e-14
1.78803962210961e-14
4.58130568643203e-14
7.43714110291016e-14
6.4167842900798e-14
1.23241252740617e-13
7.84226322531698e-14
1.66143320382007e-13
8.93701696576723e-14
2.0448631959886e-13
9.7552088269232e-14
2.39506968362666e-13
1.03329004474253e-13
2.72355259678313e-13
1.06905018522103e-13
3.04128771097294e-13
1.08378669382722e-13
3.35925974196149e-13
1.07755650426737e-13
3.68882488607816e-13
1.04950921991181e-13
4.04227628894074e-13
9.9755447070725e-14
4.43346362488128e-13
9.18369376502698e-14
4.87863673856341e-13
8.0650586881609e-14
5.39758552226633e-13
6.54284906293624e-14
6.01527335737151e-13
4.49825960505046e-14
6.76460847836014e-13
1.74568376672419e-14
7.69069179631442e-13
-2.00901378016247e-14
8.85729602347448e-13
-7.2242302620222e-14
1.03572712291154e-12
-1.46389812496034e-13
1.23297824302849e-12
-2.54565384103222e-13
1.49874099616704e-12
-4.16224410617395e-13
1.86581429490757e-12
-6.6269177253583e-13
2.38468435106455e-12
-1.04266623691544e-12
3.13183695827685e-12
-1.63002694077864e-12
4.21697178541742e-12
-2.52457411406446e-12
5.78165790197955e-12
-3.8360534975517e-12
7.93964123443223e-12
-5.55314438867847e-12
1.06039283790557e-11
-7.21229473694168e-12
1.29228278650832e-11
-6.91129364215698e-12
1.27741447341944e-11
-9.68708238534695e-13
6.95842124062933e-12
1.35501323907834e-11
2.16204577055436e-11
-3.69460772499312e-12
2.49960650766811e-11
-8.27009976840555e-12
1.79830188398903e-11
-9.2255424509205e-12
1.9090670989852e-13
-8.20993211181231e-12
-7.68280820340696e-12
-6.59516671038288e-12
-8.68994571781509e-12
-5.09691649885499e-12
-6.99391089377076e-12
-3.89332763802896e-12
-5.01625548886438e-12
-2.97992398713591e-12
-3.42453552991673e-12
-2.29532835855507e-12
-2.30222200719206e-12
-1.77964135605135e-12
-1.54437986682542e-12
-1.38572069212888e-12
-1.04045254584724e-12
-1.07956755835536e-12
-7.03858511221141e-13
-8.37332271370079e-13
-4.75773747177142e-13
-6.42394567888816e-13
-3.17744520656528e-13
-4.83094499586068e-13
-2.05327180040399e-13
-3.51144729318396e-13
-1.2313463689501e-13
-2.40509540323914e-13
-6.15052692864582e-14
-1.46717235235341e-13
-1.43400311712477e-14
-6.63413010093681e-14
2.22824396116273e-14
3.32126284467677e-15
5.09252304174669e-14
6.4460243633174e-14
7.33101434463957e-14
1.1891390138995e-13
9.05793525453089e-14
1.68275536297971e-13
1.03520983505749e-13
2.13964869237575e-13
1.1266711198845e-13
2.57311499974706e-13
1.18312784764862e-13
2.99581427263151e-13
1.20618330237361e-13
3.42047008812606e-13
1.19584014064514e-13
3.86021848196793e-13
1.15080131449545e-13
4.32913464006812e-13
1.06805608943326e-13
4.84297453018832e-13
9.42582503172729e-14
5.41985739820906e-13
7.66580860120862e-14
6.08149196165995e-13
5.28779727341977e-14
6.8545467260652e-13
2.12362015160151e-14
7.7730387026341e-13
-2.08575902229782e-14
8.88166053136599e-13
-7.74106826238783e-14
1.02405224090672e-12
-1.5454976929979e-13
1.19325733197048e-12
-2.61949062401072e-13
1.40743125374079e-12
-4.1500002871655e-13
1.68322271393461e-12
-6.38162898318839e-13
2.04453454904362e-12
-9.70023724957805e-13
2.52553726104679e-12
-1.46955774568933e-12
3.1737677805264e-12
-2.22401576340066e-12
4.0501970838393e-12
-3.34661742727456e-12
5.21913500343499e-12
-4.95037656159021e-12
6.6929587823934e-12
-6.97183269669349e-12
8.3095288984913e-12
-8.77250826893657e-12
9.36858873259315e-12
-7.91168780115138e-12
8.47056076765264e-12
-9.71803574080753e-15
3.85437637538126e-12
1.82243021269906e-11
2.55112133771239e-11
-9.90988204329938e-13
2.60376633837917e-11
-3.77968867753615e-12
2.08380529605122e-11
-5.21770230005765e-12
1.69514551260102e-12
-5.39210837936161e-12
-7.44467203760584e-12
-4.88175572361989e-12
-9.13880284173046e-12
-4.15803425580085e-12
-7.6577241576231e-12
-3.438674863831e-12
-5.67682685690834e-12
-2.80735879187068e-12
-3.99791594959518e-12
-2.2795650001942e-12
-2.77278956205729e-12
-1.84684598940032e-12
-1.92050930052752e-12
-1.49399550039365e-12
-1.33731206637857e-12
-1.20575410666793e-12
-9.36687392991343e-13
-9.68972051937573e-13
-6.57706285544229e-13
-7.72970895593794e-13
-4.5944456671031e-13
-6.0931982316064e-13
-3.15206803089226e-13
-4.71445820554676e-13
-2.07746975721231e-13
-3.54210509482611e-13
-1.2596374733732e-13
-2.53579830824611e-13
-6.26540459429471e-14
-1.66329678127125e-13
-1.30822616935186e-14
-8.98419208568074e-14
2.5919006229835e-14
-2.19323500566581e-14
5.65075971481248e-14
3.92575613629088e-14
8.0150737430389e-14
9.53664824464679e-14
9.78570702660741e-14
1.47872303766909e-13
1.10318173069555e-13
1.98156358749119e-13
1.17926238227913e-13
2.47550174138202e-13
1.20889596438669e-13
2.97378480274518e-13
1.19215207939261e-13
3.49018185489517e-13
1.12719491519288e-13
4.03927849193286e-13
1.01020658736886e-13
4.63730409674384e-13
8.34505515197032e-14
5.30258740040221e-13
5.90204025152633e-14
6.05675255648451e-13
2.62731405700516e-14
6.92569768771149e-13
-1.68981952875422e-14
7.94141208615224e-13
-7.36934428339444e-14
9.1439466104453e-13
-1.48923749744952e-13
1.05843007108148e-12
-2.49810946227056e-13
1.23279935760546e-12
-3.87482050770348e-13
1.44588225924204e-12
-5.791596045328e-13
1.70833867101155e-12
-8.51587648149021e-13
2.03330032862412e-12
-1.24583087183245e-12
2.43610215057686e-12
-1.82307244440735e-12
2.93212552884789e-12
-2.67061334055296e-12
3.53035845429501e-12
-3.89526527988489e-12
4.21695858926268e-12
-5.5871430145959e-12
4.9134265995011e-12
-7.61792363402121e-12
5.41428466535625e-12
-9.22172456542891e-12
5.26364197228059e-12
-7.70699843196111e-12
3.87758987570099e-12
1.43269798115146e-12
1.08917557313674e-12
2.10662537212919e-11
2.66333604834548e-11
7.62066060828875e-13
2.53237482511731e-11
-4.29452575380494e-13
2.20916437976793e-11
-2.029738423026e-12
3.35671067699626e-12
-3.00254916360315e-12
-6.41327201799155e-12
-3.31843367298849e-12
-8.76670161580742e-12
-3.21334282798044e-12
-7.70831558941676e-12
-2.90600922172033e-12
-5.93087486172422e-12
-2.53159283414558e-12
-4.3199480376929e-12
-2.15899219230188e-12
-3.09372746234658e-12
-1.81815529042434e-12
-2.21030737402257e-12
-1.51905449778997e-12
-1.58594540466557e-12
-1.26191713268661e-12
-1.14390129957908e-12
-1.04288331578527e-12
-8.27343110366841e-13
-8.5673441206317e-13
-5.96709550127902e-13
-6.98234935254234e-13
-4.25319429848914e-13
-5.6265359879279e-13
-2.95421172252506e-13
-4.45932201320441e-13
-1.95235650603846e-13
-3.4465469744203e-13
-1.16917295052009e-13
-2.55972415013508e-13
-5.51592863692057e-14
-1.77481577702909e-13
-6.35020505037868e-15
-1.0712633337568e-13
3.20184597227512e-14
-4.3127286583368e-14
6.16894093443205e-14
1.61012130091334e-14
8.38659571102299e-14
7.20158162284196e-14
9.93669162457736e-14
1.25972660534406e-13
1.08686178119377e-13
1.79292792584038e-13
1.1206547118411e-13
2.33283388675434e-13
1.09525112072805e-13
2.89301558463369e-13
1.00830613655524e-13
3.487792681394e-13
8.55257042961777e-14
4.13285154692976e-13
6.28037421576063e-14
4.84577160097129e-13
3.14881603735493e-14
5.64683460129373e-13
-1.01489871332934e-14
6.55971935929742e-13
-6.45525382649216e-14
7.61272284340557e-13
-1.35384381860417e-13
8.83945728831983e-13
-2.27984938939623e-13
1.0280029152858e-12
-3.5022655077947e-13
1.19811192986804e-12
-5.13893686477111e-13
1.39943458402988e-12
-7.3670561905757e-13
1.63710955271606e-12
-1.04538598280309e-12
1.91489411960954e-12
-1.47962341812158e-12
2.23247409200425e-12
-2.09653437396686e-12
2.57974628000278e-12
-2.97363303459798e-12
2.92667346591412e-12
-4.19778465499817e-12
3.20470798243752e-12
-5.82053038688682e-12
3.2814374166434e-12
-7.649486205473e-12
2.94683421867335e-12
-8.84072493611174e-12
1.97925881987049e-12
-6.69065079784828e-12
4.18433289070638e-13
3.04463168494671e-12
-7.39005169933261e-13
2.22721369698564e-11
2.5923952507809e-11
1.61208691598325e-12
2.37557722065484e-11
1.47789771378776e-12
2.22815714525351e-11
-3.90095253009758e-14
4.92773772811848e-12
-1.37419392877734e-12
-5.02666316001434e-12
-2.15381757491557e-12
-7.93799794844914e-12
-2.4376847193933e-12
-7.37709713239434e-12
-2.41527787235089e-12
-5.90715640266948e-12
-2.23466842494525e-12
-4.45532787087085e-12
-1.98973667228333e-12
-3.29412855756776e-12
-1.73169279412029e-12
-2.42441080271636e-12
-1.48611588602592e-12
-1.78811384008767e-12
-1.26370355131518e-12
-1.32340890411064e-12
-1.06738970952567e-12
-9.8123971925632e-13
-8.96257412596725e-13
-7.25900622159289e-13
-7.47776186025327e-13
-5.32322788988889e-13
-6.18908457057814e-13
-3.83260369574369e-13
-5.06663948053269e-13
-2.66881653328592e-13
-4.08302337037559e-13
-1.75090441508055e-13
-3.21408369418419e-13
-1.0225110416527e-13
-2.43857709111106e-13
-4.44610648379745e-14
-1.73794759735364e-13
1.05891389041809e-15
-1.09566600014416e-13
3.62537644967196e-14
-4.96835447943751e-14
6.24903652626155e-14
7.23504669929824e-15
8.06965299486681e-14
6.24841033508548e-14
9.14519645651153e-14
1.17327102531045e-13
9.50278548858221e-14
1.73020101521939e-13
9.14527474978206e-14
2.30848026410921e-13
8.04607137731637e-14
2.92177294406143e-13
6.15157906603557e-14
3.5847526916784e-13
3.37079381523198e-14
4.31364508406685e-13
-4.29371810647338e-15
5.12679438979729e-13
-5.44285936277299e-14
6.04503464617362e-13
-1.19390067695032e-13
7.09220392854324e-13
-2.03139667050691e-13
8.29505301048003e-13
-3.11308493511957e-13
9.68291974568007e-13
-4.52027639002344e-13
1.12852979094176e-12
-6.37097985083945e-13
1.31265455093278e-12
-8.83727116934272e-13
1.52144805372841e-12
-1.21698795142564e-12
1.75180437952587e-12
-1.672686540214e-12
1.99278385802688e-12
-2.30010959314326e-12
2.21841323395506e-12
-3.1617422253512e-12
2.37687981944761e-12
-4.31860149046031e-12
2.373722770639e-12
-5.77952650139031e-12
2.06194777178399e-12
-7.29941533362644e-12
1.25811063579273e-12
-7.9974720046421e-12
-8.48138779163082e-14
-5.30607433350408e-12
-1.57520091521645e-12
4.57883237924463e-12
-1.65225667839804e-12
2.23906707462032e-11
2.42964108902649e-11
1.84083317742189e-12
2.19543043438496e-11
2.22640975137941e-12
2.19446668606349e-11
9.29335434889383e-13
6.27149814846325e-12
-4.42037353715178e-13
-3.61122094115367e-12
-1.38876654869658e-12
-6.94944624511315e-12
-1.86199892069155e-12
-6.86371668160472e-12
-2.00615412271405e-12
-5.72404377134705e-12
-1.95510658083635e-12
-4.46827954810255e-12
-1.80534627409115e-12
-3.40645388302035e-12
-1.61508648250346e-12
-2.57778527972026e-12
-1.41713272319701e-12
-1.94967367769433e-12
-1.2280631995581e-12
-1.47654896988889e-12
-1.05516729273536e-12
-1.11865674538787e-12
-9.00617754489063e-13
-8.45413575025211e-13
-7.6399807930486e-13
-6.34338212533187e-13
-6.43715343806152e-13
-4.69359810108404e-13
-5.37736032656403e-13
-3.3908251941312e-13
-4.4398306939288e-13
-2.35451977150818e-13
-3.60474946919074e-13
-1.5273340502347e-13
-2.85399047902472e-13
-8.68544901460817e-14
-2.17112209397196e-13
-3.48645301576471e-14
-1.54117066858926e-13
5.32718457258957e-15
-9.5043645160267e-14
3.52156600465381e-14
-3.86076803554936e-14
5.58133939793573e-14
1.64089873851119e-14
6.77665641476427e-14
7.11911480085972e-14
7.13782282783391e-14
1.26923933290814e-13
6.66771945768624e-14
1.8480853553976e-13
5.3379663002045e-14
2.46116225275567e-13
3.08796896902141e-14
3.12196305725906e-13
-1.81231003681819e-15
3.84512748251262e-13
-4.61401525394046e-14
4.64676955476183e-13
-1.0419199667279e-13
5.54469672483143e-13
-1.78829539549113e-13
6.55822384718761e-13
-2.74164728411644e-13
7.70758896306055e-13
-3.95920353826498e-13
9.01228677819765e-13
-5.52153513503575e-13
1.04873653725377e-12
-7.54221541515104e-13
1.213580188009e-12
-1.01812690523907e-12
1.39342979768115e-12
-1.36631852894452e-12
1.58077036194442e-12
-1.82942148876205e-12
1.75868340530623e-12
-2.44732504454391e-12
1.8938018762687e-12
-3.26607155918512e-12
1.92703412619947e-12
-4.32094927736719e-12
1.76084643265394e-12
-5.58230927800897e-12
1.26159623014251e-12
-6.76877233672399e-12
2.892514910735e-13
-6.99275482040664e-12
-1.09589163175883e-12
-3.8865341461235e-12
-2.37521332124829e-12
5.89458053830758e-12
-1.92016232073989e-12
2.19699484004213e-11
2.23964487236744e-11
1.7266355534391e-12
2.02609125988016e-11
2.26296065282984e-12
2.14482521600221e-11
1.23057239685266e-12
7.34139603859839e-12
4.97598811560832e-15
-2.3504544072213e-12
-9.23645011657142e-13
-5.98764713195645e-12
-1.45197885057231e-12
-6.30372083856649e-12
-1.67692122651095e-12
-5.46852617474058e-12
-1.70517007895364e-12
-4.41023957356903e-12
-1.62267983484063e-12
-3.45975058556575e-12
-1.48550429124921e-12
-2.68626227465941e-12
-1.32786901013159e-12
-2.07905470475135e-12
-1.16883242259166e-12
-1.60775341013534e-12
-1.01812798751954e-12
-1.24194176369295e-12
-8.7998276222813e-13
-9.5654761727197e-13
-7.55551437542589e-13
-7.32159818573946e-13
-6.44411720461852e-13
-5.5428283387632e-13
-5.45362243581981e-13
-4.12294684473922e-13
-4.56925893373125e-13
-2.98414973166737e-13
-3.77534634420032e-13
-2.06995487734869e-13
-3.05683602257472e-13
-1.3390033759268e-13
-2.39944582867e-13
-7.60993990516036e-14
-1.7898724037653e-13
-3.14048028449799e-14
-1.21562815365348e-13
1.76145304240322e-15
-6.64941137981337e-14
2.44824680282186e-14
-1.26492166958878e-14
3.74501893638812e-14
4.1073607238921e-14
4.09967350054604e-14
9.5776429609562e-14
3.51497996837252e-14
1.52574092808785e-13
1.96123864697933e-14
2.12633349308483e-13
-6.27384518198427e-15
2.77174292677576e-13
-4.35527860407098e-14
3.4750383039692e-13
-9.3754827251807e-14
4.25005747779035e-13
-1.59045412024299e-13
5.11163879833719e-13
-2.42385054849769e-13
6.07476368146623e-13
-3.47901054408025e-13
7.15374603452996e-13
-4.81248069728422e-13
8.35967499898296e-13
-6.50162080327427e-13
9.69592619653752e-13
-8.65230392909465e-13
1.11496008257407e-12
-1.14082946360205e-12
1.26767905806778e-12
-1.49631207907397e-12
1.41776532361466e-12
-1.95671428087877e-12
1.5457882586355e-12
-2.55248668037432e-12
1.61690762790594e-12
-3.31427077400211e-12
1.57413946497657e-12
-4.25521178982311e-12
1.33042114241187e-12
-5.31554478445989e-12
7.79072614807377e-13
-6.19412359439347e-12
-1.73241625865021e-13
-6.01634024038435e-12
-1.41278958382462e-12
-2.62113146360176e-12
-2.4308714706801e-12
6.94022763979912e-12
-1.82144485423479e-12
2.13863850208875e-11
2.05895551466517e-11
1.46484356486332e-12
1.88229468444885e-11
1.96396012042541e-12
2.09802920859694e-11
1.18340722273223e-12
8.15074708908552e-12
1.71554304157173e-13
-1.31182495450237e-12
-6.49946176562419e-13
-5.14108119637935e-12
-1.15920670708249e-12
-5.77071969299184e-12
-1.41178550676211e-12
-5.19316713268353e-12
-1.48495943220639e-12
-4.31498021216359e-12
-1.44877157791931e-12
-3.47438291106617e-12
-1.35248595459276e-12
-2.76143426274443e-12
-1.22835164591649e-12
-2.18247470592838e-12
-1.09569995248556e-12
-1.72007426177496e-12
-9.65360576464159e-13
-1.35232899065444e-12
-8.42804597740107e-13
-1.05952908078221e-12
-7.30313066833091e-13
-8.25450690525247e-13
-6.2836653031696e-13
-6.37396706514878e-13
-5.36470424499938e-13
-4.85714651032085e-13
-4.53662556494806e-13
-3.63089608239991e-13
-3.78765647049749e-13
-2.64083869066666e-13
-3.10560051501852e-13
-1.84603822629873e-13
-2.47826264651862e-13
-1.21615472158109e-13
-1.89397347629402e-13
-7.28799484387252e-14
-1.34154113712424e-13
-3.67691914236266e-14
-8.10234525646801e-14
-1.2155690095865e-14
-2.89633381497562e-14
1.68493479139756e-15
2.30387704366249e-14
5.11235255226528e-15
7.6000921291771e-14
-1.85109722974534e-15
1.30951522296156e-13
-1.9514239357778e-14
1.88946307334971e-13
-4.85627799309052e-14
2.51079897203429e-13
-9.00802147161353e-14
3.18498537025619e-13
-1.45648266752134e-13
3.92367526772167e-13
-2.17452569092257e-13
4.73885733559458e-13
-3.0848640489231e-13
5.64170400310789e-13
-4.22795323469329e-13
6.64126099774341e-13
-5.65821908354033e-13
7.74160415307215e-13
-7.44805435997857e-13
8.93702770058465e-13
-9.69357030116749e-13
1.02034710465728e-12
-1.25202032567827e-12
1.14845292227736e-12
-1.60891735999597e-12
1.266946555255e-12
-2.05965771172642e-12
1.35613198452474e-12
-2.62607813193091e-12
1.38318437389518e-12
-3.32570224576882e-12
1.29802282655652e-12
-4.15442387847013e-12
1.02968508945474e-12
-5.0315674833642e-12
5.01053723693364e-13
-5.64970011087725e-12
-3.40200505271217e-13
-5.15867409489564e-12
-1.36263872885425e-12
-1.58083026328503e-12
-2.12838223785799e-12
7.72532094446701e-12
-1.5585473264524e-12
2.08344683486319e-11
1.9040719572576e-11
1.16932368066009e-12
1.76733767485868e-11
1.56753098712205e-12
2.06036914459249e-11
9.98363609804486e-13
8.73918779556577e-12
2.00655604780774e-13
-4.96395677242977e-13
-4.86658529981048e-13
-4.43736948910232e-12
-9.43712204484439e-13
-5.2983359495399e-12
-1.19459753432353e-12
-4.92774392935897e-12
-1.29082165393582e-12
-4.20479911312465e-12
-1.28602244645583e-12
-3.46567469557026e-12
-1.22108526517802e-12
-2.81324529496286e-12
-1.12463060840856e-12
-2.26615521050402e-12
-1.01497182246315e-12
-1.81730372166397e-12
-9.03119675477942e-13
-1.45209677477818e-12
-7.9519585250452e-13
-1.15571610734603e-12
-6.94232432963789e-13
-9.15023792348768e-13
-6.01385195522346e-13
-7.19196532378075e-13
-5.16733882474948e-13
-5.59651590415179e-13
-4.39752500396907e-13
-4.29677912547655e-13
-3.69616180016515e-13
-3.241322414902e-13
-3.0535969347966e-13
-2.39060105564109e-13
-2.45970813129034e-13
-1.71471911128437e-13
-1.90436833930406e-13
-1.19129368090364e-13
-1.37767322061712e-13
-8.03810281041478e-14
-8.69925732938973e-14
-5.40794886696179e-14
-3.71663766822657e-14
-3.94762487185458e-14
1.26412734293539e-14
-3.61969820822397e-14
6.33578274694874e-14
-4.42164022235535e-14
1.15921558823183e-13
-6.38556358773665e-14
1.71280070965636e-13
-9.58097063683016e-14
2.30405580253095e-13
-1.41187969055448e-13
2.94281133995108e-13
-2.01582726189943e-13
3.63878941868803e-13
-2.79169125783462e-13
4.40129746698534e-13
-3.76899241331401e-13
5.23807849871901e-13
-4.98662437819717e-13
6.15372428331668e-13
-6.49585616482135e-13
7.14670223592786e-13
-8.36298398026644e-13
8.20452042216797e-13
-1.06731633979512e-12
9.29572708637656e-13
-1.35329077183042e-12
1.03574908397622e-12
-1.70721068598872e-12
1.12774701784726e-12
-2.1437416399983e-12
1.18693200646283e-12
-2.6773302279417e-12
1.18420126537983e-12
-3.31504584610005e-12
1.07803659918742e-12
-4.04037506390959e-12
8.14178913640637e-13
-4.75987988480813e-12
3.41559791679992e-13
-5.16920811092784e-12
-3.60803356342321e-13
-4.44801449739973e-12
-1.1643491246132e-12
-7.67867662950924e-13
-1.71635732574054e-12
8.28783690407135e-12
-1.25312118375607e-12
2.03807179743987e-11
1.7791878784985e-11
8.96631762751291e-13
1.67898426758247e-11
1.19267706705312e-12
2.03206530239822e-11
7.87405518676206e-13
9.15551264101695e-12
1.74278694541634e-13
1.26671182038203e-13
-3.8357201057831e-13
-3.87054642656604e-12
-7.78480492716776e-13
-4.89527548527832e-12
-1.01309177283736e-12
-4.68561087868326e-12
-1.11886996411189e-12
-4.09197252295602e-12
-1.13495967788739e-12
-3.44291192100896e-12
-1.09398030358655e-12
-2.8478793608025e-12
-1.02034199532004e-12
-2.33375896884281e-12
-9.30653219033411e-13
-1.90126905133062e-12
-8.35517121056659e-13
-1.54182521232001e-12
-7.41268693901968e-13
-1.24487822697058e-12
-6.51384765911512e-13
-1.0001436057537e-12
-5.67502571534762e-13
-7.98634611511427e-13
-4.90144332456309e-13
-6.32878279894273e-13
-4.19151742814985e-13
-4.96840364897098e-13
-3.54001452861729e-13
-3.85739147946627e-13
-2.9396192573843e-13
-2.95827225805174e-13
-2.38207162440069e-13
-2.24206251385718e-13
-1.858781009297e-13
-1.6867164304845e-13
-1.36104301976321e-13
-1.27581620597696e-13
-8.80228423501462e-14
-9.97822209829745e-14
-4.07808486786727e-14
-8.45143503033407e-14
6.46196454256024e-15
-8.13926358527791e-14
5.45470700627921e-14
-9.03925641819117e-14
1.04317873193163e-13
-1.11838477842395e-13
1.56619586633434e-13
-1.46427476501765e-13
2.12300348423313e-13
-1.95273085017791e-13
2.72191974440812e-13
-2.59950685224914e-13
3.37082697482603e-13
-3.42593489069244e-13
4.07663641838346e-13
-4.46054855788632e-13
4.84415169723804e-13
-5.74015517840419e-13
5.67429962635829e-13
-7.3121403302813e-13
6.5611712687912e-13
-9.23598440125557e-13
7.48747450800892e-13
-1.15854803946289e-12
8.41746134666181e-13
-1.44487213942043e-12
9.28633567963777e-13
-1.79265957054976e-12
9.98612063291234e-13
-2.21226708812682e-12
1.03481066148804e-12
-2.71207869940897e-12
1.0124519876064e-12
-3.29127282448126e-12
8.98484873165226e-13
-3.92507257722851e-12
6.53455709520407e-13
-4.51362316027243e-12
2.46591965397205e-13
-4.76116440314668e-12
-3.21728630109296e-13
-3.87827253952123e-12
-9.36063929569991e-13
-1.51327878025212e-13
-1.32167365645668e-12
8.67647353589404e-12
-9.67573199457367e-13
2.00288736335778e-11
1.68243296431759e-11
6.69064269101733e-13
1.6127237325853e-11
8.83277445161413e-13
2.01110260780483e-11
5.98444448990419e-13
9.44329784336894e-12
1.3288658705289e-13
5.94581133517742e-13
-3.12701661902001e-13
-3.42317378086971e-12
-6.4672615545327e-13
-4.56001726976939e-12
-8.58745741774527e-13
-4.47281234377693e-12
-9.65837905588219e-13
-3.9844606070584e-12
-9.95357147839684e-13
-3.41327139141619e-12
-9.72560673227152e-13
-2.87082858354127e-12
-9.17668655550061e-13
-2.38907414149593e-12
-8.45271396803268e-13
-1.97436763405289e-12
-7.65200607732551e-13
-1.62288461292108e-12
-6.8368916064508e-13
-1.32767383381241e-12
-6.04414125996693e-13
-1.08100104496251e-12
-5.29329801915731e-13
-8.75598502249794e-13
-4.59280481497468e-13
-7.05098088178884e-13
-3.94406584363159e-13
-5.64166138983316e-13
-3.34433613948572e-13
-4.48431726532449e-13
-2.78841366732204e-13
-3.54392161945112e-13
-2.26973832604936e-13
-2.79281834250676e-13
-1.78117272371923e-13
-2.20954403841547e-13
-1.3151303012267e-13
-1.77811763231507e-13
-8.64102055999338e-14
-1.48692558493954e-13
-4.20440121730287e-14
-1.32851369028645e-13
2.3356406285091e-15
-1.29889109555184e-13
4.74828512522238e-14
-1.39785486775261e-13
9.41449160846636e-14
-1.62859063022335e-13
1.43068634319684e-13
-1.99806838551558e-13
1.94979719694792e-13
-2.51721793961946e-13
2.505689746061e-13
-3.20144947747487e-13
3.10456559061967e-13
-4.07139414922644e-13
3.75125751163886e-13
-5.15421573308914e-13
4.44806830909367e-13
-6.48420418926242e-13
5.19295584577987e-13
-8.10439644076142e-13
5.97684886286265e-13
-1.00672689346268e-12
6.77938200864523e-13
-1.2435339903912e-12
7.56291083353163e-13
-1.52794638701215e-12
8.26391007292979e-13
-1.86747068552039e-12
8.78241490605686e-13
-2.26882851808562e-12
8.97051173305919e-13
-2.7356216580143e-12
8.62349691057744e-13
-3.26136656265284e-12
7.48628977362839e-13
-3.81626065417283e-12
5.28491076080479e-13
-4.29855278589787e-12
1.85717045399742e-13
-4.42359577913728e-12
-2.66349699991712e-13
-3.43135357775243e-12
-7.29320023441562e-13
3.06935569285376e-13
-9.92748996725849e-13
8.93559690795194e-12
-7.27437712176959e-13
1.97588362738941e-11
1.60925376472466e-11
4.904189018779e-13
1.56377130579765e-11
6.45100858759474e-13
1.99541392977074e-11
4.45833040332156e-13
9.63925172251689e-12
9.38850846659881e-14
9.43033370508222e-13
-2.59135487381175e-13
-3.07389321056302e-12
-5.38066853290556e-13
-4.2851502992078e-12
-7.25560988834263e-13
-4.28968980206335e-12
-8.28984742061139e-13
-3.88567226896833e-12
-8.66591933927521e-13
-3.38053549172425e-12
-8.5743682337575e-13
-2.88508481715897e-12
-8.17866731856333e-13
-2.43398279021266e-12
-7.60386022768959e-13
-2.03743754924641e-12
-6.93844416801542e-13
-1.69527878831303e-12
-6.24150414154076e-13
-1.40349338854929e-12
-5.54991606115369e-13
-1.15656235814103e-12
-4.88494876825728e-13
-9.48774808490028e-13
-4.25724465699681e-13
-7.74819150468023e-13
-3.67053438636738e-13
-6.30050443573871e-13
-3.12410984250078e-13
-5.10538007426165e-13
-2.61458646288914e-13
-4.13044859836863e-13
-2.13695093009995e-13
-3.34965961433339e-13
-1.68534580134046e-13
-2.74239745968875e-13
-1.25337415175147e-13
-2.29319953564502e-13
-8.34497843367832e-14
-1.99061243274982e-13
-4.22030583507215e-14
-1.82731319827178e-13
-9.31616247359283e-16
-1.7992981838081e-13
4.10277137661176e-14
-1.90634075795053e-13
8.43316085919966e-14
-2.15157497864489e-13
1.29625163649911e-13
-2.54185042258518e-13
1.77521653237334e-13
-3.08779560676691e-13
2.28582510137068e-13
-3.80429544762417e-13
2.83273913917818e-13
-4.71104444501703e-13
3.41897976544274e-13
-5.83356299301821e-13
4.0448127756736e-13
-7.20339444733417e-13
4.70598878792983e-13
-8.85906641806549e-13
5.3912205660525e-13
-1.084603590413e-12
6.0785430055255e-13
-1.3216170405429e-12
6.73028168591277e-13
-1.60246528139647e-12
7.28643494983963e-13
-1.93242868558033e-12
7.65717441306536e-13