/*--------------------------------*- C++ -*----------------------------------*\
  =========                 |
  \\      /  F ield         | OpenFOAM: The Open Source CFD Toolbox
   \\    /   O peration     | Website:  https://openfoam.org
    \\  /    A nd           | Version:  10
     \\/     M anipulation  |
\*---------------------------------------------------------------------------*/
FoamFile
{
    format      ascii;
    class       volScalarField;
    location    "6.8";
    object      rho;
}
// * * * * * * * * * * * * * * * * * * * * * * * * * * * * * * * * * * * * * //

dimensions      [1 -3 0 0 0 0 0];

internalField   nonuniform List<scalar> 
2500
(
1.14499351401082
1.14501329085017
1.14505778598457
1.1450904366283
1.14511050586557
1.14512208409101
1.1451285387814
1.14513202833647
1.14513384712834
1.14513475316676
1.14513518993473
1.14513539060105
1.14513547909649
1.14513551882012
1.14513553702251
1.14513554681104
1.14513555118953
1.14513555469977
1.14513555803313
1.14513556029099
1.14513556216228
1.14513556375098
1.1451355650437
1.1451355658465
1.14513556665908
1.1451355673228
1.14513556755738
1.14513556761365
1.14513556744444
1.14513556700776
1.14513556624641
1.1451355648236
1.14513556303178
1.1451355603575
1.14513555592032
1.14513554728506
1.14513552867531
1.14513548742095
1.14513539163916
1.14513518183497
1.14513473322358
1.14513380912742
1.14513197977333
1.14512849648541
1.1451220729617
1.14511056699661
1.14509053260768
1.14505771409118
1.14501289003612
1.14499392243749
1.1483865430969
1.14849429867262
1.1486238367646
1.14871682757222
1.14877519508425
1.1488098620822
1.14882981712732
1.1488409564661
1.14884694996046
1.14885004092661
1.14885156762925
1.14885228805322
1.14885261318064
1.14885275480167
1.14885281470987
1.14885283999888
1.1488528502787
1.14885285522469
1.14885285827888
1.14885286018078
1.14885286163811
1.1488528628789
1.14885286390086
1.1488528645974
1.14885286521869
1.14885286573239
1.14885286598668
1.14885286611752
1.1488528661218
1.14885286591697
1.14885286540049
1.14885286421473
1.14885286180144
1.14885285672143
1.14885284535373
1.14885281817624
1.1488527530557
1.14885260090564
1.14885225576927
1.14885150572649
1.14884993989326
1.14884680541968
1.14884078720998
1.14882967542952
1.14880983351822
1.14877534874385
1.14871700813297
1.14862341204674
1.14849267218996
1.14838802986264
1.15186078705797
1.15204896808214
1.15223423497256
1.15236279038222
1.15244268420162
1.15248992933163
1.15251707212122
1.15253222236288
1.15254038625164
1.15254460945818
1.152546701534
1.15254769232973
1.15254814100306
1.15254833599114
1.15254841761183
1.15254845083387
1.15254846388726
1.15254846929068
1.15254847190934
1.1525484733347
1.1525484743401
1.15254847520286
1.15254847593292
1.15254847644834
1.15254847687188
1.1525484772274
1.15254847743854
1.1525484775876
1.15254847768721
1.15254847766676
1.15254847738745
1.15254847644853
1.15254847387795
1.15254846774724
1.15254845308589
1.15254841672843
1.15254832816052
1.15254811976358
1.15254764749316
1.15254662128264
1.15254448246323
1.15254020916635
1.15253201687594
1.15251689956298
1.15248988621729
1.15244281498463
1.15236279633055
1.15223308632372
1.15204543546793
1.15185961371199
1.1549775831322
1.15520442095604
1.15539843082233
1.15552778794904
1.15560589111069
1.15565089380607
1.15567615176502
1.15568997178373
1.15569729737723
1.15570103649
1.15570286802078
1.15570372729588
1.15570411323134
1.15570427949915
1.15570434835562
1.15570437586788
1.15570438642484
1.15570439051512
1.15570439226617
1.15570439312411
1.15570439370188
1.15570439422444
1.1557043946941
1.15570439503178
1.1557043952893
1.15570439550886
1.15570439565763
1.15570439578937
1.15570439592035
1.1557043959831
1.15570439594993
1.1557043954882
1.15570439356618
1.15570438872569
1.15570437697071
1.15570434717759
1.15570427341829
1.15570409763705
1.15570369492377
1.15570280976111
1.15570094276205
1.1556971634624
1.15568980980272
1.15567600236469
1.15565081821941
1.15560587449206
1.15552742658818
1.1553964706075
1.15519907500658
1.1549718186618
1.15747770198699
1.15769771544262
1.15786772568413
1.15797670967934
1.1580405224637
1.15807628622681
1.15809587245685
1.15810637387264
1.15811185219592
1.15811461444277
1.15811595485158
1.15811657923825
1.15811685810403
1.15811697761075
1.15811702678115
1.1581170461933
1.15811705349141
1.15811705617228
1.15811705719739
1.15811705763061
1.15811705789948
1.15811705816801
1.15811705843736
1.15811705863365
1.15811705876967
1.15811705888786
1.15811705897924
1.15811705907806
1.15811705919847
1.15811705929281
1.15811705936881
1.15811705926223
1.1581170580582
1.15811705475831
1.15811704674246
1.15811702606437
1.15811697424403
1.15811684958052
1.1581165615407
1.15811592268513
1.15811456174604
1.15811177494039
1.15810627689778
1.15809577621101
1.15807621627473
1.15804041941049
1.1579761383585
1.15786539379061
1.15769146812117
1.15746825572039
1.15929591521227
1.15947849902074
1.15960878235705
1.15968924389676
1.15973494576425
1.15975986484049
1.15977318601727
1.15978018968761
1.15978378952517
1.15978558530211
1.15978645022595
1.15978685108709
1.15978702950384
1.15978710574275
1.15978713698693
1.15978714921352
1.15978715372297
1.15978715529587
1.15978715582637
1.15978715600183
1.15978715608662
1.15978715619204
1.15978715632703
1.15978715642707
1.15978715648577
1.15978715653922
1.15978715658883
1.15978715665428
1.15978715674632
1.15978715683822
1.15978715693721
1.15978715699131
1.15978715633622
1.15978715434854
1.15978714947281
1.15978713667706
1.15978710430288
1.15978702588876
1.15978684356911
1.15978643644846
1.15978556234122
1.15978375506681
1.15978014540745
1.15977314065438
1.15975982371597
1.15973483675977
1.15968867500678
1.15960659152847
1.15947248864509
1.15928509215926
1.16050760941338
1.16064159280666
1.16073110472977
1.16078449168566
1.16081394031686
1.16082957605746
1.16083774137564
1.16084195456367
1.16084409054564
1.16084514617117
1.16084565161365
1.16084588507602
1.16084598880276
1.16084603307318
1.160846051174
1.16084605820856
1.16084606075716
1.16084606159432
1.16084606183454
1.16084606189064
1.16084606188932
1.16084606190185
1.160846061957
1.16084606199961
1.16084606201553
1.16084606203392
1.16084606205785
1.16084606209686
1.1608460621589
1.16084606223194
1.16084606232398
1.160846062419
1.16084606210266
1.1608460610233
1.16084605831215
1.16084605107096
1.16084603261343
1.16084598769761
1.16084588280828
1.16084564746395
1.16084513915631
1.16084407985705
1.16084194117371
1.1608377293349
1.16082956421272
1.16081386790466
1.16078405457083
1.16072937620107
1.1606366353195
1.16049759151438
1.16125410775013
1.16134287913459
1.16139894832196
1.16143132000726
1.16144868586762
1.16145767473885
1.16146226449498
1.16146459056784
1.16146575477879
1.16146632542235
1.16146659738791
1.16146672275023
1.16146677842248
1.16146680218396
1.16146681188717
1.16146681563662
1.1614668169718
1.16146681737965
1.16146681745894
1.16146681745283
1.16146681744189
1.16146681743442
1.16146681744655
1.16146681745948
1.16146681745503
1.16146681745729
1.16146681746731
1.1614668174886
1.16146681752668
1.16146681757718
1.16146681764596
1.16146681772646
1.16146681759824
1.16146681706544
1.1614668156623
1.16146681185552
1.16146680209802
1.16146677828496
1.16146672252618
1.16146659703498
1.16146632484221
1.16146575400676
1.1614645906247
1.1614622681122
1.16145768102138
1.16144865425036
1.16143104276217
1.16139776168585
1.1613392757676
1.16124615303152
1.16168246804184
1.16173635665432
1.16176877520544
1.1617869341681
1.1617964221805
1.1618012158518
1.16180361117649
1.1618048042983
1.16180539425572
1.16180568130034
1.1618058176085
1.16180588037691
1.16180590826693
1.16180592018149
1.16180592504423
1.16180592691372
1.1618059275664
1.16180592774177
1.16180592775641
1.1618059277421
1.16180592772734
1.16180592771598
1.16180592771423
1.16180592771319
1.16180592770665
1.16180592770516
1.16180592770879
1.16180592771967
1.16180592774139
1.16180592777278
1.16180592781701
1.16180592786917
1.16180592783042
1.16180592759008
1.16180592690599
1.16180592502699
1.16180592019089
1.16180590837197
1.16180588066447
1.16180581821226
1.16180568238777
1.16180539615212
1.16180480802829
1.16180361906766
1.16180122870865
1.16179641761283
1.16178678519168
1.16176805003211
1.16173400269022
1.16167686823206
1.16191289951358
1.16194320413148
1.16196067346189
1.16197018671013
1.16197503523585
1.16197742915402
1.16197860075421
1.16197917464128
1.1619794551317
1.16197959069034
1.16197965487998
1.16197968443368
1.16197969758272
1.16197970320858
1.1619797055044
1.16197970638258
1.16197970668017
1.16197970674936
1.16197970674706
1.16197970673362
1.16197970672119
1.16197970671183
1.16197970670711
1.16197970670303
1.16197970669787
1.16197970669556
1.16197970669662
1.16197970670232
1.16197970671394
1.16197970673184
1.16197970675734
1.16197970678531
1.16197970677915
1.16197970668016
1.1619797063653
1.16197970548782
1.16197970322197
1.16197969768332
1.16197968470047
1.16197965543494
1.16197959170616
1.16197945693106
1.16197917807419
1.16197860773681
1.16197744147678
1.16197504265889
1.16197011888272
1.16196027274991
1.16194180149592
1.16190933076754
1.16202975710183
1.16204568167978
1.16205452350292
1.16205921363832
1.16206154860448
1.16206267655397
1.16206321765104
1.16206347841463
1.16206360444003
1.16206366496824
1.16206369356554
1.16206370673848
1.16206371261064
1.16206371512801
1.16206371615541
1.1620637165463
1.1620637166743
1.16206371669936
1.16206371669415
1.16206371668471
1.16206371667631
1.16206371667002
1.16206371666605
1.16206371666257
1.16206371665925
1.16206371665742
1.16206371665771
1.1620637166606
1.16206371666644
1.16206371667592
1.16206371668949
1.16206371670407
1.16206371670569
1.16206371666692
1.16206371653011
1.16206371614006
1.16206371512996
1.1620637126626
1.16206370688655
1.16206369388196
1.1620636655645
1.16206360554215
1.16206348062069
1.1620632223621
1.16206268563148
1.16206155836073
1.16205918841908
1.16205432108876
1.16204491058595
1.1620276677322
1.16208589502902
1.16209376951466
1.16209799972543
1.1621001894141
1.16210125571752
1.16210176023984
1.16210199765434
1.16210211026335
1.16210216409263
1.16210218979416
1.16210220191565
1.16210220750478
1.16210221000216
1.16210221107518
1.16210221151318
1.16210221167888
1.16210221173093
1.16210221173903
1.16210221173513
1.16210221172948
1.16210221172453
1.16210221172081
1.16210221171823
1.16210221171598
1.16210221171409
1.16210221171295
1.16210221171301
1.1621022117144
1.16210221171717
1.16210221172186
1.1621022117286
1.16210221173584
1.16210221173802
1.16210221172365
1.162102211667
1.16210221150108
1.16210221107036
1.16210221001969
1.16210220756587
1.16210220205417
1.16210219006754
1.16210216463268
1.16210211143966
1.16210200037633
1.16210176595873
1.16210126362574
1.1621001828715
1.1620979055534
1.16209337484482
1.16208475893453
1.16211154787864
1.16211523342226
1.16211715675192
1.1621181299452
1.16211859410179
1.16211880943798
1.16211890891067
1.1621189553642
1.16211897733164
1.16211898776115
1.16211899267295
1.16211899494083
1.16211899595691
1.16211899639452
1.16211899657316
1.16211899664032
1.16211899666051
1.16211899666271
1.16211899666032
1.16211899665727
1.16211899665461
1.16211899665259
1.16211899665111
1.16211899664984
1.16211899664883
1.1621189966482
1.16211899664818
1.16211899664879
1.16211899665004
1.16211899665222
1.16211899665536
1.16211899665874
1.16211899666013
1.16211899665507
1.16211899663256
1.16211899656471
1.16211899638825
1.16211899595861
1.16211899495844
1.16211899271946
1.16211898786172
1.16211897755406
1.16211895591435
1.16211891032098
1.16211881266045
1.1621185992998
1.16211812993812
1.1621171162147
1.16211504395639
1.16211096923909
1.16212273587408
1.16212437663324
1.16212521142439
1.16212562501277
1.16212581845234
1.16212590653688
1.1621259465098
1.16212596489564
1.16212597349808
1.16212597755988
1.16212597947051
1.16212598035413
1.16212598075115
1.16212598092254
1.16212598099248
1.16212598101854
1.16212598102595
1.16212598102637
1.16212598102513
1.16212598102358
1.16212598102224
1.1621259810212
1.16212598102041
1.16212598101973
1.16212598101921
1.16212598101888
1.16212598101883
1.16212598101906
1.16212598101958
1.16212598102052
1.16212598102188
1.16212598102337
1.16212598102409
1.16212598102238
1.16212598101372
1.16212598098695
1.16212598091723
1.16212598074785
1.16212598035514
1.16212597947975
1.16212597758681
1.16212597357441
1.16212596512673
1.16212594718123
1.16212590820122
1.16212582144645
1.16212562646823
1.16212519525413
1.16212429080132
1.16212245792122
1.16212740313197
1.16212810086038
1.16212844808484
1.16212861679597
1.16212869427128
1.16212872893378
1.16212874439813
1.16212875140647
1.16212875465124
1.16212875617505
1.16212875689108
1.1621287572228
1.16212875737226
1.16212875743692
1.16212875746326
1.16212875747295
1.16212875747553
1.1621287574755
1.16212875747485
1.16212875747409
1.16212875747342
1.16212875747289
1.16212875747248
1.16212875747212
1.16212875747185
1.16212875747166
1.16212875747159
1.16212875747165
1.16212875747184
1.1621287574722
1.16212875747275
1.16212875747335
1.16212875747366
1.16212875747309
1.16212875746985
1.16212875745963
1.16212875743297
1.16212875736839
1.16212875721935
1.16212875688876
1.16212875617688
1.16212875467093
1.16212875149425
1.16212874469618
1.16212872973388
1.16212869583681
1.16212861806897
1.1621284421204
1.16212806397859
1.16212727649529
1.1621292651574
1.16212954961505
1.16212968848095
1.16212975475591
1.16212978467394
1.16212979783848
1.16212980361703
1.16212980619835
1.16212980738109
1.16212980793354
1.16212980819285
1.16212980831317
1.16212980836751
1.16212980839104
1.16212980840058
1.16212980840401
1.16212980840483
1.16212980840471
1.16212980840436
1.16212980840398
1.16212980840364
1.16212980840336
1.16212980840312
1.16212980840292
1.16212980840276
1.16212980840264
1.16212980840256
1.16212980840255
1.16212980840258
1.1621298084027
1.16212980840288
1.1621298084031
1.16212980840321
1.162129808403
1.16212980840181
1.16212980839802
1.16212980838813
1.16212980836426
1.16212980830943
1.16212980818849
1.16212980792931
1.16212980738256
1.16212980622806
1.16212980374135
1.16212979820007
1.16212978543172
1.16212975555276
1.1621296864627
1.16212953451716
1.1621292101727
1.16212997109328
1.16213008263358
1.16213013618705
1.1621301613301
1.16213017250072
1.16213017733969
1.16213017943113
1.1621301803524
1.16213018077017
1.16213018096422
1.16213018105517
1.16213018109741
1.16213018111649
1.16213018112473
1.16213018112803
1.16213018112915
1.16213018112936
1.16213018112923
1.16213018112902
1.16213018112881
1.16213018112861
1.16213018112844
1.1621301811283
1.16213018112816
1.16213018112805
1.16213018112795
1.16213018112788
1.16213018112783
1.1621301811278
1.16213018112781
1.16213018112785
1.1621301811279
1.16213018112792
1.16213018112783
1.16213018112739
1.16213018112601
1.16213018112245
1.16213018111387
1.16213018109429
1.16213018105134
1.16213018095976
1.16213018076724
1.1621301803606
1.16213017947976
1.16213017749411
1.16213017284428
1.16213016175481
1.16213013557216
1.16213007672322
1.16212994824823
1.16213021908829
1.16213026127328
1.16213028123885
1.16213029047345
1.16213029451596
1.16213029624156
1.16213029697647
1.16213029729579
1.16213029743908
1.16213029750521
1.16213029753613
1.16213029755046
1.1621302975569
1.16213029755964
1.16213029756069
1.162130297561
1.16213029756099
1.16213029756087
1.16213029756072
1.16213029756058
1.16213029756045
1.16213029756033
1.16213029756022
1.16213029756011
1.16213029756002
1.16213029755993
1.16213029755986
1.1621302975598
1.16213029755974
1.16213029755971
1.16213029755968
1.16213029755967
1.16213029755965
1.1621302975596
1.16213029755942
1.16213029755893
1.16213029755768
1.16213029755469
1.1621302975479
1.16213029753308
1.16213029750163
1.16213029743576
1.16213029729666
1.16213029699383
1.16213029630374
1.1621302946627
1.16213029067702
1.16213028107744
1.16213025905296
1.16213020997316
1.16213029222272
1.1621303076499
1.16213031486159
1.16213031815217
1.16213031957304
1.16213032017121
1.16213032042237
1.16213032053001
1.16213032057775
1.1621303205996
1.16213032060974
1.1621303206144
1.16213032061645
1.16213032061727
1.16213032061753
1.16213032061756
1.16213032061748
1.16213032061737
1.16213032061725
1.16213032061713
1.16213032061703
1.16213032061692
1.16213032061683
1.16213032061674
1.16213032061665
1.16213032061657
1.16213032061649
1.16213032061643
1.16213032061636
1.16213032061631
1.16213032061626
1.16213032061623
1.16213032061619
1.16213032061615
1.16213032061607
1.16213032061589
1.16213032061546
1.16213032061445
1.16213032061217
1.16213032060721
1.16213032059673
1.16213032057483
1.16213032052857
1.16213032042737
1.16213032019434
1.16213031963192
1.16213031824181
1.16213031482937
1.16213030684656
1.16213028871872
1.16213030082694
1.16213030629443
1.16213030882308
1.16213030996269
1.16213031044855
1.16213031065039
1.16213031073394
1.16213031076921
1.16213031078462
1.16213031079156
1.16213031079472
1.16213031079611
1.16213031079667
1.16213031079685
1.16213031079685
1.16213031079677
1.16213031079667
1.16213031079657
1.16213031079646
1.16213031079636
1.16213031079626
1.16213031079616
1.16213031079607
1.16213031079599
1.1621303107959
1.16213031079582
1.16213031079575
1.16213031079568
1.16213031079561
1.16213031079555
1.1621303107955
1.16213031079545
1.16213031079541
1.16213031079537
1.16213031079532
1.16213031079525
1.1621303107951
1.16213031079478
1.16213031079405
1.16213031079246
1.16213031078909
1.16213031078204
1.1621303107671
1.16213031073423
1.1621303106577
1.16213031047025
1.16213030999894
1.16213030882068
1.16213030601308
1.162130299525
1.16213028636237
1.16213028824395
1.162130289106
1.16213028949011
1.16213028965191
1.16213028971822
1.16213028974524
1.16213028975641
1.16213028976117
1.16213028976322
1.16213028976409
1.16213028976442
1.16213028976449
1.16213028976446
1.16213028976437
1.16213028976427
1.16213028976416
1.16213028976405
1.16213028976395
1.16213028976385
1.16213028976376
1.16213028976367
1.16213028976358
1.1621302897635
1.16213028976341
1.16213028976334
1.16213028976326
1.16213028976319
1.16213028976312
1.16213028976306
1.162130289763
1.16213028976295
1.1621302897629
1.16213028976286
1.16213028976283
1.16213028976279
1.16213028976274
1.16213028976264
1.16213028976243
1.16213028976195
1.16213028976093
1.16213028975877
1.16213028975413
1.16213028974379
1.16213028971937
1.16213028965858
1.16213028950307
1.16213028910734
1.1621302881476
1.16213028589299
1.16213026389255
1.1621302645224
1.16213026480844
1.16213026493451
1.16213026498697
1.16213026500813
1.16213026501656
1.16213026501991
1.16213026502124
1.16213026502174
1.16213026502189
1.16213026502188
1.1621302650218
1.16213026502169
1.16213026502158
1.16213026502147
1.16213026502136
1.16213026502126
1.16213026502116
1.16213026502106
1.16213026502097
1.16213026502088
1.1621302650208
1.16213026502071
1.16213026502063
1.16213026502055
1.16213026502048
1.1621302650204
1.16213026502034
1.16213026502027
1.16213026502021
1.16213026502016
1.16213026502011
1.16213026502007
1.16213026502004
1.16213026502001
1.16213026501999
1.16213026501996
1.16213026501991
1.1621302650198
1.16213026501953
1.16213026501893
1.16213026501759
1.16213026501448
1.16213026500696
1.16213026498781
1.16213026493788
1.16213026480851
1.16213026448927
1.16213026372726
1.16213023872112
1.16213023892647
1.16213023901884
1.16213023905907
1.16213023907556
1.16213023908206
1.16213023908452
1.16213023908541
1.16213023908567
1.1621302390857
1.16213023908562
1.16213023908551
1.16213023908539
1.16213023908527
1.16213023908515
1.16213023908504
1.16213023908494
1.16213023908483
1.16213023908474
1.16213023908464
1.16213023908455
1.16213023908446
1.16213023908438
1.16213023908429
1.16213023908421
1.16213023908413
1.16213023908406
1.16213023908399
1.16213023908392
1.16213023908385
1.16213023908379
1.16213023908374
1.16213023908369
1.16213023908364
1.16213023908361
1.16213023908359
1.16213023908357
1.16213023908357
1.16213023908357
1.16213023908356
1.16213023908352
1.1621302390834
1.16213023908308
1.16213023908223
1.16213023908004
1.16213023907423
1.16213023905868
1.16213023901757
1.16213023891423
1.1621302386634
1.16213021266152
1.16213021272677
1.16213021275569
1.16213021276806
1.16213021277302
1.16213021277487
1.16213021277548
1.16213021277561
1.16213021277557
1.16213021277545
1.16213021277532
1.16213021277519
1.16213021277506
1.16213021277494
1.16213021277482
1.16213021277471
1.16213021277461
1.16213021277451
1.16213021277441
1.16213021277432
1.16213021277423
1.16213021277414
1.16213021277405
1.16213021277397
1.16213021277389
1.16213021277381
1.16213021277374
1.16213021277366
1.1621302127736
1.16213021277353
1.16213021277347
1.16213021277341
1.16213021277336
1.16213021277332
1.16213021277328
1.16213021277325
1.16213021277324
1.16213021277324
1.16213021277325
1.16213021277327
1.16213021277329
1.16213021277331
1.16213021277328
1.16213021277312
1.16213021277256
1.16213021277091
1.16213021276626
1.16213021275365
1.16213021272121
1.16213021264074
1.16213018631704
1.16213018633722
1.16213018634586
1.16213018634942
1.16213018635077
1.1621301863512
1.16213018635126
1.16213018635118
1.16213018635105
1.16213018635091
1.16213018635077
1.16213018635063
1.16213018635051
1.16213018635039
1.16213018635028
1.16213018635017
1.16213018635007
1.16213018634997
1.16213018634988
1.16213018634979
1.1621301863497
1.16213018634961
1.16213018634953
1.16213018634944
1.16213018634936
1.16213018634928
1.16213018634921
1.16213018634913
1.16213018634906
1.162130186349
1.16213018634893
1.16213018634888
1.16213018634882
1.16213018634878
1.16213018634874
1.16213018634871
1.16213018634869
1.16213018634869
1.16213018634869
1.16213018634872
1.16213018634875
1.1621301863488
1.16213018634885
1.16213018634887
1.16213018634879
1.16213018634839
1.16213018634711
1.16213018634348
1.16213018633373
1.1621301863086
1.16213015988331
1.16213015988933
1.16213015989165
1.1621301598925
1.16213015989275
1.16213015989277
1.16213015989268
1.16213015989255
1.16213015989241
1.16213015989227
1.16213015989214
1.16213015989201
1.16213015989189
1.16213015989178
1.16213015989167
1.16213015989157
1.16213015989147
1.16213015989138
1.16213015989128
1.16213015989119
1.16213015989111
1.16213015989102
1.16213015989094
1.16213015989085
1.16213015989077
1.16213015989069
1.16213015989062
1.16213015989054
1.16213015989047
1.16213015989041
1.16213015989034
1.16213015989028
1.16213015989023
1.16213015989018
1.16213015989014
1.1621301598901
1.16213015989008
1.16213015989007
1.16213015989007
1.16213015989009
1.16213015989012
1.16213015989017
1.16213015989022
1.16213015989028
1.16213015989032
1.16213015989028
1.16213015989001
1.16213015988912
1.16213015988646
1.16213015987888
1.16213013342223
1.1621301334239
1.1621301334243
1.16213013342434
1.16213013342429
1.16213013342419
1.16213013342408
1.16213013342395
1.16213013342382
1.1621301334237
1.16213013342357
1.16213013342346
1.16213013342335
1.16213013342324
1.16213013342314
1.16213013342304
1.16213013342294
1.16213013342285
1.16213013342276
1.16213013342267
1.16213013342259
1.1621301334225
1.16213013342242
1.16213013342234
1.16213013342226
1.16213013342218
1.1621301334221
1.16213013342203
1.16213013342196
1.16213013342189
1.16213013342182
1.16213013342176
1.1621301334217
1.16213013342165
1.16213013342161
1.16213013342157
1.16213013342154
1.16213013342152
1.16213013342152
1.16213013342153
1.16213013342155
1.16213013342158
1.16213013342163
1.16213013342168
1.16213013342174
1.16213013342178
1.1621301334218
1.16213013342172
1.16213013342122
1.16213013341907
1.16213010695294
1.16213010695331
1.16213010695315
1.16213010695297
1.16213010695284
1.16213010695273
1.16213010695262
1.16213010695251
1.1621301069524
1.16213010695229
1.16213010695218
1.16213010695207
1.16213010695197
1.16213010695187
1.16213010695178
1.16213010695168
1.16213010695159
1.1621301069515
1.16213010695141
1.16213010695133
1.16213010695124
1.16213010695116
1.16213010695108
1.16213010695099
1.16213010695091
1.16213010695084
1.16213010695076
1.16213010695068
1.16213010695061
1.16213010695054
1.16213010695047
1.16213010695041
1.16213010695035
1.1621301069503
1.16213010695025
1.16213010695021
1.16213010695017
1.16213010695015
1.16213010695014
1.16213010695013
1.16213010695014
1.16213010695016
1.16213010695019
1.16213010695023
1.16213010695028
1.16213010695033
1.1621301069504
1.16213010695055
1.16213010695069
1.16213010695017
1.16213008048124
1.16213008048124
1.16213008048092
1.16213008048069
1.16213008048056
1.16213008048047
1.16213008048038
1.16213008048029
1.16213008048019
1.16213008048009
1.16213008048
1.1621300804799
1.16213008047981
1.16213008047972
1.16213008047963
1.16213008047954
1.16213008047945
1.16213008047936
1.16213008047928
1.16213008047919
1.16213008047911
1.16213008047903
1.16213008047895
1.16213008047887
1.16213008047879
1.16213008047871
1.16213008047863
1.16213008047855
1.16213008047848
1.16213008047841
1.16213008047834
1.16213008047828
1.16213008047821
1.16213008047816
1.16213008047811
1.16213008047806
1.16213008047802
1.16213008047799
1.16213008047796
1.16213008047795
1.16213008047795
1.16213008047795
1.16213008047796
1.16213008047798
1.16213008047801
1.16213008047805
1.16213008047813
1.16213008047832
1.16213008047863
1.1621300804786
1.16213005400886
1.16213005400876
1.16213005400841
1.16213005400818
1.16213005400806
1.16213005400799
1.16213005400792
1.16213005400785
1.16213005400777
1.16213005400769
1.16213005400761
1.16213005400752
1.16213005400744
1.16213005400735
1.16213005400727
1.16213005400718
1.1621300540071
1.16213005400702
1.16213005400693
1.16213005400685
1.16213005400677
1.16213005400669
1.16213005400661
1.16213005400653
1.16213005400645
1.16213005400637
1.16213005400629
1.16213005400621
1.16213005400614
1.16213005400607
1.162130054006
1.16213005400593
1.16213005400587
1.16213005400581
1.16213005400575
1.1621300540057
1.16213005400565
1.16213005400561
1.16213005400558
1.16213005400556
1.16213005400554
1.16213005400553
1.16213005400553
1.16213005400553
1.16213005400553
1.16213005400555
1.16213005400561
1.16213005400581
1.16213005400615
1.16213005400625
1.16213002753629
1.16213002753617
1.16213002753582
1.1621300275356
1.16213002753551
1.16213002753546
1.16213002753541
1.16213002753536
1.1621300275353
1.16213002753523
1.16213002753516
1.16213002753509
1.16213002753501
1.16213002753493
1.16213002753486
1.16213002753478
1.1621300275347
1.16213002753462
1.16213002753454
1.16213002753446
1.16213002753438
1.16213002753429
1.16213002753421
1.16213002753413
1.16213002753405
1.16213002753398
1.1621300275339
1.16213002753382
1.16213002753375
1.16213002753367
1.1621300275336
1.16213002753353
1.16213002753346
1.1621300275334
1.16213002753334
1.16213002753328
1.16213002753323
1.16213002753319
1.16213002753315
1.16213002753311
1.16213002753308
1.16213002753306
1.16213002753304
1.16213002753302
1.162130027533
1.162130027533
1.16213002753304
1.16213002753322
1.16213002753356
1.16213002753369
1.16213000106367
1.16213000106355
1.16213000106321
1.16213000106302
1.16213000106295
1.16213000106292
1.16213000106289
1.16213000106286
1.16213000106282
1.16213000106276
1.16213000106271
1.16213000106264
1.16213000106258
1.16213000106251
1.16213000106243
1.16213000106236
1.16213000106228
1.16213000106221
1.16213000106213
1.16213000106205
1.16213000106197
1.16213000106189
1.16213000106181
1.16213000106173
1.16213000106165
1.16213000106158
1.1621300010615
1.16213000106142
1.16213000106134
1.16213000106127
1.16213000106119
1.16213000106112
1.16213000106105
1.16213000106099
1.16213000106092
1.16213000106086
1.1621300010608
1.16213000106075
1.1621300010607
1.16213000106066
1.16213000106061
1.16213000106057
1.16213000106054
1.1621300010605
1.16213000106046
1.16213000106044
1.16213000106046
1.16213000106061
1.16213000106094
1.16213000106107
1.16212997459103
1.16212997459093
1.16212997459061
1.16212997459044
1.16212997459039
1.16212997459039
1.16212997459038
1.16212997459036
1.16212997459034
1.1621299745903
1.16212997459025
1.1621299745902
1.16212997459014
1.16212997459008
1.16212997459001
1.16212997458994
1.16212997458987
1.1621299745898
1.16212997458972
1.16212997458965
1.16212997458957
1.16212997458949
1.16212997458941
1.16212997458933
1.16212997458926
1.16212997458918
1.1621299745891
1.16212997458902
1.16212997458894
1.16212997458887
1.16212997458879
1.16212997458872
1.16212997458864
1.16212997458857
1.16212997458851
1.16212997458844
1.16212997458838
1.16212997458832
1.16212997458826
1.1621299745882
1.16212997458815
1.16212997458809
1.16212997458804
1.16212997458799
1.16212997458793
1.16212997458788
1.16212997458788
1.16212997458801
1.16212997458832
1.16212997458844
1.1621299481184
1.16212994811831
1.16212994811801
1.16212994811787
1.16212994811784
1.16212994811786
1.16212994811787
1.16212994811788
1.16212994811786
1.16212994811784
1.1621299481178
1.16212994811776
1.16212994811771
1.16212994811766
1.1621299481176
1.16212994811753
1.16212994811746
1.16212994811739
1.16212994811732
1.16212994811725
1.16212994811717
1.1621299481171
1.16212994811702
1.16212994811694
1.16212994811686
1.16212994811678
1.1621299481167
1.16212994811662
1.16212994811654
1.16212994811647
1.16212994811639
1.16212994811631
1.16212994811624
1.16212994811616
1.16212994811609
1.16212994811602
1.16212994811595
1.16212994811588
1.16212994811582
1.16212994811575
1.16212994811569
1.16212994811562
1.16212994811555
1.16212994811548
1.1621299481154
1.16212994811533
1.16212994811531
1.16212994811541
1.1621299481157
1.16212994811581
1.16212992164577
1.16212992164569
1.16212992164542
1.16212992164531
1.1621299216453
1.16212992164534
1.16212992164537
1.16212992164539
1.1621299216454
1.16212992164539
1.16212992164536
1.16212992164533
1.16212992164529
1.16212992164524
1.16212992164518
1.16212992164513
1.16212992164506
1.16212992164499
1.16212992164493
1.16212992164485
1.16212992164478
1.1621299216447
1.16212992164463
1.16212992164455
1.16212992164447
1.16212992164439
1.16212992164431
1.16212992164423
1.16212992164415
1.16212992164407
1.16212992164399
1.16212992164391
1.16212992164384
1.16212992164376
1.16212992164368
1.16212992164361