/*--------------------------------*- C++ -*----------------------------------*\
  =========                 |
  \\      /  F ield         | OpenFOAM: The Open Source CFD Toolbox
   \\    /   O peration     | Website:  https://openfoam.org
    \\  /    A nd           | Version:  10
     \\/     M anipulation  |
\*---------------------------------------------------------------------------*/
FoamFile
{
    format      ascii;
    class       volScalarField;
    location    "6.8";
    object      T;
}
// * * * * * * * * * * * * * * * * * * * * * * * * * * * * * * * * * * * * * //

dimensions      [0 0 0 1 0 0 0];

internalField   nonuniform List<scalar> 
2500
(
304.490149434633
304.484890238466
304.473058440173
304.464376821573
304.459040772509
304.455962415947
304.454246304538
304.453318543093
304.452834986595
304.452594101589
304.45247797989
304.452424629592
304.452401101691
304.45239054053
304.452385701125
304.452383098673
304.452381934559
304.452381001281
304.452380115031
304.452379514716
304.452379017179
304.452378594775
304.452378251059
304.4523780376
304.452377821539
304.452377645058
304.452377582672
304.452377567691
304.452377612661
304.452377728743
304.452377931142
304.452378309401
304.452378785771
304.452379496754
304.452380676431
304.452382972231
304.452387919901
304.452398887992
304.452424353052
304.452480132762
304.452599403196
304.452845089128
304.453331453783
304.45425754904
304.455965374208
304.459024518421
304.464351301186
304.473077555995
304.484996823203
304.490040820238
303.590494372781
303.562010499544
303.527775757338
303.503204609935
303.487784077453
303.478625895992
303.473354506945
303.470411982997
303.46882878872
303.468012309913
303.467609032989
303.467418734116
303.467332852287
303.467295443351
303.4672796187
303.467272938639
303.467270223223
303.467268916725
303.467268109941
303.467267607534
303.467267222559
303.467266894782
303.467266624808
303.467266440795
303.467266276661
303.467266140947
303.467266073755
303.467266039174
303.467266038027
303.467266092113
303.467266228526
303.467266541724
303.467267179174
303.467268521033
303.467271523773
303.467278702633
303.467295904076
303.4673360942
303.467427261327
303.467625383948
303.468038997204
303.468866968647
303.470456691943
303.473391936964
303.478633440968
303.487743482359
303.503156903128
303.527887989759
303.56244039991
303.590101327174
302.674797516378
302.625357212017
302.576698306116
302.542943424444
302.521969444256
302.5095678705
302.502443504919
302.498467056666
302.496324343375
302.495215922661
302.494666840483
302.494406798845
302.494289041367
302.494237865392
302.49421644347
302.4942077241
302.494204298127
302.494202879941
302.494202192631
302.494201818509
302.494201554613
302.494201328149
302.494201136517
302.494201001219
302.494200890035
302.494200796706
302.49420074127
302.494200702129
302.494200675968
302.494200681318
302.494200754608
302.494201001018
302.494201675669
302.494203284697
302.494207132653
302.494216674894
302.494239920127
302.494294615315
302.494418565987
302.494687902496
302.495249252975
302.496370820644
302.498520988983
302.502488795794
302.509579186596
302.52193511234
302.542941862014
302.57699994082
302.626285176901
302.675105836337
301.857999408555
301.798726080369
301.748049250415
301.714269656271
301.693877896529
301.682129506759
301.67553607272
301.671928564299
301.670016363097
301.669040351067
301.668562273097
301.668337980093
301.668237241068
301.668193840932
301.668175867629
301.668168686213
301.668165930556
301.668164862866
301.668164405773
301.668164181804
301.668164030967
301.668163894542
301.668163771926
301.66816368376
301.668163616518
301.668163559185
301.668163520333
301.668163485928
301.668163451719
301.668163435322
301.668163443966
301.668163564472
301.668164066152
301.668165329627
301.668168397958
301.668176174699
301.668195427728
301.668241311078
301.66834642951
301.668577479821
301.669064815984
301.67005131807
301.671970845858
301.675575071229
301.682149237922
301.69388223443
301.714364008743
301.748561187336
301.800122722599
301.85950598258
301.205987902859
301.148745524992
301.104527718525
301.076189001627
301.059598468441
301.050301132792
301.04520963698
301.042479835242
301.041055786315
301.040337766143
301.039989340677
301.039827038065
301.03975454995
301.039723485483
301.039710704167
301.039705658174
301.039703761089
301.039703064203
301.039702797711
301.039702685077
301.039702615162
301.039702545336
301.039702475298
301.039702424253
301.039702388874
301.039702358129
301.039702334356
301.039702308652
301.039702277335
301.039702252793
301.039702233022
301.039702260711
301.03970257367
301.039703431423
301.039705515037
301.039710890059
301.039724360164
301.039756765046
301.039831637821
301.039997701443
301.040351463538
301.041075867593
301.042505042599
301.045234655261
301.050319316646
301.059625258806
301.076337545484
301.105134129957
301.150370631644
301.208446087858
300.733576483171
300.686219777424
300.652437345804
300.631577483226
300.619730444638
300.613271205765
300.609818356049
300.608003036162
300.607069982982
300.606604532096
300.606380351336
300.606276451712
300.606230207699
300.606210447257
300.606202349033
300.606199179993
300.606198011163
300.606197603456
300.606197465932
300.606197420429
300.606197398427
300.606197371079
300.606197336069
300.606197310117
300.606197294879
300.606197281005
300.606197268128
300.606197251143
300.60619722727
300.606197203433
300.606197177759
300.606197163722
300.606197333499
300.606197848673
300.6061991124
300.606202428926
300.606210819998
300.606231144202
300.606278399775
300.606383921778
300.606610482774
300.607078913706
300.608014512667
300.609830113307
300.613281864674
300.619758699431
300.63172495853
300.653005363508
300.6877784485
300.736384122568
300.419571597408
300.384891439022
300.361726702674
300.34791242545
300.340292913878
300.336247493955
300.334134932456
300.333044892402
300.33249227212
300.332219161913
300.332088394596
300.332027993594
300.33200115758
300.331989704
300.331985020969
300.331983200977
300.331982541585
300.331982324971
300.331982262798
300.331982248259
300.331982248576
300.331982245309
300.331982231019
300.331982219972
300.331982215832
300.331982211052
300.331982204843
300.331982194731
300.33198217866
300.331982159747
300.331982135917
300.331982111319
300.331982193148
300.331982472384
300.331983173792
300.331985047206
300.331989822487
300.332001443009
300.332028579773
300.332089467643
300.3322209762
300.332495036847
300.33304835601
300.334138046993
300.336250557803
300.340311648559
300.348025526312
300.36217399298
300.386174487746
300.422164943597
300.226443629952
300.203494750452
300.189001740315
300.180634801726
300.176146531609
300.173823377645
300.17263717913
300.172036021313
300.171735139754
300.171587661433
300.171517374126
300.171484975246
300.171470587194
300.171464446213
300.171461938478
300.17146096944
300.171460624349
300.17146051892
300.171460498401
300.171460499955
300.171460502759
300.171460504664
300.171460501506
300.171460498141
300.171460499271
300.171460498667
300.171460496057
300.171460490536
300.171460480676
300.171460467607
300.171460449815
300.171460428995
300.17146046212
300.171460599802
300.171460962418
300.171461946236
300.171464467968
300.171470622244
300.171485032625
300.171517464783
300.17158781078
300.171735338667
300.17203600598
300.172636243621
300.173821753266
300.176154702375
300.180706457092
300.189308451985
300.20442621166
300.22850022749
300.115730910089
300.101809661162
300.093435476266
300.088744955158
300.086294227862
300.08505605101
300.084437356647
300.084129183181
300.083976802291
300.083902661197
300.083867454002
300.083851241464
300.083844037702
300.083840960255
300.083839704229
300.083839221332
300.083839052725
300.083839007402
300.083839003595
300.083839007266
300.083839011054
300.083839013964
300.083839014393
300.083839014639
300.083839016305
300.08383901667
300.083839015713
300.083839012882
300.083839007255
300.08383899913
300.083838987692
300.083838974205
300.083838984199
300.083839046262
300.083839222944
300.08383970826
300.083840957371
300.08384401008
300.083851166669
300.083867297502
300.083902379739
300.083976311857
300.084128219119
300.084435317762
300.085052729496
300.086295406969
300.08878343495
300.093622793262
300.102417741857
300.117177603376
300.056204890355
300.048379129871
300.043868095229
300.041411584353
300.040159613431
300.039541467247
300.039238943084
300.039090757307
300.039018330734
300.038983327581
300.0389667529
300.038959121695
300.038955726405
300.038954273702
300.038953680862
300.038953454078
300.03895337721
300.038953359316
300.038953359886
300.038953363331
300.038953366515
300.038953368908
300.038953370102
300.038953371134
300.038953372443
300.038953373021
300.038953372727
300.038953371235
300.038953368216
300.038953363579
300.038953356979
300.038953349741
300.038953351319
300.038953376867
300.038953458158
300.038953684724
300.03895426979
300.038955699939
300.038959052284
300.038966609049
300.038983064702
300.039017865507
300.039089870249
300.03923713942
300.039538284652
300.040157695992
300.041429097888
300.043971567207
300.048741331892
300.057126497145
300.026023403363
300.021911871152
300.019629068493
300.018418172185
300.017815335554
300.017524124705
300.017384425913
300.01731710277
300.017284565899
300.017268938882
300.017261555688
300.017258154705
300.017256638618
300.01725598866
300.017255723383
300.017255622435
300.017255589359
300.017255582862
300.017255584181
300.017255586594
300.017255588736
300.017255590336
300.017255591337
300.017255592213
300.017255593048
300.017255593501
300.017255593407
300.01725559264
300.017255591115
300.017255588653
300.017255585134
300.017255581354
300.017255580923
300.017255590922
300.017255626232
300.017255726927
300.017255987704
300.017256624716
300.017258115957
300.017261473443
300.017268784361
300.01728428075
300.017316532585
300.017383208975
300.017521780429
300.01781281602
300.018424682539
300.01968132714
300.022110954852
300.026562860751
300.011522942523
300.009490028455
300.008397948649
300.007832657077
300.007557380077
300.007427132614
300.007365841664
300.007336770474
300.007322873851
300.007316238692
300.007313109362
300.007311666432
300.007311021671
300.007310744625
300.00731063152
300.007310588712
300.007310575247
300.007310573128
300.007310574107
300.00731057554
300.007310576792
300.00731057773
300.007310578371
300.007310578929
300.007310579396
300.00731057967
300.007310579634
300.007310579258
300.007310578523
300.007310577296
300.007310575542
300.007310573659
300.007310573084
300.007310576784
300.0073105914
300.007310634227
300.007310745417
300.007311016657
300.00731165014
300.007313073052
300.007316167536
300.007322733826
300.00733646617
300.007365138308
300.007425655559
300.007555337806
300.007834345415
300.008422259488
300.009591916879
300.011816243505
300.004893550886
300.00394211221
300.003445598772
300.003194366379
300.003074543167
300.003018953503
300.002993274276
300.002981282081
300.002975611045
300.00297291857
300.002971650522
300.002971065013
300.00297080267
300.002970689663
300.002970643513
300.002970626143
300.002970620903
300.002970620304
300.002970620894
300.002970621657
300.002970622317
300.002970622815
300.002970623172
300.002970623478
300.002970623716
300.002970623858
300.002970623843
300.002970623668
300.002970623327
300.002970622748
300.002970621925
300.002970621038
300.002970620668
300.002970621963
300.002970627768
300.002970645276
300.002970690829
300.002970801744
300.00297105995
300.002971637964
300.002972892032
300.002975553025
300.00298113943
300.002992909554
300.003018120951
300.003073200607
300.003194367514
300.003456062853
300.00399102276
300.005042928938
300.001998507711
300.001574946146
300.001359445353
300.001252677728
300.001202741314
300.001180002197
300.001169683075
300.001164936663
300.001162715852
300.001161667224
300.001161173933
300.001160945775
300.001160843242
300.001160798959
300.001160780868
300.001160774107
300.001160772166
300.001160772026
300.001160772321
300.001160772693
300.001160773014
300.001160773258
300.001160773438
300.00116077359
300.001160773702
300.001160773768
300.001160773762
300.001160773684
300.001160773531
300.001160773272
300.001160772906
300.00116077251
300.001160772313
300.001160772743
300.001160774974
300.00116078188
300.001160799879
300.001160843607
300.001160944998
300.001161171002
300.001161659696
300.001162695546
300.001164876382
300.001169509101
300.001179571887
300.001201967708
300.001252301312
300.001363618991
300.001597102896
300.002070260564
300.000786825773
300.00060670861
300.000517073298
300.000473520726
300.000453520467
300.000444572245
300.000440580007
300.000438770695
300.000437932965
300.000437539516
300.00043735461
300.000437268922
300.000437230292
300.000437213562
300.000437206725
300.00043720419
300.000437203493
300.000437203471
300.000437203612
300.000437203781
300.000437203926
300.000437204038
300.000437204121
300.000437204191
300.00043720424
300.000437204268
300.000437204266
300.000437204233
300.000437204167
300.000437204057
300.000437203902
300.000437203734
300.000437203643
300.000437203781
300.000437204611
300.000437207248
300.00043721413
300.000437230807
300.000437269296
300.000437354662
300.000437538469
300.00043792728
300.000438747409
300.00044050242
300.000444365039
300.000453115654
300.000473191418
300.000518612311
300.000616228864
300.000819516085
300.000299314478
300.000225882484
300.00019003454
300.000172925674
300.000165202249
300.000161803694
300.000160311836
300.000159645354
300.000159339934
300.000159197242
300.000159130236
300.000159099119
300.000159085044
300.00015907893
300.00015907643
300.00015907551
300.000159075265
300.000159075268
300.00015907533
300.000159075401
300.000159075463
300.000159075511
300.000159075547
300.000159075576
300.000159075596
300.000159075608
300.000159075607
300.000159075593
300.000159075566
300.000159075522
300.000159075459
300.000159075392
300.000159075353
300.000159075396
300.000159075699
300.000159076676
300.000159079231
300.000159085401
300.000159099569
300.000159130816
300.000159197761
300.000159338955
300.000159637061
300.000160279099
300.00016170969
300.000165005957
300.000172719289
300.000190554858
300.000229779273
300.000313507938
300.00011024528
300.000081451442
300.000067626676
300.000061135924
300.00005825211
300.000057002795
300.000056462765
300.000056224828
300.000056116888
300.000056066717
300.000056043173
300.000056032214
300.000056027239
300.00005602507
300.000056024182
300.000056023856
300.000056023772
300.000056023775
300.0000560238
300.000056023828
300.000056023852
300.000056023871
300.000056023885
300.000056023897
300.000056023904
300.000056023909
300.000056023908
300.000056023903
300.000056023893
300.000056023875
300.000056023852
300.000056023826
300.000056023811
300.000056023825
300.000056023935
300.000056024288
300.000056025211
300.000056027432
300.000056032503
300.000056043617
300.000056067295
300.000056117047
300.00005622209
300.000056449571
300.000056962273
300.000058162749
300.000061025607
300.000067784726
300.0000829765
300.00011614198
300.000039392207
300.000028502236
300.0000233481
300.00002096409
300.000019920394
300.000019474802
300.000019284969
300.000019202431
300.000019165354
300.000019148205
300.000019140161
300.000019136406
300.000019134694
300.000019133945
300.000019133636
300.000019133522
300.000019133492
300.000019133493
300.000019133501
300.000019133511
300.000019133519
300.000019133526
300.000019133531
300.000019133535
300.000019133537
300.000019133539
300.000019133539
300.000019133537
300.000019133533
300.000019133527
300.000019133519
300.00001913351
300.000019133505
300.000019133511
300.000019133551
300.000019133677
300.000019134003
300.000019134783
300.000019136553
300.000019140404
300.000019148558
300.000019165612
300.000019201587
300.000019279847
300.000019458094
300.000019881844
300.000020910858
300.000023389087
300.000029074727
300.000041744575
300.000013678856
300.000009696337
300.000007834589
300.000006985028
300.000006618119
300.000006463587
300.000006398643
300.000006370758
300.000006358349
300.000006352635
300.000006349955
300.000006348699
300.000006348123
300.000006347869
300.000006347762
300.000006347722
300.00000634771
300.000006347708
300.00000634771
300.000006347712
300.000006347714
300.000006347716
300.000006347717
300.000006347718
300.000006347718
300.000006347719
300.000006347719
300.000006347718
300.000006347717
300.000006347715
300.000006347713
300.000006347711
300.00000634771
300.000006347713
300.000006347729
300.000006347774
300.000006347888
300.000006348157
300.000006348762
300.000006350066
300.000006352806
300.000006358507
300.00000637051
300.000006396712
300.000006456961
300.000006602251
300.000006961211
300.000007842226
300.00000990304
300.00001458273
300.000004623786
300.000003212338
300.000002559514
300.000002265235
300.000002139713
300.000002087506
300.00000206584
300.000002056646
300.000002052589
300.000002050728
300.000002049853
300.00000204944
300.000002049248
300.000002049162
300.000002049124
300.000002049108
300.000002049102
300.0000020491
300.000002049099
300.000002049098
300.000002049098
300.000002049097
300.000002049097
300.000002049097
300.000002049096
300.000002049096
300.000002049096
300.000002049096
300.000002049096
300.000002049096
300.000002049096
300.000002049096
300.000002049097
300.0000020491
300.000002049107
300.000002049124
300.000002049165
300.000002049257
300.000002049461
300.000002049895
300.000002050797
300.000002052661
300.000002056571
300.000002065127
300.000002084965
300.000002133445
300.000002255201
300.000002559453
300.000003284291
300.000004959205
300.000001523866
300.000001038116
300.000000815531
300.000000716296
300.000000674443
300.000000657234
300.000000650173
300.000000647207
300.000000645907
300.000000645311
300.000000645028
300.000000644893
300.000000644828
300.000000644797
300.000000644782
300.000000644774
300.00000064477
300.000000644767
300.000000644765
300.000000644764
300.000000644762
300.000000644761
300.00000064476
300.000000644759
300.000000644759
300.000000644759
300.000000644759
300.000000644759
300.000000644759
300.00000064476
300.000000644761
300.000000644762
300.000000644763
300.000000644766
300.00000064477
300.000000644778
300.000000644793
300.000000644826
300.000000644896
300.000000645039
300.000000645333
300.000000645931
300.000000647179
300.00000064991
300.000000656285
300.000000672055
300.000000712275
300.000000814505
300.000001062313
300.000001644365
300.000000490493
300.000000327878
300.000000253996
300.000000221387
300.000000207772
300.000000202229
300.000000199976
300.000000199037
300.000000198626
300.000000198435
300.000000198343
300.000000198297
300.000000198273
300.00000019826
300.000000198252
300.000000198247
300.000000198243
300.00000019824
300.000000198238
300.000000198236
300.000000198234
300.000000198233
300.000000198232
300.000000198231
300.00000019823
300.00000019823
300.00000019823
300.00000019823
300.000000198231
300.000000198231
300.000000198232
300.000000198234
300.000000198236
300.000000198238
300.000000198241
300.000000198246
300.000000198254
300.000000198267
300.000000198292
300.000000198341
300.000000198437
300.000000198628
300.000000199021
300.000000199877
300.000000201881
300.000000206889
300.000000219843
300.000000253299
300.000000335753
300.000000532489
300.000000154544
300.000000101515
300.000000077637
300.000000067199
300.000000062878
300.000000061132
300.000000060426
300.000000060131
300.00000006
300.000000059937
300.000000059905
300.000000059887
300.000000059876
300.000000059868
300.000000059863
300.000000059859
300.000000059855
300.000000059852
300.000000059849
300.000000059847
300.000000059845
300.000000059844
300.000000059843
300.000000059842
300.000000059841
300.000000059841
300.000000059841
300.000000059841
300.000000059842
300.000000059842
300.000000059844
300.000000059845
300.000000059847
300.000000059849
300.000000059852
300.000000059856
300.000000059861
300.000000059868
300.000000059879
300.000000059898
300.000000059931
300.000000059994
300.000000060118
300.000000060384
300.000000061003
300.000000062558
300.000000066627
300.000000077288
300.000000103998
300.000000168769
300.000000047884
300.000000031027
300.000000023534
300.000000020294
300.000000018961
300.000000018423
300.000000018204
300.00000001811
300.000000018066
300.000000018042
300.000000018028
300.000000018018
300.000000018011
300.000000018005
300.000000018001
300.000000017997
300.000000017993
300.00000001799
300.000000017988
300.000000017985
300.000000017984
300.000000017982
300.000000017981
300.00000001798
300.000000017979
300.000000017979
300.000000017979
300.000000017979
300.00000001798
300.000000017981
300.000000017982
300.000000017983
300.000000017985
300.000000017988
300.00000001799
300.000000017994
300.000000017998
300.000000018003
300.00000001801
300.000000018019
300.000000018033
300.000000018056
300.000000018098
300.000000018182
300.000000018372
300.000000018845
300.000000020087
300.000000023382
300.000000031786
300.000000052573
300.000000014771
300.000000009554
300.000000007301
300.000000006344
300.00000000595
300.000000005788
300.000000005719
300.000000005686
300.000000005668
300.000000005657
300.000000005648
300.000000005641
300.000000005635
300.00000000563
300.000000005626
300.000000005622
300.000000005618
300.000000005615
300.000000005613
300.000000005611
300.000000005609
300.000000005607
300.000000005606
300.000000005605
300.000000005604
300.000000005604
300.000000005604
300.000000005604
300.000000005605
300.000000005606
300.000000005607
300.000000005608
300.00000000561
300.000000005613
300.000000005616
300.000000005619
300.000000005623
300.000000005627
300.000000005632
300.000000005639
300.000000005647
300.000000005658
300.000000005675
300.000000005704
300.000000005764
300.000000005905
300.00000000627
300.00000000724
300.000000009778
300.000000016276
300.000000004707
300.000000003148
300.000000002532
300.000000002283
300.000000002178
300.000000002131
300.000000002107
300.000000002093
300.000000002083
300.000000002074
300.000000002067
300.000000002061
300.000000002056
300.000000002051
300.000000002046
300.000000002043
300.000000002039
300.000000002036
300.000000002034
300.000000002031
300.000000002029
300.000000002028
300.000000002027
300.000000002026
300.000000002025
300.000000002025
300.000000002025
300.000000002025
300.000000002026
300.000000002026
300.000000002028
300.000000002029
300.000000002031
300.000000002034
300.000000002036
300.00000000204
300.000000002043
300.000000002048
300.000000002052
300.000000002058
300.000000002064
300.000000002072
300.000000002081
300.000000002094
300.000000002116
300.000000002158
300.000000002255
300.000000002509
300.000000003211
300.000000005177
300.00000000171
300.000000001275
300.000000001159
300.000000001125
300.000000001107
300.000000001094
300.000000001083
300.000000001075
300.000000001067
300.000000001059
300.000000001053
300.000000001047
300.000000001041
300.000000001037
300.000000001032
300.000000001028
300.000000001025
300.000000001022
300.000000001019
300.000000001017
300.000000001015
300.000000001014
300.000000001013
300.000000001012
300.000000001011
300.000000001011
300.000000001011
300.000000001011
300.000000001012
300.000000001012
300.000000001014
300.000000001015
300.000000001017
300.00000000102
300.000000001022
300.000000001025
300.000000001029
300.000000001033
300.000000001038
300.000000001043
300.000000001049
300.000000001056
300.000000001063
300.000000001072
300.000000001082
300.000000001095
300.000000001113
300.000000001151
300.000000001291
300.000000001851
300.000000000836
300.000000000738
300.000000000772
300.000000000802
300.000000000809
300.000000000806
300.000000000799
300.000000000791
300.000000000784
300.000000000777
300.000000000771
300.000000000765
300.000000000759
300.000000000755
300.00000000075
300.000000000746
300.000000000743
300.00000000074
300.000000000738
300.000000000735
300.000000000734
300.000000000732
300.000000000731
300.00000000073
300.000000000729
300.000000000729
300.000000000729
300.000000000729
300.00000000073
300.000000000731
300.000000000732
300.000000000734
300.000000000735
300.000000000738
300.00000000074
300.000000000744
300.000000000747
300.000000000751
300.000000000756
300.000000000761
300.000000000767
300.000000000774
300.00000000078
300.000000000788
300.000000000795
300.0000000008
300.000000000795
300.000000000769
300.000000000741
300.000000000875
300.000000000586
300.000000000588
300.000000000666
300.000000000714
300.000000000728
300.000000000727
300.000000000721
300.000000000714
300.000000000707
300.0000000007
300.000000000693
300.000000000687
300.000000000682
300.000000000677
300.000000000673
300.000000000669
300.000000000666
300.000000000663
300.00000000066
300.000000000658
300.000000000657
300.000000000655
300.000000000654
300.000000000653
300.000000000652
300.000000000652
300.000000000652
300.000000000652
300.000000000653
300.000000000654
300.000000000655
300.000000000656
300.000000000658
300.000000000661
300.000000000663
300.000000000666
300.00000000067
300.000000000674
300.000000000679
300.000000000684
300.00000000069
300.000000000696
300.000000000703
300.00000000071
300.000000000717
300.000000000719
300.000000000709
300.000000000665
300.000000000588
300.000000000594
300.000000000518
300.000000000549
300.000000000639
300.000000000691
300.000000000707
300.000000000706
300.0000000007
300.000000000693
300.000000000685
300.000000000678
300.000000000672
300.000000000666
300.000000000661
300.000000000656
300.000000000652
300.000000000648
300.000000000645
300.000000000642
300.000000000639
300.000000000637
300.000000000636
300.000000000634
300.000000000633
300.000000000632
300.000000000631
300.000000000631
300.000000000631
300.000000000631
300.000000000632
300.000000000633
300.000000000634
300.000000000635
300.000000000637
300.00000000064
300.000000000642
300.000000000645
300.000000000649
300.000000000653
300.000000000658
300.000000000663
300.000000000669
300.000000000675
300.000000000682
300.000000000689
300.000000000696
300.000000000699
300.000000000687
300.000000000638
300.000000000548
300.000000000517
300.000000000501
300.00000000054
300.000000000633
300.000000000686
300.000000000701
300.000000000701
300.000000000694
300.000000000687
300.000000000679
300.000000000672
300.000000000665
300.000000000659
300.000000000654
300.000000000649
300.000000000645
300.000000000642
300.000000000638
300.000000000636
300.000000000633
300.000000000631
300.000000000629
300.000000000628
300.000000000627
300.000000000626
300.000000000626
300.000000000625
300.000000000625
300.000000000625
300.000000000626
300.000000000627
300.000000000628
300.000000000629
300.000000000631
300.000000000633
300.000000000636
300.000000000639
300.000000000643
300.000000000647
300.000000000652
300.000000000657
300.000000000663
300.000000000669
300.000000000676
300.000000000684
300.000000000691
300.000000000694
300.000000000682
300.000000000633
300.000000000539
300.000000000498
300.000000000499
300.000000000541
300.000000000634
300.000000000686
300.000000000701
300.000000000699
300.000000000692
300.000000000684
300.000000000676
300.000000000669
300.000000000663
300.000000000657
300.000000000652
300.000000000647
300.000000000643
300.000000000639
300.000000000636
300.000000000633
300.000000000631
300.000000000629
300.000000000627
300.000000000626
300.000000000625
300.000000000624
300.000000000623
300.000000000623
300.000000000623
300.000000000623
300.000000000624
300.000000000625
300.000000000626
300.000000000627
300.000000000629
300.000000000631
300.000000000634
300.000000000637
300.00000000064
300.000000000644
300.000000000649
300.000000000654
300.00000000066
300.000000000667
300.000000000674
300.000000000682
300.00000000069
300.000000000693
300.000000000683
300.000000000634
300.00000000054
300.000000000495
300.000000000502
300.000000000544
300.000000000636
300.000000000687
300.000000000701
300.000000000699
300.000000000691
300.000000000683
300.000000000675
300.000000000667
300.000000000661
300.000000000655
300.00000000065
300.000000000645
300.000000000641
300.000000000637
300.000000000634
300.000000000632
300.000000000629
300.000000000627
300.000000000626
300.000000000625
300.000000000623
300.000000000623
300.000000000622
300.000000000622
300.000000000622
300.000000000622
300.000000000623
300.000000000623
300.000000000625
300.000000000626
300.000000000628
300.00000000063
300.000000000632
300.000000000635
300.000000000639
300.000000000643
300.000000000647
300.000000000653
300.000000000659
300.000000000666
300.000000000673
300.000000000681
300.000000000689
300.000000000694
300.000000000684
300.000000000637
300.000000000544
300.000000000498
300.000000000507
300.000000000549
300.00000000064
300.000000000689
300.000000000702
300.000000000698
300.00000000069
300.000000000681
300.000000000673
300.000000000665
300.000000000659
300.000000000653
300.000000000648
300.000000000643
300.000000000639
300.000000000636
300.000000000633
300.00000000063
300.000000000628
300.000000000626
300.000000000625
300.000000000623
300.000000000622
300.000000000622
300.000000000621
300.000000000621
300.000000000621
300.000000000621
300.000000000622
300.000000000622
300.000000000623
300.000000000625
300.000000000626
300.000000000629
300.000000000631
300.000000000634
300.000000000637
300.000000000641
300.000000000646
300.000000000651
300.000000000657
300.000000000664
300.000000000672
300.000000000681
300.000000000689
300.000000000695
300.000000000687
300.000000000641
300.000000000549
300.000000000503
300.000000000513
300.000000000555
300.000000000644
300.000000000691
300.000000000702
300.000000000698
300.000000000689
300.00000000068
300.000000000671
300.000000000663
300.000000000657
300.000000000651
300.000000000646
300.000000000641
300.000000000637
300.000000000634
300.000000000631
300.000000000629
300.000000000627
300.000000000625
300.000000000623
300.000000000622
300.000000000621
300.00000000062
300.00000000062
300.00000000062
300.00000000062
300.00000000062
300.000000000621
300.000000000621
300.000000000622
300.000000000624
300.000000000625
300.000000000627
300.00000000063
300.000000000632