/*--------------------------------*- C++ -*----------------------------------*\
  =========                 |
  \\      /  F ield         | OpenFOAM: The Open Source CFD Toolbox
   \\    /   O peration     | Website:  https://openfoam.org
    \\  /    A nd           | Version:  10
     \\/     M anipulation  |
\*---------------------------------------------------------------------------*/
FoamFile
{
    format      ascii;
    class       volVectorField;
    location    "6.8";
    object      U;
}
// * * * * * * * * * * * * * * * * * * * * * * * * * * * * * * * * * * * * * //

dimensions      [0 1 -1 0 0 0 0];

internalField   nonuniform List<vector> 
2500
(
(-1.41200373240159e-06 -2.28126395057154e-06 3.9629307536478e-25)
(-3.49142920928568e-06 -3.09885118416185e-06 3.66830021877918e-24)
(-3.54651801318038e-06 -3.35497845283743e-06 5.57736477440473e-25)
(-2.85479015765664e-06 -3.45697913358972e-06 1.97121005297582e-25)
(-1.98942975546179e-06 -3.45822807148121e-06 -2.61751828994639e-25)
(-1.33469094894849e-06 -3.43432949815892e-06 -7.48383990299963e-25)
(-8.73252682705519e-07 -3.40733772808136e-06 -1.70521371120584e-25)
(-5.7426095771507e-07 -3.38640595393934e-06 -1.56643544413442e-25)
(-3.79892021881482e-07 -3.37140340877952e-06 -3.77813095555371e-25)
(-2.54266651298332e-07 -3.36148056104512e-06 5.08310330401029e-24)
(-1.71647845346884e-07 -3.35523358015386e-06 2.31309589695381e-24)
(-1.16018292138089e-07 -3.35145945786333e-06 4.7905105021462e-24)
(-7.74959877774651e-08 -3.34925638905134e-06 5.00562695021288e-24)
(-4.99292898446328e-08 -3.34799439136743e-06 1.80538498712278e-24)
(-2.95892043288112e-08 -3.34727705057624e-06 3.98471216603578e-24)
(-1.41572942923426e-08 -3.34685966775145e-06 1.30133146337494e-24)
(-2.18093963137931e-09 -3.34661382840088e-06 4.78568066794703e-24)
(7.27600789326271e-09 -3.34646420942376e-06 4.27300787391368e-24)
(1.48568187744827e-08 -3.34637845806155e-06 1.11918601201391e-24)
(2.10027599802427e-08 -3.34632143254266e-06 3.65478683740954e-24)
(2.60381735328809e-08 -3.34628724373293e-06 3.29737527704783e-25)
(3.02158924413257e-08 -3.34627025183839e-06 -2.05108248156554e-25)
(3.37401036809647e-08 -3.34625953310099e-06 5.27532774876353e-24)
(3.67724584266047e-08 -3.34626238024722e-06 5.80686298420563e-25)
(3.94601751767546e-08 -3.34626860969034e-06 -6.0544934877377e-26)
(4.19461260710257e-08 -3.3462821965474e-06 4.2381352485118e-24)
(4.43534432465289e-08 -3.3463069516467e-06 1.41629767298758e-25)
(4.68191035051761e-08 -3.34633125973271e-06 1.28296489269208e-24)
(4.94930404000968e-08 -3.34636676435912e-06 3.82768101898778e-24)
(5.25328149404505e-08 -3.34641504571385e-06 -1.7391712982563e-25)
(5.61339571334833e-08 -3.34647592276831e-06 4.01604560808654e-25)
(6.05431188852272e-08 -3.34655986098432e-06 -5.99880228715245e-25)
(6.607837321076e-08 -3.34667600237236e-06 9.39233791397013e-25)
(7.31752328307006e-08 -3.34685148717636e-06 9.73037208559989e-25)
(8.24603665194605e-08 -3.34713411460863e-06 -1.02472560290138e-25)
(9.48893523728079e-08 -3.3475768520928e-06 3.88957456911618e-24)
(1.11921406793344e-07 -3.34834210397552e-06 -3.2521283793375e-24)
(1.35877007288805e-07 -3.34964560521855e-06 -4.45691518823425e-25)
(1.70491166299022e-07 -3.35188390596141e-06 -3.15360254951069e-26)
(2.2191936278147e-07 -3.35568396955519e-06 -2.59353262344539e-24)
(3.0002719876606e-07 -3.36191477396604e-06 -6.80608865028993e-24)
(4.2082849193594e-07 -3.37177284555247e-06 -5.98490184722177e-24)
(6.10008840679066e-07 -3.38664368047953e-06 -3.40514394282418e-24)
(9.03858519276569e-07 -3.40750315426398e-06 -5.44419399738524e-24)
(1.36119053507573e-06 -3.43471868474527e-06 -6.53175313666183e-24)
(2.0164141618174e-06 -3.45958757024049e-06 -3.64637522321427e-24)
(2.89123530343286e-06 -3.45971078643596e-06 -5.65841157523236e-24)
(3.6019465465862e-06 -3.35658795663999e-06 -6.0687467063821e-24)
(3.54069883078563e-06 -3.09262749671013e-06 -3.06075192592237e-24)
(1.42292539236153e-06 -2.27637408105286e-06 -3.68817928487858e-24)
(-1.78925272204233e-06 -2.84852020251296e-06 1.49751545907235e-25)
(-5.89774322319886e-06 -4.77904571117053e-06 4.39808404513807e-26)
(-6.27966062341727e-06 -6.1207393064262e-06 4.35764332398713e-25)
(-5.24425611003044e-06 -6.62575126746183e-06 1.19053063517137e-25)
(-3.77681864819769e-06 -6.59918462876721e-06 -1.83283242152261e-24)
(-2.61584346683528e-06 -6.40994835490933e-06 -2.67131713315298e-24)
(-1.77274459710978e-06 -6.22631705385645e-06 -6.43109461403015e-25)
(-1.21069910801428e-06 -6.08933366025022e-06 -6.58872385649832e-25)
(-8.35893387713489e-07 -5.99688894344083e-06 -2.6924404847667e-24)
(-5.86007061619708e-07 -5.93722822674904e-06 4.52134292037548e-25)
(-4.15805255657119e-07 -5.89972047263e-06 4.67796247383932e-24)
(-2.9657568653058e-07 -5.87637854820892e-06 4.28488690866775e-24)
(-2.10472947749051e-07 -5.86185271887492e-06 1.98375902974947e-24)
(-1.46271778525328e-07 -5.85268125815444e-06 3.01513942226202e-24)
(-9.70313678450049e-08 -5.84675068008524e-06 7.62096406046031e-25)
(-5.83447161098335e-08 -5.84276989961667e-06 1.43526942772176e-24)
(-2.73552444766967e-08 -5.84000105382587e-06 3.42662583559334e-24)
(-2.14781004910078e-09 -5.83801222447493e-06 1.6433671556376e-24)
(1.86347203427963e-08 -5.83654263459057e-06 8.64324672035525e-25)
(3.59646017850112e-08 -5.8354357300977e-06 1.71696749560671e-25)
(5.0571557731202e-08 -5.83460427190033e-06 -3.8176280392459e-25)
(6.30539499528243e-08 -5.83397843322419e-06 -2.22210541315585e-24)
(7.38933436219144e-08 -5.83351431316711e-06 2.26928262841368e-24)
(8.34951476950464e-08 -5.83320544621937e-06 3.84254470666823e-25)
(9.22294224798982e-08 -5.83301585436617e-06 -1.57595812676853e-24)
(1.00441635978243e-07 -5.83295037498798e-06 1.7306104953765e-24)
(1.084669635466e-07 -5.83301460427598e-06 -8.72951927083882e-25)
(1.16643038517784e-07 -5.83319885815146e-06 3.02996928065692e-24)
(1.25334240145569e-07 -5.83352727666849e-06 2.34017335111002e-24)
(1.3494639324386e-07 -5.83401858466755e-06 -1.68196688257962e-24)
(1.45945941503186e-07 -5.83472200245174e-06 1.14766468129443e-24)
(1.58911676373108e-07 -5.83568657481435e-06 -1.86615651035047e-24)
(1.74568138866392e-07 -5.83700707924865e-06 3.06441260618071e-24)
(1.93868148477236e-07 -5.83884997899421e-06 2.92868303428469e-24)
(2.18158827475796e-07 -5.8414776956091e-06 -1.48427161477416e-24)
(2.49365551802921e-07 -5.84532032721506e-06 1.43823730327097e-24)
(2.90357752950152e-07 -5.85114185153366e-06 -1.87949223998231e-24)
(3.4556753805272e-07 -5.86021062889491e-06 -3.50137509344236e-25)
(4.21933745846457e-07 -5.87463645642835e-06 7.06227371029467e-25)
(5.3072377681205e-07 -5.8978764322997e-06 -5.81575643666778e-24)
(6.89759310436761e-07 -5.93522718353971e-06 -6.04278545017397e-24)
(9.27824680558744e-07 -5.99466039730543e-06 -6.10212075685884e-24)
(1.29013281151634e-06 -6.08691601849342e-06 -7.3733640144931e-24)
(1.83983938267448e-06 -6.22433206675665e-06 -5.73575824730692e-24)
(2.67268726852754e-06 -6.41039749870588e-06 -6.33796752871417e-24)
(3.832090171772e-06 -6.60607170037101e-06 -7.86578628836744e-24)
(5.31524852975112e-06 -6.6409955444688e-06 -6.09603636116698e-24)
(6.38633342839156e-06 -6.12885706864945e-06 -6.13815057208299e-24)
(6.00011679754391e-06 -4.75057877722443e-06 -6.32675920339586e-24)
(1.81575951149907e-06 -2.8115560821199e-06 -3.11791322600125e-24)
(-9.37936608997991e-07 5.19988836075719e-07 -3.18466612162559e-25)
(-5.27849339637484e-06 -1.57869302266249e-06 -3.89985013304422e-24)
(-5.90321812245132e-06 -4.02032165100344e-06 -3.99379412442043e-26)
(-5.18780941575526e-06 -4.95548604234872e-06 -2.3636681606183e-25)
(-3.90879640835474e-06 -4.91599707693674e-06 -4.39540600222519e-24)
(-2.83770557955346e-06 -4.55658278657796e-06 -4.7970519502874e-24)
(-2.01902638808322e-06 -4.20769036126989e-06 -9.24798337577461e-25)
(-1.44886122591872e-06 -3.94774937102715e-06 -1.01330866524132e-24)
(-1.0514811571351e-06 -3.77341414957076e-06 -6.22019903183796e-24)
(-7.73966042918315e-07 -3.66100017963135e-06 -3.94085479008993e-24)
(-5.75865092680955e-07 -3.58971803090237e-06 6.09886538310539e-24)
(-4.30581777298315e-07 -3.54443364023592e-06 2.48067911636931e-24)
(-3.21130475738815e-07 -3.51531398475838e-06 -2.197626916145e-24)
(-2.36443522616298e-07 -3.49615003152648e-06 4.00731493357291e-24)
(-1.69416787502936e-07 -3.48314429298674e-06 -3.67444306040396e-24)
(-1.153366543879e-07 -3.47402666431085e-06 5.46524773141221e-25)
(-7.10127543586107e-08 -3.46741049172597e-06 9.98596089203559e-25)
(-3.41999047042382e-08 -3.46248559341859e-06 -2.38961784614638e-24)
(-3.26253481016143e-09 -3.45873308131333e-06 -2.08705390063737e-25)
(2.30162317126685e-08 -3.4558468654111e-06 -4.28830722253835e-24)
(4.55989596161955e-08 -3.4536245831309e-06 -1.2992754024743e-24)
(6.52710828375738e-08 -3.45192025071411e-06 -5.02821119642768e-24)
(8.26751771409382e-08 -3.45064944537974e-06 -1.21281200565518e-25)
(9.83803009538639e-08 -3.4497621890179e-06 -1.49943588765205e-25)
(1.12902172510678e-07 -3.44920704436286e-06 -3.74794967887446e-24)
(1.26717304495133e-07 -3.44898535683834e-06 -5.28721620012433e-25)
(1.40301139422214e-07 -3.44908705909193e-06 -3.10425030430158e-24)
(1.54132536092349e-07 -3.44952501922608e-06 4.63890062548604e-24)
(1.68720633472498e-07 -3.45033798917921e-06 5.56990754488805e-25)
(1.84617024907506e-07 -3.45157931184162e-06 -4.16705387746897e-24)
(2.02463664301299e-07 -3.45333857124006e-06 2.5784039483115e-24)
(2.23033488889931e-07 -3.45574411360357e-06 -3.59070489400644e-24)
(2.47261125265517e-07 -3.45900039257739e-06 5.47757766651241e-24)
(2.76359333814806e-07 -3.46342766225847e-06 5.00332983451101e-24)
(3.11951914449464e-07 -3.46953750153085e-06 -3.52216840767519e-24)
(3.56286850617222e-07 -3.47818077583775e-06 -5.99937402984786e-25)
(4.12566512099086e-07 -3.49071155862492e-06 -3.87003364593949e-25)
(4.85518255327492e-07 -3.50944208339847e-06 1.92758837710744e-25)
(5.82253168694218e-07 -3.53815254059328e-06 3.3110621141367e-24)
(7.13891538918402e-07 -3.58306871505552e-06 -7.37661154393536e-24)
(8.97415057654733e-07 -3.6540191224536e-06 -4.09996467111773e-24)
(1.15956906249239e-06 -3.76616713233153e-06 -4.0779927994815e-24)
(1.54084525730895e-06 -3.9405788475338e-06 -8.94956600371235e-24)
(2.09515557926367e-06 -4.20194675491132e-06 -4.13533585174427e-24)
(2.9001734400936e-06 -4.55617001154603e-06 -4.43184216120356e-24)
(3.96654127596585e-06 -4.92846758433006e-06 -9.85530584576942e-24)
(5.25931701066255e-06 -4.98480299062057e-06 -4.35682886037917e-24)
(6.01299035354412e-06 -4.0386250464224e-06 -4.2581729046232e-24)
(5.3997892338031e-06 -1.53162214044757e-06 -8.00581219058937e-24)
(9.80302240837987e-07 6.00803844182171e-07 -1.9343084403763e-24)
(-1.8216285622521e-07 3.71002372524673e-06 -2.86266461835136e-25)
(-3.33162861884009e-06 2.05127123070506e-06 -4.46984939602e-24)
(-4.06603729848651e-06 -1.3290943609269e-06 4.11862530935025e-26)
(-3.90289732727479e-06 -2.72931415491826e-06 2.25655783839178e-26)
(-3.17181102726304e-06 -2.80032539606213e-06 -2.03314092750618e-24)
(-2.47846892930695e-06 -2.38520697699761e-06 -2.66248875606738e-24)
(-1.88907990887192e-06 -1.95139462365165e-06 -4.73533314889997e-25)
(-1.44387853974575e-06 -1.61717935130374e-06 -5.07969228455685e-25)
(-1.10916893603782e-06 -1.38816930914752e-06 -3.16719230350516e-24)
(-8.5861054732367e-07 -1.23718847691536e-06 -3.99172058879145e-24)
(-6.68386381103518e-07 -1.13893401272662e-06 3.46767746846371e-24)
(-5.21310379314631e-07 -1.07457088014787e-06 -2.51266954789049e-25)
(-4.05623623090163e-07 -1.03172067769509e-06 -2.83334124459904e-24)
(-3.12982156562331e-07 -1.00249542853219e-06 1.66573915083945e-24)
(-2.3765548475397e-07 -9.81978130513582e-07 -3.77453370701965e-24)
(-1.75557261325559e-07 -9.67149195802638e-07 2.31604320967501e-25)
(-1.23736505359492e-07 -9.56119771334085e-07 -1.17652083353624e-24)
(-8.00159067054391e-08 -9.47737938700848e-07 -2.55589275516669e-24)
(-4.27324257475682e-08 -9.41267497074282e-07 -1.26758339128614e-25)
(-1.06065087258102e-08 -9.36227056126534e-07 -4.00773592490758e-24)
(1.74012209489625e-08 -9.322909052526e-07 -7.94220943270515e-25)
(4.2155725496372e-08 -9.29262144667888e-07 -2.62317523715247e-24)
(6.43769756037365e-08 -9.26997093806414e-07 -1.74814689103301e-24)
(8.47165887205037e-08 -9.2538998218524e-07 -4.82691538625075e-26)
(1.03761176636099e-07 -9.24392947175751e-07 -1.91961023207471e-24)
(1.22062768888019e-07 -9.239821319839e-07 -1.89125643958158e-24)
(1.40176809436372e-07 -9.24147975226479e-07 -1.37520962148865e-24)
(1.58646402155119e-07 -9.24911947131377e-07 2.35918361023389e-24)
(1.7805528226873e-07 -9.26342615110796e-07 -1.4591248590738e-24)
(1.99044641927019e-07 -9.28524304455209e-07 -2.25613317316527e-24)
(2.22331432607306e-07 -9.31593835422323e-07 9.43315025140207e-25)
(2.48762330662632e-07 -9.35757323652585e-07 -2.05148799992235e-24)
(2.79359494649721e-07 -9.41337455884875e-07 2.86875455535748e-24)
(3.15401290073193e-07 -9.48801397856207e-07 2.74517164790164e-24)
(3.58529885274467e-07 -9.58911457373716e-07 -2.03019387379187e-24)
(4.10924631900042e-07 -9.72844274100314e-07 -2.23137382907693e-24)
(4.75532010733135e-07 -9.92468646711013e-07 1.70967099228329e-24)
(5.56439525987394e-07 -1.02083179510194e-06 3.06396136947901e-25)
(6.59381365080679e-07 -1.06284611637276e-06 1.12907429726e-24)
(7.92734884781977e-07 -1.12643952342532e-06 -4.41011021506501e-24)
(9.68247799367702e-07 -1.2240263229209e-06 -4.60946043637736e-25)
(1.20329320138224e-06 -1.37455667335104e-06 -1.98862125971494e-25)
(1.52174001237896e-06 -1.6037941908966e-06 -5.13032995433601e-24)
(1.95079594264653e-06 -1.94037170935794e-06 -6.66172827163046e-25)
(2.52553851682857e-06 -2.3823996176146e-06 -7.36086276706856e-25)
(3.21117934177395e-06 -2.8169148980705e-06 -5.78909895716396e-24)
(3.95014708623337e-06 -2.77233864012153e-06 -6.73931983401499e-25)
(4.14488588150926e-06 -1.36283225776885e-06 -2.77184470104241e-25)
(3.43728273522213e-06 2.10513928597461e-06 -5.09019397706877e-24)
(2.30004609773001e-07 3.81977252784109e-06 5.52544159352416e-25)
(2.58903493973079e-07 5.8747203100634e-06 2.72834065973961e-25)
(-1.30539556096007e-06 4.79325596167841e-06 -1.03970548498901e-24)
(-2.04613850682072e-06 8.3854482684104e-07 6.9861983374589e-25)
(-2.37137594848661e-06 -9.72696299290905e-07 4.64254982941123e-25)
(-2.20936178111449e-06 -1.24456184144128e-06 7.50181947488618e-25)
(-1.93004443702565e-06 -8.879177560794e-07 -7.55081250796115e-25)
(-1.60945564853393e-06 -4.54488114970587e-07 1.1406787080226e-25)
(-1.3223755341423e-06 -9.98573421538202e-08 1.26977229235796e-25)
(-1.07702261609466e-06 1.53024664716205e-07 -9.03210427303936e-25)
(-8.74412933676543e-07 3.25819448397707e-07 -1.12167474863694e-24)
(-7.08648153183431e-07 4.42311215642533e-07 2.14500170330658e-24)
(-5.72960850404887e-07 5.21335626707022e-07 9.07120182832386e-25)
(-4.61606024289662e-07 5.75769403600326e-07 -4.09323248205029e-25)
(-3.6957549931585e-07 6.14088380982406e-07 1.17206370892448e-24)
(-2.929512546905e-07 6.4173082081978e-07 -8.25812563349584e-25)
(-2.28611206857774e-07 6.62185425835623e-07 7.73131902546447e-25)
(-1.74116540275246e-07 6.77652684455852e-07 4.36393291398684e-25)
(-1.27548596004678e-07 6.89578210996595e-07 2.89422265957849e-26)
(-8.73679038684052e-08 6.98883196797885e-07 7.67311343078891e-25)
(-5.23410849104921e-08 7.06179542814569e-07 -7.39543655999448e-25)
(-2.14520234909745e-08 7.11899991314467e-07 2.64282555428831e-25)
(6.16117796607877e-09 7.16320016663025e-07 -5.38311988084733e-25)
(3.12466057425824e-08 7.19629299479323e-07 -2.76058639616598e-26)
(5.44691710052783e-08 7.21974104470782e-07 5.20991952730254e-25)
(7.64383233416955e-08 7.23407437395935e-07 -2.36704732231451e-25)
(9.77352256796573e-08 7.23994684193619e-07 -9.18268742454203e-26)
(1.18935829267656e-07 7.23718559506829e-07 -2.30748198707827e-25)
(1.40607652742742e-07 7.22545324074885e-07 1.1218699065875e-24)
(1.63359207520681e-07 7.20406971396527e-07 -3.05985505230138e-25)
(1.8785132634668e-07 7.17183262619121e-07 -8.60862215328229e-25)
(2.14819908250728e-07 7.12668219028211e-07 2.71259341607212e-25)
(2.45109796240637e-07 7.06591100364959e-07 -1.14951928567907e-24)
(2.79728487205315e-07 6.98544829789072e-07 1.01077411391648e-24)
(3.19907850608346e-07 6.87897092096871e-07 1.10960726964971e-24)
(3.67152496467838e-07 6.73701151313039e-07 -8.20380113813962e-25)
(4.23380665271386e-07 6.54528927927528e-07 -5.92424531104625e-25)
(4.91019060832438e-07 6.28155352964394e-07 4.69733721513543e-25)
(5.7317197606039e-07 5.91107697910069e-07 1.12005757722835e-26)
(6.73739370823188e-07 5.37922463018134e-07 2.53889608886848e-25)
(7.97736113355137e-07 4.60083017099182e-07 -2.87364381814682e-24)
(9.50867183565881e-07 3.44664379743927e-07 -7.60588083371054e-25)
(1.14003732199375e-06 1.72644465411869e-07 -6.03127782440065e-25)
(1.3710911671414e-06 -8.0369832790632e-08 -3.22873359238101e-24)
(1.64356417123638e-06 -4.37891281498066e-07 -6.87953448460892e-25)
(1.94987620671866e-06 -8.8159885372416e-07 -8.23376173177235e-25)
(2.21902843330116e-06 -1.26285550358624e-06 -3.55378099562634e-24)
(2.38196808879946e-06 -1.02608641549489e-06 -7.56980910666701e-25)
(2.07750913168625e-06 7.8855587458091e-07 -7.99371295312685e-25)
(1.37054000751708e-06 4.84435320060213e-06 -3.86520710167299e-24)
(-2.20244989457293e-07 5.99822427593286e-06 -2.55903123956421e-26)
(4.30858466211555e-07 6.87092251905915e-06 6.62154221741935e-25)
(1.79572158411625e-07 6.2807509338448e-06 6.97665711681368e-25)
(-5.02210482430825e-07 2.1574430805773e-06 1.12452047956206e-24)
(-1.12137925398496e-06 7.3356134657191e-08 5.96454991590681e-25)
(-1.37314943262732e-06 -4.02601009800021e-07 3.04864213292536e-25)
(-1.41145947870495e-06 -1.57487563599369e-07 7.84771120926164e-26)
(-1.31111967835602e-06 2.26935089400532e-07 4.48834902842128e-25)
(-1.16167913534268e-06 5.67340604399461e-07 4.98189826954771e-25)
(-1.00022737737842e-06 8.22276461553106e-07 3.15354463172413e-25)
(-8.47260620039857e-07 1.00370807539097e-06 3.91584704229142e-25)
(-7.10635209857224e-07 1.13067100306734e-06 1.63331882723278e-24)
(-5.91891958470998e-07 1.21983373583237e-06 1.41572508954499e-24)
(-4.90312683021967e-07 1.28322962176467e-06 7.68074452499295e-25)
(-4.03832807286996e-07 1.32912423530078e-06 1.22382260343383e-24)
(-3.30247270794603e-07 1.36302350244832e-06 5.60840150234454e-25)
(-2.6743610700934e-07 1.38858939422993e-06 1.18451890687571e-24)
(-2.1352774502447e-07 1.4082085361367e-06 1.39221380666872e-24)
(-1.66934523354906e-07 1.42349243118136e-06 1.22750571878206e-24)
(-1.26331345136163e-07 1.43551374399429e-06 1.37782796557229e-24)
(-9.05964089184371e-08 1.44499616176278e-06 8.15767941200129e-25)
(-5.87776320717391e-08 1.45243941817602e-06 9.50780717096244e-25)
(-3.00611942613835e-08 1.45820071388969e-06 5.7543240059669e-25)
(-3.72693467254507e-09 1.4625108015548e-06 9.72098938002671e-25)
(2.08721947462143e-08 1.46553546130268e-06 8.97193949938248e-25)
(4.4343047862268e-08 1.46737242316588e-06 5.83734172643552e-25)
(6.72556820728128e-08 1.46807255838145e-06 9.17945647096318e-25)
(9.01684617222025e-08 1.46763297142646e-06 3.0161806461914e-25)
(1.13655505938281e-07 1.46600556327985e-06 7.5948185221075e-25)
(1.38314243425111e-07 1.46310876537969e-06 3.83185051232833e-25)
(1.64780176232066e-07 1.45878162609674e-06 -1.11986238965227e-25)
(1.93761960105602e-07 1.45278368123022e-06 1.00159010954551e-25)
(2.26070421504158e-07 1.44477101018922e-06 -7.09470581185784e-25)
(2.62633874965385e-07 1.43426255965232e-06 1.01224514123404e-25)
(3.04561722669411e-07 1.42050982598162e-06 3.37226295937713e-25)
(3.53168318061246e-07 1.40243265355506e-06 -1.85869263848363e-25)
(4.10018258866669e-07 1.37843940466097e-06 1.56039224555814e-25)
(4.76954849967689e-07 1.34609980879907e-06 -1.26283934480746e-25)
(5.56074382561156e-07 1.30178970127838e-06 -2.33859543510043e-25)
(6.49537084945516e-07 1.23997333462168e-06 1.14144837581936e-25)
(7.59395948250599e-07 1.15235477378681e-06 -1.01609745832107e-24)
(8.86271676333814e-07 1.02682414331287e-06 -7.06292702425725e-25)
(1.02867753041705e-06 8.46528696220168e-07 -6.5245026733554e-25)
(1.17854517243396e-06 5.91749515584066e-07 -1.08950471320753e-24)
(1.31558049432644e-06 2.48493361230906e-07 -6.19330367640078e-25)
(1.40262600928664e-06 -1.47060141451568e-07 -7.10980507602934e-25)
(1.35247245523693e-06 -4.19901312175472e-07 -1.40931413662141e-24)
(1.09555651476878e-06 1.46682128117396e-08 -7.01163329972046e-25)
(4.86334702193169e-07 2.0947677133651e-06 -6.44475848348919e-25)
(-1.63286032561491e-07 6.32333503512983e-06 -1.31834314714729e-24)
(-4.10118257404558e-07 6.9958127665654e-06 -9.89318689231539e-26)
(4.50470612550858e-07 6.90074917164618e-06 7.83186537514208e-25)
(9.91734519954354e-07 6.66101621992856e-06 1.85300627188699e-24)
(4.03456632052354e-07 2.68058866315311e-06 1.19657419116637e-24)
(-3.1203203750509e-07 4.68506440910137e-07 5.48130048893423e-25)
(-7.83000620656886e-07 -1.69379003622706e-07 3.7246955347554e-25)
(-1.00822534616597e-06 -4.46133225739333e-08 6.17121574233806e-25)
(-1.05283602718861e-06 2.72093852609795e-07 5.14472062049924e-25)
(-1.00220107961976e-06 5.81045719185213e-07 5.78773144773512e-25)
(-9.0665758710303e-07 8.25482092600358e-07 9.01387608811464e-25)
(-7.96394551075622e-07 1.00698970041164e-06 1.25524874487571e-24)
(-6.87426263610544e-07 1.138803153612e-06 1.00133246533878e-24)
(-5.86617210846337e-07 1.23445403996021e-06 1.50909691146893e-24)
(-4.96771065261374e-07 1.30446499542988e-06 1.49402083914432e-24)
(-4.18053377699862e-07 1.35641745230335e-06 9.34100259581565e-25)
(-3.4965805442031e-07 1.39559167441182e-06 1.34912723516143e-24)
(-2.90340851967264e-07 1.42560424149101e-06 1.22684379521014e-24)
(-2.38793177095662e-07 1.44894555041838e-06 1.68230811427441e-24)
(-1.93773425056288e-07 1.46728912490355e-06 1.9070481411986e-24)
(-1.54176402267381e-07 1.48180619671904e-06 1.48897473917654e-24)
(-1.19033908506946e-07 1.49330946015169e-06 1.65529260894292e-24)
(-8.74904000163205e-08 1.50236365771707e-06 1.12767580898875e-24)
(-5.8798706283638e-08 1.50936136692106e-06 1.03125467011573e-24)
(-3.22884424272743e-08 1.51458890868324e-06 1.34328077171716e-24)
(-7.34196445733287e-09 1.51822995475555e-06 9.43569492234534e-25)
(1.66116342230427e-08 1.52040465335341e-06 1.06503616221409e-24)
(4.01169745544013e-08 1.52116112369026e-06 1.30818998191171e-24)
(6.37136288821795e-08 1.52051205302402e-06 6.94188437602894e-25)
(8.79461755098348e-08 1.51840205396784e-06 2.96375031700553e-25)
(1.1338262684159e-07 1.5147235883076e-06 7.38942845017024e-25)
(1.40622963358336e-07 1.50928165797236e-06 3.151633305288e-25)
(1.7032984892468e-07 1.50181884416245e-06 -1.56371104010834e-25)
(2.03241299157814e-07 1.4919364995996e-06 -3.05140778784486e-25)
(2.40188580253176e-07 1.47907534985574e-06 -3.86029157408498e-25)
(2.8213472159342e-07 1.46242001911206e-06 -2.46294826999585e-25)
(3.3016354045418e-07 1.44080500387768e-06 2.40522004308197e-25)
(3.85477402710846e-07 1.41253227402492e-06 5.24615011703945e-25)
(4.49361236976463e-07 1.37512626348336e-06 -4.50070624963058e-25)
(5.23028892578169e-07 1.3249779857157e-06 -3.3279236394777e-25)
(6.07221565383138e-07 1.25679420439011e-06 -1.37961620532979e-25)
(7.01730324360669e-07 1.1629694756749e-06 8.04025676737996e-26)
(8.03622809265518e-07 1.03291013733283e-06 -6.56112714102103e-25)
(9.06004450778118e-07 8.52923270770711e-07 -7.00962062481409e-25)
(9.92508084650034e-07 6.09103950638369e-07 2.36042659687479e-26)
(1.03286706514361e-06 2.97785976457987e-07 -5.98296386811993e-25)
(9.7619299622261e-07 -2.99791527560525e-08 -6.54981853102244e-25)
(7.38511143781489e-07 -1.83901732817431e-07 -4.84153605444384e-26)
(2.58449816027323e-07 4.08429139841998e-07 -6.95901526370024e-25)
(-4.54989070658625e-07 2.60915645201473e-06 -5.65342812925458e-25)
(-1.01722404783068e-06 6.69118159721973e-06 3.49846118137321e-25)
(-4.47601423082464e-07 7.01738615885399e-06 -3.02531122638342e-26)
(4.11640490643262e-07 6.36569168235871e-06 6.59232641975865e-25)
(1.26787438017419e-06 6.37767976135615e-06 1.87956911051005e-24)
(7.86664703856166e-07 2.71283927264427e-06 9.72206624113597e-25)
(1.1202028706857e-07 4.82524459842493e-07 4.02957520091393e-25)
(-4.22787144146962e-07 -2.64092648582524e-07 1.36170776282671e-25)
(-7.26144546050404e-07 -2.45465201103218e-07 7.2360898494262e-25)
(-8.48824601133366e-07 2.50150593714614e-09 4.36060485516452e-25)
(-8.6007208293523e-07 2.73717906086207e-07 4.89091847997721e-25)
(-8.11322411463031e-07 5.01085350435803e-07 9.80208599819514e-25)
(-7.34646739188056e-07 6.77203718303962e-07 1.14459895899432e-24)
(-6.49464469992413e-07 8.09749526334633e-07 4.69298485484643e-25)
(-5.6536202750487e-07 9.08929522947807e-07 1.03867485485349e-24)
(-4.87263434422063e-07 9.83480950472243e-07 1.31597278164711e-24)
(-4.16859065095208e-07 1.04004708716084e-06 5.61899297265145e-25)
(-3.54407476476771e-07 1.08350206636701e-06 1.19507128108027e-24)
(-2.99382228165743e-07 1.11728877406489e-06 9.44189151013798e-25)
(-2.5096106233192e-07 1.14385728222522e-06 1.26678581982021e-24)
(-2.08244325375952e-07 1.16491518623389e-06 1.5871389757077e-24)
(-1.70346954131154e-07 1.18168375005936e-06 1.19297206203623e-24)
(-1.36452816480484e-07 1.19501250503367e-06 1.48597229094668e-24)
(-1.05820237068865e-07 1.20552862427804e-06 9.39430582875533e-25)
(-7.777492590522e-08 1.21365316938303e-06 1.0280879110316e-24)
(-5.17019811085389e-08 1.21970618826627e-06 1.01355219695068e-24)
(-2.70369977374646e-08 1.22389166996858e-06 7.36715439411928e-25)
(-3.24066133905974e-09 1.22634207465508e-06 1.01657510045238e-24)
(2.02008825155744e-08 1.22712052973175e-06 1.0373242069593e-24)
(4.37917004783279e-08 1.22623492973649e-06 6.55981777670197e-25)
(6.80448423414483e-08 1.22362450711991e-06 3.01117374622707e-26)
(9.34870640523397e-08 1.21916780694238e-06 5.14901193291507e-25)
(1.20678864535739e-07 1.21265172801564e-06 4.51869667626703e-25)
(1.50225060188407e-07 1.20379021098285e-06 -2.38383435546449e-25)
(1.8277977561778e-07 1.19213549882031e-06 -4.2685749961457e-26)
(2.19065387796005e-07 1.17710063676769e-06 -5.54697478194187e-25)
(2.59891621174675e-07 1.1578127430273e-06 -4.54316213230115e-25)
(3.06114283874292e-07 1.1330583531631e-06 4.07084527168108e-25)
(3.58600100360798e-07 1.1011182380127e-06 4.10504293653311e-25)
(4.18143005621583e-07 1.05956491676646e-06 -2.84359530089482e-25)
(4.852192403837e-07 1.00495236577667e-06 -2.86421584423678e-25)
(5.59506436757879e-07 9.32418303716629e-07 -2.253660158117e-25)
(6.39258892860335e-07 8.35289135197019e-07 5.80313203003208e-25)
(7.19390645966147e-07 7.04794077827903e-07 -3.08584759782089e-25)
(7.90231581801377e-07 5.30594584289521e-07 -3.11189507417403e-25)
(8.31931453388458e-07 3.04402503968511e-07 7.49347073347553e-25)
(8.12193709381128e-07 3.15437035232697e-08 -2.57216823699668e-25)
(6.78811460984566e-07 -2.26886323473219e-07 -2.50247594844509e-25)
(3.63466766684648e-07 -2.75142294421434e-07 8.31075390448723e-25)
(-1.81922062404746e-07 4.23003174953038e-07 -3.03675830139945e-25)
(-8.58434437123284e-07 2.63505620569062e-06 -1.66034545142504e-25)
(-1.32000246694242e-06 6.39215177946497e-06 1.39555272791761e-24)
(-4.21144718860104e-07 6.46658827884964e-06 1.07911477724146e-25)
(3.58256342177916e-07 5.63365620261096e-06 4.92257071814255e-25)
(1.22016909176937e-06 5.85020421640075e-06 1.86934750027447e-24)
(8.45393334472888e-07 2.54911103965067e-06 7.07909768720327e-25)
(2.78816881493274e-07 3.62972883451107e-07 3.23734460183944e-25)
(-2.26223705431476e-07 -4.48281420665219e-07 7.07057334845013e-25)
(-5.38202189277653e-07 -5.14668752977833e-07 9.86826258935519e-25)
(-6.9256058994669e-07 -3.28640961571705e-07 3.49000644788219e-25)
(-7.38234780778043e-07 -9.56677874897282e-08 3.79045780551055e-25)
(-7.20770179233578e-07 1.1158040273745e-07 1.05918885150791e-24)
(-6.69421058303386e-07 2.78853981256643e-07 1.05900107915629e-24)
(-6.03825039573401e-07 4.09099469644151e-07 -8.32254578098098e-26)
(-5.34441605352257e-07 5.09418169755295e-07 5.86342481517604e-25)
(-4.67271782123439e-07 5.86711334971226e-07 1.12954827144903e-24)
(-4.04955129536657e-07 6.46598054718605e-07 7.21560463224456e-26)
(-3.48500972245744e-07 6.93390841384815e-07 1.10253084986185e-24)
(-2.97963279243583e-07 7.30288946001281e-07 6.26981612632297e-25)
(-2.52935863020098e-07 7.5960522765621e-07 8.13818836911403e-25)
(-2.12806971502394e-07 7.83033273306624e-07 1.29176529925914e-24)
(-1.76908307346593e-07 8.01792074150656e-07 8.45660224471583e-25)
(-1.44574140763335e-07 8.16761926065725e-07 1.37214622229385e-24)
(-1.1516823356441e-07 8.28587157479622e-07 6.98893517397262e-25)
(-8.81013381125618e-08 8.37732520759404e-07 1.03500465737865e-24)
(-6.28164174824682e-08 8.4452496191755e-07 6.51672181399899e-25)
(-3.87942797057345e-08 8.49189942181912e-07 5.0475349175108e-25)
(-1.55388582284832e-08 8.51876600378696e-07 1.0469934549799e-24)
(7.42621672261088e-09 8.52651477888713e-07 7.11913081943859e-25)
(3.05726744658239e-08 8.51519636464071e-07 6.53110372917378e-25)
(5.43757996327987e-08 8.48417396968183e-07 -2.92959357233165e-25)
(7.9322802995846e-08 8.43207312498005e-07 2.89028287100298e-25)
(1.05926769878633e-07 8.35679388319194e-07 6.04965200246425e-25)
(1.34726437907674e-07 8.25502948710179e-07 -4.36455363754522e-25)
(1.66301218140457e-07 8.12218745269039e-07 2.43863270187855e-25)
(2.01267501004835e-07 7.95204255144826e-07 -7.47673436310096e-25)
(2.40273162891744e-07 7.7357587568285e-07 -6.99251292440915e-25)
(2.83966027103594e-07 7.46107050209543e-07 5.94086038038408e-25)
(3.32917120922067e-07 7.11127263362362e-07 2.98443111812525e-25)
(3.87500524007749e-07 6.66312285951692e-07 -1.46802944816653e-25)
(4.47619446329541e-07 6.0848901904236e-07 -2.21895900679903e-25)
(5.1219129481108e-07 5.33356158503254e-07 -5.12677494751259e-25)
(5.78507811467661e-07 4.35290794606838e-07 6.80506143568027e-25)
(6.40410766075068e-07 3.07367328276768e-07 -6.81789734368309e-26)
(6.87325389192088e-07 1.42411180605989e-07 -5.62586721357708e-26)
(6.99170859966298e-07 -6.30903807989047e-08 8.31231050252099e-25)
(6.46444406858826e-07 -2.96918439749302e-07 -2.98670036273019e-26)