/*--------------------------------*- C++ -*----------------------------------*\
  =========                 |
  \\      /  F ield         | OpenFOAM: The Open Source CFD Toolbox
   \\    /   O peration     | Website:  https://openfoam.org
    \\  /    A nd           | Version:  10
     \\/     M anipulation  |
\*---------------------------------------------------------------------------*/
FoamFile
{
    format      ascii;
    class       volScalarField;
    location    "6.8";
    object      wallHeatFlux;
}
// * * * * * * * * * * * * * * * * * * * * * * * * * * * * * * * * * * * * * //

dimensions      [1 0 -3 0 0 0 0];

internalField   uniform 0;

boundaryField
{
    back
    {
        type            calculated;
        value           uniform 0;
    }
    bottom
    {
        type            calculated;
        value           nonuniform List<scalar> 
50
(
88.4413388050007
89.8127635065905
92.8981463839635
95.1614077434173
96.5519221171485
97.3536444429003
97.8005432666989
98.0415737021838
98.1667005706008
98.2291133066031
98.2586701397521
98.2721196020203
98.2779784349032
98.2803585690309
98.2812909102331
98.2815888922364
98.2817243639374
98.2817409091893
98.281712875399
98.2817049347089
98.2816941496986
98.2816865827717
98.2816804254973
98.2816840762614
98.2816798424155
98.281677175776
98.2816827690652
98.2816877863413
98.2816979285368
98.2817106915939
98.2817227226986
98.2817458634663
98.2817410842809
98.2817009614187
98.2815665281468
98.2811717335713
98.2801197999208
98.2774394852115
98.2712176881729
98.2570442541056
98.2263710518412
98.1628098848732
98.0365914727645
97.795517865988
97.3511742714283
96.5537839250284
95.1652496535288
92.8905361463839
89.7820322800205
88.4670129341619
)
;
    }
    left
    {
        type            calculated;
        value           uniform 0;
    }
    front
    {
        type            calculated;
        value           uniform 0;
    }
    right
    {
        type            calculated;
        value           uniform 0;
    }
    top
    {
        type            calculated;
        value           uniform 0;
    }
}


// ************************************************************************* //
