/*--------------------------------*- C++ -*----------------------------------*\
  =========                 |
  \\      /  F ield         | OpenFOAM: The Open Source CFD Toolbox
   \\    /   O peration     | Website:  https://openfoam.org
    \\  /    A nd           | Version:  10
     \\/     M anipulation  |
\*---------------------------------------------------------------------------*/
FoamFile
{
    format      ascii;
    class       volScalarField;
    location    "1.2";
    object      alphat;
}
// * * * * * * * * * * * * * * * * * * * * * * * * * * * * * * * * * * * * * //

dimensions      [1 -1 -1 0 0 0 0];

internalField   nonuniform List<scalar> 
2500
(
7.83729562489975e-12
1.12753936532232e-11
1.64167776194097e-11
1.83335107371574e-11
1.88432450798827e-11
1.89549347517435e-11
1.89763158269556e-11
1.89800165369619e-11
1.898060553174e-11
1.89806966785673e-11
1.89807058972415e-11
1.89806974581331e-11
1.89806920525613e-11
1.89806863828695e-11
1.89806797978788e-11
1.89806738522113e-11
1.8980670092768e-11
1.89806671551396e-11
1.89806645675481e-11
1.89806621590105e-11
1.89806599402764e-11
1.89806579305711e-11
1.89806560738938e-11
1.89806542754821e-11
1.89806526549072e-11
1.89806512749629e-11
1.89806500126745e-11
1.89806489396039e-11
1.89806480817952e-11
1.89806473271914e-11
1.89806467956342e-11
1.89806465357015e-11
1.89806470440014e-11
1.89806478750899e-11
1.8980648617213e-11
1.89806501771848e-11
1.89806536508796e-11
1.89806564016281e-11
1.89806564025316e-11
1.89806562497034e-11
1.89806222243818e-11
1.89804069585836e-11
1.89792398750494e-11
1.8973153886624e-11
1.89435590142207e-11
1.88113227818296e-11
1.82810633525969e-11
1.64430385933665e-11
1.13786881015201e-11
7.88926914289844e-12
7.7707974357565e-11
8.76217163988146e-10
2.22300707498698e-09
2.76789884132354e-09
2.92257518148149e-09
2.95812715489278e-09
2.96517801242714e-09
2.96643181634943e-09
2.9666367533928e-09
2.96666817334343e-09
2.96667117178996e-09
2.96666967898486e-09
2.96666838138525e-09
2.96666701203685e-09
2.96666553327627e-09
2.96666421786001e-09
2.9666632855319e-09
2.96666254333928e-09
2.9666618932548e-09
2.96666130660378e-09
2.96666077870784e-09
2.96666030347484e-09
2.96665987023585e-09
2.96665946796607e-09
2.96665911019853e-09
2.96665880674431e-09
2.9666585419731e-09
2.96665833313126e-09
2.96665817823827e-09
2.96665805706854e-09
2.96665799739684e-09
2.96665801843938e-09
2.96665830137008e-09
2.96665867788943e-09
2.96665867477663e-09
2.966659036846e-09
2.96665989941487e-09
2.96666065450423e-09
2.9666609144442e-09
2.96666018225297e-09
2.96664861526781e-09
2.96657674934644e-09
2.96618857823514e-09
2.96420066343461e-09
2.9547458850085e-09
2.9136887294323e-09
2.75525920343055e-09
2.23519715916624e-09
9.07110695815222e-10
8.11683106114975e-11
1.18706078694035e-10
1.15573361152715e-08
2.55501492553181e-06
3.25210108648544e-06
3.45940870853767e-06
3.50948431680946e-06
3.51985805220379e-06
3.52177287094888e-06
3.52209630856526e-06
3.52214703060333e-06
3.52215277004822e-06
3.5221517618647e-06
3.52215048855521e-06
3.52214917640724e-06
3.52214779082941e-06
3.52214656144205e-06
3.52214562207702e-06
3.5221448622541e-06
3.52214419820746e-06
3.52214359803097e-06
3.52214305267957e-06
3.5221425552741e-06
3.52214210218368e-06
3.52214169145763e-06
3.52214132125908e-06
3.52214099891669e-06
3.52214072396568e-06
3.52214049423223e-06
3.52214031194201e-06
3.52214017729868e-06
3.52214010038313e-06
3.52214009200395e-06
3.52214020614041e-06
3.52214057384173e-06
3.52214093155913e-06
3.52214097508349e-06
3.52214151182865e-06
3.5221420165549e-06
3.52214233559802e-06
3.52214075657726e-06
3.52212293177905e-06
3.52201860530663e-06
3.52145926641853e-06
3.51863443658235e-06
3.50542777168736e-06
3.4493481996973e-06
3.23910553232218e-06
2.57082542322292e-06
1.19757532951813e-08
1.25311101320408e-10
1.45092281585475e-10
1.74014967791238e-08
3.93973829613763e-06
5.00695105363449e-06
5.32955689056322e-06
5.40937998289225e-06
5.42635857676363e-06
5.42957771618839e-06
5.43013612025804e-06
5.43022581050165e-06
5.43023721957104e-06
5.43023673891294e-06
5.4302352391069e-06
5.430233612238e-06
5.43023191065437e-06
5.43023039790103e-06
5.43022919893642e-06
5.4302282069961e-06
5.43022732872198e-06
5.43022652844986e-06
5.43022579272869e-06
5.43022511482249e-06
5.43022449308067e-06
5.43022392429475e-06
5.43022340796046e-06
5.4302229494254e-06
5.43022254688315e-06
5.4302221993486e-06
5.43022190969323e-06
5.43022168068743e-06
5.43022151660273e-06
5.43022142601397e-06
5.43022143778058e-06
5.43022171459619e-06
5.4302220336193e-06
5.43022238172792e-06
5.43022263198055e-06
5.43022299884049e-06
5.43022349214228e-06
5.43022044964493e-06
5.43019381324138e-06
5.43004118633274e-06
5.42920945158163e-06
5.42495746562374e-06
5.40484484852395e-06
5.31858773670523e-06
4.99294685262057e-06
3.95427351781023e-06
1.7801685103826e-08
1.515510460454e-10
1.59872884055744e-10
2.10282408309903e-08
4.83928331819599e-06
6.15057520633458e-06
6.55271949276974e-06
6.65420809374162e-06
6.6762794575161e-06
6.68056310197581e-06
6.68132402691156e-06
6.68144928788527e-06
6.68146676391067e-06
6.68146738722707e-06
6.68146608001743e-06
6.68146453026104e-06
6.68146291419689e-06
6.68146146090136e-06
6.68146026551836e-06
6.6814592494688e-06
6.68145833690934e-06
6.68145749618045e-06
6.68145671445731e-06
6.68145598705063e-06
6.68145531267792e-06
6.68145469000014e-06
6.681454118891e-06
6.68145360138499e-06
6.68145313693517e-06
6.68145272653028e-06
6.6814523713755e-06
6.68145207397201e-06
6.68145183729267e-06
6.6814516665972e-06
6.68145157442033e-06
6.68145162225072e-06
6.68145185923935e-06
6.68145211223406e-06
6.68145239633429e-06
6.68145245850801e-06
6.68145268828731e-06
6.68144826364863e-06
6.68141704394166e-06
6.68123609728023e-06
6.68023984637672e-06
6.67509625911165e-06
6.65053456710545e-06
6.54436575981723e-06
6.14159016721542e-06
4.85588704737036e-06
2.13962463433929e-08
1.6603527853581e-10
1.67519977633411e-10
2.30637569458737e-08
5.3760812081844e-06
6.83974992285896e-06
7.29395369240387e-06
7.41038266183272e-06
7.43615860389539e-06
7.44125847688048e-06
7.44218278274833e-06
7.4423383555064e-06
7.44236149500675e-06
7.44236336037232e-06
7.44236241189352e-06
7.44236110865309e-06
7.44235974270757e-06
7.44235849133033e-06
7.44235742094347e-06
7.4423564832047e-06
7.44235562644945e-06
7.44235482707976e-06
7.44235407563392e-06
7.4423533695747e-06
7.44235270791317e-06
7.4423520907949e-06
7.44235151812682e-06
7.44235099130451e-06
7.44235051016667e-06
7.44235007610824e-06
7.4423496897494e-06
7.44234935304822e-06
7.44234906803124e-06
7.44234883811645e-06
7.44234866915215e-06
7.4423485836013e-06
7.44234860633908e-06
7.44234876466061e-06
7.44234880403168e-06
7.44234884083396e-06
7.44234855031571e-06
7.44234332350603e-06
7.44230969540006e-06
7.44211262597938e-06
7.44102104958924e-06
7.43534738577388e-06
7.4080800142158e-06
7.28960730057794e-06
6.83888144884893e-06
5.40050031938472e-06
2.34481497144036e-08
1.73695964961751e-10
1.71262765822257e-10
2.41263789929943e-08
5.6749818185312e-06
7.2287743420808e-06
7.71529647770307e-06
7.84148095777685e-06
7.86980152139368e-06
7.87549053454169e-06
7.87653856150764e-06
7.87671823436888e-06
7.87674617408675e-06
7.8767492130021e-06
7.87674860578835e-06
7.8767475706943e-06
7.87674646965895e-06
7.87674543732901e-06
7.87674451856714e-06
7.87674368804266e-06
7.87674291466886e-06
7.87674218363698e-06
7.87674148909227e-06
7.87674083024328e-06
7.87674020676492e-06
7.87673961966657e-06
7.87673906908716e-06
7.87673855635267e-06
7.87673808156181e-06
7.87673764602307e-06
7.87673725007917e-06
7.87673689532119e-06
7.87673658282104e-06
7.87673631496738e-06
7.87673609461835e-06
7.87673593079134e-06
7.87673583339367e-06
7.87673581331125e-06
7.87673578672256e-06
7.87673570909833e-06
7.87673502842757e-06
7.87672944637987e-06
7.87669437306023e-06
7.87648856371889e-06
7.87534467317313e-06
7.86937398628221e-06
7.84056252479478e-06
7.71498010009397e-06
7.23642388483553e-06
5.70978938043352e-06
2.45555140901795e-08
1.77608581367648e-10
1.7301768999942e-10
2.46510136147689e-08
5.83204535120595e-06
7.43646712369475e-06
7.94205660738245e-06
8.07428696110104e-06
8.10426303380439e-06
8.11035387685569e-06
8.11149023525194e-06
8.11168789034121e-06
8.11171957125704e-06
8.11172354668967e-06
8.11172327709172e-06
8.11172246721822e-06
8.11172158131837e-06
8.11172072973053e-06
8.11171994318083e-06
8.11171921088821e-06
8.11171851629343e-06
8.11171785169248e-06
8.11171721415152e-06
8.11171660426662e-06
8.11171602235588e-06
8.11171546993831e-06
8.11171494744164e-06
8.11171445629539e-06
8.11171399667207e-06
8.11171356979123e-06
8.11171317580608e-06
8.11171281597223e-06
8.11171249075368e-06
8.11171220182071e-06
8.11171195051338e-06
8.11171174092768e-06
8.11171157702037e-06
8.11171146270752e-06
8.11171136278914e-06
8.1117111889544e-06
8.11171030743467e-06
8.11170448293593e-06
8.11166860803612e-06
8.11145829602495e-06
8.11028724847745e-06
8.10415961802361e-06
8.0745191499942e-06
7.94507662801436e-06
7.45133518480765e-06
5.87659412346864e-06
2.51274442969178e-08
1.79547296830212e-10
1.73812358873569e-10
2.48987611166506e-08
5.91064939526796e-06
7.54220116673244e-06
8.05852098262577e-06
8.19432097422533e-06
8.22532140608852e-06
8.2316724240322e-06
8.23286853790553e-06
8.23307888689604e-06
8.23311329097219e-06
8.2331179677316e-06
8.23311795968308e-06
8.23311731474759e-06
8.23311658135917e-06
8.23311585962302e-06
8.23311517200742e-06
8.23311451586664e-06
8.23311388368692e-06
8.23311327263063e-06
8.23311268185133e-06
8.23311211290964e-06
8.23311156662165e-06
8.23311104485431e-06
8.23311054822955e-06
8.23311007826531e-06
8.23310963517768e-06
8.23310922012505e-06
8.23310883311589e-06
8.23310847516381e-06
8.23310814635007e-06
8.23310784785653e-06
8.23310758019385e-06
8.23310734544541e-06
8.23310714497265e-06
8.23310697941534e-06
8.23310682718712e-06
8.23310658745304e-06
8.23310559628209e-06
8.2330996238447e-06
8.23306332746936e-06
8.23285080498546e-06
8.23166637582455e-06
8.22546018128035e-06
8.1953985054021e-06
8.06397288840434e-06
7.56238074137026e-06
5.96271211759178e-06
2.54123622409904e-08
1.80482516685718e-10
1.74161870115002e-10
2.50115786263377e-08
5.94840215004812e-06
7.59389055954274e-06
8.11599609487587e-06
8.25381290520396e-06
8.28541891920294e-06
8.29193062179215e-06
8.29316523100176e-06
8.29338410139139e-06
8.29342038188855e-06
8.2934255495633e-06
8.29342572557571e-06
8.29342519227888e-06
8.29342455911469e-06
8.29342392390134e-06
8.29342330478676e-06
8.29342270325565e-06
8.29342211691023e-06
8.29342154588459e-06
8.29342099068181e-06
8.29342045348047e-06
8.29341993542454e-06
8.29341943858974e-06
8.29341896371824e-06
8.29341851238483e-06
8.29341808482878e-06
8.29341768216087e-06
8.29341730429187e-06
8.29341695207542e-06
8.29341662535927e-06
8.29341632500948e-06
8.29341605107139e-06
8.29341580471758e-06
8.29341558610805e-06
8.2934153942979e-06
8.29341521124288e-06
8.29341493219961e-06
8.2934138818987e-06
8.29340782643728e-06
8.29337131884112e-06
8.29315775892148e-06
8.29196704114584e-06
8.28572337087142e-06
8.25545780911041e-06
8.12306107800066e-06
7.61759380208317e-06
6.00555524707362e-06
2.55500284920804e-08
1.80922930377696e-10
1.7431180018515e-10
2.50614193489175e-08
5.96591315082699e-06
7.61829939131969e-06
8.14340773684789e-06
8.28231990418522e-06
8.31426954564695e-06
8.3208763553359e-06
8.32213469377e-06
8.32235902580229e-06
8.32239654392673e-06
8.32240204087452e-06
8.32240234039879e-06
8.32240187960315e-06
8.32240130991483e-06
8.32240073039149e-06
8.32240015719467e-06
8.32239959372136e-06
8.32239904023003e-06
8.322398498514e-06
8.32239796987242e-06
8.32239745684675e-06
8.32239696077523e-06
8.32239648384522e-06
8.32239602686788e-06
8.32239559144491e-06
8.32239517782259e-06
8.32239478707617e-06
8.32239441905641e-06
8.322394074513e-06
8.32239375315356e-06
8.32239345565056e-06
8.32239318178822e-06
8.32239293229658e-06
8.32239270676097e-06
8.32239250347384e-06
8.32239230517875e-06
8.32239200576474e-06
8.3223909255961e-06
8.32238482726758e-06
8.32234821910331e-06
8.32213419274007e-06
8.32094064334971e-06
8.31467984089331e-06
8.28431965333282e-06
8.15146654413011e-06
7.64416052298896e-06
6.0262052675906e-06
2.56148126529217e-08
1.81125849922441e-10
1.74374710651236e-10
2.50828765989111e-08
5.97379689901356e-06
7.62948789831117e-06
8.15610296681395e-06
8.29558946856113e-06
8.32772707524853e-06
8.33438807087534e-06
8.33566046788987e-06
8.33588815871563e-06
8.33592646218558e-06
8.33593217340235e-06
8.33593255454333e-06
8.33593214070021e-06
8.33593161151646e-06
8.3359310683566e-06
8.33593052663791e-06
8.33592999051808e-06
8.3359294614964e-06
8.33592894220373e-06
8.3359284343667e-06
8.33592794071542e-06
8.33592746269305e-06
8.33592700253246e-06
8.33592656107899e-06
8.3359261399365e-06
8.33592573935292e-06
8.33592536037099e-06
8.33592500280593e-06
8.33592466733738e-06
8.33592435359282e-06
8.33592406212401e-06
8.33592379257359e-06
8.33592354544323e-06
8.33592332005094e-06
8.33592311434135e-06
8.33592291120994e-06
8.33592260402414e-06
8.33592151131896e-06
8.33591539384957e-06
8.33587874157764e-06
8.33566451525677e-06
8.33446974015604e-06
8.3282013923166e-06
8.29779885064074e-06
8.16473866683039e-06
7.65658893284153e-06
6.03589075961281e-06
2.5644599542414e-08
1.8121748511574e-10
1.74400579137021e-10
2.50919076568019e-08
5.97725596716516e-06
7.6344859848612e-06
8.16183492224891e-06
8.30161331025813e-06
8.33385042504957e-06
8.34054125521669e-06
8.3418216897267e-06
8.34205137111717e-06
8.34209015610153e-06
8.34209600385761e-06
8.34209643933805e-06
8.34209605668939e-06
8.34209555441738e-06
8.34209503616229e-06
8.34209451720024e-06
8.34209400186287e-06
8.34209349212004e-06
8.34209299096898e-06
8.34209250034012e-06
8.34209202304741e-06
8.34209156057899e-06
8.34209111518006e-06
8.34209068770732e-06
8.3420902797523e-06
8.34208989156144e-06
8.34208952414885e-06
8.34208917730777e-06
8.34208885166735e-06
8.34208854680988e-06
8.34208826321044e-06
8.34208800043375e-06
8.34208775886295e-06
8.34208753770345e-06
8.34208733478905e-06
8.34208713313789e-06
8.34208682594311e-06
8.34208573060287e-06
8.34207960718631e-06
8.34204293861322e-06
8.34182863200391e-06
8.34063334616771e-06
8.33436178125392e-06
8.30394085681575e-06
8.17078946276904e-06
7.66226340797905e-06
6.04032702085746e-06
2.56580130587834e-08
1.81258091675451e-10
1.74411051522072e-10
2.50956317475496e-08
5.97873952662733e-06
7.63666873035315e-06
8.16436589574851e-06
8.30428858448745e-06
8.33657686534113e-06
8.34328362669369e-06
8.34456851097049e-06
8.34479933326847e-06
8.34483840485614e-06
8.34484433970123e-06
8.34484481284608e-06
8.34484445244922e-06
8.34484396979845e-06
8.34484347038515e-06
8.3448429695862e-06
8.34484247160749e-06
8.34484197850186e-06
8.34484149338125e-06
8.34484101825688e-06
8.34484055595977e-06
8.34484010799255e-06
8.34483967658595e-06
8.3448392625979e-06
8.34483886759899e-06
8.34483849183092e-06
8.34483813627835e-06
8.34483780072189e-06
8.34483748575073e-06
8.34483719092056e-06
8.34483691665319e-06
8.34483666247086e-06
8.34483642869376e-06
8.34483621450492e-06
8.3448360177951e-06
8.34483582190044e-06
8.34483552010525e-06
8.3448344282593e-06
8.34482830643387e-06
8.34479163537256e-06
8.34457730096764e-06
8.34338181154496e-06
8.33710891293809e-06
8.30668020890466e-06
8.17348960843987e-06
7.66479962141007e-06
6.04231676202332e-06
2.56639388652019e-08
1.81275772348986e-10
1.74415430009119e-10
2.5097140080565e-08
5.97936278489144e-06
7.63760281712294e-06
8.16546150471228e-06
8.3054538239772e-06
8.33776774302435e-06
8.34448278125296e-06
8.3457700584409e-06
8.34600151521826e-06
8.34604075394493e-06
8.34604674575722e-06
8.34604724691329e-06
8.34604690409608e-06
8.34604643751903e-06
8.34604595397442e-06
8.34604546895815e-06
8.34604498645778e-06
8.34604450849287e-06
8.34604403818936e-06
8.34604357757588e-06
8.34604312947048e-06
8.34604269537091e-06
8.34604227748391e-06
8.34604187666043e-06
8.34604149444714e-06
8.34604113108024e-06
8.34604078751696e-06
8.34604046352683e-06
8.34604015966754e-06
8.34603987547618e-06
8.34603961133264e-06
8.34603936673718e-06
8.34603914197405e-06
8.34603893626439e-06
8.34603874771765e-06
8.34603856037913e-06
8.34603826807037e-06
8.34603718352168e-06
8.34603106732291e-06
8.34599440036983e-06
8.34578006051138e-06
8.34458449514619e-06
8.33831105632304e-06
8.30787912014985e-06
8.17467197594364e-06
7.66591191275077e-06
6.04319242163882e-06
2.56665101267791e-08
1.81283440103625e-10
1.74417805628232e-10
2.50977431623473e-08
5.97961934445003e-06
7.63799496765527e-06
8.16592714417017e-06
8.30595237005497e-06
8.33827884915748e-06
8.34499808412985e-06
8.34628661518233e-06
8.34651841617671e-06
8.34655775249823e-06
8.34656378463534e-06
8.34656430920794e-06
8.34656398257996e-06
8.34656353148811e-06
8.34656306334378e-06
8.34656259360437e-06
8.34656212617927e-06
8.34656166311197e-06
8.34656120751784e-06
8.34656076142015e-06
8.34656032760408e-06
8.34655990755529e-06
8.3465595034474e-06
8.34655911612355e-06
8.34655874710159e-06
8.34655839661093e-06
8.34655806558117e-06
8.34655775377383e-06
8.34655746171327e-06
8.34655718892146e-06
8.34655693574146e-06
8.34655670165771e-06
8.34655648693174e-06
8.34655629086365e-06
8.34655611195204e-06
8.34655593557205e-06
8.34655565705645e-06
8.34655458290799e-06
8.34654847491313e-06
8.34651181565397e-06
8.34629748019127e-06
8.34510189099728e-06
8.3388282376465e-06
8.30839496986395e-06
8.17518091822218e-06
7.6663912969724e-06
6.04357094720688e-06
2.56676077793597e-08
1.81287176192651e-10
1.7441898446967e-10
2.50979719602888e-08
5.97972251380315e-06
7.63815639121846e-06
8.16612147595683e-06
8.30616199194659e-06
8.33849451041645e-06
8.34521582967095e-06
8.34650500380414e-06
8.34673698912007e-06
8.34677638503921e-06
8.34678244952062e-06
8.34678299546467e-06
8.34678268512053e-06
8.34678225035232e-06
8.34678179833633e-06
8.34678134432163e-06
8.34678089234303e-06
8.34678044453821e-06
8.3467800040209e-06
8.34677957280234e-06
8.3467791536338e-06
8.34677874798524e-06
8.34677835799888e-06
8.34677798450878e-06
8.34677762900567e-06
8.34677729171052e-06
8.34677697352466e-06
8.34677667420031e-06
8.34677639422616e-06
8.34677613310673e-06
8.34677589114553e-06
8.34677566780697e-06
8.34677546333049e-06
8.34677527710098e-06
8.34677510813219e-06
8.34677494383483e-06
8.34677468273366e-06
8.34677362075912e-06
8.3467675221765e-06
8.34673087248752e-06
8.34651654595998e-06
8.34532095411554e-06
8.33904721714078e-06
8.30861339440665e-06
8.17539644734084e-06
7.66659442065339e-06
6.04373161560004e-06
2.56680717582549e-08
1.81289272848325e-10
1.7441983805869e-10
2.50980584560753e-08
5.97976278202821e-06
7.63822112894001e-06
8.16620081300024e-06
8.30624836701883e-06
8.33858375505072e-06
8.3453060944776e-06
8.34659559474941e-06
8.34682768046974e-06
8.34686711754361e-06
8.34687321231747e-06
8.34687377868368e-06
8.34687348526403e-06
8.34687306863589e-06
8.34687263452078e-06
8.34687219785542e-06
8.34687176282599e-06
8.34687133167717e-06
8.3468709075254e-06
8.34687049237665e-06
8.34687008894985e-06
8.3468696987019e-06
8.34686932374678e-06
8.34686896491277e-06
8.34686862366221e-06
8.34686830020773e-06
8.34686799541964e-06
8.34686770903697e-06
8.34686744150528e-06
8.34686719230304e-06
8.34686696168282e-06
8.34686674908035e-06
8.34686655469246e-06
8.34686637794784e-06
8.34686621829533e-06
8.34686606530848e-06
8.34686582174994e-06
8.34686477116465e-06
8.34685868243757e-06
8.34682204406012e-06
8.34660772988366e-06
8.34541214556686e-06
8.33913837830786e-06
8.30870431180175e-06
8.1754861086859e-06
7.66667881975896e-06
6.04379830263666e-06
2.56682704210816e-08
1.8129038364834e-10
1.74420503713525e-10
2.50981122388047e-08
5.97977765265991e-06
7.63824595420072e-06
8.16623216364279e-06
8.30628296667849e-06
8.33861971837385e-06
8.3453425560368e-06
8.34663222178376e-06
8.34686436423747e-06
8.34690383403046e-06
8.34690995987966e-06
8.34691054559098e-06
8.3469102693162e-06
8.34690987223802e-06
8.34690945735942e-06
8.34690903930875e-06
8.34690862237189e-06
8.34690820887815e-06
8.34690780195056e-06
8.34690740359675e-06
8.34690701651225e-06
8.34690664214996e-06
8.3469062825984e-06
8.34690593868562e-06
8.34690561185239e-06
8.34690530229969e-06
8.34690501086718e-06
8.34690473727678e-06
8.34690448192372e-06
8.34690424424873e-06
8.34690402444429e-06
8.34690382190318e-06
8.34690363675451e-06
8.34690346837579e-06
8.34690331624515e-06
8.34690317051433e-06
8.3469029336656e-06
8.34690188929701e-06
8.34689580938985e-06
8.34685918305583e-06
8.34664488311109e-06
8.34544931099881e-06
8.33917553512367e-06
8.30874134317283e-06
8.17552253154273e-06
7.666712855947e-06
6.04382494380307e-06
2.5668360244391e-08
1.81290200120339e-10
1.74419821405104e-10
2.50981425209423e-08
5.97978157243116e-06
7.63825426569585e-06
8.16624369161174e-06
8.30629608397699e-06
8.33863349850728e-06
8.34535657833389e-06
8.34664632276139e-06
8.34687849422772e-06
8.34691799090606e-06
8.34692414784441e-06
8.346924757945e-06
8.34692450095478e-06
8.34692412435018e-06
8.34692372954972e-06
8.34692333097252e-06
8.34692293294413e-06
8.34692253784596e-06
8.34692214880108e-06
8.34692176782266e-06
8.34692139758963e-06
8.34692103955118e-06
8.3469206957745e-06
8.34692036709182e-06
8.34692005492586e-06
8.34691975946596e-06
8.3469194815165e-06
8.34691922078367e-06
8.34691897760363e-06
8.34691875137167e-06
8.34691854221007e-06
8.34691834945952e-06
8.34691817316278e-06
8.346918012552e-06
8.34691786662581e-06
8.3469177238324e-06
8.34691748241441e-06
8.34691644110715e-06
8.34691037109467e-06
8.34687375790686e-06
8.34665947287801e-06
8.34546391467498e-06
8.33919014178166e-06
8.3087558637765e-06
8.17553669411739e-06
7.66672575683399e-06
6.04383437995293e-06
2.56683917024345e-08
1.81289889828119e-10
1.7441932489251e-10
2.50981322850592e-08
5.97978030874121e-06
7.6382558011445e-06
8.16624709052303e-06
8.30630037941735e-06
8.33863815279619e-06
8.34536136274535e-06
8.34665114959926e-06
8.34688334057132e-06
8.3469228610955e-06
8.34692904687379e-06
8.34692968588517e-06
8.34692944735779e-06
8.34692909104195e-06
8.3469287163541e-06
8.34692833737411e-06
8.3469279584036e-06
8.34692758184634e-06
8.34692721081721e-06
8.34692684733578e-06
8.34692649406785e-06
8.34692615245478e-06
8.34692582454353e-06
8.34692551117382e-06
8.34692521375973e-06
8.34692493247216e-06
8.34692466807962e-06
8.34692442027343e-06
8.34692418932667e-06
8.34692397458194e-06
8.34692377608761e-06
8.34692359312384e-06
8.34692342564289e-06
8.34692327270032e-06
8.34692313264452e-06
8.34692299163331e-06
8.34692274564899e-06
8.34692170609708e-06
8.34691564294995e-06
8.34687903642867e-06
8.34666475755298e-06
8.34546920395551e-06
8.33919544088105e-06
8.30876105370243e-06
8.17554156940477e-06
7.66672977722407e-06
6.04383648448938e-06
2.56683831319425e-08
1.81289907823423e-10
1.74419836688651e-10
2.50980666750636e-08
5.97977671130586e-06
7.63825460169852e-06
8.16624715163923e-06
8.30630103959711e-06
8.33863904059084e-06
8.34536233157018e-06
8.34665214771873e-06
8.34688435434137e-06
8.34692389047472e-06
8.34693009762891e-06
8.34693075592839e-06
8.3469305287784e-06
8.34693018799159e-06
8.34692982969506e-06
8.34692946736458e-06
8.34692910516829e-06
8.346928745459e-06
8.34692839128829e-06
8.34692804464711e-06
8.34692770815118e-06
8.34692738319911e-06
8.34692707179088e-06
8.34692677476348e-06
8.34692649352326e-06
8.34692622820465e-06
8.3469259795364e-06
8.34692574720459e-06
8.34692553143382e-06
8.34692533152218e-06
8.34692514745869e-06
8.34692497848562e-06
8.34692482449708e-06
8.34692468443958e-06
8.34692455621985e-06
8.34692442448893e-06
8.34692418410917e-06
8.34692315182925e-06
8.34691709421294e-06
8.3468804911132e-06
8.34666621407378e-06
8.34547065805762e-06
8.33919687607612e-06
8.30876238787907e-06
8.17554258818098e-06
7.66673005323837e-06
6.04383576354875e-06
2.56683788170461e-08
1.81290629412573e-10
1.74418719075439e-10
2.50979877536483e-08
5.97977276221307e-06
7.63825240079208e-06
8.16624596180811e-06
8.30630028842059e-06
8.33863844408319e-06
8.34536178507133e-06
8.34665161804128e-06
8.34688383391389e-06
8.34692337990694e-06
8.3469296052677e-06
8.34693027907085e-06
8.34693005942585e-06
8.34692973148965e-06
8.34692938743539e-06
8.34692904002655e-06
8.34692869324201e-06
8.34692834934598e-06
8.346928011296e-06
8.34692768104138e-06
8.34692736112577e-06
8.34692705287691e-06
8.34692675823244e-06
8.34692647801939e-06
8.34692621366018e-06
8.34692596521986e-06
8.34692573337843e-06
8.34692551784e-06
8.34692531880109e-06
8.34692513549492e-06
8.34692496785861e-06
8.34692481510717e-06
8.346924677095e-06
8.34692455271841e-06
8.34692443963763e-06
8.34692432174133e-06
8.346924093447e-06
8.34692307312472e-06
8.34691702452742e-06
8.34688042963921e-06
8.34666616026222e-06
8.34547060727063e-06
8.33919678770147e-06
8.30876225548926e-06
8.17554219737146e-06
7.66672900102641e-06
6.04383368754337e-06
2.5668346638745e-08
1.8129026113566e-10
1.74416875326414e-10
2.5097946087693e-08
5.97976901908998e-06
7.63824987955478e-06
8.16624426645897e-06
8.30629894763807e-06
8.33863722323566e-06
8.34536060050419e-06
8.34665044561683e-06
8.34688267087527e-06
8.34692223052917e-06
8.34692847852224e-06
8.3469291695055e-06
8.34692896081661e-06
8.34692864837735e-06
8.34692832084715e-06
8.34692799033927e-06
8.3469276606661e-06
8.34692733401676e-06
8.34692701326844e-06
8.34692670036519e-06
8.34692639778014e-06
8.34692610675917e-06
8.34692582918527e-06
8.34692556587456e-06
8.34692531833862e-06
8.34692508649744e-06
8.34692487096959e-06
8.34692467138748e-06
8.34692448791027e-06
8.3469243197903e-06
8.34692416693067e-06
8.34692402851412e-06
8.34692390433345e-06
8.34692379323981e-06
8.34692369278121e-06
8.3469235865221e-06
8.34692336873737e-06
8.34692235884783e-06
8.34691631993589e-06
8.34687973475584e-06
8.34666547537773e-06
8.3454699299438e-06
8.33919609767116e-06
8.30876151048431e-06
8.17554122111426e-06
7.66672741488653e-06
6.04383099752589e-06
2.56682869052615e-08
1.81289155862548e-10
1.74416516774039e-10
2.50979180327695e-08
5.97976562176876e-06
7.63824735305112e-06
8.16624242343993e-06
8.30629740499367e-06
8.3386357811083e-06
8.3453591877521e-06
8.3466490428081e-06
8.34688127728645e-06
8.3469208518668e-06
8.34692712241153e-06
8.34692783058522e-06
8.34692763387575e-06
8.3469273375353e-06
8.34692702701695e-06
8.34692671380294e-06
8.3469264015649e-06
8.34692609239789e-06
8.34692578909271e-06
8.34692549364428e-06
8.3469252084195e-06
8.34692493456398e-06
8.34692467391546e-06
8.34692442724987e-06
8.34692419592309e-06
8.34692397996515e-06
8.34692377998192e-06
8.34692359557801e-06
8.34692342688688e-06
8.34692327314391e-06
8.34692313420466e-06
8.34692300922097e-06
8.3469228979176e-06
8.34692279908881e-06
8.34692271026273e-06
8.34692261492252e-06
8.34692240729868e-06
8.34692140718574e-06
8.34691537754611e-06
8.34687880205699e-06
8.34666455323209e-06
8.34546901686919e-06
8.33919517939244e-06
8.30876053998254e-06
8.17554004385531e-06
7.66672570488377e-06
6.04382842643586e-06
2.56682554793683e-08
1.81288594853768e-10
1.74416387795178e-10
2.50978953660316e-08
5.97976244937254e-06
7.63824484246822e-06
8.16624049840843e-06
8.30629574365358e-06
8.33863420811979e-06
8.34535764029509e-06
8.34664750428941e-06
8.34687974807748e-06
8.34691933792891e-06
8.34692563026445e-06
8.34692635541835e-06
8.34692617105793e-06
8.34692589094298e-06
8.34692559766238e-06
8.34692530195206e-06
8.34692500739388e-06
8.34692471591817e-06
8.34692443018529e-06
8.34692415202757e-06
8.34692388382288e-06
8.3469236267631e-06
8.34692338266054e-06
8.34692315225866e-06
8.34692293683394e-06
8.34692273645765e-06
8.34692255173382e-06
8.34692238226443e-06
8.34692222816301e-06
8.34692208863091e-06
8.34692196345256e-06
8.34692185175557e-06
8.34692175319606e-06
8.34692166647599e-06
8.34692158918634e-06
8.34692150488994e-06
8.34692130777443e-06
8.34692031737153e-06
8.34691429646548e-06
8.34687773031657e-06
8.34666349230789e-06
8.34546796608653e-06
8.33919412726922e-06
8.30875944163596e-06
8.17553876198886e-06
7.66672395995496e-06
6.04382602098762e-06
2.56682337170357e-08
1.81287842648067e-10
1.74416294984779e-10
2.5097874756261e-08
5.97975939161909e-06
7.63824233640715e-06
8.16623851578193e-06
8.30629400097877e-06
8.33863254621101e-06
8.34535600170619e-06
8.34664587419444e-06
8.34687812756378e-06
8.34691773260187e-06
8.346924045555e-06
8.34692478734592e-06
8.34692461524504e-06
8.34692435065412e-06
8.34692407434812e-06
8.34692379579124e-06
8.34692351828127e-06
8.34692324374024e-06
8.34692297479183e-06
8.34692271318564e-06
8.34692246127979e-06
8.34692222029454e-06
8.34692199202908e-06
8.34692177720611e-06
8.34692157705917e-06
8.34692139168899e-06
8.34692122170902e-06
8.346921066742e-06
8.34692092688984e-06
8.34692080128566e-06
8.34692068959791e-06
8.34692059094979e-06
8.3469205049464e-06
8.34692043011586e-06
8.34692036423496e-06
8.34692029111078e-06
8.34692010482418e-06
8.34691912380367e-06
8.34691311022191e-06
8.34687655217268e-06
8.34666232466459e-06
8.3454668093636e-06
8.33919297234388e-06
8.30875824791569e-06
8.17553740556406e-06
7.66672219495465e-06
6.04382372247801e-06
2.56682157360553e-08
1.81287628161193e-10
1.74416208594993e-10
2.50978543068111e-08
5.97975621843825e-06
7.63823963959706e-06
8.16623630600211e-06
8.30629201716781e-06
8.33863063868101e-06
8.34535411629346e-06
8.3466439972241e-06
8.34687626074087e-06
8.34691588081823e-06
8.34692221312754e-06
8.34692297177361e-06
8.34692281188769e-06
8.34692256063052e-06
8.34692230063226e-06
8.34692203864242e-06
8.34692177767415e-06
8.34692151957166e-06
8.34692126692148e-06
8.34692102142733e-06
8.34692078541644e-06
8.34692056012613e-06
8.34692034734411e-06
8.34692014778588e-06
8.34691996266529e-06
8.34691979212094e-06
8.34691963680439e-06
8.34691949639694e-06
8.34691937099805e-06
8.3469192595956e-06
8.3469191616283e-06
8.34691907625923e-06
8.34691900310977e-06
8.34691894037602e-06
8.3469188862381e-06
8.34691882501902e-06
8.34691865052471e-06
8.34691767873944e-06
8.3469116705717e-06
8.34687511910855e-06
8.34666090209166e-06
8.34546539952253e-06
8.33919156962518e-06
8.30875681899274e-06
8.17553584235343e-06
7.66672028003568e-06
6.04382138073961e-06
2.56681992253655e-08
1.81287546624007e-10
1.74416121956155e-10
2.50978327862117e-08
5.97975262549787e-06
7.63823642834287e-06