/*--------------------------------*- C++ -*----------------------------------*\
  =========                 |
  \\      /  F ield         | OpenFOAM: The Open Source CFD Toolbox
   \\    /   O peration     | Website:  https://openfoam.org
    \\  /    A nd           | Version:  10
     \\/     M anipulation  |
\*---------------------------------------------------------------------------*/
FoamFile
{
    format      ascii;
    class       volScalarField;
    location    "1.2";
    object      h;
}
// * * * * * * * * * * * * * * * * * * * * * * * * * * * * * * * * * * * * * //

dimensions      [0 2 -2 0 0 0 0];

internalField   nonuniform List<scalar> 
2500
(
6906.33167405386
6792.85735356329
6768.88615714752
6765.61611930633
6765.20374010178
6765.14727701949
6765.13837759962
6765.13545549161
6765.13324861097
6765.13225547614
6765.13069301642
6765.12963829433
6765.12899362862
6765.12814991261
6765.12736878485
6765.12647814822
6765.12604357816
6765.12547134658
6765.12482633504
6765.1243823565
6765.12383690655
6765.12280697682
6765.12194012346
6765.1221852593
6765.12237635763
6765.12178654571
6765.12173164875
6765.12158910357
6765.12113501432
6765.1216543032
6765.12201029227
6765.12209239836
6765.12232723022
6765.12268927065
6765.12323723364
6765.12355677339
6765.1239090176
6765.12419742998
6765.12479605908
6765.12535808268
6765.12602037607
6765.12682338755
6765.12799993211
6765.13060132
6765.14360838861
6765.21397020416
6765.67062821188
6769.02150398057
6793.38283959214
6906.42211967184
3919.82141600876
3776.58733845128
3696.81578590836
3682.86077937585
3680.60082313734
3680.24006058737
3680.18427428431
3680.17571718826
3680.17414799834
3680.17382119758
3680.17345287563
3680.17321779388
3680.17313998097
3680.17301549178
3680.17289636868
3680.17275653702
3680.17263042887
3680.17253921655
3680.17251672368
3680.17239619773
3680.17191663802
3680.17118685267
3680.17066358342
3680.17087297944
3680.17110965727
3680.17092463881
3680.17112266652
3680.17091407366
3680.17048839593
3680.17095792753
3680.17115430765
3680.1707761257
3680.17132257912
3680.17221062153
3680.17248947952
3680.17258148464
3680.17265569711
3680.17270358291
3680.17281147973
3680.17290628301
3680.17306587254
3680.17354456092
3680.1759635204
3680.1897755499
3680.26848956602
3680.70166563727
3683.09506171354
3696.98844140049
3777.85438917648
3926.0748616828
2547.13094875689
2462.88023023276
2413.267366167
2402.68930545366
2400.90134471823
2400.60685884778
2400.55999096736
2400.55281466818
2400.55176270926
2400.55168994161
2400.55148871795
2400.55133237203
2400.55140730447
2400.5514435792
2400.55152532628
2400.55161672316
2400.5516536494
2400.55167449574
2400.55168937735
2400.55165360984
2400.55147124212
2400.55127249293
2400.55112362117
2400.5510843037
2400.55121536602
2400.55122785343
2400.55115316192
2400.55115954151
2400.55120567881
2400.55137490789
2400.55140330457
2400.55124204673
2400.55145486809
2400.55186943694
2400.55200301755
2400.55202959349
2400.55203772001
2400.55202651945
2400.55202346059
2400.55201942383
2400.55203561874
2400.55227664422
2400.55393739471
2400.5639811788
2400.62167642666
2400.94244721214
2402.73967378193
2413.17968892791
2463.64233375975
2555.11094427061
2058.31472818542
2023.59533344824
2007.93651188496
2003.90942308008
2003.21107752994
2003.09569861147
2003.07712351805
2003.07418724939
2003.07373012086
2003.07377115779
2003.07376971541
2003.07368236107
2003.07369868115
2003.0737516226
2003.07380031294
2003.07384993146
2003.0738571881
2003.07384672312
2003.07388441348
2003.07388524568
2003.07383424942
2003.07379416935
2003.07374067548
2003.07374705568
2003.07381044707
2003.07379666236
2003.07376311662
2003.07378780182
2003.07382414653
2003.07386752577
2003.07389742011
2003.07387349086
2003.07391905385
2003.07402213381
2003.07406664787
2003.07408119863
2003.07408502487
2003.07404153471
2003.07403201868
2003.07405335325
2003.07399770874
2003.07404628119
2003.07461001573
2003.07790509737
2003.09736425667
2003.21031286871
2003.87921364089
2007.85549979452
2023.89741700396
2063.01386884354
1910.61523172215
1899.02152545539
1895.0604456637
1893.83761508733
1893.61516104871
1893.57791560876
1893.57186010085
1893.57088480086
1893.57073202547
1893.57075607111
1893.57076100803
1893.57073080162
1893.57074134446
1893.57076272397
1893.57078207821
1893.57079830537
1893.57079922748
1893.57079118163
1893.57080861941
1893.57080868463
1893.57079630745
1893.57079338026
1893.57078178991
1893.57078821885
1893.57080414041
1893.57080097776
1893.57079490155
1893.57079981632
1893.57081051458
1893.57082447761
1893.57083444616
1893.57083260489
1893.57084265604
1893.57086258242
1893.57087392971
1893.57088181984
1893.57087627117
1893.57086540637
1893.57087059393
1893.5708662201
1893.57083675963
1893.57084148422
1893.57100302939
1893.5719417653
1893.57754888838
1893.61103964372
1893.81536144881
1895.01884280968
1899.10126366876
1912.57565784372
1870.85723351746
1867.49481432219
1866.60356722566
1866.27947529102
1866.21713313734
1866.20648980591
1866.20474611089
1866.20446294388
1866.20441912032
1866.2044274036
1866.20442921903
1866.20442237968
1866.20442734658
1866.20443436953
1866.20443995441
1866.2044429533
1866.20444290433
1866.20444039792
1866.20444497879
1866.20444501013
1866.20444248671
1866.20444314124
1866.20444150484
1866.20444374852
1866.20444778859
1866.20444642305
1866.20444567681
1866.20444594888
1866.20444851893
1866.20445378651
1866.20445616839
1866.20445656784
1866.2044587814
1866.20446204804
1866.20446452468
1866.20446763318
1866.20446547366
1866.20446286633
1866.20446380349
1866.20446212315
1866.20445636055
1866.20445363707
1866.20449217981
1866.20473880505
1866.20621463993
1866.21517636759
1866.27051583525
1866.58930052024
1867.50896402811
1871.52315318877
1861.0370772672
1860.15636880058
1859.96807294971
1859.88977549422
1859.87383788332
1859.87105259587
1859.87059317079
1859.87051839554
1859.87050711057
1859.87050949407
1859.87051002174
1859.87050876657
1859.87051042051
1859.87051222694
1859.87051352345
1859.87051411644
1859.87051439189
1859.87051367892
1859.87051459942
1859.87051491476
1859.87051442151
1859.87051488379
1859.87051486836
1859.87051517431
1859.87051593143
1859.87051574007
1859.87051571747
1859.87051558934
1859.8705163345
1859.8705176183
1859.87051810489
1859.87051836467
1859.87051885852
1859.87051933209
1859.87051980923
1859.87052077535
1859.87052022482
1859.87051952673
1859.87051961589
1859.87051920137
1859.87051812207
1859.87051661973
1859.8705255809
1859.87058605999
1859.87094913463
1859.87317328496
1859.88693616054
1859.96418320715
1860.15716549004
1861.23385238424
1858.76780838212
1858.5543211395
1858.51577949659
1858.49809342018
1858.49429465444
1858.49361335475
1858.49350016676
1858.49348175819
1858.49347901387
1858.49347960257
1858.49347974036
1858.49347956738
1858.49348004529
1858.49348046566
1858.49348075963
1858.49348087876
1858.4934810201
1858.49348082713
1858.49348095088
1858.49348113347
1858.49348114902
1858.49348124796
1858.49348121348
1858.49348131382
1858.49348150132
1858.49348142101
1858.49348142167
1858.49348139598
1858.49348158684
1858.49348184005
1858.4934819369
1858.4934820129
1858.49348214088
1858.49348220275
1858.49348227067
1858.49348251755
1858.49348238758
1858.49348216555
1858.49348218422
1858.49348211791
1858.49348188008
1858.49348144395
1858.49348344125
1858.49349745258
1858.49358186781
1858.49410123721
1858.49730546574
1858.51484206083
1858.55368824941
1858.82033007086
1858.27056106248
1858.22187685542
1858.21410209591
1858.21030565453
1858.20944912934
1858.20929124107
1858.20926477921
1858.20926048088
1858.20925984269
1858.20925997284
1858.2092600063
1858.20925999438
1858.20926011833
1858.20926020979
1858.20926027418
1858.20926029818
1858.20926034391
1858.20926029977
1858.20926030694
1858.20926036422
1858.20926039324
1858.20926042033
1858.20926042339
1858.20926044714
1858.20926046752
1858.2092604447
1858.20926046403
1858.20926047378
1858.20926050374
1858.20926054123
1858.20926055652
1858.20926056728
1858.20926060291
1858.20926060976
1858.20926060948
1858.20926066596
1858.2092606611
1858.20926060402
1858.20926059377
1858.20926057778
1858.20926052558
1858.20926042054
1858.20926084832
1858.2092639384
1858.2092826213
1858.20939778608
1858.21010464715
1858.2138877153
1858.22151857906
1858.28352852545
1858.16623173786
1858.15566576132
1858.15410838421
1858.15332540199
1858.15314083935
1858.15310584766
1858.15309991782
1858.15309895445
1858.15309881114
1858.15309883771
1858.1530988457
1858.15309884752
1858.15309887518
1858.15309889337
1858.15309890674
1858.15309891135
1858.15309892356
1858.15309891363
1858.15309891177
1858.15309892697
1858.15309893683
1858.15309894348
1858.15309894602
1858.15309894885
1858.15309895057
1858.15309894671
1858.1530989521
1858.15309895637
1858.15309896061
1858.1530989667
1858.1530989654
1858.15309896279
1858.15309897451
1858.15309897488
1858.15309897019
1858.15309898541
1858.15309898963
1858.15309897994
1858.15309897272
1858.15309896504
1858.15309895839
1858.15309893597
1858.15309902484
1858.153099678
1858.1531036372
1858.1531280535
1858.15327706273
1858.15405974145
1858.15553648955
1858.16924141898
1858.14511879365
1858.14291771139
1858.14260728581
1858.14245090488
1858.1424126104
1858.14240514314
1858.14240386006
1858.1424036507
1858.14240361902
1858.14240362307
1858.1424036245
1858.14240362512
1858.14240362993
1858.14240363323
1858.14240363553
1858.14240363619
1858.14240363879
1858.14240363629
1858.14240363512
1858.14240363835
1858.14240364068
1858.1424036418
1858.14240364256
1858.1424036428
1858.14240364239
1858.14240364132
1858.1424036425
1858.14240364359
1858.14240364398
1858.1424036445
1858.142403644
1858.14240364316
1858.14240364568
1858.14240364549
1858.142403644
1858.14240364747
1858.14240364889
1858.14240364751
1858.14240364544
1858.14240364404
1858.1424036433
1858.14240363915
1858.14240365778
1858.14240379134
1858.14240459933
1858.14240957744
1858.14243979016
1858.14259612665
1858.14287910474
1858.14578303216
1858.14097473312
1858.14053175328
1858.14047008217
1858.14043963093
1858.14043193248
1858.14043038927
1858.14043011916
1858.14043007429
1858.14043006688
1858.14043006664
1858.14043006624
1858.14043006574
1858.14043006597
1858.14043006609
1858.14043006609
1858.14043006581
1858.14043006593
1858.140430065
1858.14043006435
1858.14043006464
1858.1404300648
1858.14043006472
1858.14043006468
1858.14043006449
1858.14043006408
1858.14043006363
1858.14043006367
1858.14043006368
1858.14043006359
1858.14043006357
1858.14043006335
1858.14043006296
1858.14043006332
1858.14043006334
1858.14043006311
1858.14043006377
1858.1404300642
1858.14043006416
1858.14043006407
1858.14043006414
1858.1404300643
1858.14043006416
1858.14043006849
1858.14043009546
1858.14043025563
1858.14043123723
1858.14043716327
1858.14046749483
1858.14052146179
1858.1411153187
1858.14018233785
1858.14009576446
1858.14008338964
1858.14007754775
1858.14007603777
1858.14007572675
1858.14007567049
1858.14007566027
1858.14007565784
1858.14007565691
1858.14007565607
1858.1400756553
1858.14007565469
1858.14007565414
1858.14007565361
1858.14007565306
1858.14007565261
1858.14007565199
1858.14007565145
1858.14007565111
1858.14007565078
1858.14007565043
1858.14007565011
1858.14007564979
1858.14007564943
1858.1400756491
1858.14007564887
1858.14007564867
1858.14007564848
1858.14007564834
1858.14007564818
1858.14007564802
1858.14007564804
1858.14007564804
1858.14007564802
1858.14007564821
1858.14007564839
1858.14007564858
1858.14007564887
1858.14007564922
1858.14007564968
1858.14007565024
1858.14007565175
1858.14007565771
1858.14007568932
1858.14007587813
1858.14007701112
1858.14008278555
1858.14009322347
1858.1402110498
1858.14003421689
1858.1400177119
1858.14001501779
1858.14001387335
1858.14001357965
1858.14001351747
1858.14001350513
1858.14001350205
1858.14001350063
1858.14001349959
1858.14001349865
1858.1400134978
1858.14001349702
1858.14001349631
1858.14001349564
1858.14001349501
1858.14001349443
1858.14001349385
1858.14001349331
1858.14001349283
1858.14001349238
1858.14001349195
1858.14001349156
1858.14001349119
1858.14001349083
1858.1400134905
1858.14001349022
1858.14001348997
1858.14001348975
1858.14001348957
1858.14001348942
1858.1400134893
1858.14001348926
1858.14001348925
1858.14001348928
1858.14001348939
1858.14001348956
1858.1400134898
1858.14001349013
1858.14001349055
1858.14001349108
1858.14001349174
1858.14001349269
1858.14001349461
1858.14001350143
1858.14001353776
1858.14001375341
1858.14001487234
1858.14001711124
1858.14003989464
1858.1400070726
1858.14000398397
1858.14000316926
1858.14000290371
1858.14000284329
1858.14000283013
1858.14000282664
1858.14000282502
1858.14000282381
1858.14000282275
1858.14000282178
1858.14000282089
1858.14000282007
1858.1400028193
1858.14000281859
1858.14000281792
1858.14000281729
1858.1400028167
1858.14000281614
1858.14000281562
1858.14000281513
1858.14000281467
1858.14000281424
1858.14000281385
1858.14000281348
1858.14000281314
1858.14000281284
1858.14000281257
1858.14000281234
1858.14000281214
1858.14000281199
1858.14000281187
1858.14000281181
1858.1400028118
1858.14000281184
1858.14000281194
1858.14000281211
1858.14000281236
1858.1400028127
1858.14000281313
1858.14000281366
1858.14000281433
1858.14000281516
1858.14000281628
1858.1400028184
1858.14000282613
1858.14000287077
1858.14000312823
1858.14000383745
1858.14000815406
1858.14000218486
1858.14000160691
1858.14000115221
1858.14000104835
1858.1400010318
1858.14000102814
1858.14000102644
1858.14000102514
1858.14000102398
1858.14000102292
1858.14000102194
1858.14000102103
1858.14000102018
1858.14000101939
1858.14000101865
1858.14000101795
1858.1400010173
1858.14000101668
1858.1400010161
1858.14000101556
1858.14000101504
1858.14000101457
1858.14000101412
1858.1400010137
1858.14000101332
1858.14000101297
1858.14000101266
1858.14000101238
1858.14000101213
1858.14000101193
1858.14000101177
1858.14000101165
1858.14000101158
1858.14000101156
1858.1400010116
1858.14000101171
1858.14000101188
1858.14000101213
1858.14000101247
1858.1400010129
1858.14000101343
1858.14000101408
1858.14000101486
1858.1400010158
1858.140001017
1858.14000101941
1858.14000103282
1858.14000113416
1858.14000156082
1858.1400023732
1858.14000131881
1858.1400012014
1858.1400008146
1858.14000074009
1858.14000073172
1858.14000072993
1858.14000072862
1858.14000072741
1858.14000072627
1858.14000072521
1858.14000072422
1858.1400007233
1858.14000072244
1858.14000072162
1858.14000072086
1858.14000072014
1858.14000071947
1858.14000071883
1858.14000071823
1858.14000071767
1858.14000071714
1858.14000071664
1858.14000071618
1858.14000071575
1858.14000071535
1858.14000071499
1858.14000071466
1858.14000071437
1858.14000071412
1858.14000071391
1858.14000071374
1858.14000071362
1858.14000071355
1858.14000071353
1858.14000071357
1858.14000071367
1858.14000071385
1858.1400007141
1858.14000071443
1858.14000071486
1858.14000071538
1858.14000071601
1858.14000071676
1858.14000071762
1858.14000071859
1858.14000071997
1858.1400007277
1858.1400008012
1858.14000117616
1858.14000133718
1858.14000116794
1858.14000113358
1858.1400007593
1858.14000069009
1858.14000068329
1858.14000068191
1858.14000068073
1858.14000067956
1858.14000067844
1858.14000067739
1858.14000067639
1858.14000067546
1858.14000067458
1858.14000067375
1858.14000067297
1858.14000067223
1858.14000067154
1858.14000067089
1858.14000067027
1858.14000066969
1858.14000066915
1858.14000066864
1858.14000066816
1858.14000066772
1858.14000066731
1858.14000066694
1858.1400006666
1858.1400006663
1858.14000066604
1858.14000066582
1858.14000066565
1858.14000066552
1858.14000066545
1858.14000066543
1858.14000066547
1858.14000066557
1858.14000066574
1858.14000066599
1858.14000066632
1858.14000066674
1858.14000066726
1858.14000066787
1858.14000066859
1858.1400006694
1858.14000067027
1858.14000067139
1858.14000067803
1858.14000074657
1858.14000111213
1858.14000115422
1858.14000114242
1858.14000112284
1858.14000075075
1858.14000068252
1858.14000067606
1858.14000067482
1858.1400006737
1858.14000067256
1858.14000067147
1858.14000067042
1858.14000066942
1858.14000066848
1858.14000066759
1858.14000066674
1858.14000066595
1858.1400006652
1858.14000066449
1858.14000066382
1858.14000066319
1858.14000066259
1858.14000066203
1858.14000066151
1858.14000066102
1858.14000066057
1858.14000066015
1858.14000065977
1858.14000065942
1858.14000065912
1858.14000065885
1858.14000065863
1858.14000065845
1858.14000065832
1858.14000065824
1858.14000065822
1858.14000065826
1858.14000065836
1858.14000065853
1858.14000065878
1858.14000065911
1858.14000065952
1858.14000066002
1858.14000066062
1858.14000066131
1858.14000066207
1858.14000066288
1858.14000066388
1858.14000067026
1858.14000073787
1858.14000110172
1858.14000112239
1858.14000113854
1858.14000112158
1858.14000074977
1858.14000068174
1858.14000067541
1858.14000067424
1858.14000067316
1858.14000067206
1858.14000067098
1858.14000066993
1858.14000066894
1858.14000066799
1858.14000066709
1858.14000066623
1858.14000066543
1858.14000066466
1858.14000066394
1858.14000066326
1858.14000066261
1858.14000066201
1858.14000066144
1858.1400006609
1858.14000066041
1858.14000065994
1858.14000065952
1858.14000065913
1858.14000065878
1858.14000065846
1858.14000065819
1858.14000065796
1858.14000065778
1858.14000065765
1858.14000065757
1858.14000065754
1858.14000065758
1858.14000065768
1858.14000065785
1858.1400006581
1858.14000065842
1858.14000065883
1858.14000065932
1858.1400006599
1858.14000066056
1858.14000066129
1858.14000066204
1858.14000066297
1858.14000066924
1858.14000073663
1858.14000110015
1858.14000111699
1858.14000113826
1858.1400011218
1858.14000074994
1858.14000068197
1858.14000067571
1858.14000067459
1858.14000067355
1858.14000067247
1858.1400006714
1858.14000067037
1858.14000066937
1858.14000066842
1858.14000066751
1858.14000066665
1858.14000066583
1858.14000066505
1858.14000066432
1858.14000066363
1858.14000066298
1858.14000066236
1858.14000066178
1858.14000066124
1858.14000066073
1858.14000066026
1858.14000065983
1858.14000065943
1858.14000065908
1858.14000065876
1858.14000065848
1858.14000065825
1858.14000065806
1858.14000065793
1858.14000065785
1858.14000065782
1858.14000065786
1858.14000065796
1858.14000065813
1858.14000065837
1858.14000065869
1858.14000065909
1858.14000065958
1858.14000066014
1858.14000066078
1858.14000066147
1858.14000066218
1858.14000066305
1858.14000066925
1858.14000073656
1858.1400011
1858.14000111613
1858.1400011385
1858.14000112215
1858.14000075022
1858.14000068228
1858.14000067605
1858.14000067498
1858.14000067397
1858.14000067291
1858.14000067185
1858.14000067082
1858.14000066982
1858.14000066887
1858.14000066795
1858.14000066709
1858.14000066626
1858.14000066548
1858.14000066474
1858.14000066404
1858.14000066338
1858.14000066275
1858.14000066217
1858.14000066162
1858.14000066111
1858.14000066063
1858.14000066019
1858.14000065979
1858.14000065943
1858.14000065911
1858.14000065883
1858.14000065859
1858.14000065841
1858.14000065827
1858.14000065819
1858.14000065816
1858.14000065819
1858.14000065829
1858.14000065846
1858.14000065871
1858.14000065903
1858.14000065942
1858.1400006599
1858.14000066045
1858.14000066106
1858.14000066173
1858.1400006624
1858.14000066323
1858.14000066938
1858.14000073664
1858.14000110005
1858.14000111602
1858.14000113872
1858.14000112241
1858.14000075042
1858.1400006825
1858.14000067631
1858.14000067526
1858.14000067427
1858.14000067323
1858.14000067218
1858.14000067115
1858.14000067016
1858.1400006692
1858.14000066828
1858.14000066741
1858.14000066658
1858.14000066579
1858.14000066505
1858.14000066434
1858.14000066368
1858.14000066305
1858.14000066246
1858.14000066191
1858.14000066139
1858.14000066091
1858.14000066047
1858.14000066007
1858.1400006597
1858.14000065937
1858.14000065909
1858.14000065886
1858.14000065867
1858.14000065853
1858.14000065845
1858.14000065842
1858.14000065845
1858.14000065855
1858.14000065872
1858.14000065896
1858.14000065928
1858.14000065967
1858.14000066014
1858.14000066068
1858.14000066128
1858.14000066193
1858.14000066257
1858.14000066337
1858.14000066948
1858.1400007367
1858.14000110009
1858.14000111602
1858.14000113883
1858.14000112254
1858.14000075053
1858.14000068262
1858.14000067645
1858.14000067542
1858.14000067445
1858.14000067342
1858.14000067237
1858.14000067135
1858.14000067036
1858.1400006694
1858.14000066848
1858.1400006676
1858.14000066677
1858.14000066598
1858.14000066523
1858.14000066452
1858.14000066385
1858.14000066322
1858.14000066263
1858.14000066208
1858.14000066156
1858.14000066107
1858.14000066063
1858.14000066023
1858.14000065986
1858.14000065953
1858.14000065925
1858.14000065901
1858.14000065883
1858.14000065869
1858.1400006586
1858.14000065857
1858.14000065861
1858.14000065871
1858.14000065888
1858.14000065912
1858.14000065943
1858.14000065982
1858.14000066029
1858.14000066082
1858.14000066141
1858.14000066205
1858.14000066267
1858.14000066345
1858.14000066953
1858.14000073673
1858.1400011001
1858.140001116
1858.14000113883
1858.14000112254
1858.14000075054
1858.14000068264
1858.14000067648
1858.14000067546
1858.1400006745
1858.14000067346
1858.14000067243
1858.1400006714
1858.14000067041
1858.14000066945
1858.14000066853
1858.14000066765
1858.14000066682
1858.14000066603
1858.14000066528
1858.14000066457
1858.1400006639
1858.14000066327
1858.14000066268
1858.14000066212
1858.14000066161
1858.14000066112
1858.14000066068
1858.14000066027
1858.14000065991
1858.14000065958
1858.1400006593
1858.14000065906
1858.14000065887
1858.14000065874
1858.14000065865
1858.14000065862
1858.14000065866
1858.14000065876
1858.14000065893
1858.14000065917
1858.14000065949
1858.14000065987
1858.14000066034
1858.14000066087
1858.14000066145
1858.14000066208
1858.14000066269
1858.14000066346
1858.14000066952
1858.14000073671
1858.14000110005
1858.14000111594
1858.14000113869
1858.1400011224
1858.14000075045
1858.14000068256
1858.1400006764
1858.14000067537
1858.14000067441
1858.14000067338
1858.14000067234
1858.14000067132
1858.14000067032
1858.14000066936
1858.14000066845
1858.14000066757
1858.14000066674
1858.14000066595
1858.1400006652
1858.14000066449
1858.14000066382
1858.1400006632
1858.14000066261
1858.14000066205
1858.14000066153
1858.14000066105
1858.14000066061
1858.14000066021
1858.14000065984
1858.14000065952
1858.14000065924
1858.140000659
1858.14000065882
1858.14000065868
1858.1400006586
1858.14000065857
1858.14000065861
1858.14000065871
1858.14000065888
1858.14000065912
1858.14000065943
1858.14000065982
1858.14000066028
1858.14000066081
1858.1400006614
1858.14000066202
1858.14000066264
1858.1400006634
1858.14000066947
1858.14000073665
1858.14000109996
1858.14000111584
1858.14000113841
1858.14000112212
1858.14000075025
1858.14000068237
1858.1400006762
1858.14000067516
1858.14000067419
1858.14000067315
1858.14000067211
1858.14000067109
1858.14000067009
1858.14000066913
1858.14000066822
1858.14000066735
1858.14000066652
1858.14000066573
1858.14000066499
1858.14000066428
1858.14000066362
1858.14000066299
1858.14000066241
1858.14000066186
1858.14000066134
1858.14000066087
1858.14000066043
1858.14000066003
1858.14000065967
1858.14000065935
1858.14000065907
1858.14000065883
1858.14000065865
1858.14000065851
1858.14000065843
1858.14000065841
1858.14000065844
1858.14000065855
1858.14000065872
1858.14000065896
1858.14000065928
1858.14000065967
1858.14000066013
1858.14000066067
1858.14000066126
1858.14000066189
1858.14000066251
1858.14000066328
1858.14000066936
1858.14000073654
1858.14000109981
1858.14000111571
1858.14000113801
1858.14000112171
1858.14000074996
1858.14000068207
1858.14000067588
1858.14000067483
1858.14000067384
1858.14000067279
1858.14000067174
1858.14000067071
1858.14000066972
1858.14000066876
1858.14000066785
1858.14000066698
1858.14000066616
1858.14000066538
1858.14000066464
1858.14000066394
1858.14000066329
1858.14000066267
1858.14000066209
1858.14000066154
1858.14000066103
1858.14000066056
1858.14000066013
1858.14000065973
1858.14000065938
1858.14000065906
1858.14000065878
1858.14000065855
1858.14000065837
1858.14000065824
1858.14000065816
1858.14000065814
1858.14000065818
1858.14000065828
1858.14000065845
1858.1400006587
1858.14000065902
1858.14000065941
1858.14000065988
1858.14000066042
1858.14000066102
1858.14000066166
1858.1400006623
1858.1400006631
1858.14000066919
1858.14000073639
1858.14000109961
1858.14000111552
1858.14000113749
1858.14000112116
1858.14000074956
1858.14000068168
1858.14000067545
1858.14000067437
1858.14000067335
1858.14000067229
1858.14000067123
1858.1400006702
1858.1400006692
1858.14000066825
1858.14000066734
1858.14000066648
1858.14000066567
1858.14000066489
1858.14000066416
1858.14000066348
1858.14000066283
1858.14000066222
1858.14000066164
1858.14000066111
1858.14000066061
1858.14000066014
1858.14000065971
1858.14000065932
1858.14000065897
1858.14000065866
1858.14000065839
1858.14000065817
1858.14000065799
1858.14000065786
1858.14000065778
1858.14000065776
1858.1400006578
1858.14000065791
1858.14000065808
1858.14000065833
1858.14000065865
1858.14000065905
1858.14000065953
1858.14000066008
1858.14000066069
1858.14000066136
1858.14000066202
1858.14000066285
1858.14000066898
1858.14000073619
1858.14000109937
1858.1400011153
1858.14000113686
1858.1400011205
1858.14000074908
1858.14000068118
1858.14000067491
1858.14000067379
1858.14000067274
1858.14000067166
1858.14000067058
1858.14000066955
1858.14000066855
1858.1400006676
1858.1400006667
1858.14000066585
1858.14000066504
1858.14000066428
1858.14000066356
1858.14000066288
1858.14000066224
1858.14000066164
1858.14000066108
1858.14000066055
1858.14000066006
1858.14000065961
1858.14000065919
1858.1400006588
1858.14000065846
1858.14000065816
1858.14000065789
1858.14000065767
1858.1400006575
1858.14000065737
1858.1400006573
1858.14000065728
1858.14000065733
1858.14000065743
1858.14000065761
1858.14000065786
1858.14000065819
1858.14000065859
1858.14000065908
1858.14000065964
1858.14000066027
1858.14000066096
1858.14000066166
1858.14000066253
1858.14000066871
1858.14000073596
1858.14000109909
1858.14000111506
1858.14000113613
1858.14000111972
1858.1400007485
1858.14000068059
1858.14000067426
1858.14000067309
1858.140000672
1858.14000067089
1858.1400006698
1858.14000066875
1858.14000066776
1858.14000066681
1858.14000066592
1858.14000066508
1858.14000066428
1858.14000066353
1858.14000066283
1858.14000066216
1858.14000066154
1858.14000066095
1858.1400006604
1858.14000065988
1858.1400006594
1858.14000065896
1858.14000065855
1858.14000065818
1858.14000065784
1858.14000065754
1858.14000065729
1858.14000065707
1858.1400006569
1858.14000065678
1858.14000065671
1858.1400006567
1858.14000065675
1858.14000065686
1858.14000065703
1858.14000065729
1858.14000065762
1858.14000065803
1858.14000065852
1858.1400006591
1858.14000065976
1858.14000066048
1858.14000066123
1858.14000066215
1858.14000066839
1858.14000073568
1858.14000109878
1858.1400011148
1858.14000113531
1858.14000111884
1858.14000074784
1858.1400006799
1858.1400006735
1858.14000067226
1858.14000067113
1858.14000066999
1858.14000066888
1858.14000066783
1858.14000066683
1858.14000066589
1858.14000066501
1858.14000066418
1858.1400006634
1858.14000066267
1858.14000066198
1858.14000066133
1858.14000066072
1858.14000066014
1858.1400006596
1858.1400006591
1858.14000065864
1858.1400006582
1858.1400006578
1858.14000065744
1858.14000065711
1858.14000065683
1858.14000065658
1858.14000065637
1858.1400006562
1858.14000065609
1858.14000065602
1858.14000065601
1858.14000065606
1858.14000065618
1858.14000065636
1858.14000065661
1858.14000065695
1858.14000065737
1858.14000065787
1858.14000065847
1858.14000065915
1858.14000065992
1858.14000066071
1858.1400006617
1858.14000066803
1858.14000073538
1858.14000109844
1858.14000111454
1858.14000113443
1858.14000111788
1858.14000074711
1858.14000067912
1858.14000067263
1858.14000067132
1858.14000067013
1858.14000066895
1858.14000066783
1858.14000066677
1858.14000066577
1858.14000066484
1858.14000066397
1858.14000066316
1858.14000066239
1858.14000066167
1858.140000661
1858.14000066037
1858.14000065978
1858.14000065922
1858.1400006587
1858.14000065821
1858.14000065776
1858.14000065734
1858.14000065695
1858.1400006566
1858.14000065628
1858.14000065601
1858.14000065576
1858.14000065557
1858.14000065541
1858.1400006553
1858.14000065524
1858.14000065523
1858.14000065528
1858.1400006554
1858.14000065558
1858.14000065584
1858.14000065618
1858.14000065661
1858.14000065712
1858.14000065774
1858.14000065845
1858.14000065926
1858.14000066012
1858.14000066119
1858.14000066761
1858.14000073505
1858.14000109811
1858.14000111429
1858.14000113351
1858.14000111686
1858.1400007463
1858.14000067825
1858.14000067165
1858.14000067025
1858.140000669
1858.14000066778
1858.14000066664
1858.14000066557
1858.14000066458
1858.14000066366
1858.14000066281
1858.14000066201
1858.14000066126
1858.14000066057
1858.14000065991
1858.1400006593
1858.14000065873
1858.14000065819
1858.14000065768
1858.14000065721
1858.14000065678
1858.14000065637
1858.140000656
1858.14000065566
1858.14000065536
1858.14000065509
1858.14000065486
1858.14000065467
1858.14000065452
1858.14000065441
1858.14000065436
1858.14000065435
1858.14000065441
1858.14000065453
1858.14000065471
1858.14000065497
1858.14000065532
1858.14000065575
1858.14000065628
1858.14000065691
1858.14000065766
1858.14000065851
1858.14000065944
1858.14000066061
1858.14000066715
1858.1400007347
1858.14000109778
1858.14000111407
1858.14000113258
1858.1400011158
1858.14000074544
1858.14000067729
1858.14000067056
1858.14000066906
1858.14000066774
1858.14000066648
1858.14000066532
1858.14000066425
1858.14000066326
1858.14000066236
1858.14000066152
1858.14000066074
1858.14000066002
1858.14000065934
1858.14000065871
1858.14000065812
1858.14000065757
1858.14000065705
1858.14000065657
1858.14000065611
1858.14000065569
1858.14000065531
1858.14000065495
1858.14000065462
1858.14000065433
1858.14000065408
1858.14000065385
1858.14000065367
1858.14000065353
1858.14000065343
1858.14000065338
1858.14000065338
1858.14000065344
1858.14000065356