/*--------------------------------*- C++ -*----------------------------------*\
  =========                 |
  \\      /  F ield         | OpenFOAM: The Open Source CFD Toolbox
   \\    /   O peration     | Website:  https://openfoam.org
    \\  /    A nd           | Version:  10
     \\/     M anipulation  |
\*---------------------------------------------------------------------------*/
FoamFile
{
    format      ascii;
    class       volScalarField;
    location    "1.2";
    object      k;
}
// * * * * * * * * * * * * * * * * * * * * * * * * * * * * * * * * * * * * * //

dimensions      [0 2 -2 0 0 0 0];

internalField   nonuniform List<scalar> 
2500
(
8.81290055611569e-07
1.26790878538605e-06
1.84581261541118e-06
2.0612829225966e-06
2.11858887393226e-06
2.13114573011472e-06
2.13354954181769e-06
2.13396557787851e-06
2.13403176425373e-06
2.13404199629657e-06
2.13404300708913e-06
2.13404204115364e-06
2.13404142301987e-06
2.13404077177709e-06
2.1340400187813e-06
2.13403933573535e-06
2.1340389062038e-06
2.13403856674284e-06
2.13403826532427e-06
2.13403798746715e-06
2.13403773001374e-06
2.13403749066892e-06
2.13403727063952e-06
2.1340370706495e-06
2.13403688978634e-06
2.13403672687539e-06
2.13403658408036e-06
2.13403646149528e-06
2.13403635969288e-06
2.13403628098395e-06
2.13403622565762e-06
2.13403619806159e-06
2.13403625873365e-06
2.13403635739862e-06
2.13403644845692e-06
2.13403662907356e-06
2.13403702551218e-06
2.13403733954089e-06
2.13403734972904e-06
2.1340373419069e-06
2.13403352734599e-06
2.13400933769513e-06
2.13387813806893e-06
2.13319391055041e-06
2.12986665223212e-06
2.11499985163743e-06
2.05538668939639e-06
1.84876656572097e-06
1.27952777497018e-06
8.87134825590345e-07
2.13812953784044e-06
1.07050200177019e-05
2.71448875327615e-05
3.37953876016349e-05
3.56834169376951e-05
3.61174056541105e-05
3.62034801376476e-05
3.62187864716844e-05
3.62212882862659e-05
3.62216718330525e-05
3.62217083565087e-05
3.62216900758972e-05
3.62216742164496e-05
3.62216574700125e-05
3.62216393891508e-05
3.622162329784e-05
3.62216118872617e-05
3.62216028065905e-05
3.62215948670191e-05
3.6221587678576e-05
3.62215811217488e-05
3.62215751481416e-05
3.62215697366243e-05
3.62215648783133e-05
3.62215605698561e-05
3.62215568237348e-05
3.62215536414142e-05
3.62215510447422e-05
3.62215490548214e-05
3.62215476905119e-05
3.62215470117119e-05
3.62215471810095e-05
3.62215507687199e-05
3.62215555806465e-05
3.62215556117642e-05
3.62215600568422e-05
3.6221570608447e-05
3.62215798413911e-05
3.62215830430361e-05
3.62215741279939e-05
3.62214329404374e-05
3.62205556064192e-05
3.62158167931185e-05
3.61915485550405e-05
3.60761287263014e-05
3.55749408494215e-05
3.3641112713771e-05
2.72937704331299e-05
1.10825486338765e-05
2.23343252690868e-06
3.23669994583427e-06
3.49947080016888e-05
0.000111367334148564
0.000141741812514052
0.000150775464505947
0.000152957669996056
0.000153409752147768
0.000153493200454714
0.000153507296118359
0.00015350950672383
0.000153509756675199
0.000153509712584084
0.000153509657173818
0.000153509600032282
0.000153509539737314
0.000153509486260175
0.000153509445368495
0.000153509412286057
0.000153509383372209
0.000153509357190827
0.000153509333250024
0.000153509311382351
0.000153509291496884
0.000153509273569239
0.000153509257581164
0.000153509243558128
0.00015350923151176
0.000153509221518395
0.000153509213632979
0.000153509207949113
0.000153509204637698
0.000153509204120137
0.000153509209322409
0.000153509225780881
0.000153509241518031
0.000153509243452137
0.000153509266863649
0.000153509288859593
0.000153509302770607
0.000153509233954908
0.000153508457102318
0.000153503910382934
0.0001534795338133
0.000153356426439187
0.000152780884578125
0.000150337026898259
0.000141175452829549
0.000112056413274768
3.62618255906736e-05
3.41697640759691e-06
3.9433635656482e-06
5.25371589256548e-05
0.00017126346620738
0.000217650213990925
0.000231672690845861
0.000235142373543637
0.000235880393364338
0.000236020322738504
0.000236044595504085
0.000236048494356856
0.000236048990311448
0.000236048969294047
0.000236048904138637
0.000236048833518437
0.000236048759644835
0.000236048693981932
0.000236048641893663
0.0002360485987775
0.000236048560678261
0.000236048525912394
0.000236048493871632
0.000236048464361316
0.000236048437271494
0.000236048412577368
0.000236048390252448
0.000236048370318971
0.000236048352788251
0.000236048337739536
0.000236048325224656
0.000236048315356743
0.000236048308289298
0.000236048304331853
0.000236048304931993
0.000236048317143129
0.000236048331096676
0.000236048346267015
0.000236048357166202
0.000236048373059528
0.000236048394501812
0.000236048262292877
0.000236047104350618
0.000236040469843176
0.000236004315751748
0.000235819489766244
0.000234945237289591
0.000231195867646657
0.000217041413909452
0.000171895231603068
5.37454822477938e-05
4.11903029032706e-06
4.34081979658868e-06
6.34342727616609e-05
0.000210209891077625
0.000267167918585687
0.000284635791712177
0.000289044162947997
0.000290002882792666
0.000290188953007819
0.000290222005627815
0.000290227446747566
0.00029022820589168
0.00029022823292536
0.000290228176181376
0.000290228108924035
0.000290228038783816
0.000290227975708997
0.000290227923808795
0.000290227879681952
0.000290227840100204
0.000290227803605635
0.00029022776965052
0.000290227738073201
0.000290227708782957
0.000290227681772901
0.000290227657021015
0.000290227634560531
0.000290227614398748
0.000290227596605314
0.000290227581222476
0.000290227568353963
0.000290227558114872
0.000290227550718571
0.000290227546755156
0.000290227548891644
0.000290227559227477
0.000290227570251161
0.000290227582599353
0.000290227585296552
0.000290227595304352
0.000290227403115358
0.000290226046958599
0.000290218187057791
0.000290174912437066
0.000289951488149873
0.000288884593078078
0.000284272916815584
0.000266777588895042
0.000210931069983071
6.45444409494617e-05
4.50819791578356e-06
4.54725154780228e-06
6.95601042351445e-05
0.000233483349414267
0.000297049881515572
0.00031677578976132
0.000321832267289623
0.00032295171045519
0.00032317319688953
0.000323213339329166
0.000323220095872076
0.000323221100838662
0.000323221181854902
0.000323221140693269
0.000323221084130393
0.000323221024842572
0.000323220970526119
0.000323220924064565
0.000323220883359495
0.000323220846187428
0.000323220811498379
0.00032322077888555
0.000323220748250901
0.000323220719539614
0.000323220692771119
0.000323220667936785
0.000323220645081662
0.000323220624211569
0.000323220605387853
0.000323220588640112
0.00032322057405417
0.000323220561705998
0.000323220551745926
0.000323220544436044
0.000323220540750249
0.00032322054176489
0.000323220548668429
0.000323220550393805
0.000323220552005812
0.000323220539409095
0.000323220312423265
0.000323218851962131
0.00032321029326496
0.000323162886297052
0.000322916480122665
0.000321732263750526
0.000316587023057139
0.000297012146881836
0.000234543850488081
7.07194365480166e-05
4.71491669113136e-06
4.64854500226529e-06
7.27614229724139e-05
0.00024645376770583
0.000313931886231263
0.000335060579463581
0.000340540523960163
0.000341770430849923
0.000342017493652072
0.000342063007445924
0.000342070810315067
0.000342072023702028
0.000342072155692797
0.000342072129347644
0.000342072084422496
0.000342072036633964
0.00034207199182886
0.000342071951956166
0.00034207191591411
0.000342071882358428
0.000342071850640752
0.000342071820506196
0.000342071791924239
0.000342071764877365
0.000342071739411087
0.000342071715531608
0.00034207169329322
0.000342071672702639
0.000342071653815973
0.00034207163665024
0.000342071621273703
0.000342071607729813
0.000342071596123544
0.000342071586580019
0.000342071579490231
0.000342071575284463
0.000342071574436558
0.000342071573301746
0.000342071569949321
0.000342071540408642
0.000342071298008534
0.000342069774856548
0.000342060836963879
0.000342011160021307
0.000341751864659328
0.000340500638814543
0.000335046839191054
0.00031426408620393
0.000247965388803545
7.40556285652156e-05
4.82079429166991e-06
4.6961079809032e-06
7.43428526715533e-05
0.000253272311316488
0.000322948619551782
0.000344905196303087
0.000350647653931641
0.000351949445352358
0.000352213956580612
0.000352263306010563
0.000352271889731954
0.00035227326557918
0.000352273438242578
0.000352273426557521
0.000352273391411113
0.00035227335296426
0.000352273316008388
0.000352273281878128
0.00035227325010426
0.000352273219968994
0.000352273191136986
0.00035227316348013
0.000352273137024743
0.000352273111783983
0.000352273087824304
0.000352273065164044
0.000352273043864333
0.00035227302393337
0.000352273005423769
0.000352272988342663
0.000352272972744139
0.000352272958647771
0.000352272946126351
0.000352272935238199
0.000352272926160878
0.000352272919066362
0.000352272914125104
0.000352272909807142
0.000352272902278012
0.000352272864015396
0.000352272611089509
0.000352271053142767
0.000352261919793427
0.000352211063921152
0.000351944955115872
0.000350657738183982
0.000345036349290739
0.000323594304329
0.000255206961096617
7.57796785064921e-05
4.87333861539524e-06
4.71766181599189e-06
7.50898506548045e-05
0.000256685402033137
0.000327539794773893
0.000349962330027257
0.000355859799130921
0.000357206073830591
0.000357481883379881
0.000357533827762044
0.000357542962732757
0.000357544456837894
0.000357544659958616
0.000357544659631534
0.00035754463164759
0.000357544599823779
0.000357544568507198
0.000357544538673543
0.000357544510207464
0.000357544482782807
0.000357544456276165
0.000357544430650424
0.000357544405973264
0.000357544382279923
0.000357544359651446
0.000357544338114654
0.000357544317735254
0.000357544298522724
0.000357544280527146
0.000357544263748871
0.000357544248231807
0.000357544233979343
0.000357544221042787
0.000357544209444337
0.000357544199274302
0.000357544190591827
0.000357544183424828
0.000357544176835573
0.000357544166445064
0.000357544123420609
0.000357543864070702
0.000357542287823568
0.000357533058496194
0.000357481621582206
0.000357212101390102
0.000355906594622872
0.000350199094071377
0.00032841614596423
0.000258946362179497
7.66387723918094e-05
4.89870546906347e-06
4.72714529010654e-06
7.54300568082976e-05
0.000258324823230347
0.000329784432313855
0.00035245822158872
0.000358443274646673
0.000359815847933783
0.000360098635549622
0.000360152251676317
0.000360161756707947
0.000360163332301193
0.00036016355674132
0.000360163564407471
0.000360163541271678
0.000360163513800351
0.000360163486241294
0.000360163459382475
0.000360163433288113
0.000360163407853969
0.000360163383085714
0.000360163359004975
0.000360163335706211
0.000360163313238951
0.000360163291693209
0.000360163271101084
0.000360163251530833
0.000360163232992774
0.000360163215535022
0.000360163199153612
0.000360163183885543
0.000360163169724111
0.000360163156706879
0.000360163144835806
0.00036016313416171
0.000360163124691526
0.000360163116384257
0.000360163108456201
0.000360163096358597
0.000360163050766163
0.000360162787810675
0.000360161202391171
0.000360151928013447
0.000360100218015744
0.000359829070424538
0.000358514709773974
0.000352765037720799
0.000330813807981719
0.000260806845617167
7.70539170237576e-05
4.91065579979769e-06
4.73121428640069e-06
7.55803638478115e-05
0.000259085276200137
0.000330844440746964
0.000353648634613403
0.00035968125631244
0.000361068752492469
0.000361355670376339
0.000361410317005439
0.000361420059222981
0.000361421688563479
0.000361421927303217
0.000361421940333183
0.000361421920345921
0.000361421895631163
0.000361421870490549
0.000361421845625756
0.000361421821184106
0.00036142179717666
0.000361421773681134
0.000361421750753769
0.000361421728504777
0.00036142170699213
0.000361421686310679
0.000361421666495524
0.000361421647616102
0.000361421629683007
0.000361421612742829
0.000361421596788995
0.000361421581853985
0.00036142156792503
0.000361421555031274
0.000361421543163305
0.000361421532352769
0.000361421522581631
0.000361421513775731
0.000361421505185631
0.000361421492203183
0.000361421445313453
0.000361421180496126
0.00036141959070897
0.000361410296074688
0.00036135846310752
0.000361086571511837
0.000359768101514482
0.000353998610152543
0.000331967528407282
0.000261703618661065
7.7249290548379e-05
4.91616295590161e-06
4.73292190748821e-06
7.5645077052307e-05
0.000259427656809803
0.000331330341688134
0.000354199969742617
0.000360257533621547
0.000361653192729074
0.000361942463788373
0.000361997720949958
0.000362007609032295
0.000362009272478599
0.000362009520523567
0.000362009537097936
0.000362009519149663
0.000362009496193846
0.000362009472632313
0.000362009449134418
0.000362009425880533
0.000362009402935597
0.000362009380413694
0.000362009358389642
0.000362009336981847
0.000362009316252839
0.000362009296299447
0.000362009277158253
0.000362009258898792
0.000362009241531723
0.00036200922510223
0.0003620092096022
0.000362009195061067
0.000362009181462583
0.000362009168830649
0.000362009157149698
0.00036200914644147
0.000362009136676316
0.000362009127764956
0.000362009118964565
0.00036200910564434
0.000362009058209896
0.000362008792561018
0.000362007200857996
0.000361997897539381
0.000361946011340403
0.000361673792057105
0.000360353482676254
0.000354574998359162
0.000332507275403235
0.000262124244774429
7.73391243895555e-05
4.91865021701651e-06
4.73362423128043e-06
7.56723162610071e-05
0.000259577887221902
0.000331547411186164
0.000354448910427849
0.000360519150497262
0.000361919131065407
0.000362209697780318
0.000362265303993685
0.000362275278522028
0.000362276962879484
0.00036227721685405
0.000362277235788218
0.000362277219194574
0.000362277197407364
0.000362277174927255
0.00036227715241747
0.000362277130065945
0.000362277107958053
0.00036227708622379
0.000362277064946829
0.00036227704424922
0.000362277024195447
0.000362277004882875
0.000362276986348583
0.00036227696866157
0.00036227695183243
0.000362276935905106
0.000362276920870528
0.000362276906755941
0.000362276893543133
0.000362276881252677
0.000362276869865617
0.000362276859398549
0.000362276849816932
0.00036227684102667
0.000362276832290263
0.00036227681896934
0.00036227677142014
0.000362276505512641
0.000362274913101271
0.000362265606295128
0.000362213697913425
0.000361941338907809
0.000360620231148714
0.000354837785532853
0.000332753718883938
0.000262316912454374
7.73795803172074e-05
4.91975256918706e-06
4.73390869055464e-06
7.56835508701827e-05
0.000259642326589999
0.000331642217848019
0.000354558840854583
0.00036063534783918
0.000362037550491623
0.000362328809073364
0.000362384608532171
0.000362394632607958
0.000362396329412033
0.000362396587168674
0.000362396607738468
0.000362396592111076
0.000362396571175846
0.000362396549513838
0.000362396527792655
0.000362396506194776
0.000362396484809181
0.00036239646377085
0.000362396443166967
0.000362396423120326
0.00036239640369604
0.000362396384990851
0.00036239636704189
0.000362396349917247
0.000362396333627313
0.000362396318214752
0.000362396303669945
0.000362396290018404
0.000362396277240761
0.000362396265355274
0.000362396254341143
0.00036239624421223
0.000362396234933021
0.000362396226411891
0.000362396217925152
0.000362396204838385
0.000362396157440585
0.000362395891601812
0.00036239429908193
0.000362384991067858
0.000362333073842061
0.00036206065690435
0.00036073921123475
0.000354955062711223
0.000332863875859559
0.000262403334200944
7.73974549506849e-05
4.92023268522826e-06
4.73402775155452e-06
7.5688103217784e-05
0.000259669405241892
0.000331682798378147
0.000354606436970405
0.000360685968124251
0.000362089284247374
0.000362380902287752
0.000362436805667705
0.00036244685729797
0.000362448561360607
0.000362448821591193
0.000362448843377386
0.000362448828513333
0.000362448808276008
0.00036244878730297
0.000362448766266998
0.000362448745341089
0.000362448724612785
0.000362448704217674
0.000362448684243699
0.000362448664813095
0.000362448645990764
0.000362448627872405
0.000362448610494852
0.000362448593925155
0.000362448578173467
0.00036244856328126
0.000362448549238438
0.000362448536069142
0.000362448523753198
0.000362448512307043
0.000362448501708923
0.000362448491971138
0.000362448483059827
0.000362448474892863
0.000362448466777351
0.000362448454102204
0.000362448407020939
0.000362448141426126
0.000362446549084183
0.000362437240832428
0.000362385320305782
0.000362112879894677
0.000360791293799237
0.000355006426551972
0.000332912195435593
0.000262441374160346
7.74052129621452e-05
4.92044103270026e-06
4.73409245093245e-06
7.5689925509665e-05
0.00025968055906693
0.000331699843939326
0.000354626675044727
0.000360707635536997
0.00036211149717871
0.000362403297487377
0.000362459255322406
0.000362469321901743
0.000362471030202795
0.000362471292184577
0.000362471314987623
0.000362471300826516
0.000362471281261527
0.000362471260957106
0.000362471240584363
0.000362471220312908
0.000362471200231321
0.000362471180474738
0.00036247116113087
0.000362471142320526
0.000362471124108086
0.000362471106587813
0.0003624710897962
0.000362471073799051
0.000362471058606222
0.000362471044257988
0.000362471030743904
0.000362471018086665
0.00036247100626544
0.000362470995295067
0.000362470985153104
0.000362470975850864
0.000362470967357915
0.000362470959609027
0.000362470951969057
0.000362470939892544
0.000362470893262553
0.00036247062802361
0.000362469036015311
0.000362459727953593
0.000362407806389261
0.000362135356648621
0.000360813712662747
0.000355028545173096
0.000332933029395097
0.000262457824798763
7.74085268612376e-05
4.92054266678312e-06
4.73412466721395e-06
7.56906190354498e-05
0.000259685051526902
0.000331706869585956
0.00035463513088212
0.00036071675566986
0.000362120879652319
0.000362412770490122
0.000362468756255339
0.00036247883083986
0.000362480541729191
0.000362480805115586
0.000362480828846663
0.000362480815392601
0.00036248079653635
0.000362480776932153
0.00036248075724208
0.000362480737641188
0.000362480718222153
0.000362480699120041
0.000362480680422046
0.000362480662247505
0.000362480644660118
0.000362480627752786
0.000362480611561612
0.000362480596151219
0.0003624805815311
0.000362480567740303
0.000362480554767981
0.000362480542635277
0.000362480531320605
0.000362480520837085
0.000362480511161403
0.000362480502303915
0.000362480494237868
0.000362480486920405
0.00036248047980478
0.00036248046848415
0.000362480422382448
0.000362480157551837
0.000362478565958655
0.0003624692582841
0.0003624173366018
0.000362144883216453
0.000360823215068522
0.000355037921568477
0.000332941866025798
0.000262464814425909
7.74099297247595e-05
4.92059980312234e-06
4.73414805545109e-06
7.56908834059655e-05
0.000259686812342838
0.000331709696399642
0.000354638592774905
0.000360720523490224
0.000362124772156369
0.000362416707311558
0.000362472707242917
0.000362482786188291
0.000362484498864961
0.000362484763566854
0.000362484788184728
0.000362484775465526
0.000362484757396887
0.000362484738569884
0.000362484719633024
0.000362484700767943
0.000362484682071967
0.000362484663680283
0.000362484645679858
0.000362484628188627
0.000362484611269726
0.000362484595014831
0.000362484579459794
0.000362484564668009
0.000362484550648605
0.000362484537439287
0.000362484525028632
0.000362484513435914
0.000362484502638413
0.000362484492647038
0.000362484483437231
0.000362484475017494
0.000362484467362978
0.000362484460449718
0.000362484453824894
0.000362484443265703
0.000362484397658203
0.000362484133255167
0.000362482542152714
0.000362473235013661
0.0003624213136554
0.00036214885894176
0.000360827180145556
0.000355041831829197
0.000332945546733775
0.00026246772266887
7.74105324468475e-05
4.92063018115711e-06
4.7341663427492e-06
7.56910491204923e-05
0.000259687470202851
0.000331710789911629
0.00035463997073414
0.000360722042829328
0.000362126350781576
0.000362418307587696
0.000362474314707956
0.000362484396117647
0.000362486110215309
0.000362486376266692
0.000362486401724583
0.000362486389749804
0.000362486372529998
0.000362486354538184
0.00036248633640948
0.000362486318329858
0.00036248630040032
0.000362486282756343
0.00036248626548497
0.000362486248703121
0.00036248623247376
0.00036248621688746
0.000362486201980065
0.000362486187814032
0.000362486174397988
0.000362486161768304
0.000362486149912818
0.000362486138848616
0.000362486128551342
0.000362486119029294
0.000362486110256048
0.000362486102237165
0.000362486094945573
0.000362486088358579
0.000362486082048469
0.000362486071780264
0.000362486026442325
0.00036248576242188
0.000362484171841934
0.000362474865320048
0.000362422944488929
0.000362150489387991
0.000360828805082184
0.000355043430070439
0.000332947040301402
0.000262468891816048
7.74108069302284e-05
4.92062542822212e-06
4.73414804329247e-06
7.56911439619763e-05
0.000259687652493779
0.000331711166271008
0.00035464048784284
0.000360722629241632
0.000362126966044665
0.000362418933381092
0.000362474943920961
0.000362485026591114
0.000362486741856415
0.00036248700925788
0.000362487035774839
0.000362487024637398
0.00036248700830653
0.000362486991186448
0.000362486973903189
0.00036248695664445
0.000362486939513501
0.000362486922645822
0.0003624869061287
0.000362486890078336
0.000362486874557536
0.000362486859655949
0.0003624868454096
0.000362486831880165
0.000362486819075766
0.000362486807031244
0.000362486795733752
0.000362486785197814
0.0003624867753971
0.000362486766336858
0.000362486757988404
0.000362486750353547
0.000362486743398903
0.000362486737080952
0.000362486730898001
0.00036248672043095
0.000362486675225533
0.000362486411634346
0.000362484821624793
0.000362475515749783
0.000362423595519834
0.000362151140535268
0.000360829452430492
0.000355044061601336
0.000332947616013906
0.000262469313790875
7.74109053953987e-05
4.92061723462789e-06
4.73413478676225e-06
7.56911166090979e-05
0.000259687609679855
0.000331711248363488
0.000354640651926626
0.000360722832542348
0.000362127184994755
0.0003624191579958
0.00036247517038084
0.000362485253898587
0.000362486970199522
0.000362487238853387
0.000362487266625765
0.000362487256289972
0.00036248724084001
0.000362487224593153
0.000362487208160706
0.000362487191729334
0.000362487175403278
0.000362487159317669
0.000362487143560072
0.000362487128246122
0.000362487113438286
0.000362487099225336
0.000362487085643624
0.000362487072754454
0.000362487060565147
0.000362487049108986
0.000362487038372481
0.000362487028367416
0.000362487019065173
0.000362487010467791
0.000362487002543956
0.000362486995291548
0.000362486988669512
0.000362486982606089
0.000362486976500121
0.000362486965834346
0.000362486920704729
0.000362486657411238
0.000362485067690674
0.000362475762081992
0.000362423842049175
0.000362151387477898
0.000360829694570144
0.00035504428980792
0.000332947806068015
0.000262469417371545
7.74108831423409e-05
4.9206179515042e-06
4.73414889801808e-06
7.56909222587063e-05
0.000259687465517319
0.000331711211686506
0.000354640671058443
0.000360722877972878
0.000362127240375484
0.000362419216909176
0.000362475230569098
0.000362485314767012
0.000362487031745876
0.000362487301327991
0.000362487329937894
0.00036248732009604
0.000362487305320276
0.000362487289785032
0.000362487274075383
0.000362487258372197
0.000362487242777511
0.000362487227423706
0.000362487212397108
0.000362487197811181
0.000362487183726534
0.000362487170229905
0.000362487157357528
0.00036248714517037
0.000362487133674172
0.00036248712290049
0.000362487112835608
0.000362487103489204
0.000362487094830728
0.000362487086859643
0.000362487079542987
0.000362487072876116
0.000362487066813238
0.000362487061263414
0.000362487055560047
0.000362487045137237
0.00036248700032299
0.000362486737269235
0.000362485147696735
0.000362475842166905
0.000362423922026172
0.000362151466620686
0.000360829769264109
0.00035504435053573
0.000332947833513109
0.000262469398248722
7.74108737234096e-05
4.92063776551422e-06
4.73411878342334e-06
7.56906877637128e-05
0.000259687306083424
0.000331711131518846
0.000354640635864981
0.000360722862111946
0.000362127231296874
0.00036241921001602
0.000362475224409134
0.000362485309009247
0.000362487026416351
0.000362487296789074
0.000362487326072151
0.000362487316556064
0.000362487302338178
0.000362487287421214
0.000362487272359321
0.000362487257325152
0.000362487242416896
0.000362487227762855
0.00036248721344755
0.000362487199581317
0.00036248718622169
0.000362487173452701
0.000362487161310152
0.000362487149855713
0.000362487139092109
0.000362487129048781
0.000362487119712798
0.000362487111092619
0.000362487103154877
0.000362487095896778
0.000362487089284181
0.000362487083310714
0.000362487077928406
0.000362487073035611
0.000362487067932625
0.000362487058034227
0.000362487013738831
0.000362486751076293
0.000362485161859871
0.000362475856661907
0.000362423936649644
0.000362151479598694
0.000360829780268812
0.000355044350048814
0.000332947803276713
0.000262469320278836
7.74107802738776e-05
4.9206279980974e-06
4.73406895985927e-06
7.5690565624041e-05
0.00025968715559449
0.000331711037440218
0.000354640578718326
0.000360722820646077
0.000362127195104912
0.000362419175413314
0.000362475190336431
0.000362485275344639
0.000362486993345053
0.000362487264700582
0.000362487294729633
0.000362487285689184
0.000362487272144097
0.000362487257944506
0.000362487243616324
0.000362487229324979
0.000362487215165401
0.000362487201262407
0.000362487187700293
0.000362487174586332
0.000362487161974508
0.00036248714994648
0.000362487138537579
0.000362487127813346
0.00036248711777021
0.000362487108434946
0.000362487099791508
0.000362487091846733
0.000362487084568084
0.000362487077951293
0.000362487071960814
0.000362487066587602
0.000362487061781723
0.000362487057436658
0.000362487052838619
0.000362487043396194
0.000362486999553425
0.000362486737311038
0.000362485148515689
0.000362475843751056
0.000362423924064123
0.00036215146644837
0.000360829764669239
0.000355044324137439
0.000332947749853233
0.00026246921564397
7.74106037232553e-05
4.92059822693624e-06
4.73405944789476e-06
7.56904845326382e-05
0.000259687020123002
0.000331710943133005
0.000354640515158842
0.000360722770413949
0.00036212714930341
0.000362419130901193
0.000362475146258796
0.00036248523166789
0.000362486950316575
0.000362487222651405
0.000362487253426877
0.000362487244906505
0.000362487232060354
0.000362487218599317
0.000362487205021909
0.000362487191487446
0.00036248717808678
0.000362487164940977
0.000362487152136543
0.000362487139776144
0.00036248712790941
0.000362487116616036
0.000362487105929611
0.000362487095908914
0.000362487086555156
0.000362487077894559
0.000362487069909871
0.000362487062606815
0.000362487055952118
0.000362487049939446
0.000362487044531911
0.000362487039717513
0.000362487035443847
0.000362487031603531
0.000362487027479245
0.000362487018477648
0.00036248697505901
0.000362486713218835
0.000362485124843808
0.000362475820536578
0.000362423901240697
0.000362151443385822
0.000360829739276936
0.000355044289497098
0.000332947691050739
0.000262469116173882
7.74105125428701e-05
4.92058322834074e-06
4.73405616707515e-06
7.56904196909598e-05
0.000259686894419462
0.000331710849517182
0.000354640448037742
0.000360722715027135
0.000362127097818902
0.000362419080539136
0.000362475096287579
0.000362485182101458
0.000362486901413379
0.000362487174694468
0.00036248720620723
0.000362487198222988
0.000362487186081274
0.000362487173368603
0.00036248716055108
0.000362487147784128
0.000362487135151448
0.000362487122768445
0.000362487110714566
0.000362487099092955
0.000362487087955256
0.00036248707738006
0.000362487067399546
0.00036248705806905
0.000362487049391571
0.000362487041393255
0.000362487034056736
0.000362487027386872
0.00036248702134891
0.00036248701593343
0.000362487011102492
0.000362487006841113
0.00036248700309288
0.000362486999753139
0.000362486996108031
0.000362486987562349
0.000362486944564951
0.000362486683103593
0.000362485095133657
0.000362475791295252
0.000362423872436913
0.000362151414510698
0.000360829708332611
0.000355044250313875
0.000332947630731464
0.0002624690238972
7.74104505059105e-05
4.92056304022514e-06
4.73405386794764e-06
7.56903610526662e-05
0.00025968677369448
0.000331710756097602
0.000354640378415289
0.000360722656108007
0.000362127042472657
0.000362419026219296
0.000362475042339278
0.000362485128569734
0.000362486848541225
0.000362487122717623
0.000362487154952773
0.000362487147500773
0.000362487136033036
0.000362487124057302
0.000362487111984456
0.000362487099957586
0.000362487088060036
0.00036248707640562
0.000362487065070197
0.000362487054156055
0.000362487043716071
0.000362487033828269
0.00036248702452393
0.000362487015856524
0.000362487007830333
0.000362487000471911
0.000362486993764795
0.000362486987713337
0.000362486982279825
0.000362486977449801
0.000362486973185132
0.00036248696946862
0.000362486966236303
0.000362486963391594
0.00036248696023124
0.000362486952155398
0.000362486909565011
0.000362486648421269
0.000362485060802551
0.000362475757419264
0.00036242383903229
0.000362151381171019
0.000360829673246328
0.000355044207892656
0.000332947569540431
0.000262468936264525
7.74103998727525e-05
4.92055744701543e-06
4.73405174308642e-06
7.56903028978079e-05
0.000259686647956559
0.000331710654393994
0.000354640298927842
0.000360722586716641
0.000362126976459397
0.000362418961180214
0.000362474977669497
0.000362485064341119
0.000362486784965779
0.000362487059982707
0.00036248709294972
0.000362487086028029
0.00036248707513915
0.000362487063871398
0.000362487052517764
0.000362487041208982
0.000362487030025018
0.000362487019078076
0.000362487008442026
0.000362486998217815
0.000362486988459065
0.000362486979243303
0.000362486970601498
0.000362486962586266
0.000362486955203536
0.000362486948481517
0.000362486942406291
0.000362486936982104
0.000362486932164936
0.000362486927930352
0.000362486924241951
0.000362486921083243
0.000362486918375844
0.000362486916040685
0.000362486913396916
0.000362486905832753
0.00036248686364299
0.000362486602733905
0.000362485015400675
0.0003624757124721
0.000362423794635159
0.000362151337070075
0.000360829627945564
0.000355044156491032
0.000332947501838606
0.000262468846754379
7.74103536736638e-05
4.92055546235865e-06
4.7340496114599e-06
7.56902415124788e-05
0.000259686503989175
0.000331710530348923
0.000354640195765112