/*--------------------------------*- C++ -*----------------------------------*\
  =========                 |
  \\      /  F ield         | OpenFOAM: The Open Source CFD Toolbox
   \\    /   O peration     | Website:  https://openfoam.org
    \\  /    A nd           | Version:  10
     \\/     M anipulation  |
\*---------------------------------------------------------------------------*/
FoamFile
{
    format      ascii;
    class       volScalarField;
    location    "1.2";
    object      nut;
}
// * * * * * * * * * * * * * * * * * * * * * * * * * * * * * * * * * * * * * //

dimensions      [0 2 -1 0 0 0 0];

internalField   nonuniform List<scalar> 
2500
(
6.86033906494507e-12
9.8662059992711e-12
1.43639004527675e-11
1.60407795754344e-11
1.64867459434396e-11
1.65844648669653e-11
1.66031715811814e-11
1.66064093287446e-11
1.66069245454894e-11
1.66070042401516e-11
1.66070122216347e-11
1.66070047811754e-11
1.66070000171701e-11
1.66069950113233e-11
1.6606989208075e-11
1.6606983958291e-11
1.66069806460864e-11
1.66069780454792e-11
1.66069757472053e-11
1.66069736165094e-11
1.66069716463876e-11
1.66069698328861e-11
1.66069681621216e-11
1.66069666026395e-11
1.66069651958197e-11
1.66069639571814e-11
1.66069628504847e-11
1.66069619045775e-11
1.66069611301027e-11
1.66069604986977e-11
1.66069600535721e-11
1.66069598312305e-11
1.66069602893103e-11
1.66069610366892e-11
1.66069617162901e-11
1.66069630990516e-11
1.66069661579613e-11
1.66069685808521e-11
1.66069686145913e-11
1.66069685118191e-11
1.66069387780075e-11
1.66067504769503e-11
1.66057294110547e-11
1.66004046670921e-11
1.65745115817212e-11
1.64588163569374e-11
1.5994893964542e-11
1.43868839357026e-11
9.9566079063229e-12
6.90583588246872e-12
6.73582244526281e-11
7.59157189026779e-10
1.92551335355981e-09
2.39737466728559e-09
2.53132642165796e-09
2.56211595924311e-09
2.56822242987775e-09
2.56930831153119e-09
2.56948579989392e-09
2.56951301086335e-09
2.56951560484251e-09
2.56951430996262e-09
2.56951318549608e-09
2.56951199849693e-09
2.56951071678417e-09
2.5695095763779e-09
2.56950876789541e-09
2.56950812439382e-09
2.56950756125495e-09
2.56950705222875e-09
2.56950659105022e-09
2.5695061733645e-09
2.56950579380182e-09
2.56950544727254e-09
2.56950513951852e-09
2.56950487523131e-09
2.56950464769385e-09
2.56950446514992e-09
2.56950432749037e-09
2.56950422662504e-09
2.56950417670685e-09
2.56950419182448e-09
2.56950444160501e-09
2.56950477533744e-09
2.56950477509312e-09
2.56950508955598e-09
2.56950583736109e-09
2.56950649184876e-09
2.56950671797938e-09
2.56950608468379e-09
2.56949606762105e-09
2.56943382669103e-09
2.56909764156508e-09
2.56737597083129e-09
2.55918759097825e-09
2.52363045282025e-09
2.38642887931795e-09
1.93607320611035e-09
7.85926723001404e-10
7.03591366656914e-11
1.0243032005412e-10
9.9699307938922e-09
2.20372029542487e-06
2.80486425539929e-06
2.98364475793218e-06
3.02683063840605e-06
3.035777219504e-06
3.03742862391087e-06
3.03770756909432e-06
3.03775131473756e-06
3.03775626289578e-06
3.03775539187842e-06
3.0377542945337e-06
3.03775316331068e-06
3.03775196922093e-06
3.03775090994404e-06
3.03775010025998e-06
3.03774944526821e-06
3.03774887282406e-06
3.03774835495894e-06
3.03774788290542e-06
3.03774745204016e-06
3.03774705989775e-06
3.03774670539574e-06
3.03774638756141e-06
3.03774610980713e-06
3.03774587204753e-06
3.03774567410048e-06
3.03774551746942e-06
3.03774540316828e-06
3.03774533723528e-06
3.03774532850095e-06
3.03774542919373e-06
3.03774575060544e-06
3.03774606057471e-06
3.03774609848069e-06
3.0377465615859e-06
3.0377469968773e-06
3.03774727210044e-06
3.03774591028416e-06
3.03773053714852e-06
3.03764056104624e-06
3.03715816399844e-06
3.03472192989227e-06
3.0233321356978e-06
2.97496825511014e-06
2.79365635129403e-06
2.2173563319824e-06
1.03309042765902e-08
1.08132587063683e-10
1.24996080425815e-10
1.49895529034118e-08
3.39349247462795e-06
4.31267827314508e-06
4.59054037421619e-06
4.65929311142903e-06
4.6739170957127e-06
4.67668981036909e-06
4.67717077679017e-06
4.67724803094725e-06
4.67725785808191e-06
4.67725744285035e-06
4.67725615141209e-06
4.67725475111014e-06
4.67725328639822e-06
4.67725198435605e-06
4.67725095194177e-06
4.67725009757634e-06
4.67724934186793e-06
4.67724865277747e-06
4.67724801848571e-06
4.67724743416311e-06
4.67724689800948e-06
4.67724640839735e-06
4.67724596484709e-06
4.67724556988207e-06
4.67724522283639e-06
4.67724492407096e-06
4.67724467533591e-06
4.67724447894522e-06
4.67724433825928e-06
4.67724426003766e-06
4.67724427105099e-06
4.67724451124704e-06
4.67724478688327e-06
4.67724508710091e-06
4.67724530285917e-06
4.67724561831532e-06
4.6772460432016e-06
4.6772434230504e-06
4.67722047942286e-06
4.67708901727142e-06
4.67637262319139e-06
4.67271028652694e-06
4.65538686922309e-06
4.58109223918778e-06
4.30061549451727e-06
3.40601147310657e-06
1.53342882946326e-08
1.30562299986711e-10
1.37662012198687e-10
1.81061260088407e-08
4.16675472620074e-06
5.29579126346359e-06
5.64204287590619e-06
5.72942619802344e-06
5.74843003435998e-06
5.7521183321411e-06
5.75277350318069e-06
5.75288135634029e-06
5.75289640383804e-06
5.75289694011338e-06
5.75289581495569e-06
5.75289448118107e-06
5.75289309028803e-06
5.75289183949385e-06
5.75289081048547e-06
5.75288993572385e-06
5.7528891505623e-06
5.75288842692163e-06
5.75288775385211e-06
5.75288712773275e-06
5.75288654711231e-06
5.75288601134603e-06
5.75288552016135e-06
5.75288507476348e-06
5.75288467498931e-06
5.75288432195479e-06
5.75288401659745e-06
5.75288376102216e-06
5.75288355764948e-06
5.75288341085847e-06
5.75288333189391e-06
5.75288337366015e-06
5.7528835781248e-06
5.75288379629752e-06
5.75288404098871e-06
5.75288409448712e-06
5.75288429259692e-06
5.75288048295637e-06
5.75285360166079e-06
5.75269780266338e-06
5.75184001096681e-06
5.74741128217702e-06
5.72626320757246e-06
5.63485004923256e-06
5.28805454810443e-06
4.18105041768379e-06
1.84229978417567e-08
1.42969205745211e-10
1.4422768175006e-10
1.98567067985805e-08
4.628515327538e-06
5.8886486418099e-06
6.27969181656725e-06
6.37993051205919e-06
6.40212213868338e-06
6.40651284191885e-06
6.40730861743917e-06
6.40744255731252e-06
6.40746247934475e-06
6.40746408535701e-06
6.40746326907359e-06
6.40746214741967e-06
6.4074609717636e-06
6.40745989470165e-06
6.40745897340794e-06
6.40745816627321e-06
6.40745742901836e-06
6.40745674107781e-06
6.40745609434641e-06
6.40745548676021e-06
6.40745491735012e-06
6.40745438637142e-06
6.40745389369849e-06
6.40745344037861e-06
6.40745302640003e-06
6.4074526529713e-06
6.40745232065275e-06
6.40745203113797e-06
6.40745178605233e-06
6.40745158835725e-06
6.40745144316804e-06
6.40745136980758e-06
6.40745138965258e-06
6.40745152623273e-06
6.40745156028262e-06
6.40745159210302e-06
6.40745134218569e-06
6.40744684233031e-06
6.40741789043203e-06
6.40724822464002e-06
6.40630843858784e-06
6.40142373257085e-06
6.3779480619606e-06
6.27594978046677e-06
5.88790076626521e-06
4.64953864852844e-06
2.01876501491275e-08
1.49545278755809e-10
1.47445263718209e-10
2.07710642692441e-08
4.88574511957126e-06
6.22344545132317e-06
6.64230503789314e-06
6.75094056848923e-06
6.77532248848828e-06
6.78022031038889e-06
6.78112258468701e-06
6.78127727005773e-06
6.78130132429048e-06
6.78130394073734e-06
6.78130341821839e-06
6.78130252734595e-06
6.78130157970606e-06
6.78130069121336e-06
6.78129990049807e-06
6.78129918573539e-06
6.78129852021918e-06
6.7812978911481e-06
6.78129729347543e-06
6.78129672655798e-06
6.78129619008218e-06
6.78129568493366e-06
6.78129521123372e-06
6.78129477009127e-06
6.7812943616154e-06
6.78129398692548e-06
6.78129364633774e-06
6.78129334121372e-06
6.78129307244552e-06
6.78129284210188e-06
6.78129265265336e-06
6.78129251185718e-06
6.78129242824308e-06
6.78129241119381e-06
6.7812923885e-06
6.78129232185605e-06
6.78129173604219e-06
6.78128693048206e-06
6.7812567350745e-06
6.78107954844472e-06
6.7800947428586e-06
6.77495442042619e-06
6.75014987135386e-06
6.64203265402565e-06
6.23003109718367e-06
4.91571183289152e-06
2.11405185801738e-08
1.52908667157143e-10
1.48955012364329e-10
2.12226243237475e-08
5.02094127363129e-06
6.40222430916937e-06
6.83749775127524e-06
6.95133786428994e-06
6.97714494665647e-06
6.98238869208003e-06
6.98336700901524e-06
6.98353717495861e-06
6.98356444996173e-06
6.98356787269597e-06
6.98356764082053e-06
6.9835669438251e-06
6.98356618138878e-06
6.98356544850127e-06
6.98356477161804e-06
6.98356414144727e-06
6.98356354374602e-06
6.98356297187403e-06
6.98356242329861e-06
6.98356189853717e-06
6.98356139785708e-06
6.98356092257093e-06
6.98356047304458e-06
6.98356005049934e-06
6.98355965509073e-06
6.98355928786523e-06
6.98355894895949e-06
6.98355863945015e-06
6.98355835973093e-06
6.98355811124236e-06
6.98355789513935e-06
6.98355771494511e-06
6.9835575740675e-06
6.98355747588178e-06
6.98355739007053e-06
6.98355724061158e-06
6.98355648188692e-06
6.98355146762798e-06
6.98352058228057e-06
6.98333952003114e-06
6.98233133868656e-06
6.97705592229743e-06
6.95153776917727e-06
6.84009776049362e-06
6.41502455413924e-06
5.05929432195774e-06
2.16327944345201e-08
1.54576532130305e-10
1.49638918085222e-10
2.14358926909381e-08
5.08860831698824e-06
6.49324710962143e-06
6.93775819193388e-06
7.05467139186968e-06
7.08136034584838e-06
7.08682807707178e-06
7.08785783796558e-06
7.08803893220448e-06
7.08806855161208e-06
7.08807257813773e-06
7.08807257143106e-06
7.08807201643044e-06
7.08807138529292e-06
7.088070764199e-06
7.08807017249163e-06
7.08806960788857e-06
7.08806906392253e-06
7.08806853814881e-06
7.08806802983516e-06
7.08806754032424e-06
7.08806707031662e-06
7.08806662141925e-06
7.08806619416575e-06
7.0880657898608e-06
7.08806540869136e-06
7.08806505165252e-06
7.08806471875139e-06
7.08806441085951e-06
7.08806412804545e-06
7.08806387132655e-06
7.08806364114262e-06
7.08806343928565e-06
7.08806326692795e-06
7.08806312462162e-06
7.08806299377962e-06
7.08806278759117e-06
7.08806193446587e-06
7.08805679284925e-06
7.08802554467683e-06
7.08784257955641e-06
7.08682287857638e-06
7.08147982923164e-06
7.05559907096402e-06
6.94245186552239e-06
6.51062015415537e-06
5.13343026514474e-06
2.18780632319012e-08
1.55381411908052e-10
1.49939771635977e-10
2.1533015541829e-08
5.12110959476605e-06
6.53774656185533e-06
6.9872386383514e-06
7.10588814540684e-06
7.13309845442692e-06
7.13870452176749e-06
7.1397674239852e-06
7.13995585445348e-06
7.13998708930953e-06
7.13999153847623e-06
7.13999169023075e-06
7.1399912313418e-06
7.13999068648939e-06
7.1399901398853e-06
7.13998960715197e-06
7.13998908956505e-06
7.13998858505916e-06
7.13998809374823e-06
7.13998761606318e-06
7.13998715387811e-06
7.13998670817638e-06
7.13998628074375e-06
7.13998587221784e-06
7.13998548395315e-06
7.13998511615492e-06
7.13998476977822e-06
7.13998444474536e-06
7.13998414179052e-06
7.13998386078171e-06
7.13998360246409e-06
7.13998336687657e-06
7.13998315502762e-06
7.13998296705485e-06
7.13998280214516e-06
7.13998264476303e-06
7.13998240473252e-06
7.13998150069989e-06
7.13997628760561e-06
7.13994485759294e-06
7.13976099935106e-06
7.13873588452084e-06
7.13336057231142e-06
7.10730428810105e-06
6.99332104564745e-06
6.55815320960892e-06
5.17031395284537e-06
2.19965788378415e-08
1.55760518384041e-10
1.50068842688009e-10
2.15759240988891e-08
5.13618512175424e-06
6.55876057482842e-06
7.01083783390665e-06
7.13043035695247e-06
7.15793650215033e-06
7.1636244492254e-06
7.16470778044345e-06
7.16490091295829e-06
7.16493321331545e-06
7.16493794596124e-06
7.16493820404973e-06
7.16493780757845e-06
7.16493731737344e-06
7.16493681871371e-06
7.16493632551126e-06
7.16493584068867e-06
7.16493536446683e-06
7.16493489838803e-06
7.16493444356895e-06
7.16493400219606e-06
7.16493357542002e-06
7.16493316512261e-06
7.16493277200089e-06
7.16493239743262e-06
7.16493204162881e-06
7.16493170551412e-06
7.16493138895917e-06
7.16493109260861e-06
7.16493081621001e-06
7.16493056034172e-06
7.16493032481757e-06
7.1649301102655e-06
7.16492991632823e-06
7.16492974153564e-06
7.16492957103097e-06
7.16492931346095e-06
7.16492838371243e-06
7.1649231337107e-06
7.16489161711457e-06
7.16470735730086e-06
7.16367980467913e-06
7.15828974304936e-06
7.13215199365997e-06
7.0177758462701e-06
6.58102499704215e-06
5.18809193046341e-06
2.20523525253797e-08
1.55935207748047e-10
1.50123005104968e-10
2.15943974450512e-08
5.14297249592238e-06
6.56839311386388e-06
7.02176755192276e-06
7.14185453416722e-06
7.16952250322779e-06
7.17525710026423e-06
7.1763525348426e-06
7.17654855902079e-06
7.17658153550044e-06
7.17658645261551e-06
7.17658678096947e-06
7.17658642492017e-06
7.17658596958569e-06
7.17658550223111e-06
7.17658503612767e-06
7.17658457485299e-06
7.17658411969614e-06
7.17658367292041e-06
7.17658323601065e-06
7.17658281131576e-06
7.17658240007673e-06
7.17658200421451e-06
7.17658162445562e-06
7.17658126217969e-06
7.17658091759909e-06
7.17658059161054e-06
7.1765802840541e-06
7.17657999551408e-06
7.17657972566907e-06
7.17657947499348e-06
7.1765792431792e-06
7.17657903065765e-06
7.17657883684139e-06
7.1765786599607e-06
7.17657848528974e-06
7.17657822102617e-06
7.17657728048187e-06
7.17657201399829e-06
7.17654045942518e-06
7.17635602745709e-06
7.17532741957315e-06
7.16993086186138e-06
7.1437566484316e-06
7.02920222397653e-06
6.59172499608759e-06
5.19643046627252e-06
2.20779970496463e-08
1.56014099694334e-10
1.50145278941534e-10
2.16021729507178e-08
5.14595059627234e-06
6.57269622067385e-06
7.02670247266248e-06
7.14704074886363e-06
7.17479438724905e-06
7.18055466962461e-06
7.18165702388503e-06
7.1818547617895e-06
7.1818881528168e-06
7.18189318748178e-06
7.18189356261744e-06
7.18189323342343e-06
7.18189280125682e-06
7.18189235534199e-06
7.1818919088287e-06
7.18189146544439e-06
7.18189102688324e-06
7.18189059572397e-06
7.18189017362694e-06
7.18188976301324e-06
7.1818893651626e-06
7.18188898200662e-06
7.1818886142816e-06
7.18188826335654e-06
7.18188792944255e-06
7.18188761341173e-06
7.18188731508518e-06
7.18188703500377e-06
7.18188677280718e-06
7.18188652890384e-06
7.18188630291847e-06
7.18188609518051e-06
7.18188590500554e-06
7.18188573052841e-06
7.18188555712888e-06
7.18188529285451e-06
7.18188435003844e-06
7.18187907843135e-06
7.18184750981997e-06
7.18166300872194e-06
7.1806339611078e-06
7.17523463362238e-06
7.14904459348525e-06
7.03441164159211e-06
6.59661042113453e-06
5.20024985471289e-06
2.20895455206673e-08
1.56049061923154e-10
1.50154298259774e-10
2.16053795980742e-08
5.14722794345951e-06
6.57457554535651e-06
7.0288816049511e-06
7.14934411559348e-06
7.17714180460661e-06
7.18291580262415e-06
7.18402198781346e-06
7.18422070795582e-06
7.18425434572744e-06
7.18425945536933e-06
7.18425986293063e-06
7.18425955289278e-06
7.1842591376173e-06
7.18425870792227e-06
7.18425827704422e-06
7.1842578486024e-06
7.18425742436242e-06
7.18425700700182e-06
7.18425659825052e-06
7.18425620054433e-06
7.18425581517547e-06
7.1842554440631e-06
7.1842550879446e-06
7.18425474817094e-06
7.18425442494917e-06
7.18425411912603e-06
7.18425383051176e-06
7.18425355961283e-06
7.18425330604602e-06
7.18425307017388e-06
7.18425285158458e-06
7.18425265055335e-06
7.18425246637649e-06
7.18425229723787e-06
7.18425212879102e-06
7.18425186916196e-06
7.18425092935075e-06
7.1842456591098e-06
7.18421408835175e-06
7.18402956331562e-06
7.18300034040145e-06
7.17759986458155e-06
7.15140312621237e-06
7.03673641800868e-06
6.59879405459588e-06
5.20196298602033e-06
2.20946476843786e-08
1.56064287135292e-10
1.50158071268515e-10
2.16066786557804e-08
5.14776463950083e-06
6.5753798735927e-06
7.02982500173182e-06
7.15034746161997e-06
7.17816722376415e-06
7.18394834766205e-06
7.18505659298829e-06
7.18525585937341e-06
7.1852896410398e-06
7.18529479972596e-06
7.18529523140213e-06
7.18529493649797e-06
7.18529453505934e-06
7.18529411902434e-06
7.18529370173203e-06
7.18529328661369e-06
7.18529287540637e-06
7.18529247079964e-06
7.18529207453847e-06
7.18529168904751e-06
7.18529131561479e-06
7.18529095613885e-06
7.18529061135105e-06
7.18529028258181e-06
7.18528997003343e-06
7.18528967452904e-06
7.18528939586937e-06
7.18528913453375e-06
7.18528889012297e-06
7.18528866296347e-06
7.18528845262451e-06
7.18528825935036e-06
7.18528808247012e-06
7.18528792035592e-06
7.18528775927183e-06
7.18528750780634e-06
7.18528657427386e-06
7.18528130887313e-06
7.18524974164728e-06
7.18506521190767e-06
7.18403592358469e-06
7.17863498255094e-06
7.15243546094963e-06
7.03775450721279e-06
6.59975180353556e-06
5.20271698112654e-06
2.20968618516899e-08
1.56070892078931e-10
1.5016011997582e-10
2.16071983637324e-08
5.14798563677444e-06
6.57571763726623e-06
7.03022604419162e-06
7.15077683691347e-06
7.17860741293386e-06
7.18439215003693e-06
7.18550147486986e-06
7.18570103760442e-06
7.18573490329339e-06
7.18574009669595e-06
7.18574054853121e-06
7.18574026756358e-06
7.18573987945502e-06
7.18573947667668e-06
7.18573907253449e-06
7.18573867039251e-06
7.18573827200839e-06
7.18573788006266e-06
7.18573749629568e-06
7.18573712310382e-06
7.18573676176476e-06
7.18573641414849e-06
7.1857360809797e-06
7.18573576356398e-06
7.18573546209782e-06
7.18573517738057e-06
7.18573490920604e-06
7.18573465802491e-06
7.18573442342492e-06
7.18573420570082e-06
7.18573400440823e-06
7.18573381977187e-06
7.18573365118882e-06
7.18573349736621e-06
7.18573334571297e-06
7.18573310611865e-06
7.18573218153616e-06
7.18572692319433e-06
7.18569536258754e-06
7.1855108366238e-06
7.18448152775776e-06
7.17908040190248e-06
7.1528797332766e-06
7.0381928301105e-06
6.60016466908355e-06
5.20304298282052e-06
2.20978073575831e-08
1.56074112179229e-10
1.5016113835328e-10
2.16073958427006e-08
5.14807457709552e-06
6.57585676307954e-06
7.03039351197744e-06
7.15095747108965e-06
7.17879324718304e-06
7.18457977882668e-06
7.18568965732899e-06
7.18588937875538e-06
7.18592329575421e-06
7.18592851700246e-06
7.18592898723608e-06
7.18592872028635e-06
7.18592834622959e-06
7.1859279573346e-06
7.18592756672801e-06
7.18592717788186e-06
7.18592679263496e-06
7.18592641366644e-06
7.18592604270632e-06
7.18592568212184e-06
7.18592533317712e-06
7.1859249977152e-06
7.18592467645292e-06
7.18592437067257e-06
7.18592408056334e-06
7.18592380690029e-06
7.18592354946922e-06
7.18592330869009e-06
7.18592308413563e-06
7.18592287606654e-06
7.18592268402119e-06
7.18592250820529e-06
7.18592234808888e-06
7.18592220282261e-06
7.18592206156786e-06
7.1859218369622e-06
7.18592092285659e-06
7.18591567261381e-06
7.18588412024131e-06
7.18569960196143e-06
7.18467029078515e-06
7.17926909280612e-06
7.15306794579728e-06
7.03837854723012e-06
6.60033969591746e-06
5.20318142653206e-06
2.20982073200756e-08
1.56075920858093e-10
1.50161876714416e-10
2.16074708106792e-08
5.14810936446803e-06
6.57591264994584e-06
7.03046197828185e-06
7.15103199939112e-06
7.17887024660247e-06
7.18465765667113e-06
7.18576781598032e-06
7.18596762385232e-06
7.18600157628302e-06
7.1860068236104e-06
7.18600731142504e-06
7.18600705904468e-06
7.18600670060346e-06
7.18600632711775e-06
7.18600595144533e-06
7.18600557718862e-06
7.18600520627854e-06
7.18600484139661e-06
7.18600448426835e-06
7.18600413723314e-06
7.18600380154393e-06
7.18600347901941e-06
7.1860031703715e-06
7.18600287685804e-06
7.18600259866107e-06
7.18600233652893e-06
7.18600209023608e-06
7.18600186016537e-06
7.18600164586708e-06
7.18600144755806e-06
7.18600126475199e-06
7.18600109761789e-06
7.18600094566351e-06
7.18600080841406e-06
7.18600067689293e-06
7.18600046738619e-06
7.1859995630818e-06
7.18599432131964e-06
7.1859627786805e-06
7.18577827102524e-06
7.18474896630125e-06
7.17934774211981e-06
7.15314638462935e-06
7.03845590203408e-06
6.60041251017127e-06
5.20323895964167e-06
2.20983788661898e-08
1.56076880792803e-10
1.50162453279176e-10
2.16075176153036e-08
5.1481222865023e-06
6.57593417530748e-06
7.03048913204974e-06
7.15106195311267e-06
7.17890137498072e-06
7.18468921412786e-06
7.18579951592511e-06
7.1859993726453e-06
7.1860333532454e-06
7.18603862732585e-06
7.18603913179418e-06
7.18603889417285e-06
7.18603855256087e-06
7.18603819563425e-06
7.1860378359853e-06
7.18603747730232e-06
7.18603712158911e-06
7.18603677153291e-06
7.18603642886068e-06
7.18603609589169e-06
7.18603577387546e-06
7.18603546460879e-06
7.18603516880341e-06
7.18603488769861e-06
7.1860346214664e-06
7.18603437082874e-06
7.18603413554539e-06
7.18603391595582e-06
7.18603371157788e-06
7.18603352257667e-06
7.18603334842889e-06
7.18603318924523e-06
7.18603304448941e-06
7.18603291371182e-06
7.18603278843364e-06
7.18603258469951e-06
7.18603168574309e-06
7.18602645156986e-06
7.18599491929411e-06
7.18581042388252e-06
7.1847811296372e-06
7.17937989790788e-06
7.15317843180636e-06
7.03848742266076e-06
6.60044196588952e-06
5.20326201638728e-06
2.20984567099968e-08
1.56076726412273e-10
1.50161869352868e-10
2.16075441877786e-08
5.14812578070602e-06
6.5759414836127e-06
7.0304992200499e-06
7.15107341220494e-06
7.1789134053709e-06
7.18470145313803e-06
7.18581182269987e-06
7.18601170440275e-06
7.18604570814976e-06
7.18605100899509e-06
7.18605153445968e-06
7.18605131343943e-06
7.18605098945182e-06
7.18605064980879e-06
7.1860503069226e-06
7.18604996451568e-06
7.18604962463678e-06
7.18604928997317e-06
7.18604896225662e-06
7.18604864379213e-06
7.18604833582603e-06
7.18604804013681e-06
7.18604775743978e-06
7.18604748895871e-06
7.18604723485563e-06
7.18604699582211e-06
7.18604677160436e-06
7.18604656249104e-06
7.18604636796085e-06
7.18604618811846e-06
7.18604602239573e-06
7.18604587082901e-06
7.18604573275685e-06
7.18604560731685e-06
7.18604548456351e-06
7.18604527689151e-06
7.18604438056645e-06
7.18603915490737e-06
7.18600763394437e-06
7.18582315136541e-06
7.18479386906638e-06
7.17939263977411e-06
7.15319109897361e-06
7.03849977892593e-06
6.60045322576706e-06
5.20327026095966e-06
2.20984843058798e-08
1.56076462897752e-10
1.50161445382409e-10
2.1607535877418e-08
5.14812481235873e-06
6.57594295827644e-06
7.03050230957178e-06
7.15107727637173e-06
7.17891757912694e-06
7.1847057390553e-06
7.18581614516966e-06
7.18601604367048e-06
7.18605006794755e-06
7.18605539362133e-06
7.18605594397478e-06
7.18605573884812e-06
7.1860554323257e-06
7.1860551099959e-06
7.18605478397892e-06
7.18605445797666e-06
7.18605413405713e-06
7.18605381490059e-06
7.18605350224434e-06
7.1860531983821e-06
7.18605290455349e-06
7.1860526225196e-06
7.18605235300219e-06
7.18605209721763e-06
7.18605185531206e-06
7.18605162794619e-06
7.18605141485345e-06
7.18605121626817e-06
7.1860510316237e-06
7.1860508609611e-06
7.18605070366008e-06
7.18605055967911e-06
7.18605042820468e-06
7.18605030781457e-06
7.18605018659146e-06
7.18604997498404e-06
7.18604908016594e-06
7.18604386041293e-06
7.18601234518411e-06
7.18582786789374e-06
7.18479858953121e-06
7.17939736856217e-06
7.15319573315891e-06
7.03850413956494e-06
6.60045684023306e-06
5.20327219358769e-06
2.2098477440328e-08
1.56076482013288e-10
1.50161889487308e-10
2.16074798942776e-08
5.14812183484238e-06
6.57594207841395e-06
7.03050252551735e-06
7.15107801086759e-06
7.17891851023e-06
7.18470674005482e-06
7.1858171714162e-06
7.1860170833959e-06
7.18605112111184e-06
7.18605646518806e-06
7.18605703214598e-06
7.18605683681283e-06
7.18605654365781e-06
7.18605623543745e-06
7.18605592375191e-06
7.18605561218819e-06
7.1860553027705e-06
7.1860549981246e-06
7.1860546999632e-06
7.18605441053692e-06
7.18605413104859e-06
7.18605386321888e-06
7.18605360776723e-06
7.18605336590335e-06
7.18605313774199e-06
7.18605292390965e-06
7.18605272413525e-06
7.18605253861139e-06
7.18605236673311e-06
7.18605220849035e-06
7.18605206323025e-06
7.18605193086116e-06
7.18605181047571e-06
7.18605170027143e-06
7.18605158703377e-06
7.18605138024721e-06
7.18605049168541e-06
7.1860452766895e-06
7.18601376440116e-06
7.18582928868281e-06
7.18480000820946e-06
7.17939877083286e-06
7.15319704784771e-06
7.03850518005153e-06
6.60045723108633e-06
5.20327169370256e-06
2.20984742385224e-08
1.56077106868379e-10
1.50160930797787e-10
2.16074124510519e-08
5.14811855457922e-06
6.57594033637565e-06
7.03050166449856e-06
7.15107753029943e-06
7.17891816346816e-06
7.18470643648236e-06
7.18581688235222e-06
7.18601680230032e-06
7.18605084850525e-06
7.18605620825533e-06
7.18605678855956e-06
7.18605659968607e-06
7.1860563175925e-06
7.18605602163138e-06
7.18605572278967e-06
7.18605542449151e-06
7.1860551286848e-06
7.18605483791442e-06
7.18605455385723e-06
7.18605427870185e-06
7.18605401359011e-06
7.18605376018903e-06
7.18605351920947e-06
7.18605329187501e-06
7.18605307824068e-06
7.18605287889102e-06
7.18605269357046e-06
7.18605252244746e-06
7.18605236486121e-06
7.18605222075695e-06
7.18605208945836e-06
7.18605197083961e-06
7.18605186395008e-06
7.1860517667751e-06
7.18605166544378e-06
7.18605146905756e-06
7.186050590786e-06
7.18604538355021e-06
7.18601387832611e-06
7.18582940919565e-06
7.18480013129767e-06
7.17939886143097e-06
7.1531970999393e-06
7.03850500699687e-06
6.60045647844241e-06
5.20327002721396e-06
2.20984470485033e-08
1.56076793433769e-10
1.50159346961894e-10
2.16073770818815e-08
5.14811545164177e-06
6.57593831855982e-06
7.03050036827062e-06
7.15107654212891e-06
7.17891727920072e-06
7.18470558358517e-06
7.18581603993544e-06
7.18601596796887e-06
7.18605002593526e-06
7.18605540516937e-06
7.18605600026318e-06
7.18605582082047e-06
7.18605555206661e-06
7.18605527032915e-06
7.18605498603531e-06
7.1860547024659e-06
7.18605442150424e-06
7.18605414562604e-06
7.18605387650367e-06
7.18605361626506e-06
7.18605336598159e-06
7.18605312727323e-06
7.18605290084149e-06
7.18605268798672e-06
7.18605248863906e-06
7.18605230333019e-06
7.18605213174281e-06
7.18605197401323e-06
7.18605182949708e-06
7.18605169811035e-06
7.18605157914889e-06
7.18605147243387e-06
7.18605137697579e-06
7.18605129066335e-06
7.18605119934649e-06
7.18605101200392e-06
7.18605014270975e-06
7.18604494380774e-06
7.18601344693636e-06
7.18582898640527e-06
7.18479971498529e-06
7.17939843405183e-06
7.15319662461839e-06
7.03850432991876e-06
6.60045526612947e-06
5.20326783210982e-06
2.20983961356215e-08
1.56075845502844e-10
1.50159041764645e-10
2.16073534307526e-08
5.14811264641372e-06
6.57593629621124e-06
7.03049894491163e-06
7.15107538017223e-06
7.17891620442974e-06
7.18470453423962e-06
7.18581499917683e-06
7.18601493515272e-06
7.18604900597011e-06
7.18605440461882e-06
7.18605501451107e-06
7.18605484538011e-06
7.18605459048412e-06
7.18605432339027e-06
7.18605405398254e-06
7.18605378542061e-06
7.18605351950685e-06
7.18605325864262e-06
7.18605300454413e-06
7.18605275924785e-06
7.18605252373888e-06
7.18605229959824e-06
7.18605208749287e-06
7.18605188858906e-06
7.18605170291173e-06
7.18605153098161e-06
7.1860513724575e-06
7.18605122745356e-06
7.18605109531085e-06
7.18605097590441e-06
7.1860508685035e-06
7.18605077287071e-06
7.18605068796755e-06
7.1860506116656e-06
7.18605052974481e-06
7.18605035114567e-06
7.18604949026399e-06
7.18604429934013e-06
7.18601281080661e-06
7.18582835935212e-06
7.18479909571303e-06
7.17939781016918e-06
7.15319595516289e-06
7.03850347979439e-06
6.60045394718079e-06
5.20326573939337e-06
2.20983695933711e-08
1.56075366141109e-10
1.50158934212312e-10
2.16073344184312e-08
5.14811003482847e-06
6.57593428756908e-06
7.03049745094618e-06
7.15107411602766e-06
7.17891501699733e-06
7.18470336892344e-06
7.18581384158229e-06
7.18601378557794e-06
7.18604786954303e-06
7.18605328695129e-06
7.186053911461e-06
7.18605375296002e-06
7.18605351203097e-06
7.1860532597752e-06
7.18605300543423e-06
7.18605275209048e-06
7.18605250140453e-06
7.18605225566548e-06
7.18605201644957e-06
7.18605178580276e-06
7.18605156475e-06
7.18605135485044e-06
7.18605115674305e-06
7.18605097152584e-06
7.18605079925919e-06
7.18605064046227e-06
7.18605049479163e-06
7.18605036234428e-06
7.18605024243197e-06
7.18605013486852e-06
7.18605003890234e-06
7.18604995423688e-06
7.18604987975423e-06
7.18604981338003e-06
7.18604974096286e-06
7.18604957140624e-06
7.18604871887975e-06
7.18604353547025e-06
7.18601205497265e-06
7.18582761282118e-06
7.18479835788461e-06
7.17939707105657e-06
7.15319517564269e-06
7.03850253961087e-06
6.60045259816325e-06
5.20326378928136e-06
2.20983513706924e-08
1.5607472217368e-10
1.50158857798179e-10
2.1607317176994e-08
5.14810752194069e-06
6.57593228281859e-06
7.03049590739456e-06
7.15107278185884e-06
7.17891375301008e-06
7.18470212514837e-06
7.18581260514628e-06
7.18601255739547e-06
7.18604665443559e-06
7.18605208959335e-06
7.18605272842506e-06
7.186052580477e-06
7.18605235291099e-06
7.18605211526677e-06
7.18605187569103e-06
7.18605163702166e-06
7.18605140091215e-06
7.18605116962003e-06
7.18605094465035e-06
7.18605072803209e-06
7.18605052081466e-06
7.1860503245459e-06
7.18605013984698e-06
7.1860499677789e-06
7.18604980842745e-06
7.18604966231992e-06
7.18604952913072e-06
7.18604940894686e-06
7.18604930102138e-06
7.18604920506823e-06
7.18604912033202e-06
7.18604904647229e-06
7.18604898222144e-06
7.1860489256651e-06
7.1860488628621e-06
7.18604870262403e-06
7.18604785817064e-06
7.18604268106221e-06
7.18601120753253e-06
7.18582677441236e-06
7.18479752884882e-06
7.17939624343831e-06
7.15319431401213e-06
7.03850153523736e-06
6.6004512318647e-06
5.20326193123434e-06
2.20983364034597e-08
1.56074541140267e-10
1.50158786911635e-10
2.16073000735716e-08
5.14810490967689e-06
6.57593011384553e-06
7.03049416827897e-06
7.1510712400879e-06
7.17891227755942e-06
7.18470066887453e-06
7.18581115616713e-06
7.18601111715729e-06
7.18604522714554e-06
7.18605067896684e-06
7.18605133230838e-06
7.18605119487488e-06
7.18605097878627e-06
7.1860507551795e-06
7.18605052986417e-06
7.18605030543316e-06
7.18605008347297e-06
7.18604986620919e-06
7.18604965510741e-06
7.18604945217001e-06
7.18604925846112e-06
7.18604907551874e-06
7.18604890395783e-06
7.18604874482246e-06
7.18604859823104e-06
7.18604846474366e-06
7.18604834408517e-06
7.18604823634048e-06
7.18604814063758e-06
7.18604805649265e-06
7.1860479831846e-06
7.18604792038702e-06
7.18604786654645e-06
7.18604782009574e-06
7.18604776753788e-06
7.18604761744776e-06
7.18604678094083e-06
7.18604160848889e-06
7.18601014062407e-06
7.18582571652711e-06
7.18479648189616e-06
7.17939520248739e-06
7.15319324988851e-06
7.03850035283549e-06
6.60044973649608e-06
5.20326003596924e-06
2.20983227020262e-08
1.56074474566141e-10
1.50158715810589e-10
2.16072820479601e-08
5.14810193602982e-06