/*--------------------------------*- C++ -*----------------------------------*\
  =========                 |
  \\      /  F ield         | OpenFOAM: The Open Source CFD Toolbox
   \\    /   O peration     | Website:  https://openfoam.org
    \\  /    A nd           | Version:  10
     \\/     M anipulation  |
\*---------------------------------------------------------------------------*/
FoamFile
{
    format      ascii;
    class       volScalarField;
    location    "1.2";
    object      omega;
}
// * * * * * * * * * * * * * * * * * * * * * * * * * * * * * * * * * * * * * //

dimensions      [0 0 -1 0 0 0 0];

internalField   nonuniform List<scalar> 
2500
(
128461.588744904
128510.268838875
128503.578918604
128502.664904974
128502.548726135
128502.532171524
128502.529253864
128502.527887516
128502.526666406
128502.526129126
128502.525235034
128502.524643856
128502.524285751
128502.523805301
128502.523367911
128502.522859964
128502.522624829
128502.522307108
128502.521940721
128502.521696406
128502.521438214
128502.521058536
128502.520737469
128502.520761999
128502.520756984
128502.520531609
128502.520496581
128502.52043434
128502.520297022
128502.520443239
128502.520556048
128502.520614784
128502.520723633
128502.520881693
128502.52110617
128502.521282499
128502.521484885
128502.521646331
128502.521998749
128502.52232297
128502.522702865
128502.523155091
128502.523752337
128502.524687194
128502.528821483
128502.548772042
128502.676788783
128503.613011922
128510.41107661
128461.614305437
31742.6647631448
14101.1903363853
14097.4808004199
14096.8318647913
14096.7267723312
14096.7099962096
14096.7074021587
14096.7070044231
14096.7069316986
14096.7069168029
14096.7069000263
14096.7068894916
14096.706886311
14096.7068809956
14096.7068759625
14096.7068699933
14096.7068646858
14096.7068610206
14096.7068605661
14096.7068555651
14096.7068338767
14096.7068005574
14096.7067768434
14096.7067871996
14096.7067988209
14096.7067908264
14096.706800637
14096.7067915287
14096.7067723131
14096.7067947142
14096.7068043977
14096.7067873473
14096.7068132774
14096.7068550747
14096.7068685255
14096.7068732685
14096.7068771663
14096.7068798217
14096.70688525
14096.7068900526
14096.706897852
14096.7069204755
14096.7070333131
14096.7076759396
14096.7113366282
14096.7314805007
14096.8427784807
14097.4888485566
14101.2492762085
31743.3191018353
31599.0416131096
3510.02516718846
50.5360568579294
50.5342860144489
50.5339866970096
50.5339373981639
50.5339295525886
50.5339283518972
50.5339281766764
50.5339281655754
50.5339281331492
50.5339281083987
50.5339281225118
50.5339281302831
50.5339281457805
50.5339281629917
50.5339281711676
50.5339281767207
50.5339281813308
50.5339281775044
50.5339281491662
50.5339281181041
50.5339280953995
50.5339280910324
50.5339281151761
50.5339281194487
50.5339281090983
50.5339281122839
50.5339281220829
50.5339281524406
50.533928159169
50.5339281340909
50.533928171576
50.533928242772
50.5339282668638
50.5339282729764
50.5339282759346
50.5339282755922
50.5339282765495
50.5339282772826
50.5339282813459
50.5339283229954
50.5339286022703
50.5339302848849
50.5339399446637
50.5339936451501
50.534294514841
50.5360422492785
3510.03403185554
31599.8765994984
31547.8977597909
3504.91834307459
50.4682027403514
50.4675285764363
50.4674116683743
50.4673923533258
50.4673892441752
50.4673887533021
50.4673886776648
50.4673886856178
50.4673886866371
50.4673886734353
50.4673886777342
50.4673886882924
50.4673886982518
50.4673887084642
50.4673887116677
50.4673887119732
50.4673887203952
50.4673887226891
50.4673887163364
50.4673887118294
50.4673887050842
50.4673887083597
50.467388721167
50.4673887210337
50.4673887175636
50.4673887238058
50.4673887319576
50.4673887412392
50.4673887482105
50.4673887461144
50.4673887555915
50.4673887746342
50.4673887838078
50.4673887878995
50.4673887901298
50.4673887843738
50.4673887842419
50.4673887892137
50.4673887812414
50.4673887906629
50.4673888862787
50.4673894391001
50.4673926978704
50.4674116074221
50.4675235872984
50.4681892472561
3504.92185976483
31548.3894718943
31532.4447700473
3503.47019183937
50.4493076484237
50.4491029374432
50.4490656970522
50.4490594621347
50.44905844887
50.4490582862893
50.449058261611
50.4490582667247
50.4490582688147
50.4490582651807
50.4490582685116
50.4490582737841
50.4490582788294
50.4490582834479
50.4490582855863
50.4490582862914
50.4490582913172
50.4490582934764
50.4490582935822
50.4490582952879
50.4490582955505
50.4490582988268
50.4490583036798
50.4490583053171
50.4490583064377
50.4490583093624
50.449058313213
50.4490583175621
50.4490583211897
50.4490583227832
50.4490583263072
50.4490583314212
50.4490583350341
50.4490583380022
50.4490583386543
50.449058338351
50.449058340671
50.4490583413288
50.4490583377289
50.4490583397978
50.4490583680702
50.4490585264058
50.4490594662247
50.4490650739323
50.4490992799369
50.4493007524943
3503.47112363919
31532.6499317464
31528.2856427137
3503.10375938659
50.4445449332588
50.4444906776221
50.4444802411471
50.4444784596483
50.4444781682354
50.4444781215384
50.4444781151099
50.4444781175916
50.4444781191627
50.4444781194419
50.4444781218389
50.4444781247059
50.4444781274428
50.4444781298423
50.4444781318129
50.4444781334392
50.444478136306
50.4444781384524
50.4444781402002
50.4444781424976
50.4444781444183
50.4444781469854
50.4444781498407
50.4444781517699
50.4444781537739
50.4444781559123
50.4444781583929
50.4444781612771
50.4444781636252
50.4444781655844
50.4444781677867
50.4444781701021
50.44447817222
50.4444781743776
50.4444781755866
50.4444781766547
50.4444781782517
50.4444781793482
50.4444781797021
50.4444781805091
50.4444781881728
50.4444782306232
50.4444784788079
50.4444799801431
50.444489245398
50.4445426133436
3503.10392866963
31528.355360722
31527.2588962191
3503.01852756542
50.443435274302
50.4434221664975
50.4434194985207
50.4434190325528
50.4434189561624
50.4434189443698
50.4434189434008
50.4434189449025
50.4434189462624
50.443418947478
50.4434189493197
50.443418951311
50.4434189533259
50.4434189553175
50.4434189573361
50.4434189592556
50.4434189615018
50.4434189636873
50.4434189657659
50.4434189680217
50.4434189702041
50.4434189724368
50.4434189747323
50.4434189768477
50.4434189789622
50.4434189810229
50.4434189831872
50.4434189853935
50.4434189874134
50.443418989338
50.4434189912411
50.4434189930775
50.4434189948491
50.443418996636
50.4434189981021
50.443418999477
50.4434190009185
50.4434190022125
50.4434190033346
50.4434190043284
50.4434190070195
50.4434190182832
50.443419080153
50.4434194535292
50.4434217585199
50.4434346912656
3503.01854159184
31527.2795276909
31527.022195245
3502.9999842369
50.4431933204656
50.4431903595207
50.4431897237202
50.4431896100131
50.4431895916131
50.4431895892763
50.4431895897502
50.4431895909599
50.4431895922591
50.4431895936574
50.4431895953013
50.4431895970575
50.4431895989
50.4431896008061
50.443189602795
50.4431896047933
50.443189606897
50.4431896090504
50.4431896112039
50.4431896133881
50.4431896155561
50.4431896177428
50.4431896199311
50.4431896220531
50.4431896241593
50.4431896262248
50.4431896282839
50.4431896303051
50.4431896322469
50.443189634128
50.443189635957
50.4431896377113
50.443189639401
50.4431896410538
50.4431896425762
50.4431896440161
50.4431896454303
50.443189646766
50.4431896480109
50.4431896491632
50.4431896506656
50.4431896541232
50.4431896693102
50.4431897572527
50.4431902946035
50.4431932313166
3502.99998161903
31527.0277333373
31526.9709000776
3502.99620069232
50.4431439881502
50.4431433525081
50.4431432093061
50.4431431832587
50.4431431794051
50.4431431794504
50.4431431802907
50.4431431814323
50.4431431827187
50.4431431841454
50.4431431857288
50.4431431874264
50.4431431892249
50.4431431911082
50.4431431930727
50.4431431950865
50.4431431971604
50.4431431992818
50.4431432014259
50.4431432035858
50.4431432057474
50.4431432079083
50.4431432100553
50.4431432121733
50.4431432142689
50.4431432163264
50.4431432183444
50.4431432203154
50.4431432222293
50.443143224085
50.4431432258839
50.4431432276142
50.4431432292774
50.4431432308829
50.4431432324104
50.4431432338614
50.4431432352534
50.4431432365791
50.4431432378351
50.4431432390208
50.4431432402354
50.4431432418357
50.4431432459843
50.4431432662192
50.4431433854454
50.4431440196443
3502.99620123867
31526.9722993785
31526.9607158204
3502.99551225283
50.4431351155545
50.4431349844596
50.4431349537936
50.443134948355
50.4431349479657
50.4431349485893
50.4431349495262
50.4431349506593
50.443134951946
50.4431349533761
50.4431349549416
50.4431349566228
50.4431349584067
50.4431349602787
50.4431349622284
50.4431349642375
50.4431349662983
50.4431349684004
50.4431349705282
50.443134972671
50.4431349748185
50.4431349769614
50.4431349790905
50.4431349811966
50.4431349832746
50.4431349853158
50.443134987314
50.443134989264
50.4431349911593
50.4431349929967
50.4431349947754
50.4431349964883
50.4431349981341
50.4431349997158
50.4431350012272
50.443135002668
50.4431350040415
50.4431350053483
50.4431350065902
50.4431350077659
50.4431350088972
50.4431350100592
50.4431350117082
50.4431350167108
50.4431350425017
50.4431351743424
3502.99551542983
31526.9610729598
31526.9592385464
3502.9954453586
50.443134361101
50.4431343349683
50.4431343288309
50.4431343280333
50.4431343284478
50.443134329217
50.4431343301862
50.443134331324
50.443134332614
50.4431343340447
50.4431343356041
50.443134337278
50.443134339053
50.4431343409157
50.4431343428535
50.4431343448523
50.4431343469007
50.4431343489872
50.4431343510995
50.4431343532265
50.4431343553582
50.4431343574849
50.4431343595974
50.4431343616876
50.4431343637482
50.443134365772
50.4431343677525
50.4431343696843
50.4431343715625
50.4431343733828
50.4431343751423
50.4431343768372
50.4431343784654
50.4431343800265
50.4431343815185
50.4431343829409
50.4431343842947
50.4431343855808
50.4431343868004
50.4431343879538
50.4431343890454
50.4431343900894
50.4431343911757
50.4431343928846
50.4431343987425
50.4431344256632
3502.9954495546
31526.9593499688
31526.959536807
3502.99549893867
50.443135174355
50.4431351693608
50.4431351683846
50.4431351686099
50.4431351692186
50.4431351700338
50.4431351710201
50.4431351721655
50.4431351734591
50.4431351748898
50.4431351764456
50.4431351781136
50.4431351798806
50.4431351817336
50.4431351836598
50.4431351856463
50.443135187681
50.4431351897524
50.4431351918489
50.4431351939596
50.4431351960745
50.4431351981839
50.443135200279
50.4431352023514
50.4431352043938
50.4431352063991
50.4431352083611
50.4431352102743
50.4431352121338
50.4431352139353
50.4431352156755
50.443135217351
50.4431352189599
50.4431352205006
50.4431352219719
50.4431352233735
50.4431352247055
50.4431352259687
50.4431352271638
50.4431352282912
50.4431352293516
50.443135230346
50.4431352312889
50.44313523229
50.4431352340381
50.4431352398052
3502.99550342564
31526.9595930959
31526.9601858324
3502.99557519711
50.4431362807752
50.44313627995
50.443136280046
50.4431362805066
50.4431362811742
50.4431362820128
50.4431362830123
50.4431362841652
50.4431362854622
50.4431362868927
50.4431362884451
50.4431362901068
50.4431362918653
50.4431362937079
50.4431362956219
50.4431362975949
50.443136299615
50.4431363016705
50.4431363037503
50.4431363058437
50.4431363079406
50.4431363100317
50.443136312108
50.4431363141614
50.4431363161844
50.4431363181702
50.4431363201125
50.4431363220058
50.4431363238452
50.4431363256266
50.4431363273463
50.4431363290013
50.4431363305892
50.4431363321086
50.443136333558
50.4431363349372
50.4431363362459
50.4431363374847
50.4431363386539
50.4431363397539
50.4431363407841
50.4431363417429
50.4431363426294
50.44313634346
50.4431363443634
50.4431363459664
3502.99557973295
31526.9602300448
31526.960902343
3502.99565562499
50.4431374405949
50.443137440599
50.4431374409314
50.4431374414606
50.4431374421572
50.4431374430135
50.4431374440248
50.4431374451848
50.4431374464846
50.4431374479144
50.4431374494628
50.4431374511177
50.4431374528671
50.4431374546985
50.4431374565996
50.4431374585582
50.4431374605626
50.4431374626014
50.4431374646635
50.4431374667385
50.4431374688165
50.443137470888
50.4431374729444
50.4431374749776
50.44313747698
50.443137478945
50.4431374808664
50.4431374827386
50.4431374845568
50.4431374863167
50.4431374880147
50.4431374896479
50.4431374912138
50.4431374927105
50.443137494137
50.4431374954924
50.4431374967766
50.4431374979898
50.4431374991321
50.4431375002036
50.4431375012034
50.4431375021291
50.443137502977
50.4431375037451
50.4431375044549
50.4431375052308
3502.9956601393
31526.9609437482
31526.9616315799
3502.99573680822
50.4431386099796
50.4431386101682
50.4431386105695
50.4431386111318
50.4431386118501
50.443138612722
50.4431386137442
50.4431386149104
50.4431386162126
50.4431386176411
50.4431386191849
50.4431386208326
50.4431386225721
50.4431386243916
50.443138626279
50.4431386282223
50.4431386302101
50.4431386322312
50.4431386342747
50.4431386363303
50.4431386383882
50.4431386404392
50.4431386424746
50.4431386444864
50.4431386464672
50.4431386484103
50.4431386503096
50.4431386521596
50.4431386539554
50.4431386556927
50.443138657368
50.4431386589781
50.4431386605207
50.4431386619938
50.4431386633961
50.4431386647267
50.4431386659854
50.4431386671719
50.4431386682865
50.4431386693287
50.4431386702976
50.4431386711906
50.4431386720034
50.4431386727309
50.4431386733739
50.4431386739626
3502.99574128104
31526.961672083
31526.9623632078
3502.99581813023
50.4431397811043
50.4431397813526
50.4431397817883
50.4431397823752
50.4431397831124
50.4431397839988
50.4431397850309
50.4431397862028
50.4431397875068
50.4431397889333
50.443139790472
50.4431397921117
50.4431397938408
50.4431397956477
50.4431397975206
50.4431397994479
50.4431398014183
50.4431398034208
50.4431398054448
50.4431398074801
50.443139809517
50.4431398115464
50.4431398135598
50.4431398155493
50.4431398175074
50.4431398194276
50.4431398213038
50.4431398231305
50.4431398249028
50.4431398266165
50.443139828268
50.4431398298541
50.4431398313723
50.4431398328207
50.4431398341978
50.4431398355026
50.4431398367347
50.4431398378938
50.4431398389797
50.4431398399921
50.4431398409297
50.44313984179
50.4431398425688
50.4431398432603
50.4431398438618
50.4431398443852
3502.99582255495
31526.9624031727
31526.9630953123
3502.99589948131
50.4431409525954
50.4431409528777
50.4431409533393
50.4431409539477
50.4431409547023
50.443140955602
50.4431409566432
50.4431409578202
50.4431409591252
50.4431409605493
50.4431409620823
50.4431409637134
50.4431409654315
50.4431409672251
50.4431409690829
50.4431409709935
50.4431409729457
50.4431409749289
50.4431409769325
50.4431409789466
50.4431409809617
50.4431409829686
50.4431409849591
50.4431409869253
50.4431409888599
50.4431409907562
50.4431409926083
50.4431409944108
50.4431409961587
50.4431409978478
50.4431409994745
50.4431410010356
50.4431410025285
50.4431410039513
50.4431410053023
50.4431410065804
50.4431410077851
50.4431410089159
50.4431410099725
50.4431410109545
50.4431410118605
50.4431410126881
50.4431410134332
50.4431410140903
50.4431410146563
50.443141015139
3502.99590385483
31526.9631347954
31526.9638275412
3502.99598084178
50.4431421242101
50.4431421245193
50.4431421250035
50.4431421256314
50.4431421264022
50.4431421273142
50.4431421283637
50.443142129545
50.4431421308505
50.4431421322717
50.4431421337984
50.4431421354205
50.443142137127
50.4431421389067
50.4431421407488
50.4431421426419
50.4431421445753
50.4431421465385
50.443142148521
50.4431421505132
50.4431421525056
50.4431421544894
50.4431421564562
50.4431421583982
50.4431421603083
50.44314216218
50.4431421640072
50.4431421657845
50.4431421675071
50.4431421691708
50.4431421707719
50.4431421723071
50.4431421737739
50.4431421751702
50.4431421764942
50.4431421777449
50.4431421789215
50.4431421800233
50.4431421810501
50.4431421820011
50.4431421828752
50.4431421836701
50.4431421843819
50.4431421850056
50.4431421855382
50.4431421859865
3502.99598516181
31526.9638665408
31526.9645598267
3502.99606220771
50.4431432958998
50.4431432962326
50.4431432967374
50.4431432973834
50.4431432981691
50.4431432990925
50.4431433001496
50.4431433013345
50.4431433026401
50.4431433040577
50.4431433055778
50.4431433071903
50.4431433088847
50.4431433106501
50.4431433124758
50.443143314351
50.443143316265
50.4431433182075
50.4431433201683
50.4431433221379
50.443143324107
50.4431433260668
50.4431433280091
50.4431433299264
50.4431433318113
50.4431433336576
50.4431433354591
50.4431433372106
50.4431433389071
50.4431433405446
50.4431433421193
50.4431433436279
50.4431433450678
50.4431433464368
50.4431433477332
50.4431433489558
50.4431433501035
50.4431433511758
50.4431433521722
50.443143353092
50.443143353934
50.4431433546962
50.443143355375
50.4431433559659
50.4431433564665
50.443143356883
3502.99606647236
31526.9645983246
31526.9652921517
3502.99614357784
50.4431444676484
50.4431444680029
50.4431444685265
50.4431444691892
50.4431444699889
50.4431444709229
50.4431444719868
50.443144473175
50.44314447448
50.4431444758936
50.4431444774066
50.4431444790091
50.4431444806909
50.4431444824416
50.4431444842505
50.4431444861072
50.4431444880013
50.4431444899226
50.4431444918612
50.4431444938076
50.4431444957527
50.443144497688
50.4431444996054
50.4431445014971
50.4431445033563
50.4431445051764
50.4431445069516
50.4431445086766
50.4431445103465
50.4431445119571
50.4431445135047
50.4431445149861
50.4431445163985
50.4431445177396
50.4431445190078
50.4431445202016
50.44314452132
50.4431445223622
50.4431445233278
50.4431445242161
50.4431445250258
50.4431445257552
50.4431445264012
50.4431445269599
50.4431445274295
50.4431445278159
3502.99614778565
31526.9653301374
31526.9660245081
3502.99622495144
50.4431456394457
50.4431456398202
50.4431456403613
50.4431456410397
50.4431456418524
50.4431456427962
50.4431456438664
50.4431456450572
50.4431456463612
50.4431456477705
50.4431456492759
50.4431456508681
50.443145652537
50.4431456542725
50.4431456560643
50.4431456579022
50.4431456597759
50.4431456616755
50.4431456635913
50.4431456655141
50.4431456674349
50.4431456693451
50.4431456712369
50.4431456731027
50.4431456749355
50.443145676729
50.4431456784774
50.4431456801753
50.443145681818
50.4431456834012
50.4431456849212
50.4431456863747
50.443145687759
50.4431456890718
50.4431456903112
50.4431456914758
50.4431456925643
50.4431456935762
50.4431456945106
50.443145695367
50.4431456961443
50.443145696841
50.4431456974545
50.4431456979815
50.4431456984209
50.4431456987783
3502.99622910093
31526.9660619674
31526.9667568896
3502.99630632778
50.4431468112817
50.443146811675
50.4431468122325
50.4431468129256
50.4431468137507
50.4431468147037
50.4431468157796
50.4431468169725
50.4431468182752
50.4431468196798
50.4431468211774
50.4431468227589
50.4431468244146
50.4431468261346
50.443146827909
50.4431468297276
50.4431468315806
50.4431468334582
50.443146835351
50.4431468372498
50.4431468391458
50.4431468410306
50.4431468428964
50.4431468447358
50.4431468465418
50.4431468483083
50.4431468500294
50.4431468516998
50.4431468533148
50.4431468548701
50.443146856362
50.4431468577874
50.4431468591431
50.4431468604271
50.4431468616374
50.4431468627723
50.4431468638307
50.4431468648117
50.4431468657148
50.443146866539
50.4431468672838
50.4431468679478
50.4431468685289
50.4431468690247
50.4431468694345
50.4431468697637
3502.99631041793
31526.9667938157
31526.9674892899
3502.9963877062
50.443147983147
50.443147983558
50.4431479841312
50.4431479848382
50.4431479856749
50.4431479866366
50.4431479877179
50.4431479889126
50.4431479902136
50.4431479916132
50.4431479931028
50.4431479946734
50.4431479963157
50.44314799802
50.4431479997766
50.4431480015758
50.4431480034079
50.4431480052632
50.4431480071327
50.4431480090071
50.443148010878
50.4431480127371
50.4431480145766
50.4431480163893
50.4431480181683
50.4431480199074
50.4431480216009
50.4431480232434
50.4431480248304
50.4431480263575
50.4431480278211
50.4431480292178
50.4431480305447
50.4431480317996
50.4431480329803
50.4431480340853
50.4431480351133
50.4431480360633
50.4431480369347
50.4431480377268
50.4431480384389
50.4431480390702
50.4431480396191
50.4431480400838
50.4431480404645
50.4431480407663
3502.99639173607
31526.9675256717
31526.9682217028
3502.99646908602
50.4431491550319
50.4431491554601
50.4431491560481
50.4431491567686
50.4431491576164
50.4431491585863
50.4431491596726
50.4431491608688
50.4431491621679
50.4431491635624
50.4431491650437
50.4431491666032
50.4431491682319
50.4431491699203
50.4431491716592
50.4431491734388
50.4431491752497
50.4431491770827
50.4431491789286
50.4431491807786
50.4431491826242
50.4431491844574
50.4431491862704
50.4431491880561
50.4431491898078
50.4431491915194
50.443149193185
50.4431491947995
50.4431491963582
50.4431491978569
50.4431491992919
50.4431492006597
50.4431492019576
50.4431492031831
50.4431492043341
50.443149205409
50.4431492064063
50.4431492073251
50.4431492081647
50.4431492089245
50.4431492096039
50.4431492102025
50.4431492107192
50.4431492111531
50.443149211505
50.4431492117799
3502.99647305503
31526.9682575359
31526.9689541225
3502.99655046657
50.4431503269271
50.443150327372
50.4431503279744
50.4431503287078
50.4431503295664
50.4431503305443
50.4431503316353
50.4431503328328
50.4431503341299
50.443150335519
50.443150336992
50.4431503385404
50.4431503401553
50.4431503418279
50.4431503435488
50.4431503453087
50.4431503470984
50.4431503489089
50.4431503507312
50.4431503525567
50.4431503543769
50.443150356184
50.4431503579705
50.4431503597292
50.4431503614536
50.4431503631373
50.443150364775
50.4431503663613
50.4431503678917
50.4431503693619
50.4431503707681
50.443150372107
50.4431503733757
50.4431503745717
50.4431503756929
50.4431503767375
50.4431503777041
50.4431503785916
50.4431503793993
50.4431503801267
50.4431503807735
50.4431503813393
50.4431503818239
50.4431503822271
50.4431503825504
50.4431503827984
3502.99655437436
31526.9689894047
31526.9696865428
3502.99663184716
50.4431514988227
50.4431514992838
50.4431514999004
50.4431515006465
50.4431515015156
50.4431515025013
50.4431515035969
50.4431515047956
50.4431515060906
50.4431515074743
50.4431515089389
50.4431515104761
50.4431515120774
50.443151513734
50.443151515437
50.4431515171772
50.4431515189458
50.4431515207338
50.4431515225325
50.4431515243334
50.4431515261284
50.4431515279095
50.4431515296694
50.4431515314011
50.443151533098
50.4431515347541
50.4431515363638
50.443151537922
50.4431515394239
50.4431515408655
50.443151542243
50.4431515435529
50.4431515447924
50.4431515459589
50.4431515470503
50.4431515480645
50.4431515490004
50.4431515498566
50.4431515506324
50.4431515513274
50.4431515519414
50.4431515524745
50.4431515529271
50.4431515532996
50.4431515535944
50.4431515538156
3502.9966356936
31526.9697212693
31526.9704189576
3502.99671322714
50.4431526707092
50.4431526711866
50.4431526718172
50.4431526725759
50.4431526734555
50.4431526744488
50.4431526755489
50.4431526767489
50.4431526780417
50.4431526794201
50.4431526808763
50.4431526824024
50.4431526839901
50.4431526856309
50.443152687316
50.4431526890367
50.4431526907842
50.4431526925499
50.4431526943251
50.4431526961016
50.4431526978713
50.4431526996265
50.4431527013599
50.4431527030647
50.4431527047343
50.4431527063628
50.4431527079447
50.4431527094747
50.4431527109484
50.4431527123615
50.4431527137104
50.4431527149914
50.4431527162018
50.4431527173389
50.4431527184004
50.4431527193845
50.4431527202896
50.4431527211146
50.4431527218585
50.4431527225211
50.4431527231024
50.4431527236028
50.4431527240232
50.4431527243651
50.4431527246312
50.4431527248256
3502.99671701229
31526.9704531327
31526.9711513607
3502.99679460584
50.4431538425772
50.443153843071
50.4431538437157
50.443153844487
50.4431538453771
50.4431538463782
50.4431538474828
50.443153848684
50.4431538499748
50.4431538513479
50.4431538527959
50.443153854311
50.4431538558852
50.4431538575103
50.4431538591778
50.4431538608791
50.4431538626057
50.4431538643492
50.4431538661011
50.4431538678534
50.4431538695981
50.4431538713275
50.4431538730348
50.4431538747128
50.4431538763554
50.4431538779565
50.4431538795107
50.4431538810128
50.4431538824585
50.4431538838434
50.4431538851637
50.4431538864161
50.4431538875975
50.4431538887053
50.4431538897373
50.4431538906913
50.4431538915658
50.4431538923596
50.4431538930719
50.4431538937022
50.4431538942507
50.4431538947184
50.4431538951066
50.4431538954176
50.4431538956549
50.4431538958224
3502.99679833014
31526.9711849865
31526.9718837464
3502.99687598259
50.4431550144175
50.4431550149279
50.4431550155871
50.4431550163712
50.443155017272
50.4431550182809
50.4431550193902
50.4431550205928
50.4431550218816
50.4431550232496
50.4431550246895
50.4431550261939
50.4431550277548
50.4431550293644
50.4431550310145
50.4431550326967
50.4431550344027
50.4431550361243
50.4431550378532
50.4431550395815
50.4431550413015
50.4431550430056
50.4431550446868
50.4431550463385
50.4431550479543
50.4431550495283
50.4431550510551
50.4431550525297
50.4431550539476
50.4431550553045
50.4431550565967
50.4431550578207
50.4431550589735
50.4431550600524
50.443155061055
50.4431550619792
50.4431550628234
50.4431550635863
50.4431550642669
50.443155064865
50.4431550653809
50.4431550658158
50.4431550661718
50.4431550664517
50.4431550666598
50.4431550667999
3502.9968796466
31526.9719168293
31526.9726161086
3502.99695735673
50.4431561862206
50.4431561867482
50.4431561874222
50.4431561882196
50.4431561891314
50.4431561901484
50.4431561912626
50.4431561924667
50.4431561937538
50.4431561951169
50.4431561965489
50.4431561980428
50.4431561995907
50.4431562011852
50.4431562028182
50.4431562044815
50.4431562061674
50.4431562078674
50.4431562095736
50.4431562112784
50.443156212974
50.4431562146532
50.4431562163089
50.4431562179345
50.443156219524
50.4431562210713
50.4431562225712
50.4431562240187
50.4431562254092
50.4431562267386
50.4431562280029
50.443156229199
50.4431562303235
50.4431562313739
50.4431562323475
50.4431562332423
50.4431562340565
50.4431562347887
50.443156235438
50.443156236004
50.4431562364874
50.4431562368895
50.443156237213
50.4431562374616
50.4431562376401
50.4431562377523
3502.99696096131
31526.9726486549
31526.9733484417
3502.99703872763
50.4431573579773
50.4431573585231
50.4431573592127
50.4431573600239
50.443157360947
50.4431573619724
50.4431573630918
50.4431573642978
50.4431573655834
50.4431573669419
50.4431573683664
50.44315736985
50.4431573713853
50.443157372965
50.4431573745813
50.4431573762263
50.4431573778922
50.4431573795711
50.4431573812552
50.4431573829369
50.4431573846087
50.4431573862633
50.443157387894
50.4431573894942
50.4431573910577
50.443157392579
50.4431573940524
50.4431573954733
50.4431573968369
50.4431573981393
50.4431573993764
50.443157400545
50.4431574016418
50.4431574026641
50.4431574036092
50.4431574044749
50.4431574052596
50.4431574059614
50.4431574065797
50.4431574071139
50.4431574075648
50.4431574079342
50.443157408225
50.4431574084418
50.4431574085903
50.4431574086737
3502.99704227376
31526.9733804607
31526.9740807397
3502.99712009464
50.4431585296789
50.4431585302438
50.44315853095
50.4431585317756
50.4431585327107
50.4431585337449
50.4431585348699
50.4431585360781
50.4431585373625
50.4431585387167
50.443158540134
50.4431585416078
50.4431585431308
50.4431585446961
50.4431585462961
50.4431585479232
50.4431585495698
50.4431585512281
50.4431585528906
50.4431585545498
50.4431585561982
50.4431585578289
50.4431585594352
50.4431585610105
50.4431585625488
50.4431585640444
50.4431585654921
50.443158566887
50.4431585682244
50.4431585695003
50.4431585707108
50.4431585718525
50.4431585729222
50.4431585739169
50.4431585748341
50.4431585756714
50.4431585764269
50.443158577099
50.4431585776865
50.4431585781892
50.4431585786078
50.4431585789443
50.4431585792024
50.443158579387
50.4431585795045
50.4431585795581
3502.99712358359
31526.9741122408
31526.9748129968
3502.99720145713
50.4431597013164
50.4431597019022
50.443159702626
50.4431597034671
50.4431597044146
50.4431597054583
50.4431597065892
50.4431597077999
50.4431597090837
50.4431597104339
50.4431597118444
50.4431597133087
50.44315971482
50.4431597163713
50.4431597179556
50.4431597195653
50.4431597211931
50.4431597228314
50.4431597244729
50.4431597261101
50.443159727736
50.4431597293434
50.4431597309259
50.443159732477
50.4431597339907
50.4431597354615
50.4431597368841
50.4431597382537
50.4431597395656
50.4431597408158
50.4431597420004
50.443159743116
50.4431597441592
50.4431597451271
50.443159746017
50.4431597468265
50.4431597475534
50.4431597481961
50.4431597487534
50.443159749225
50.4431597496115
50.4431597499152
50.4431597501401
50.4431597502919
50.4431597503776
50.4431597503999
3502.99720489048
31526.9748439967
31526.9755452073
3502.99728281447
50.4431608728811
50.4431608734898
50.4431608742327
50.4431608750903
50.4431608760512
50.4431608771048
50.4431608782423
50.4431608794559
50.4431608807392
50.443160882086
50.4431608834901
50.4431608849454
50.4431608864454
50.4431608879833
50.4431608895523
50.4431608911453
50.4431608927549
50.4431608943739
50.443160895995
50.4431608976111
50.443160899215
50.4431609007999
50.4431609023594
50.443160903887
50.443160905377
50.4431609068238
50.4431609082221
50.4431609095671
50.4431609108543
50.4431609120797
50.4431609132392
50.4431609143293
50.4431609153469
50.4431609162888
50.4431609171522
50.4431609179345
50.4431609186337
50.4431609192476
50.4431609197753
50.443160920216
50.4431609205707
50.4431609208416
50.4431609210331
50.4431609211515
50.4431609212041
50.4431609211934
3502.99728619391
31526.9755757213
31526.9762773655
3502.99736416604
50.4431620443649
50.443162044999
50.4431620457629
50.4431620466381
50.4431620476132
50.4431620486775
50.443162049822
50.4431620510391
50.4431620523224
50.4431620536661
50.4431620550643
50.443162056511
50.4431620580002
50.4431620595253
50.4431620610797
50.4431620626565
50.4431620642487
50.4431620658491
50.4431620674506
50.4431620690462
50.443162070629
50.4431620721923
50.4431620737295
50.4431620752346
50.4431620767017
50.4431620781253
50.4431620795002
50.4431620808216
50.443162082085
50.4431620832863
50.4431620844216
50.4431620854874
50.4431620864801
50.4431620873968