/*--------------------------------*- C++ -*----------------------------------*\
  =========                 |
  \\      /  F ield         | OpenFOAM: The Open Source CFD Toolbox
   \\    /   O peration     | Website:  https://openfoam.org
    \\  /    A nd           | Version:  10
     \\/     M anipulation  |
\*---------------------------------------------------------------------------*/
FoamFile
{
    format      ascii;
    class       volScalarField;
    location    "1.2";
    object      p;
}
// * * * * * * * * * * * * * * * * * * * * * * * * * * * * * * * * * * * * * //

dimensions      [1 -1 -2 0 0 0 0];

internalField   nonuniform List<scalar> 
2500
(
100049.237964535
100049.237967663
100049.237968433
100049.23796815
100049.237967286
100049.237966308
100049.237965256
100049.237964169
100049.237963053
100049.237961908
100049.237960734
100049.237959531
100049.237958303
100049.237957052
100049.237955782
100049.237954497
100049.237953201
100049.237951899
100049.237950595
100049.237949294
100049.237948001
100049.237946721
100049.237945458
100049.237944217
100049.237943002
100049.237941818
100049.237940669
100049.237939559
100049.237938493
100049.237937472
100049.237936503
100049.237935588
100049.23793473
100049.237933934
100049.237933203
100049.237932541
100049.237931951
100049.237931438
100049.237931004
100049.237930655
100049.237930396
100049.237930231
100049.237930168
100049.237930211
100049.23793036
100049.237930576
100049.237930816
100049.237930652
100049.237929648
100049.237926452
100049.235747769
100049.235748304
100049.235748748
100049.235747779
100049.235746697
100049.235745671
100049.235744613
100049.23574353
100049.23574242
100049.23574128
100049.23574011
100049.235738912
100049.235737688
100049.23573644
100049.235735173
100049.23573389
100049.235732597
100049.235731297
100049.235729995
100049.235728696
100049.235727405
100049.235726126
100049.235724865
100049.235723625
100049.235722412
100049.235721229
100049.235720081
100049.235718972
100049.235717906
100049.235716886
100049.235715917
100049.235715001
100049.235714144
100049.235713347
100049.235712616
100049.235711953
100049.235711361
100049.235710846
100049.23571041
100049.235710059
100049.235709796
100049.235709627
100049.235709559
100049.235709599
100049.235709756
100049.235710022
100049.23571048
100049.235710988
100049.235710322
100049.235709505
100049.233484316
100049.233483505
100049.233482978
100049.233481743
100049.233480575
100049.233479536
100049.23347848
100049.233477403
100049.2334763
100049.233475167
100049.233474003
100049.233472811
100049.233471591
100049.233470348
100049.233469085
100049.233467807
100049.233466517
100049.23346522
100049.233463921
100049.233462625
100049.233461337
100049.233460061
100049.233458802
100049.233457564
100049.233456352
100049.233455171
100049.233454025
100049.233452917
100049.233451852
100049.233450833
100049.233449864
100049.233448949
100049.233448092
100049.233447295
100049.233446563
100049.233445899
100049.233445306
100049.233444789
100049.233444351
100049.233443996
100049.233443728
100049.233443554
100049.23344348
100049.233443514
100049.233443668
100049.233443946
100049.233444488
100049.233445282
100049.233445576
100049.23344625
100049.231213699
100049.231212691
100049.231212134
100049.231210856
100049.231209676
100049.231208636
100049.231207586
100049.231206519
100049.231205425
100049.2312043
100049.231203144
100049.231201959
100049.231200747
100049.23119951
100049.231198253
100049.23119698
100049.231195696
100049.231194404
100049.23119311
100049.231191819
100049.231190535
100049.231189262
100049.231188007
100049.231186773
100049.231185565
100049.231184387
100049.231183243
100049.231182138
100049.231181075
100049.231180058
100049.231179091
100049.231178177
100049.23117732
100049.231176524
100049.231175792
100049.231175127
100049.231174533
100049.231174014
100049.231173573
100049.231173214
100049.231172942
100049.231172762
100049.231172681
100049.231172707
100049.231172854
100049.231173134
100049.231173687
100049.231174527
100049.231174822
100049.231175791
100049.228941827
100049.228940954
100049.228940516
100049.228939303
100049.228938132
100049.22893709
100049.228936049
100049.228934992
100049.228933909
100049.228932795
100049.228931649
100049.228930473
100049.228929269
100049.228928041
100049.228926792
100049.228925526
100049.228924249
100049.228922963
100049.228921676
100049.22892039
100049.228919112
100049.228917845
100049.228916595
100049.228915366
100049.228914162
100049.228912988
100049.228911848
100049.228910746
100049.228909686
100049.228908671
100049.228907707
100049.228906795
100049.228905939
100049.228905144
100049.228904412
100049.228903746
100049.228903151
100049.22890263
100049.228902186
100049.228901823
100049.228901546
100049.228901359
100049.22890127
100049.228901287
100049.228901426
100049.228901707
100049.228902252
100049.22890302
100049.228903182
100049.22890404
100049.226669969
100049.226669256
100049.226668888
100049.226667794
100049.226666657
100049.226665625
100049.226664598
100049.226663555
100049.226662484
100049.226661383
100049.226660249
100049.226659084
100049.22665789
100049.226656672
100049.226655432
100049.226654175
100049.226652906
100049.226651629
100049.226650348
100049.22664907
100049.226647799
100049.226646538
100049.226645294
100049.22664407
100049.226642872
100049.226641703
100049.226640568
100049.22663947
100049.226638414
100049.226637403
100049.22663644
100049.226635531
100049.226634677
100049.226633883
100049.226633151
100049.226632485
100049.226631889
100049.226631365
100049.226630917
100049.22663055
100049.226630266
100049.226630072
100049.226629973
100049.226629979
100049.226630106
100049.226630377
100049.226630887
100049.226631528
100049.226631617
100049.22663231
100049.224398201
100049.224397633
100049.224397282
100049.224396316
100049.224395238
100049.224394229
100049.224393221
100049.224392195
100049.22439114
100049.224390053
100049.224388932
100049.22438778
100049.224386598
100049.22438539
100049.224384161
100049.224382914
100049.224381655
100049.224380387
100049.224379115
100049.224377845
100049.224376582
100049.224375329
100049.224374092
100049.224372875
100049.224371683
100049.22437052
100049.22436939
100049.224368297
100049.224367245
100049.224366238
100049.224365279
100049.224364372
100049.22436352
100049.224362727
100049.224361996
100049.22436133
100049.224360732
100049.224360206
100049.224359754
100049.224359382
100049.224359091
100049.224358888
100049.224358778
100049.224358771
100049.22435888
100049.22435913
100049.224359582
100049.224360084
100049.224360159
100049.224360694
100049.22212646
100049.222126015
100049.222125671
100049.222124825
100049.222123817
100049.222122842
100049.222121859
100049.222120853
100049.222119816
100049.222118745
100049.222117639
100049.222116501
100049.222115332
100049.222114137
100049.22211292
100049.222111684
100049.222110435
100049.222109177
100049.222107916
100049.222106655
100049.2221054
100049.222104156
100049.222102927
100049.222101718
100049.222100533
100049.222099376
100049.222098252
100049.222097165
100049.222096118
100049.222095115
100049.22209416
100049.222093256
100049.222092407
100049.222091615
100049.222090885
100049.222090219
100049.222089619
100049.222089091
100049.222088636
100049.222088257
100049.22208796
100049.222087747
100049.222087625
100049.222087601
100049.222087689
100049.222087906
100049.222088288
100049.222088662
100049.222088734
100049.222089136
100049.219854716
100049.219854369
100049.219854034
100049.219853288
100049.219852355
100049.219851421
100049.219850467
100049.219849484
100049.219848467
100049.219847414
100049.219846324
100049.219845201
100049.219844047
100049.219842865
100049.219841661
100049.219840438
100049.219839201
100049.219837954
100049.219836704
100049.219835453
100049.219834208
100049.219832973
100049.219831753
100049.219830552
100049.219829375
100049.219828226
100049.219827109
100049.219826028
100049.219824986
100049.219823989
100049.219823038
100049.219822137
100049.219821291
100049.219820501
100049.219819772
100049.219819105
100049.219818505
100049.219817973
100049.219817514
100049.21981713
100049.219816825
100049.219816601
100049.219816466
100049.219816424
100049.219816486
100049.219816665
100049.219816974
100049.219817241
100049.219817308
100049.219817603
100049.217582957
100049.217582683
100049.217582362
100049.217581695
100049.217580833
100049.217579944
100049.217579023
100049.217578065
100049.21757707
100049.217576036
100049.217574964
100049.217573857
100049.217572719
100049.217571552
100049.217570362
100049.217569152
100049.217567928
100049.217566694
100049.217565455
100049.217564216
100049.217562982
100049.217561757
100049.217560547
100049.217559355
100049.217558186
100049.217557045
100049.217555935
100049.217554861
100049.217553826
100049.217552834
100049.217551888
100049.217550991
100049.217550148
100049.21754936
100049.217548632
100049.217547965
100049.217547363
100049.21754683
100049.217546366
100049.217545976
100049.217545662
100049.217545428
100049.217545277
100049.217545216
100049.21754525
100049.217545388
100049.217545628
100049.21754581
100049.217545867
100049.217546082
100049.215311175
100049.215310956
100049.21531065
100049.215310046
100049.215309249
100049.215308405
100049.215307518
100049.215306587
100049.215305615
100049.215304602
100049.215303549
100049.21530246
100049.215301338
100049.215300187
100049.215299012
100049.215297817
100049.215296606
100049.215295386
100049.215294159
100049.215292932
100049.21529171
100049.215290496
100049.215289296
100049.215288114
100049.215286955
100049.215285822
100049.215284721
100049.215283654
100049.215282625
100049.215281639
100049.215280698
100049.215279806
100049.215278966
100049.215278181
100049.215277454
100049.215276787
100049.215276185
100049.215275648
100049.21527518
100049.215274784
100049.215274461
100049.215274216
100049.21527405
100049.215273967
100049.215273973
100049.215274069
100049.215274247
100049.215274365
100049.215274409
100049.215274565
100049.213039366
100049.213039187
100049.213038899
100049.213038344
100049.213037604
100049.213036804
100049.213035951
100049.213035049
100049.213034101
100049.213033109
100049.213032076
100049.213031006
100049.213029902
100049.213028768
100049.213027609
100049.213026429
100049.213025233
100049.213024026
100049.213022814
100049.2130216
100049.21302039
100049.213019188
100049.213017999
100049.213016828
100049.213015678
100049.213014555
100049.213013462
100049.213012403
100049.213011382
100049.213010402
100049.213009467
100049.213008579
100049.213007743
100049.213006961
100049.213006235
100049.213005569
100049.213004965
100049.213004426
100049.213003953
100049.213003551
100049.213003219
100049.213002962
100049.21300278
100049.213002677
100049.213002654
100049.213002711
100049.213002834
100049.213002902
100049.213002931
100049.213003046
100049.210767528
100049.210767378
100049.210767106
100049.210766591
100049.210765901
100049.210765143
100049.210764324
100049.21076345
100049.210762528
100049.210761559
100049.210760547
100049.210759496
100049.210758411
100049.210757294
100049.210756152
100049.210754988
100049.210753808
100049.210752617
100049.210751418
100049.210750218
100049.210749021
100049.210747832
100049.210746655
100049.210745495
100049.210744356
100049.210743243
100049.210742159
100049.210741108
100049.210740095
100049.210739122
100049.210738193
100049.21073731
100049.210736478
100049.210735698
100049.210734974
100049.210734309
100049.210733704
100049.210733162
100049.210732685
100049.210732276
100049.210731936
100049.210731666
100049.210731469
100049.210731345
100049.210731294
100049.210731315
100049.210731391
100049.210731421
100049.210731435
100049.210731519
100049.20849566
100049.208495531
100049.208495275
100049.208494792
100049.208494147
100049.208493427
100049.208492641
100049.208491796
100049.208490899
100049.208489954
100049.208488964
100049.208487934
100049.208486867
100049.20848577
100049.208484645
100049.208483498
100049.208482335
100049.208481159
100049.208479976
100049.20847879
100049.208477606
100049.20847643
100049.208475266
100049.208474118
100049.20847299
100049.208471887
100049.208470813
100049.208469772
100049.208468766
100049.208467801
100049.208466878
100049.208466001
100049.208465173
100049.208464396
100049.208463674
100049.208463009
100049.208462403
100049.208461859
100049.208461378
100049.208460962
100049.208460613
100049.208460331
100049.208460118
100049.208459974
100049.208459898
100049.208459886
100049.208459922
100049.208459922
100049.208459921
100049.208459983
100049.206223761
100049.206223648
100049.206223407
100049.206222951
100049.206222344
100049.20622166
100049.206220906
100049.20622009
100049.206219219
100049.206218298
100049.20621733
100049.206216321
100049.206215275
100049.206214196
100049.20621309
100049.206211962
100049.206210815
100049.206209655
100049.206208488
100049.206207317
100049.206206148
100049.206204986
100049.206203835
100049.206202699
100049.206201583
100049.206200491
100049.206199428
100049.206198395
100049.206197399
100049.206196441
100049.206195524
100049.206194653
100049.206193829
100049.206193056
100049.206192336
100049.206191672
100049.206191065
100049.206190518
100049.206190033
100049.206189611
100049.206189253
100049.206188959
100049.206188731
100049.206188568
100049.206188468
100049.206188426
100049.206188428
100049.206188403
100049.20618839
100049.206188435
100049.203951833
100049.203951733
100049.203951504
100049.203951072
100049.2039505
100049.203949849
100049.203949125
100049.203948337
100049.203947492
100049.203946595
100049.20394565
100049.203944663
100049.203943637
100049.203942579
100049.203941492
100049.203940382
100049.203939253
100049.203938111
100049.203936959
100049.203935805
100049.203934651
100049.203933503
100049.203932365
100049.203931242
100049.203930139
100049.203929058
100049.203928005
100049.203926983
100049.203925995
100049.203925045
100049.203924136
100049.20392327
100049.203922451
100049.203921682
100049.203920964
100049.203920301
100049.203919693
100049.203919144
100049.203918654
100049.203918226
100049.203917859
100049.203917554
100049.203917312
100049.20391713
100049.203917008
100049.20391694
100049.203916913
100049.203916868
100049.203916844
100049.203916877
100049.201679878
100049.201679787
100049.20167957
100049.201679159
100049.201678617
100049.201677996
100049.201677302
100049.201676541
100049.201675722
100049.201674849
100049.201673928
100049.201672963
100049.201671959
100049.201670921
100049.201669854
100049.201668763
100049.201667652
100049.201666527
100049.201665393
100049.201664255
100049.201663116
100049.201661983
100049.20166086
100049.20165975
100049.20165866
100049.201657591
100049.201656549
100049.201655537
100049.201654558
100049.201653616
100049.201652714
100049.201651855
100049.201651041
100049.201650276
100049.201649561
100049.201648898
100049.20164829
100049.201647738
100049.201647245
100049.20164681
100049.201646434
100049.201646119
100049.201645862
100049.201645664
100049.201645521
100049.20164543
100049.201645378
100049.201645317
100049.201645284
100049.201645306
100049.199407898
100049.199407814
100049.199407607
100049.199407215
100049.1994067
100049.199406108
100049.199405442
100049.199404708
100049.199403914
100049.199403066
100049.199402168
100049.199401226
100049.199400244
100049.199399227
100049.19939818
100049.199397109
100049.199396017
100049.199394911
100049.199393794
100049.199392672
100049.19939155
100049.199390432
100049.199389323
100049.199388228
100049.19938715
100049.199386094
100049.199385063
100049.199384061
100049.199383092
100049.199382159
100049.199381265
100049.199380412
100049.199379603
100049.199378842
100049.199378129
100049.199377468
100049.199376859
100049.199376305
100049.199375807
100049.199375366
100049.199374983
100049.199374657
100049.199374387
100049.199374173
100049.199374012
100049.1993739
100049.199373826
100049.199373751
100049.199373711
100049.199373725
100049.197135894
100049.197135817
100049.197135618
100049.197135243
100049.197134754
100049.197134189
100049.197133549
100049.197132841
100049.197132073
100049.19713125
100049.197130376
100049.197129456
100049.197128497
100049.197127501
100049.197126475
100049.197125424
100049.197124352
100049.197123264
100049.197122165
100049.19712106
100049.197119954
100049.197118852
100049.197117759
100049.197116677
100049.197115613
100049.197114569
100049.19711355
100049.197112559
100049.1971116
100049.197110676
100049.197109789
100049.197108943
100049.19710814
100049.197107382
100049.197106672
100049.197106012
100049.197105403
100049.197104847
100049.197104345
100049.197103898
100049.197103507
100049.197103171
100049.197102889
100049.19710266
100049.197102482
100049.197102352
100049.197102259
100049.197102173
100049.197102126
100049.197102134
100049.194863872
100049.1948638
100049.194863608
100049.194863249
100049.194862784
100049.194862243
100049.194861629
100049.194860947
100049.194860204
100049.194859405
100049.194858555
100049.194857659
100049.194856722
100049.194855748
100049.194854744
100049.194853713
100049.19485266
100049.194851591
100049.194850511
100049.194849424
100049.194848335
100049.194847249
100049.19484617
100049.194845103
100049.194844053
100049.194843022
100049.194842015
100049.194841035
100049.194840086
100049.19483917
100049.194838292
100049.194837452
100049.194836655
100049.194835902
100049.194835194
100049.194834535
100049.194833926
100049.194833368
100049.194832863
100049.19483241
100049.194832011
100049.194831665
100049.194831371
100049.194831129
100049.194830936
100049.194830789
100049.19483068
100049.194830583
100049.194830531
100049.194830535
100049.192591832
100049.192591764
100049.192591579
100049.192591235
100049.192590792
100049.192590275
100049.192589685
100049.192589029
100049.192588311
100049.192587536
100049.19258671
100049.192585838
100049.192584924
100049.192583972
100049.192582989
100049.192581979
100049.192580946
100049.192579897
100049.192578835
100049.192577766
100049.192576694
100049.192575624
100049.192574561
100049.192573509
100049.192572472
100049.192571455
100049.19257046
100049.192569491
100049.192568552
100049.192567646
100049.192566776
100049.192565943
100049.192565152
100049.192564403
100049.192563698
100049.192563041
100049.192562431
100049.192561872
100049.192561362
100049.192560904
100049.192560497
100049.192560142
100049.192559838
100049.192559582
100049.192559375
100049.192559213
100049.19255909
100049.192558984
100049.192558928
100049.192558927
100049.190319779
100049.190319715
100049.190319536
100049.190319206
100049.190318784
100049.19031829
100049.190317724
100049.190317092
100049.190316399
100049.190315649
100049.190314847
100049.190313998
100049.190313107
100049.190312178
100049.190311217
100049.190310228
100049.190309216
100049.190308186
100049.190307142
100049.190306091
100049.190305037
100049.190303984
100049.190302936
100049.190301899
100049.190300877
100049.190299872
100049.19029889
100049.190297933
100049.190297004
100049.190296108
100049.190295245
100049.19029442
100049.190293634
100049.190292889
100049.190292188
100049.190291532
100049.190290922
100049.190290361
100049.190289848
100049.190289384
100049.190288971
100049.190288606
100049.190288291
100049.190288024
100049.190287804
100049.190287628
100049.190287491
100049.190287378
100049.190287318
100049.190287315
100049.188047716
100049.188047655
100049.188047482
100049.188047165
100049.188046763
100049.188046291
100049.188045749
100049.188045141
100049.188044472
100049.188043747
100049.188042969
100049.188042145
100049.188041277
100049.188040371
100049.188039431
100049.188038463
100049.188037471
100049.188036461
100049.188035437
100049.188034404
100049.188033367
100049.188032331
100049.188031299
100049.188030277
100049.188029269
100049.188028278
100049.188027308
100049.188026362
100049.188025445
100049.188024557
100049.188023703
100049.188022885
100049.188022105
100049.188021365
100049.188020667
100049.188020012
100049.188019402
100049.188018839
100049.188018323
100049.188017854
100049.188017433
100049.18801706
100049.188016735
100049.188016457
100049.188016224
100049.188016036
100049.188015887
100049.188015766
100049.188015704
100049.188015697
100049.185775647
100049.185775589
100049.185775421
100049.185775117
100049.185774735
100049.185774284
100049.185773765
100049.185773181
100049.185772537
100049.185771836
100049.185771083
100049.185770282
100049.185769437
100049.185768554
100049.185767636
100049.18576669
100049.185765719
100049.185764728
100049.185763723
100049.185762709
100049.185761689
100049.18576067
100049.185759654
100049.185758648
100049.185757654
100049.185756676
100049.185755719
100049.185754785
100049.185753877
100049.185753
100049.185752154
100049.185751343
100049.185750569
100049.185749833
100049.185749138
100049.185748485
100049.185747875
100049.18574731
100049.18574679
100049.185746316
100049.185745889
100049.185745508
100049.185745173
100049.185744883
100049.185744639
100049.185744439
100049.185744278
100049.185744151
100049.185744086
100049.185744078
100049.183503574
100049.183503519
100049.183503356
100049.183503065
100049.183502702
100049.183502273
100049.183501776
100049.183501216
100049.183500596
100049.18349992
100049.183499191
100049.183498414
100049.183497593
100049.183496732
100049.183495837
100049.183494911
100049.183493961
100049.18349299
100049.183492005
100049.183491009
100049.183490007
100049.183489004
100049.183488005
100049.183487013
100049.183486034
100049.18348507
100049.183484125
100049.183483202
100049.183482306
100049.183481438
100049.1834806
100049.183479797
100049.183479028
100049.183478297
100049.183477605
100049.183476954
100049.183476344
100049.183475777
100049.183475254
100049.183474775
100049.18347434
100049.183473951
100049.183473606
100049.183473306
100049.183473051
100049.183472839
100049.183472668
100049.183472534
100049.183472468
100049.183472457
100049.181231503
100049.18123145
100049.181231292
100049.181231014
100049.18123067
100049.181230262
100049.181229788
100049.181229252
100049.181228656
100049.181228004
100049.181227299
100049.181226546
100049.181225748
100049.181224911
100049.181224037
100049.181223134
100049.181222204
100049.181221253
100049.181220287
100049.181219309
100049.181218325
100049.181217339
100049.181216356
100049.181215379
100049.181214414
100049.181213463
100049.181212531
100049.18121162
100049.181210734
100049.181209876
100049.181209047
100049.18120825
100049.181207488
100049.181206761
100049.181206072
100049.181205422
100049.181204813
100049.181204244
100049.181203717
100049.181203233
100049.181202792
100049.181202394
100049.18120204
100049.18120173
100049.181201463
100049.18120124
100049.181201058
100049.181200919
100049.181200851
100049.181200838
100049.178959434
100049.178959384
100049.178959231
100049.178958966
100049.178958641
100049.178958255
100049.178957804
100049.178957292
100049.17895672
100049.178956093
100049.178955412
100049.178954683
100049.178953909
100049.178953094
100049.178952242
100049.17895136
100049.178950451
100049.17894952
100049.178948572
100049.178947613
100049.178946646
100049.178945677
100049.17894471
100049.178943749
100049.178942798
100049.178941861
100049.178940941
100049.178940042
100049.178939166
100049.178938317
100049.178937496
100049.178936707
100049.17893595
100049.178935228
100049.178934542
100049.178933894
100049.178933284
100049.178932714
100049.178932184
100049.178931694
100049.178931247
100049.178930841
100049.178930477
100049.178930156
100049.178929878
100049.178929644
100049.178929451
100049.178929306
100049.178929236
100049.17892922
100049.176687373
100049.176687326
100049.176687179
100049.176686927
100049.176686622
100049.176686257
100049.17668583
100049.176685341
100049.176684794
100049.176684191
100049.176683535
100049.17668283
100049.176682078
100049.176681286
100049.176680457
100049.176679595
100049.176678707
100049.176677796
100049.176676867
100049.176675926
100049.176674976
100049.176674024
100049.176673072
100049.176672126
100049.176671189
100049.176670265
100049.176669358
100049.17666847
100049.176667605
100049.176666765
100049.176665953
100049.176665171
100049.17666442
100049.176663702
100049.176663019
100049.176662372
100049.176661762
100049.17666119
100049.176660656
100049.176660162
100049.176659707
100049.176659293
100049.17665892
100049.176658588
100049.176658299
100049.176658053
100049.176657849
100049.176657697
100049.176657625
100049.176657607
100049.174415322
100049.174415279
100049.174415137
100049.174414899
100049.174414614
100049.174414272
100049.174413868
100049.174413404
100049.174412882
100049.174412303
100049.174411671
100049.17441099
100049.174410262
100049.174409492
100049.174408684
100049.174407844
100049.174406975
100049.174406084
100049.174405174
100049.17440425
100049.174403318
100049.174402382
100049.174401446
100049.174400515
100049.174399592
100049.174398681
100049.174397786
100049.17439691
100049.174396055
100049.174395224
100049.17439442
100049.174393645
100049.174392899
100049.174392186
100049.174391506
100049.174390861
100049.17439025
100049.174389676
100049.174389139
100049.174388639
100049.174388178
100049.174387755
100049.174387372
100049.174387029
100049.174386728
100049.17438647
100049.174386254
100049.174386096
100049.17438602
100049.174386
100049.172143286
100049.172143246
100049.172143111
100049.172142887
100049.172142624
100049.172142305
100049.172141925
100049.172141485
100049.172140988
100049.172140434
100049.172139827
100049.172139169
100049.172138464
100049.172137716
100049.17213693
100049.17213611
100049.172135262
100049.172134389
100049.172133498
100049.172132592
100049.172131677
100049.172130757
100049.172129836
100049.17212892
100049.172128011
100049.172127113
100049.172126229
100049.172125364
100049.172124519
100049.172123698
100049.172122902
100049.172122133
100049.172121393
100049.172120684
100049.172120007
100049.172119363
100049.172118752
100049.172118176
100049.172117635
100049.17211713
100049.172116661
100049.172116229
100049.172115836
100049.172115481
100049.172115168
100049.172114897
100049.172114669
100049.172114503
100049.172114424
100049.172114401
100049.169871266
100049.169871231
100049.169871103
100049.169870894
100049.169870653
100049.169870358
100049.169870003
100049.169869589
100049.169869117
100049.169868588
100049.169868005
100049.16986737
100049.169866688
100049.169865962
100049.169865197
100049.169864398
100049.169863569
100049.169862716
100049.169861842
100049.169860954
100049.169860055
100049.169859151
100049.169858246
100049.169857343
100049.169856448
100049.169855562
100049.169854691
100049.169853836
100049.169853002
100049.169852189
100049.169851401
100049.169850638
100049.169849904
100049.169849199
100049.169848525
100049.169847881
100049.16984727
100049.169846692
100049.169846147
100049.169845637
100049.16984516
100049.169844719
100049.169844315
100049.169843948
100049.169843621
100049.169843336
100049.169843094
100049.16984292
100049.169842838
100049.169842811
100049.167599266
100049.167599237
100049.167599117
100049.167598925
100049.167598708
100049.167598438
100049.167598109
100049.167597721
100049.167597274
100049.16759677
100049.167596211
100049.1675956
100049.16759494
100049.167594236
100049.167593492
100049.167592712
100049.167591903
100049.167591068
100049.167590212
100049.167589341
100049.167588458
100049.16758757
100049.167586679
100049.16758579
100049.167584908
100049.167584035
100049.167583175
100049.167582331
100049.167581506
100049.167580702
100049.167579921
100049.167579165
100049.167578436
100049.167577735
100049.167577063
100049.167576421
100049.167575809
100049.167575229
100049.16757468
100049.167574163
100049.167573679
100049.167573229
100049.167572813
100049.167572433
100049.167572091
100049.16757179
100049.167571533
100049.167571349
100049.167571263
100049.167571231
100049.165327289
100049.165327267
100049.165327156
100049.165326981
100049.16532679
100049.165326547
100049.165326245
100049.165325884
100049.165325463
100049.165324984
100049.165324449
100049.16532386
100049.165323223
100049.16532254
100049.165321816
100049.165321056
100049.165320266
100049.165319449
100049.16531861
100049.165317755
100049.165316889
100049.165316015
100049.165315139
100049.165314264
100049.165313394
100049.165312533
100049.165311684
100049.165310851
100049.165310035
100049.165309239
100049.165308465
100049.165307716
100049.165306992
100049.165306294
100049.165305625
100049.165304983
100049.165304371
100049.165303788
100049.165303235
100049.165302712
100049.16530222
100049.16530176
100049.165301332
100049.165300938
100049.16530058
100049.165300262
100049.165299987
100049.165299793
100049.165299701
100049.165299664
100049.163055338
100049.163055324
100049.163055224
100049.163055068
100049.163054904
100049.16305469
100049.163054417
100049.163054083
100049.163053689
100049.163053235
100049.163052723
100049.163052158
100049.163051542
100049.16305088
100049.163050176
100049.163049435
100049.163048663
100049.163047863
100049.163047041
100049.163046203
100049.163045351
100049.163044492
100049.16304363
100049.163042768
100049.163041911
100049.163041061
100049.163040223
100049.163039399
100049.163038592
100049.163037805
100049.163037038
100049.163036295
100049.163035575
100049.163034881
100049.163034214
100049.163033573
100049.16303296
100049.163032375
100049.163031817
100049.163031288
100049.163030788
100049.163030317
100049.163029875
100049.163029466
100049.163029091
100049.163028753
100049.163028459
100049.163028252
100049.163028153
100049.163028109
100049.160783416
100049.160783411
100049.160783322
100049.160783188
100049.160783055
100049.160782872
100049.160782628
100049.160782323
100049.160781955
100049.160781526
100049.160781038
100049.160780495
100049.1607799
100049.160779258
100049.160778574
100049.160777852
100049.160777097
100049.160776314
100049.160775509
100049.160774685
100049.160773849
100049.160773004
100049.160772155
100049.160771306
100049.16077046
100049.160769622
100049.160768794
100049.16076798
100049.160767182
100049.160766402
100049.160765642
100049.160764904
100049.160764189
100049.160763499
100049.160762833
100049.160762193