/*--------------------------------*- C++ -*----------------------------------*\
  =========                 |
  \\      /  F ield         | OpenFOAM: The Open Source CFD Toolbox
   \\    /   O peration     | Website:  https://openfoam.org
    \\  /    A nd           | Version:  10
     \\/     M anipulation  |
\*---------------------------------------------------------------------------*/
FoamFile
{
    format      ascii;
    class       volScalarField;
    location    "1.2";
    object      p_rgh;
}
// * * * * * * * * * * * * * * * * * * * * * * * * * * * * * * * * * * * * * //

dimensions      [1 -1 -2 0 0 0 0];

internalField   nonuniform List<scalar> 
2500
(
49.3511553086719
49.3512003762444
49.3512100103981
49.3512109367148
49.3512102249224
49.3512092676101
49.3512082189263
49.3512071333535
49.3512060182402
49.3512048734992
49.3512036997854
49.3512024978554
49.351201270023
49.3512000194314
49.3511987496167
49.3511974646681
49.3511961687473
49.3511948665691
49.3511935628339
49.3511922621692
49.3511909694644
49.3511896896234
49.3511884270265
49.3511871858791
49.351185971158
49.3511847875197
49.3511836386169
49.3511825287715
49.3511814620724
49.3511804417649
49.3511794721417
49.3511785568408
49.3511776993546
49.3511769032339
49.351176172102
49.3511755097425
49.3511749197351
49.3511744059215
49.3511739722308
49.3511736231303
49.3511733634368
49.3511731986364
49.351173134768
49.3511731770413
49.3511733210034
49.3511735113862
49.351173581832
49.3511721786635
49.3511621667712
49.3511171924765
49.3523162642086
49.3523718603828
49.352402991688
49.3524073929875
49.352407180093
49.3524062936776
49.352405257072
49.3524041774799
49.3524030674889
49.3524019275937
49.3524007580272
49.3523995599244
49.3523983355553
49.3523970880196
49.3523958209989
49.3523945385386
49.3523932450189
49.3523919450236
49.3523906431947
49.3523893443635
49.3523880534631
49.3523867751355
49.3523855138628
49.3523842740979
49.3523830605845
49.3523818778049
49.3523807297315
49.3523796206864
49.3523785544967
49.3523775346112
49.3523765652644
49.3523756501381
49.35237479239
49.3523739956872
49.3523732639878
49.3523726007552
49.3523720095254
49.3523714941257
49.3523710584268
49.3523707067507
49.3523704438412
49.3523702750099
49.352370206092
49.3523702409439
49.3523703669489
49.3523704667023
49.3523700033984
49.3523651654396
49.3523333907942
49.3522755973681
49.3528563884756
49.3528888885921
49.3529079851141
49.3529109349765
49.3529104743648
49.3529095519771
49.3529085144692
49.3529074409744
49.3529063379974
49.3529052047234
49.352904041225
49.3529028486373
49.3529016291868
49.3529003861768
49.3528991232888
49.352897844612
49.3528965546284
49.3528952578927
49.3528939591342
49.3528926631552
49.352891374816
49.352890098744
49.352888839654
49.352887602101
49.3528863904939
49.3528852093732
49.3528840629297
49.3528829550778
49.3528818898048
49.352880870938
49.3528799022461
49.3528789874254
49.3528781298373
49.3528773330763
49.3528766008385
49.3528759366163
49.3528753439459
49.3528748265526
49.3528743882343
49.3528740332113
49.3528737660527
49.3528735919972
49.3528735171276
49.3528735471045
49.3528736779845
49.3528738296736
49.3528736605076
49.3528703234188
49.3528506571602
49.3528151685168
49.353056732245
49.3530697554961
49.3530755277898
49.3530758771813
49.3530749803758
49.3530739862763
49.3530729445774
49.3530718781985
49.3530707840109
49.3530696593225
49.3530685037695
49.3530673185742
49.3530661060795
49.3530648694868
49.3530636126525
49.3530623396946
49.3530610550952
49.3530597634672
49.3530584695254
49.3530571780575
49.3530558939383
49.353054621839
49.353053366518
49.3530521324865
49.353050924241
49.3530497461616
49.3530486024392
49.3530474970612
49.3530464340001
49.3530454170395
49.3530444499193
49.3530435362336
49.3530426795187
49.3530418832379
49.3530411509273
49.3530404860649
49.3530398921866
49.3530393728433
49.3530389318184
49.3530385731137
49.3530383012403
49.353038121335
49.3530380398443
49.3530380646844
49.353038203597
49.3530384377082
49.3530387207429
49.353037953595
49.3530317638215
49.3530169244186
49.3531231267843
49.353127031296
49.3531282254698
49.3531275166897
49.3531264367484
49.3531254100817
49.3531243721081
49.3531233156682
49.3531222323072
49.3531211181544
49.3531199724966
49.3531187965418
49.3531175927346
49.3531163643493
49.353115115242
49.3531138496182
49.3531125719746
49.3531112869387
49.3531099992688
49.3531087137817
49.3531074352941
49.3531061685208
49.3531049182202
49.3531036889181
49.3531024851109
49.3531013111206
49.3531001711526
49.3530990691652
49.3530980091455
49.3530969948624
49.3530960299686
49.3530951180583
49.3530942626239
49.3530934671144
49.353092734993
49.3530920696357
49.3530914745206
49.3530909530964
49.3530905090302
49.3530901461781
49.3530898688914
49.3530896822485
49.353089592827
49.3530896097218
49.3530897461023
49.3530900132901
49.353090474382
49.3530907469103
49.3530892259441
49.3530845317873
49.3531465072156
49.3531472056784
49.3531472116156
49.3531462530664
49.3531451428717
49.3531441150553
49.3531430887233
49.3531420455838
49.3531409753632
49.3531398736814
49.3531387397525
49.3531375747843
49.353136381309
49.3531351626734
49.3531339228066
49.3531326659431
49.3531313966523
49.3531301195471
49.3531288394443
49.3531275611458
49.353126289483
49.3531250291708
49.353123784982
49.3531225614133
49.3531213629904
49.3531201940059
49.3531190585927
49.3531179607962
49.3531169045164
49.3531158934929
49.353114931364
49.3531140216801
49.3531131679192
49.3531123734429
49.3531116416561
49.3531109758769
49.353110379423
49.3531098557141
49.3531094082282
49.3531090406759
49.3531087572046
49.3531085627765
49.3531084638671
49.3531084699789
49.3531085959112
49.3531088636664
49.3531093501806
49.3531098575477
49.3531095600629
49.3531085685681
49.3531577885733
49.3531575975358
49.3531573265645
49.3531563943397
49.3531553229695
49.3531543151184
49.3531533074129
49.3531522810663
49.3531512262853
49.3531501389516
49.3531490183814
49.3531478659279
49.3531466842251
49.3531454767508
49.3531442474778
49.3531430006842
49.3531417409686
49.3531404730311
49.3531392016448
49.3531379316555
49.353136667909
49.3531354151055
49.3531341780035
49.3531329611287
49.3531317689631
49.3531306057848
49.3531294757413
49.3531283828488
49.3531273309491
49.3531263237965
49.3531253649708
49.3531244579644
49.3531236062408
49.3531228130887
49.3531220818259
49.3531214156828
49.3531208179193
49.3531202917802
49.3531198405835
49.3531194678944
49.3531191776274
49.3531189744681
49.3531188646157
49.3531188571651
49.3531189663772
49.3531192148803
49.3531196611002
49.3531201304286
49.3531201223086
49.3531201980222
49.3531659619912
49.353165610577
49.3531652827078
49.3531644442119
49.3531634385581
49.3531624640309
49.3531614809472
49.3531604748132
49.353159437771
49.3531583665463
49.3531572608772
49.3531561223499
49.3531549537875
49.3531537587551
49.3531525412982
49.3531513057678
49.3531500568206
49.3531487991422
49.3531475375639
49.3531462769461
49.3531450220908
49.3531437777565
49.3531425486726
49.3531413393503
49.3531401542859
49.3531389976997
49.3531378737534
49.3531367864198
49.3531357395404
49.3531347367971
49.353133781784
49.3531328778918
49.3531320285547
49.3531312370033
49.3531305064535
49.3531298400776
49.3531292410044
49.3531287123187
49.3531282572076
49.3531278790178
49.3531275813584
49.3531273685803
49.3531272463297
49.3531272227556
49.353127310198
49.3531275272544
49.3531279080489
49.3531282743061
49.3531283295015
49.353128614981
49.3531733829004
49.3531730575341
49.3531727258814
49.353171981551
49.3531710487878
49.3531701152533
49.3531691613607
49.3531681784225
49.3531671612436
49.3531661078159
49.3531650184887
49.3531638952409
49.3531627410703
49.3531615596876
49.353160355211
49.3531591320934
49.3531578949769
49.3531566486345
49.3531553978828
49.3531541475822
49.3531529025931
49.3531516676449
49.3531504474231
49.3531492465117
49.3531480692909
49.3531469200534
49.3531458029029
49.3531447217683
49.353143680506
49.3531426827249
49.3531417319609
49.3531408316339
49.3531399850326
49.3531391953293
49.3531384657254
49.3531377992331
49.3531371988502
49.3531366675743
49.3531362083886
49.353135824349
49.3531355187879
49.3531352956052
49.3531351596903
49.3531351178535
49.3531351798156
49.3531353586004
49.3531356676976
49.3531359327462
49.3531359963818
49.3531362641224
49.3531806193641
49.3531803507067
49.3531800298515
49.3531793638394
49.3531785018713
49.3531776129093
49.3531766912347
49.3531757338496
49.3531747383822
49.3531737042795
49.3531726326619
49.353171525916
49.3531703873305
49.353169220718
49.3531680303131
49.3531668206415
49.353165596418
49.3531643623573
49.3531631234218
49.3531618843699
49.3531606501201
49.3531594254018
49.3531582148862
49.3531570231135
49.3531558545073
49.3531547133025
49.3531536036171
49.3531525293074
49.3531514942006
49.3531505018909
49.3531495558564
49.3531486594438
49.353147815913
49.3531470283633
49.3531462998799
49.3531456333876
49.3531450317678
49.3531444978435
49.3531440344086
49.3531436442718
49.3531433304015
49.3531430961448
49.3531429455616
49.3531428839196
49.3531429181749
49.3531430558505
49.3531432958116
49.3531434779434
49.3531435344339
49.3531437432248
49.3531877963251
49.3531875781482
49.3531872728345
49.3531866688281
49.3531858717033
49.353185027896
49.3531841400836
49.3531832099252
49.3531822376681
49.3531812242145
49.3531801715435
49.3531790824636
49.3531779605255
49.3531768097309
49.3531756344455
49.3531744392094
49.3531732288102
49.3531720080209
49.3531707817601
49.3531695548591
49.3531683321926
49.3531671185046
49.353165918481
49.353164736589
49.3531635773252
49.3531624447933
49.3531613431696
49.3531602762814
49.3531592478685
49.3531582615251
49.353157320671
49.3531564285659
49.3531555884401
49.3531548033206
49.3531540761469
49.3531534097856
49.3531528070016
49.3531522703997
49.3531518026284
49.3531514061906
49.3531510837056
49.3531508379092
49.3531506719446
49.3531505896099
49.3531505952706
49.3531506918516
49.3531508691813
49.3531509870081
49.353151030693
49.3531511858455
49.3531949384487
49.353194759402
49.3531944712595
49.3531939162494
49.3531931766483
49.3531923766714
49.3531915232452
49.3531906213611
49.3531896734639
49.3531886818091
49.3531876491179
49.3531865787372
49.3531854744797
49.3531843404926
49.3531831812434
49.3531820013886
49.3531808057305
49.3531795990712
49.3531783863582
49.3531771724083
49.3531759621255
49.3531747602392
49.3531735714059
49.3531724001368
49.353171250812
49.3531701276515
49.3531690346717
49.3531679757289
49.3531669545337
49.3531659745931
49.3531650393124
49.3531641519075
49.353163315478
49.3531625330361
49.3531618074048
49.35316114132
49.3531605374155
49.3531599981798
49.3531595259992
49.3531591231149
49.3531587917678
49.3531585341261
49.3531583524746
49.3531582491705
49.3531582263968
49.3531582837313
49.3531584062584
49.3531584747543
49.3531585034943
49.3531586177269
49.3532020496641
49.3532018994447
49.3532016281533
49.3532011125353
49.353200423313
49.353199664838
49.3531988454779
49.3531979723484
49.3531970496115
49.353196080614
49.3531950688921
49.3531940181419
49.3531929324672
49.3531918161752
49.3531906738936
49.3531895102933
49.3531883302057
49.3531871385203
49.3531859401264
49.3531847399427
49.3531835427857
49.3531823533995
49.3531811764697
49.3531800164492
49.3531788777473
49.3531777644966
49.3531766807137
49.3531756302546
49.3531746167282
49.3531736436707
49.3531727143709
49.3531718319718
49.3531709995877
49.3531702200562
49.3531694961421
49.3531688304793
49.3531682255561
49.3531676837156
49.3531672070967
49.3531667977077
49.3531664573966
49.3531661878224
49.3531659903965
49.3531658663705
49.3531658161955
49.3531658371503
49.3531659126602
49.35316594287
49.3531659565197
49.3531660404406
49.3532091305096
49.3532090015651
49.3532087461354
49.3532082629827
49.3532076177653
49.3532068979403
49.3532061117294
49.3532052674127
49.3532043703162
49.3532034247473
49.3532024347223
49.3532014044176
49.3532003381697
49.3531992404314
49.3531981159176
49.3531969693722
49.3531958056556
49.3531946296862
49.3531934463972
49.3531922606489
49.3531910773163
49.3531899011141
49.3531887367135
49.3531875885528
49.3531864610413
49.3531853582535
49.3531842842058
49.3531832426961
49.3531822373188
49.3531812715082
49.353180348553
49.3531794715091
49.3531786434178
49.353177867044
49.3531771450362
49.3531764799409
49.353175874101
49.3531753296702
49.3531748486421
49.3531744327483
49.3531740834733
49.3531738019956
49.353173589072
49.3531734449498
49.3531733688433
49.3531733567652
49.3531733922719
49.353173392301
49.3531733917916
49.3531734533608
49.353216180767
49.3532160678442
49.3532158266171
49.3532153709093
49.3532147643273
49.3532140802854
49.3532133259869
49.3532125102065
49.353211639027
49.3532107173378
49.3532097497082
49.353208740562
49.353207694483
49.3532066160551
49.3532055100513
49.3532043812884
49.3532032346848
49.3532020751591
49.3532009076444
49.353199737001
49.3531985681329
49.3531974057405
49.3531962544512
49.3531951187615
49.3531940029497
49.3531929111487
49.3531918473163
49.3531908151926
49.3531898183865
49.3531888602156
49.3531879439397
49.3531870725856
49.353186249049
49.3531854760367
49.3531847561389
49.3531840917422
49.3531834850583
49.3531829381391
49.3531824527745
49.3531820304052
49.353181672268
49.353181379076
49.3531811510911
49.3531809877895
49.3531808875414
49.3531808458793
49.3531808473927
49.3531808231346
49.3531808100233
49.3531808548578
49.3532232018624
49.3532231013523
49.3532228728145
49.3532224408555
49.3532218684268
49.3532212174032
49.3532204936928
49.3532197059685
49.3532188607351
49.3532179633039
49.353217018579
49.353216031217
49.3532150059327
49.3532139474846
49.3532128606894
49.3532117503783
49.3532106215571
49.3532094791008
49.353208327957
49.3532071730733
49.3532060192374
49.3532048712077
49.3532037335972
49.3532026108296
49.353201507256
49.3532004268927
49.3531993737124
49.3531983514113
49.3531973634963
49.3531964133435
49.3531955040671
49.3531946386502
49.3531938199158
49.3531930504832
49.3531923328555
49.3531916693028
49.3531910619204
49.353190512571
49.3531900228991
49.3531895941851
49.3531892273459
49.3531889227452
49.3531886802521
49.3531884988479
49.3531883764226
49.3531883084361
49.3531882809912
49.3531882368407
49.3531882128154
49.3531882449606
49.3532301952364
49.3532301043888
49.3532298868377
49.3532294758625
49.3532289340073
49.3532283135137
49.3532276189799
49.3532268587442
49.3532260393695
49.3532251664292
49.3532242449874
49.3532232799189
49.3532222760405
49.3532212381542
49.3532201711641
49.3532190799306
49.3532179694448
49.35321684464
49.3532157104928
49.3532145718636
49.3532134336274
49.3532123004697
49.3532111770182
49.3532100676821
49.3532089767541
49.3532079082652
49.3532068661298
49.353205854015
49.3532048753841
49.3532039335405
49.3532030315546
49.3532021723222
49.3532013586373
49.3532005929883
49.3531998777762
49.3531992151838
49.3531986072048
49.3531980555563
49.3531975616934
49.3531971267512
49.3531967514282
49.3531964358408
49.3531961795088
49.3531959811517
49.3531958384265
49.3531957471132
49.3531956948718
49.3531956341612
49.353195601012
49.353195623291
49.3532371634356
49.353237080315
49.3532368725137
49.3532364803832
49.3532359661913
49.3532353740884
49.353234707407
49.3532339739904
49.3532331802999
49.3532323319523
49.3532314341282
49.3532304917753
49.3532295097684
49.3532284929533
49.3532274462923
49.3532263746747
49.3532252830628
49.3532241764478
49.3532230597484
49.3532219378976
49.3532208157121
49.3532196978631
49.3532185890072
49.3532174935099
49.353216415635
49.3532153593987
49.3532143286575
49.3532133270492
49.353212358008
49.35321142475
49.3532105303166
49.3532096775161
49.3532088690554
49.3532081073645
49.3532073947135
49.3532067332126
49.3532061247388
49.3532055708638
49.3532050729555
49.3532046319597
49.3532042484003
49.3532039222482
49.353203652805
49.3532034386444
49.3532032774528
49.3532031654468
49.353203091785
49.3532030171191
49.3532029763446
49.3532029909547
49.3532441087009
49.3532440316922
49.35324383236
49.3532434574154
49.353242968602
49.3532424030709
49.3532417630486
49.3532410557964
49.3532402875571
49.353239463846
49.3532385898725
49.3532376705698
49.3532367108273
49.3532357155636
49.3532346896973
49.3532336381322
49.3532325658744
49.3532314778859
49.3532303790998
49.3532292744349
49.3532281687076
49.3532270666037
49.3532259727217
49.3532248914271
49.3532238269545
49.3532227832766
49.3532217642642
49.3532207734534
49.3532198142784
49.353218889868
49.3532180031907
49.3532171570405
49.3532163539785
49.3532155963767
49.3532148864615
49.3532142261683
49.3532136172871
49.3532130613166
49.3532125594793
49.3532121126045
49.3532117210707
49.3532113847905
49.3532111029781
49.3532108741492
49.3532106961356
49.3532105657068
49.353210473404
49.3532103868201
49.353210339832
49.3532103483158
49.353251034292
49.3532509624201
49.353250770655
49.3532504115719
49.3532499462744
49.3532494057727
49.3532487913326
49.3532481096481
49.3532473665982
49.353246567538
49.3532457175461
49.3532448215701
49.3532438844704
49.3532429110928
49.3532419063995
49.3532408752944
49.3532398227544
49.3532387537707
49.353237673291
49.3532365861756
49.3532354972704
49.3532344112173
49.3532333326439
49.353232265843
49.3532312150637
49.3532301842642
49.3532291772135
49.3532281974622
49.3532272483571
49.3532263329835
49.3532254542952
49.3532246149261
49.353223817423
49.3532230640703
49.3532223569637
49.3532216979802
49.3532210888225
49.3532205308438
49.3532200251793
49.3532195726002
49.3532191734121
49.3532188274403
49.3532185338991
49.3532182914205
49.3532180980692
49.353217951124
49.353217842392
49.3532177455927
49.3532176934823
49.3532176971203
49.3532579429157
49.3532578752638
49.3532576901198
49.3532573458942
49.3532569027011
49.3532563859917
49.3532557962608
49.3532551395911
49.3532544214686
49.3532536470157
49.3532528211508
49.3532519487053
49.3532510344958
49.3532500833389
49.3532491001242
49.3532480898139
49.3532470573264
49.3532460076822
49.3532449457853
49.3532438765251
49.3532428047329
49.3532417350216
49.3532406720042
49.3532396199735
49.3532385831495
49.3532375654322
49.353236570576
49.3532356020878
49.3532346632419
49.3532337571087
49.3532328865404
49.3532320541126
49.3532312623138
49.3532305132976
49.3532298091013
49.3532291515439
49.3532285421679
49.3532279822684
49.3532274729223
49.3532270148135
49.3532266082184
49.353226252977
49.3532259483618
49.3532256931358
49.3532254856982
49.3532253238373
49.3532252004516
49.3532250947028
49.3532250384887
49.3532250381395
49.3532648381515
49.3532647741522
49.3532645952073
49.353264265068
49.3532638428587
49.3532633489376
49.3532627832028
49.3532621510822
49.3532614576834
49.3532607077941
49.3532599061145
49.3532590573595
49.3532581662294
49.353257237497
49.353256276052
49.3532552867691
49.3532542745961
49.3532532445242
49.3532522014575
49.3532511502999
49.3532500958245
49.3532490426878
49.3532479954447
49.3532469583733
49.3532459356793
49.3532449312188
49.3532439487317
49.3532429916668
49.35324206324
49.3532411664637
49.3532403041463
49.3532394787762
49.3532386927545
49.3532379481912
49.3532372469926
49.3532365908904
49.3532359813689
49.3532354196359
49.35323490671
49.3532344432169
49.3532340294478
49.3532336652861
49.3532333501207
49.3532330829476
49.3532328624424
49.3532326869463
49.3532325503038
49.3532324366533
49.3532323770196
49.3532323734544
49.3532717230846
49.3532716621703
49.353271488857
49.3532711722219
49.3532707701961
49.3532702983939
49.3532697561168
49.3532691482105
49.3532684793317
49.3532677539479
49.3532669765264
49.3532661515783
49.3532652836875
49.3532643775688
49.353263438039
49.3532624699874
49.3532614783326
49.3532604680076
49.3532594439603
49.3532584110508
49.3532573740813
49.3532563376793
49.3532553063415
49.3532542844041
49.3532532759564
49.3532522848982
49.3532513149112
49.3532503693568
49.3532494514802
49.3532485641626
49.3532477101835
49.3532468919584
49.3532461117866
49.3532453717198
49.3532446735771
49.3532440189883
49.3532434093649
49.3532428458857
49.3532423294528
49.353241860721
49.353241439967
49.3532410671905
49.3532407419261
49.353240463417
49.3532402306882
49.3532400425465
49.3532398936804
49.353239772885
49.3532397105009
49.3532397042436
49.3532786016294
49.3532785435964
49.3532783756382
49.3532780720707
49.3532776896463
49.3532772394101
49.3532767201541
49.3532761362294
49.3532754917687
49.3532747908612
49.3532740377268
49.3532732366439
49.3532723920944
49.3532715087204
49.3532705912512
49.3532696445327
49.353268673498
49.3532676830655
49.3532666781393
49.3532656636089
49.3532646442181
49.3532636246237
49.3532626093074
49.3532616025623
49.3532606084773
49.3532596308942
49.3532586734655
49.353257739509
49.3532568322262
49.3532559544401
49.3532551088283
49.3532542977919
49.3532535235136
49.3532527879579
49.3532520929002
49.3532514398539
49.3532508301723
49.3532502649468
49.3532497450797
49.353249271182
49.3532488436176
49.3532484624156
49.3532481273724
49.353247837993
49.3532475936372
49.3532473935484
49.3532472332299
49.3532471058716
49.3532470412028
49.3532470325299
49.3532854770747
49.3532854215737
49.3532852584904
49.3532849677576
49.3532846046437
49.3532841757115
49.3532836792001
49.3532831190823
49.3532824989525
49.3532818225067
49.3532810936595
49.3532803164999
49.3532794953499
49.3532786347641
49.3532777394284
49.3532768141158
49.3532758637593
49.3532748932339
49.3532739075017
49.353272911394
49.3532719096402
49.3532709069113
49.3532699076459
49.3532689161366
49.3532679364434
49.3532669723645
49.3532660275087
49.3532651051937
49.3532642085192
49.3532633402792
49.3532625030639
49.3532616992161
49.3532609308459
49.3532601998158
49.3532595078432
49.3532588563685
49.3532582466287
49.3532576797006
49.3532571564137
49.3532566774084
49.3532562430919
49.353255853639
49.3532555090205
49.3532552090473
49.3532549534575
49.3532547419163
49.3532545706839
49.3532544371119
49.3532543706096
49.3532543596957
49.3532923531893
49.3532923003077
49.3532921420992
49.3532918641286
49.3532915202086
49.3532911125076
49.3532906387409
49.3532901023718
49.3532895065146
49.3532888545305
49.353288149985
49.3532873967197
49.3532865989982
49.3532857612008
49.3532848879404
49.3532839840336
49.3532830543409
49.3532821037224
49.3532811371406
49.3532801593974
49.3532791752805
49.3532781893737
49.3532772061299
49.3532762298273
49.3532752644824
49.3532743138931
49.3532733815955
49.353272470893
49.3532715848123
49.3532707260892
49.3532698972413
49.3532691005676
49.3532683380763
49.3532676115865
49.3532669226988
49.3532662727521
49.3532656629541
49.3532650943089
49.3532645676314
49.3532640835328
49.3532636424789
49.3532632448332
49.3532628907269
49.3532625802909
49.3532623136271
49.3532620908227
49.3532619088801
49.3532617693127
49.3532617010351
49.3532616882003
49.3532992325054
49.3532991824031
49.3532990292442
49.3532987641665
49.3532984396297
49.3532980532909
49.3532976023998
49.3532970898814
49.3532965183986
49.3532958908763
49.3532952105888
49.3532944812323
49.3532937068667
49.3532928917703
49.3532920405705
49.3532911579678
49.3532902488369
49.3532893180673
49.3532883705484
49.3532874111115
49.3532864445151
49.3532854753576
49.3532845080772
49.3532835468941
49.3532825958537
49.3532816586667
49.3532807388838
49.3532798396918
49.3532789641467
49.353278114897
49.3532772943872
49.353276504844
49.3532757482171
49.3532750261948
49.3532743403484
49.3532736919151
49.3532730820443
49.3532725116384
49.3532719815121
49.3532714922912
49.3532710445288
49.3532706386322
49.3532702750235
49.353269954081
49.353269676285
49.3532694421592
49.3532692494045
49.353269103769
49.3532690335269
49.3532690182619
49.3533061187918
49.3533060718037
49.3533059242618
49.3533056724118
49.3533053675783
49.3533050029509
49.3533045752411
49.3533040867769
49.3533035397559
49.3533029367391
49.3533022807242
49.3533015752182
49.3533008241066
49.3533000316384
49.3532992023538
49.3532983409386
49.3532974522386
49.3532965411432
49.3532956125418
49.3532946712658
49.3532937220443
49.3532927694905
49.3532918180281
49.353290871848
49.353289934952
49.3532890110509
49.3532881036517
49.3532872159267
49.3532863507862
49.3532855108933
49.3532846986491
49.3532839161344
49.3532831652847
49.3532824477006
49.3532817647938
49.3532811178156
49.3532805077994
49.3532799356035
49.3532794019557
49.3532789075398
49.353278452938
49.3532780386886
49.3532776654029
49.3532773337502
49.3532770445745
49.3532767988072
49.3532765949203
49.3532764429838
49.3532763703697
49.3532763525873
49.3533130154392
49.3533129717835
49.3533128301788
49.3533125920367
49.3533123075613
49.3533119652129
49.3533115611353
49.3533110970166
49.353310574661
49.3533099962369
49.3533093644801
49.3533086827229
49.3533079547487
49.3533071847341
49.3533063771756
49.3533055367297
49.3533046682714
49.3533037766465
49.3533028667589
49.3533019434399
49.3533010114043
49.353300075265
49.3532991394168
49.353298208036
49.353297285139
49.3532963743492
49.3532954791735
49.3532946027262
49.353293747874
49.3532929172216
49.3532921130827
49.3532913375238
49.3532905923348
49.3532898790581
49.3532891990617
49.3532885534514
49.3532879432023
49.3532873691147
49.3532868318871
49.3532863321598
49.353285870573
49.3532854477526
49.3532850645133
49.3532847217721
49.3532844207075
49.3532841627748
49.3532839471736
49.3532837885141
49.3532837132225
49.3532836929226
49.3533199261583
49.3533198864025
49.3533197513461
49.3533195275377
49.3533192642353
49.3533189449663
49.3533185651322
49.3533181258244
49.3533176283381
49.3533170745795
49.3533164670662
49.3533158089558
49.3533151039301
49.3533143561508
49.3533135700709
49.3533127503761
49.3533119018684
49.3533110294375
49.3533101379871
49.3533092323341
49.353308317237
49.3533073972358
49.3533064767398
49.3533055599546
49.35330465078
49.3533037529123
49.353302869742
49.3533020043687
49.3533011596301
49.3533003380289
49.3532995418645
49.3532987731014
49.3532980334421
49.3532973243709
49.3532966471539
49.3532960028097
49.3532953922258
49.3532948161446
49.3532942752063
49.353293770022
49.353293301232
49.3532928695495
49.3532924759202
49.3532921215374
49.3532918079291
49.3532915369724
49.3532913087838
49.353291142761
49.3532910643698
49.3532910410722
49.3533268534084
49.3533268184256
49.3533266905433
49.353326481898
49.3533262409474
49.3533259457763
49.3533255909715
49.3533251769986
49.3533247047308
49.3533241757395
49.3533235923969
49.3533229577733
49.3533222755068
49.3533215496718
49.3533207847941
49.3533199854719
49.3533191566094
49.3533183030522
49.3533174296899
49.3533165413974
49.3533156428748
49.3533147387207
49.3533138333005
49.3533129307907
49.3533120351058
49.3533111498546
49.3533102784568
49.3533094239247
49.3533085890813
49.3533077763568
49.3533069879632
49.3533062258066
49.3533054915461
49.3533047865203
49.3533041119372
49.3533034687425
49.3533028577367
49.3533022795309
49.3533017347363
49.3533012239059
49.3533007476653
49.353300306786
49.3532999022718
49.353299535549
49.3532992084365
49.3532989233499
49.3532986813807
49.3532985071215
49.3532984251069
49.3532983980549
49.3533338004927
49.353333771578
49.3533336518449
49.3533334593958
49.353333242223
49.3533329724451
49.3533326436445
49.3533322556468
49.353331808903
49.3533313047956
49.3533307455655
49.3533301342395
49.3533294744266
49.3533287702448
49.3533280261618
49.353327246863
49.3533264372236
49.3533256021328
49.3533247464948
49.3533238751552
49.353322992858
49.3533221041725
49.3533212134789
49.3533203248953
49.3533194423508
49.353318569425
49.3533177094941
49.3533168655558
49.3533160403167
49.353315236207
49.3533144553658
49.3533136996266
49.3533129705465
49.3533122694353
49.3533115973405
49.3533109551499
49.353310343562
49.3533097631152
49.3533092142898
49.3533086976095
49.3533082136273
49.3533077631
49.353307347119
49.353306967183
49.3533066254167
49.3533063247742
49.3533060675109
49.3533058839384
49.3533057973982
49.3533057658206
49.3533407706273
49.3533407485811
49.353340637841
49.3533404629125
49.353340271351
49.3533400285232
49.3533397268911
49.3533393655816
49.3533389447402
49.3533384655893
49.3533379303699
49.3533373420942
49.3533367044001
49.3533360214642
49.3533352977829
49.3533345380565
49.3533337472036
49.353332930099
49.3533320917486
49.35333123694
49.3533303704316
49.3533294967929
49.3533286203892
49.3533277453826
49.3533268756146
49.3533260146651
49.3533251658664
49.3533243321726
49.3533235162759
49.3533227205189
49.3533219469828
49.3533211974282
49.3533204733394
49.3533197759098
49.3533191061724
49.3533184648404
49.3533178525249
49.3533172696625
49.3533167166606
49.3533161939122
49.3533157018828
49.353315241271
49.3533148130955
49.3533144189714
49.3533140611835
49.3533137432678
49.3533134687314
49.3533132744633
49.3533131823642
49.3533131451841
49.3533477668971
49.3533477528254
49.3533476522716
49.3533474964643
49.3533473327698
49.3533471187693
49.3533468456153
49.3533465117653
49.3533461171755
49.3533456630685
49.3533451516996
49.3533445861685
49.3533439702296
49.3533433080738
49.353342604285
49.3533418636216
49.3533410910168
49.3533402914472
49.3533394698316
49.3533386310446
49.3533377798449
49.3533369207871
49.353336058266
49.3533351963561
49.3533343389572
49.353333489591
49.3533326515462
49.3533318277623
49.3533310208586
49.3533302331343
49.3533294666267
49.3533287229948
49.3533280036645
49.3533273097564
49.3533266421582
49.3533260014956
49.3533253883215
49.3533248029271
49.3533242455596
49.3533237165102
49.3533232160989
49.3533227448788
49.3533223037957
49.353321894363
49.3533215189818
49.353321181683
49.3533208874142
49.3533206807042
49.3533205817948
49.3533205377316
49.3533547909901
49.3533547864936
49.3533546973485
49.353354562787
49.3533544298116
49.3533542468067
49.3533540035714
49.3533536980103
49.3533533300215
49.3533529009437
49.3533524132217
49.353351870086
49.3533512754075
49.3533506335225
49.3533499491023
49.3533492269198
49.3533484720392
49.353347689379
49.3533468839596
49.3533460606559
49.3533452242264
49.3533443792548
49.3533435300778
49.3533426808281
49.3533418353181
49.3533409970987
49.3533401694149
49.3533393551334
49.3533385568735
49.3533377768763
49.3533370170771
49.3533362791059
49.3533355642867
49.3533348736382
49.3533342080045
49.3533335678803