/*--------------------------------*- C++ -*----------------------------------*\
  =========                 |
  \\      /  F ield         | OpenFOAM: The Open Source CFD Toolbox
   \\    /   O peration     | Website:  https://openfoam.org
    \\  /    A nd           | Version:  10
     \\/     M anipulation  |
\*---------------------------------------------------------------------------*/
FoamFile
{
    format      ascii;
    class       surfaceScalarField;
    location    "1.2";
    object      phi;
}
// * * * * * * * * * * * * * * * * * * * * * * * * * * * * * * * * * * * * * //

dimensions      [1 0 -1 0 0 0 0];

internalField   nonuniform List<scalar> 
4900
(
-6.45652072967001e-12
6.7849768749465e-12
-8.05530527676686e-12
2.10719181834585e-12
-5.65206966550113e-12
-1.86292652374313e-12
-4.14972594822227e-12
-9.79496030484707e-13
-3.1123576906236e-12
-5.27320116573582e-13
-2.27079370613314e-12
-3.35423640589679e-13
-1.56740165093185e-12
-1.98352424315364e-13
-9.62512671265933e-13
-1.02034694933822e-13
-4.36259047316329e-13
-2.78756901724065e-14
2.42724705901485e-14
3.10309866216262e-14
4.28375570992985e-13
7.88398989744322e-14
7.8307753411175e-13
1.18237492259505e-13
1.09448716029222e-12
1.50672713473077e-13
1.36720575340787e-12
1.77863114969737e-13
1.60513306412353e-12
2.00868365036168e-13
1.81167477010975e-12
2.20218684887437e-13
1.98980562452832e-12
2.36613136990642e-13
2.14205811988473e-12
2.50442475433698e-13
2.27086276368353e-12
2.62043864385314e-13
2.37834358740382e-12
2.71630086634826e-13
2.46664129344983e-12
2.79406895964614e-13
2.53763300923075e-12
2.85519809653028e-13
2.59327460865486e-12
2.90102070777839e-13
2.63534443147657e-12
2.93194424891172e-13
2.66574256456875e-12
2.94873912574417e-13
2.68622429250279e-12
2.95133379562309e-13
2.69858838486655e-12
2.94112472267606e-13
2.70468980481183e-12
2.91594270902719e-13
2.70651124429804e-12
2.8762050522243e-13
2.7057688713659e-12
2.8229400477259e-13
2.70457243953343e-12
2.75380604210375e-13
2.70501754887503e-12
2.66738109376134e-13
2.7094397218183e-12
2.56278728496975e-13
2.7203035824898e-12
2.43728492794476e-13
2.74051699901368e-12
2.28787036365199e-13
2.77327139458438e-12
2.11031233555195e-13
2.82240288903876e-12
1.89932568609705e-13
2.8923110903178e-12
1.64765914100086e-13
2.98837582798062e-12
1.34595460508792e-13
3.11716953483489e-12
9.79818245479771e-14
3.2870377858126e-12
5.30505958491681e-14
3.50878318520688e-12
-3.03208932386644e-15
3.79753551143055e-12
-7.47396172726317e-14
4.17689030903463e-12
-1.7058044361873e-13
4.69168216091809e-12
-3.1092130656852e-13
5.39930935716551e-12
-5.06574572021482e-13
6.54158301077509e-12
-9.39848378549141e-13
8.62315769642243e-12
-1.87363303999251e-12
6.71964897303835e-12
2.11267779858417e-12
6.8664317678922e-12
-1.03668804516446e-11
1.76097970490826e-11
-9.60551908939398e-12
2.00208086760819e-12
-8.22698587527406e-12
-2.58650074524859e-12
-7.18239533802261e-12
-1.39931737557624e-12
-5.87755189227244e-12
-1.22380171103808e-12
-4.64824135386329e-12
-9.61402048127317e-13
-3.57307307700355e-12
-6.72101261050085e-13
-2.64725840009938e-12
-4.29686163449291e-13
-1.84804769384859e-12
-2.34815839068183e-13
-1.15446302697582e-12
-7.8816430149431e-14
-5.49767195420799e-13
4.73168233492064e-14
-2.10801358678249e-14
1.50614299928711e-13
4.42036389874085e-13
2.35553058982788e-13
8.47779036961526e-13
3.06342438584491e-13
1.20296020758858e-12
3.65816364233973e-13
1.51324685243369e-12
4.15709116317991e-13
1.78360951608576e-12
4.57703680126863e-13
2.01824699116305e-12
4.92925324644782e-13
2.22105434569007e-12
5.22264006355051e-13
2.39541280271335e-12
5.46362954425568e-13
2.54465234100592e-12
5.65712029178109e-13
2.67170880480318e-12
5.80739867270599e-13
2.77952465724374e-12
5.91792513745434e-13
2.8708277674338e-12
5.98992960801627e-13
2.9484475817693e-12
6.02519566806997e-13
3.01494582566978e-12
6.0248304277609e-13
3.07313198191331e-12
5.98960057208739e-13
3.12570161006795e-12
5.91687500578422e-13
3.1755147036613e-12
5.80711886795742e-13
3.22535090415748e-12
5.66052594331338e-13
3.2783665150538e-12
5.47258307983196e-13
3.33776652282056e-12
5.23982137484604e-13
3.40720505771452e-12
4.95839486193274e-13
3.49058748805268e-12
4.62161232676876e-13
3.59250091606253e-12
4.22107148306807e-13
3.71807596816712e-12
3.74568931566329e-13
3.8735241882151e-12
3.18045758228214e-13
4.06608169533797e-12
2.50612630008662e-13
4.30469564632725e-12
1.69640124901439e-13
4.60045398268289e-12
7.12586904000123e-14
4.96756611350661e-12
-4.9689058354423e-14
5.42425131273054e-12
-2.00484792163891e-13
5.99407753449722e-12
-3.91106281101864e-13
6.70383396813423e-12
-6.33169641453274e-13
7.56382374715345e-12
-9.292215752945e-13
8.49520731468305e-12
-1.19843007088296e-12
9.14677212816002e-12
-1.34812914553147e-12
1.02377650625214e-11
-2.71243689790437e-12
1.0682840863734e-11
1.92360955436522e-12
1.77187981007406e-11
-1.26253643141197e-11
3.07203137422449e-11
-9.40140964957969e-12
-5.60922379246283e-13
-8.32868571934128e-12
-3.05374297195946e-12
-7.34637501432972e-12
-1.81685380879318e-12
-6.02487723170516e-12
-1.99798405967681e-12
-4.86297428368215e-12
-1.58128349299226e-12
-3.87932995587809e-12
-1.11592032052268e-12
-3.04621469072137e-12
-7.26296744894276e-13
-2.3336577740228e-12
-4.16478605295235e-13
-1.71907042514821e-12
-1.70420610229356e-13
-1.18544853200272e-12
2.70007655049135e-14
-7.19931661441368e-13
1.87378922972057e-13
-3.12640543675213e-13
3.18687765293418e-13
4.43570319404599e-14
4.27298429075175e-13
3.57645954021316e-13
5.17737775644308e-13
6.32521802664684e-13
5.93077741343183e-13
8.73655207473084e-13
6.55883802456555e-13
1.08497469038708e-12
7.07987878096472e-13
1.27008824227688e-12
7.50823846275031e-13
1.43211114435535e-12
7.85452125808423e-13
1.57404088598971e-12
8.12689235303483e-13
1.69853615070806e-12
8.33202751557239e-13
1.80825898312772e-12
8.47531924466725e-13
1.90561259801666e-12
8.55939137740357e-13
1.99308614968465e-12
8.58698507259873e-13
2.0729598588556e-12
8.55994642041085e-13
2.147785080161e-12
8.47799376942513e-13
2.21985340385843e-12
8.3396454311782e-13
2.29164169401367e-12
8.14502616664177e-13
2.36573898136887e-12
7.89174731937957e-13
2.44494547074666e-12
7.57460853562465e-13
2.53212983770616e-12
7.18806501314536e-13
2.63060167080856e-12
6.72522568610472e-13
2.7439183153916e-12
6.17563670027323e-13
2.87626598426567e-12
5.5258713637922e-13
3.03236108699499e-12
4.75827450020565e-13
3.21794309216708e-12
3.8485654433728e-13
3.43971045356723e-12
2.7663019830208e-13
3.70601635906378e-12
1.46874275663044e-13
4.02731092231818e-12
-1.06450697951859e-14
4.41711213070359e-12
-2.04311418813096e-13
4.89314746508376e-12
-4.46020159365016e-13
5.47954279111006e-12
-7.52286157247149e-13
6.20816658794449e-12
-1.14230569581863e-12
7.10868607682882e-12
-1.61502259265948e-12
8.16095292772166e-12
-2.0370516103937e-12
8.88100879623544e-12
-1.84856730701011e-12
9.77181957402691e-12
-3.36951542321039e-12
1.27431153372974e-11
-7.96432832893479e-13
3.06266380803661e-11
-9.51755956363812e-12
4.07298481690012e-11
-9.42486388530876e-12
-4.67529539306367e-16
-8.23578989108269e-12
-3.67628589748127e-12
-6.89853162832747e-12
-2.6329609050707e-12
-5.57392309503389e-12
-2.81944428877404e-12
-4.49826702250263e-12
-2.1592345726993e-12
-3.62153805848961e-12
-1.49729554280749e-12
-2.88880241237061e-12
-9.66986559978375e-13
-2.26469416834881e-12
-5.5388565542907e-13
-1.72682308949775e-12
-2.28995155877718e-13
-1.25971489499053e-12
3.02037358566609e-14
-8.51983421844684e-13
2.3976032452633e-13
-4.94920370770866e-13
4.10793637378063e-13
-1.8157805896929e-13
5.51622084816237e-13
9.383507935183e-14
6.6824702224432e-13
3.35991420177629e-13
7.64897676038774e-13
5.4903053444181e-13
8.44911635309728e-13
7.36425663698143e-13
9.1075009392241e-13
9.01382943541723e-13
9.64323369362416e-13
1.04666159617571e-12
1.00706495153888e-12
1.17491140784171e-12
1.0400974249467e-12
1.28848141080174e-12
1.06429237202662e-12
1.38975670805181e-12
1.08033816571084e-12
1.48083667331388e-12
1.08866898726149e-12
1.5638912589639e-12
1.0896591598576e-12
1.64101412110642e-12
1.08344192282267e-12
1.71438354664543e-12
1.07006026544049e-12
1.7859811958557e-12
1.04942607376262e-12
1.85807615113748e-12
1.02140680349503e-12
1.93291374762965e-12
9.85650285968614e-13
2.0129617551848e-12
9.41547755848117e-13
2.10075441778555e-12
8.88347447011859e-13
2.19921677017979e-12
8.25098120979494e-13
2.31147656120088e-12
7.50430848150236e-13
2.44122330395656e-12
6.62560258358909e-13
2.59259646701184e-12
5.59151758368107e-13
2.77062139608565e-12
4.36981150070812e-13
2.98112290143537e-12
2.92055107595787e-13
3.23136588088682e-12
1.18669086959659e-13
3.5304181283126e-12
-9.14639141676183e-14
3.89003398432965e-12
-3.49564181517429e-13
4.32594509662694e-12
-6.71889434159555e-13
4.86075822976271e-12
-1.08197039808227e-12
5.52913998374011e-12
-1.6109108945726e-12
6.38412329262702e-12
-2.27462804459754e-12
7.47762319329505e-12
-2.93571686797072e-12
8.62412045021865e-12
-2.79294682773542e-12
9.74451403604712e-12
-4.27040263024022e-12
9.63308561973859e-12
-4.39184575629917e-13
4.04212793558648e-11
-6.22732462693249e-12
4.7442783681451e-11
-8.92293153984273e-12
3.33142148626411e-12
-7.86067796194475e-12
-4.2032724524361e-12
-6.43406400887657e-12
-3.57090819548444e-12
-5.21200227065841e-12
-3.57061379762502e-12
-4.23214758316419e-12
-2.67369886374838e-12
-3.43578144660674e-12
-1.83078104263246e-12
-2.76865571965182e-12
-1.17458992071671e-12
-2.1984849194759e-12
-6.69752460549474e-13
-1.70539596736844e-12
-2.74891524460635e-13
-1.27585428658202e-12
3.92904694295192e-14
-8.99946231041137e-13
2.9279476822461e-13
-5.700002444793e-13
4.99418158425804e-13
-2.79879561068876e-13
6.69180585685828e-13
-2.43933420813042e-14
8.0933001433037e-13
2.00684315075238e-13
9.25090677316565e-13
3.99128615866339e-13
1.02047972689989e-12
5.74119431887489e-13
1.09851414787007e-12
7.28620520493947e-13
1.16152145564494e-12
8.65175263367211e-13
1.21128208642144e-12
9.86254872687469e-13
1.24917950659686e-12
1.09403206039064e-12
1.27628959025894e-12
1.19072377854475e-12
1.2934343137142e-12
1.27827874528108e-12
1.30120519339449e-12
1.35873931606554e-12
1.3000474691361e-12
1.43403792722703e-12
1.29008025073082e-12
1.50619042059688e-12
1.27141367587462e-12
1.57704663035646e-12
1.24399292549668e-12
1.64872940826864e-12
1.20755088092937e-12
1.72330462469739e-12
1.16165869448253e-12
1.80307040522425e-12
1.10560564570784e-12
1.89036895756598e-12
1.03846897402306e-12
1.98790007255888e-12
9.59064723478781e-13
2.09853703184832e-12
8.65733391761738e-13
2.22565860942258e-12
7.56299681490838e-13
2.37301957818979e-12
6.27938175710753e-13
2.54514413470915e-12
4.76742541038186e-13
2.74723210509132e-12
2.97900674873337e-13
2.98569815747201e-12
8.45041844428494e-14
3.26842348780262e-12
-1.73439161414279e-13
3.60552549579153e-12
-4.8953004920457e-13
4.0104299642498e-12
-8.83710112061451e-13
4.50245856306354e-12
-1.38555818425941e-12
5.1118520671512e-12
-2.03697494534062e-12
5.88975829836936e-12
-2.87341914976056e-12
6.90127438469158e-12
-3.76838508752643e-12
8.17567350282682e-12
-3.88051393832706e-12
9.24410302872293e-12
-5.13322679981391e-12
6.34126420994148e-12
2.69902879390214e-12
4.691605411843e-11
-4.38625289054087e-12
5.23056288216292e-11
-7.77642983945635e-12
7.3423963215117e-12
-7.05913846813088e-12
-4.40547765288676e-12
-5.8863839358225e-12
-4.27530144191628e-12
-4.86153504868038e-12
-4.14483739816744e-12
-4.00324998440004e-12
-3.08694101910676e-12
-3.28626039365674e-12
-2.1053896105006e-12
-2.67555842542421e-12
-1.34635187422356e-12
-2.14801961541805e-12
-7.63523753159635e-13
-1.68841452154102e-12
-3.07672954208022e-13
-1.28585340819338e-12
5.52505311727724e-14
-9.3210607014749e-13
3.48208463109141e-13
-6.20590205305986e-13
5.87058393522998e-13
-3.45935900703447e-13
7.83183409491993e-13
-1.03508288176538e-13
9.44855789269003e-13
1.10530386804988e-13
1.0781205264016e-12
2.99649692362241e-13
1.18758542539176e-12
4.66798959158086e-13
1.27674576301895e-12
6.14754809081477e-13
1.34829931710686e-12
7.45905952070612e-13
1.4043393540569e-12
8.6259880781399e-13
1.44647819004123e-12
9.66887032340132e-13
1.4759889069212e-12
1.06087116666795e-12
1.49382253988306e-12
1.14639898527662e-12
1.50071245075896e-12
1.22545004461849e-12
1.49713469510733e-12
1.29983011597404e-12
1.48325895296427e-12
1.37144762921084e-12
1.45924116919505e-12
1.44209704276904e-12
1.42500937357273e-12
1.51378252895485e-12
1.38022325960402e-12
1.58845769373315e-12
1.32437329547141e-12
1.66830817667649e-12
1.25664450856006e-12
1.7555350837401e-12
1.17597411179202e-12
1.85267419336312e-12
1.08096638066517e-12
1.96241974155678e-12
9.69688391502049e-13
2.08789832114937e-12
8.3964616840297e-13
2.23255260739731e-12
6.87585957873335e-13
2.40048035502869e-12
5.09032599221698e-13
2.59631943232518e-12
2.98494740877639e-13
2.82568889901459e-12
4.80960426260406e-14
3.09529237377451e-12
-2.53471793402013e-13
3.41348470770891e-12
-6.21599195437387e-13
3.79087944634378e-12
-1.0788559897092e-12
4.24194928889975e-12
-1.65884566683446e-12
4.78779255809596e-12
-2.4100070249365e-12
5.46132920348427e-12
-3.37829612682565e-12
6.29687182213822e-12
-4.43548326296299e-12
7.3385274832458e-12
-4.74541200506782e-12
8.08210595559975e-12
-5.68068942373165e-12
4.47339266700548e-12
6.53476091646071e-12
5.15382267695996e-11
-3.33241989868526e-12
5.61006725814576e-11
-6.43131657487211e-12
1.1041141160023e-11
-6.09908441710604e-12
-4.24481995904491e-12
-5.27724932775531e-12
-4.64978351188484e-12
-4.47100589283727e-12
-4.52080441630204e-12
-3.74399335807014e-12
-3.38925235667326e-12
-3.10882367563408e-12
-2.31868817213328e-12
-2.55327926076841e-12
-1.48359027566615e-12
-2.06535777023002e-12
-8.38326076266489e-13
-1.63555071702126e-12
-3.31211812386405e-13
-1.25615484260632e-12
7.39958602170868e-14
-9.20879346564939e-13
4.01947178838632e-13
-6.24371114000506e-13
6.69830850176493e-13
-3.62086358044853e-13
8.89975819874619e-13
-1.29975816895413e-13
1.071428972352e-12
7.5392286268671e-14
1.22086988668393e-12
2.57185907126698e-13
1.34338842443308e-12
4.1813033646545e-13
1.44287775420394e-12
5.60821137082954e-13
1.52235986565217e-12
6.87512437076491e-13
1.58419329162616e-12
8.00430206985591e-13
1.63020236191837e-12
9.01535661133444e-13
1.66182979151981e-12
9.92834253006855e-13
1.68015547757876e-12
1.07609572348989e-12
1.68603795161034e-12
1.15323866533532e-12
1.6799652153067e-12
1.22597982838165e-12
1.66218644800855e-12
1.29614455133519e-12
1.63289568081077e-12
1.36548020860529e-12
1.59196892209366e-12
1.43589930850799e-12
1.53903602950374e-12
1.5092620184011e-12
1.47350942251028e-12
1.58766156672497e-12
1.39446805493291e-12
1.67318032087781e-12
1.30073670627035e-12
1.7682086227325e-12
1.19073297915215e-12
1.87527395173204e-12
1.06227359972089e-12
1.99726166065435e-12
9.12619370746738e-13
2.13731661584254e-12
7.38146120003917e-13
2.2991136560183e-12
5.33934930013696e-13
2.48671575764794e-12
2.93969907256003e-13
2.70490255220455e-12
9.67352068123824e-15
2.95911526670269e-12
-3.31149400975076e-13
3.2557761419478e-12
-7.45004091660952e-13
3.60231287316028e-12
-1.25583116098812e-12
4.0076476191232e-12
-1.89890480198723e-12
4.48246123055016e-12
-2.72436839971686e-12
5.03858506438403e-12
-3.77805523596452e-12
5.67320933859799e-12
-4.91393014800869e-12
6.37218656264936e-12
-5.27991555748558e-12
6.71251611769984e-12
-5.83749541167351e-12
3.40118886845218e-12
1.00598738660152e-11
5.50780894040358e-11
-2.64199708809301e-12
5.91927705241917e-11
-5.21737153895321e-12
1.4199032295132e-11
-5.18915342679873e-12
-3.79523008943456e-12
-4.66649564946223e-12
-4.73901723346599e-12
-4.05707884896987e-12
-4.71360416825747e-12
-3.4560035298109e-12
-3.57932179199632e-12
-2.90180265105062e-12
-2.46487075190259e-12
-2.40107439808675e-12
-1.57999283854853e-12
-1.95213397979906e-12
-8.88165481126479e-13
-1.55118764037128e-12
-3.39856719294175e-13
-1.19386134804964e-12
1.0096548903206e-13
-8.75913764343442e-13
4.59336630774223e-13
-5.93309733512352e-13
7.53028070135675e-13
-3.42375766054242e-13
9.94854746965818e-13
-1.19682533314018e-13
1.19438006851154e-12
7.77721264350386e-14
1.35872281635078e-12
2.52844143612821e-13
1.49333381406992e-12
4.08022949036982e-13
1.60242624287759e-12
5.45723249261462e-13
1.68928881771268e-12
6.68063732560896e-13
1.75650036411829e-12
7.77152969180644e-13
1.80607657748806e-12
8.74857683482736e-13
1.83960718674877e-12
9.63094668055445e-13
1.85829370841464e-12
1.04357559228238e-12
1.8630898860198e-12
1.11814138054383e-12
1.85451388285234e-12
1.18843328315657e-12
1.83289260625039e-12
1.25622069446375e-12
1.79843765330555e-12
1.32318347499883e-12
1.75098574303196e-12
1.39116104382048e-12
1.69014110094563e-12
1.4619320265507e-12
1.61524802500899e-12
1.53749356216937e-12
1.52529237330657e-12
1.61981257889579e-12
1.41900732334416e-12
1.7111437339605e-12
1.29464321528094e-12
1.813840886378e-12
1.14980520066965e-12
1.93055379832273e-12
9.81569738934168e-13
2.06411840072432e-12
7.8601729496785e-13
2.21777716402292e-12
5.57908378835101e-13
2.39499485520918e-12
2.90871134187486e-13
2.59968358496957e-12
-2.41029179759307e-14
2.83597766187658e-12
-3.99650109092933e-13
3.10829473797812e-12
-8.5268847475605e-13
3.42085208800614e-12
-1.40731821496709e-12
3.77717121785906e-12
-2.09830203764521e-12
4.17843077166646e-12
-2.97341522901656e-12
4.61909114912239e-12
-4.07055440085688e-12
5.06996247059144e-12
-5.21692942065436e-12
5.47156205398818e-12
-5.52551635307863e-12
5.47483843514066e-12
-5.66615708524426e-12
2.70347467038868e-12
1.30349372945183e-11
5.79145321246491e-11
-2.14429176274834e-12
6.17703147533702e-11
-4.22497695497282e-12
1.68385644394452e-11
-4.39503403066288e-12
-3.16864163301897e-12
-4.09104056219961e-12
-4.62882972153024e-12
-3.64279430996308e-12
-4.76358968378148e-12
-3.15417518072368e-12
-3.67522790207207e-12
-2.67661360031028e-12
-2.55286144308932e-12
-2.2294675945647e-12
-1.64139532141632e-12
-1.81924378056875e-12
-9.17916196140053e-13
-1.44715603562472e-12
-3.38226508775911e-13
-1.11194887924543e-12
1.31585899529249e-13
-8.11370366751447e-13
5.15791750684806e-13
-5.42693591392123e-13
8.32046534961267e-13
-3.03129156308508e-13
1.09321604874471e-12
-8.98849287367896e-14
1.30912413318927e-12
9.96030843110302e-14
1.48712538406154e-12
2.67866481747894e-13
1.63291319091449e-12
4.17153130675037e-13
1.75093673273165e-12
5.49692225824738e-13
1.84469280477442e-12
6.67453444071518e-13
1.91694283163238e-12
7.72430704341069e-13
1.96985823954269e-12
8.66393174977724e-13
2.00515843175652e-12
9.51173809623247e-13
2.02415105257165e-12
1.0284137240595e-12
2.02787225250048e-12
1.09987104032708e-12
2.01688097990836e-12
1.16712637070624e-12
1.99156042743166e-12
1.23189127652927e-12
1.95213562127804e-12
1.29577252253548e-12
1.89842029045866e-12
1.3605378799576e-12
1.82999029813796e-12
1.42787898988258e-12
1.74613805405444e-12
1.49969467023398e-12
1.64576712661533e-12
1.57784423315245e-12
1.527529025876e-12
1.66444794636307e-12
1.38953230447595e-12
1.76165060528183e-12
1.22924671357366e-12
1.87188688064677e-12
1.04356956753678e-12
1.99767682300575e-12
8.28388163356008e-13
2.14182226161167e-12
5.7826626939624e-13
2.30718525330327e-12
2.86641586902273e-13
2.49680400416849e-12
-5.56526588639321e-14
2.7135332065766e-12
-4.6128229164687e-13
2.95986821025029e-12
-9.46930780670372e-13
3.23707207694931e-12
-1.53581941114986e-12
3.54397117087205e-12
-2.2604633408233e-12
3.87420595840978e-12
-3.16345183462436e-12
4.21036607115858e-12
-4.27047748473426e-12
4.50923314026133e-12
-5.37988344422435e-12
4.69152394587371e-12
-5.56415643738571e-12
4.46405261263757e-12
-5.27748328619064e-12
2.20456581160039e-12
1.54827674745293e-11
6.02404034008397e-11
-1.76481024759136e-12
6.39538201829732e-11
-3.43970084044291e-12
1.90529023648653e-11
-3.71970679914727e-12
-2.44727764707718e-12
-3.56594967428059e-12
-4.38198607924733e-12
-3.24325318320643e-12
-4.70123872426696e-12
-2.85050049996993e-12
-3.68847898810423e-12
-2.44277572572844e-12
-2.58436089097828e-12
-2.04663507627599e-12
-1.66525325930845e-12
-1.67433080240335e-12
-9.2324523032525e-13
-1.33105511467113e-12
-3.2123880922434e-13
-1.0182118589788e-12
1.71222088186325e-13
-7.35365742069347e-13
5.76780745822684e-13
-4.80992268362204e-13
9.12346005117815e-13
-2.5319147359944e-13
1.19051085847678e-12
-4.97746033505484e-14
1.42106524108031e-12
1.31384189746711e-13
1.61143091943035e-12
2.92488626404312e-13
1.76742971278765e-12
4.35537472705193e-13
1.89366713068351e-12
5.62571751478449e-13
1.99378452660189e-12
6.75411917760026e-13
2.07068782088855e-12
7.75929246072118e-13
2.1266752405618e-12
8.65788889133492e-13
2.16357804714074e-12
9.46737132672127e-13
2.18279097002026e-12
1.02034013391276e-12
2.18542167471053e-12
1.08827604652487e-12
2.17207330768751e-12
1.15205904772777e-12
2.14317356271745e-12
1.21333625702089e-12
2.0989567649913e-12
1.27363790048878e-12
2.03922728721438e-12
1.33465477861408e-12
1.96353172292529e-12
1.39799681454254e-12
1.87111694755733e-12
1.46545730183626e-12
1.76082610749473e-12
1.53878224050535e-12
1.63123863680507e-12
1.61995232999458e-12
1.48034590288792e-12
1.71090546535333e-12
1.30555117045513e-12
1.81386273533652e-12
1.10357768661062e-12
1.93100621412086e-12
8.70246101357354e-13
2.06472280993659e-12
5.99999581049825e-13
2.21728423343942e-12
2.86263558269521e-13
2.39089455832771e-12
-8.00416706726178e-14
2.58721271227784e-12
-5.11243482271404e-13
2.80700403468433e-12
-1.02325105515034e-12
3.04900968206149e-12
-1.63760671356284e-12
3.30834643316176e-12
-2.38339189560677e-12
3.57332722945856e-12
-3.29641297339526e-12
3.8197009071537e-12
-4.38870933178201e-12
3.99928011967903e-12
-5.43178598065285e-12
4.0300831832624e-12
-5.45995089317632e-12
3.66693352320699e-12
-4.7626071692326e-12
1.82680853231768e-12
1.74998724080915e-11
6.21821730451486e-11
-1.46614892338866e-12
6.5819459206096e-11
-2.82141460315519e-12
2.09210421660057e-11
-3.14891861408118e-12
-1.70147434297203e-12
-3.09441204919918e-12
-4.05655961852554e-12
-2.86647377901387e-12
-4.56378543801327e-12
-2.55290857780707e-12
-3.64208903839096e-12
-2.20694123331555e-12
-2.57376951814249e-12
-1.85811964374787e-12
-1.66156293097062e-12
-1.52221987510861e-12
-9.11962073412158e-13
-1.20729871683161e-12
-2.95625299424095e-13
-9.16871563735078e-13
2.13676811081268e-13
-6.52045109617284e-13
6.36370583744249e-13
-4.12377520905892e-13
9.88142745028745e-13
-1.9679120690426e-13
1.28104157578424e-12
-3.64823740523406e-15
1.52454355761809e-12
1.68743935187782e-13
1.72601565175304e-12
3.2226797723223e-13
1.891291648415e-12
4.5867999900786e-13
2.0250534349281e-12
5.79828500460882e-13
2.13103431258795e-12
6.87380991034285e-13
2.21224486898553e-12
7.83079676077133e-13
2.27108364687483e-12
8.68489435284708e-13
2.30946587949248e-12
9.45261651227291e-13
2.32886581126216e-12
1.01488123582859e-12
2.33044990089474e-12
1.07894554879622e-12
2.31486299685781e-12
1.13889755689405e-12
2.28256859633932e-12
1.19631340457952e-12
2.2338089573721e-12
1.25264819015873e-12
2.1683842965032e-12
1.30951025289452e-12
2.08581757139463e-12
1.36842257361768e-12
1.98531609189252e-12
1.43106926954928e-12
1.86568329606951e-12
1.49907964711226e-12
1.72543527276158e-12
1.57428131081446e-12
1.56248135240021e-12
1.65845125350391e-12
1.37416706755126e-12
1.75355312399397e-12
1.15713726563111e-12
1.86144897246412e-12
9.07209869409951e-13
1.98411970982643e-12
6.18792991299057e-13
2.12330291542858e-12
2.85431118859042e-13
2.28042809241971e-12
-1.01626428099623e-13
2.45608918192855e-12
-5.54071341332375e-13
2.64959814478922e-12
-1.08664385501563e-12
2.85768530890409e-12
-1.71863987330114e-12
3.07279074632936e-12
-2.47504099590228e-12
3.27992877598615e-12
-3.38426684263332e-12
3.45180508498863e-12
-4.4450341945693e-12
3.54093581456708e-12
-5.40585948581814e-12
3.47115695216012e-12
-5.26833940684749e-12
3.04196295152081e-12
-4.19626972882282e-12
1.52983664388597e-12
1.9172061189297e-11
6.38141909084945e-11
-1.22602506886777e-12
6.74286386001332e-11
-2.33097344471825e-12
2.25173792444818e-11
-2.665680752451e-12
-9.64999957872732e-13
-2.67383328887451e-12
-3.68324932931486e-12
-2.51579883582796e-12
-4.37080198013804e-12
-2.26620561357473e-12
-3.54607018404287e-12
-1.97357351868798e-12
-2.52428611558558e-12
-1.66770519059977e-12
-1.62944227739422e-12
-1.36609602841236e-12
-8.80915481645498e-13
-1.0786224974178e-12
-2.57018275943192e-13
-8.10373548528301e-13
2.63988914674849e-13
-5.63670673361712e-13
6.99937604674809e-13
-3.39009505185905e-13
1.06499918821915e-12
-1.36006085047524e-13
1.37042306478317e-12
4.64525450375582e-14
1.62519567275075e-12
2.09663769766151e-13
1.83649579652588e-12
3.55202403323138e-13
2.01007792873563e-12
4.84586401112431e-13
2.15063023846286e-12
5.99475195139499e-13
2.26192608782946e-12
7.01382927331004e-13
2.34704584968211e-12
7.9192512053085e-13
2.40845951519232e-12
8.72557151026468e-13
2.44815041681097e-12
9.4483382198037e-13
2.46765649481728e-12
1.01015648874873e-12
2.46819229128073e-12
1.07004068771908e-12
2.45044031637727e-12
1.12585172872706e-12
2.41489737908901e-12
1.17909015451708e-12
2.36180960583208e-12
1.23113023759739e-12
2.29098036655857e-12
1.28349706241271e-12
2.20190932903481e-12
1.33762672162408e-12
2.0937696182385e-12
1.39508889575743e-12
1.96535063024407e-12
1.4573907410365e-12
1.81511470415312e-12
1.52621344348318e-12
1.64091089491435e-12
1.60316684180522e-12
1.44005021547782e-12
1.68996437378586e-12
1.20917959483733e-12
1.78820548102453e-12
9.44129040908422e-13
1.89942541677218e-12
6.3945362274636e-13
2.02492114290033e-12
2.88814821381876e-13
2.16543356694372e-12
-1.15959205822203e-13
2.32065506064787e-12
-5.85704124184467e-13
2.48873701822128e-12
-1.13372556386682e-12
2.66492885554195e-12
-1.77674115581598e-12
2.83994890342479e-12
-2.53538854234221e-12
2.99716087638045e-12
-3.43078676756993e-12
3.10884481592379e-12
-4.4496249796661e-12
3.13126167604318e-12
-5.32181195308896e-12
2.99762204980188e-12
-5.02195464423747e-12
2.54851131072961e-12
-3.6200732657282e-12
1.29069453444721e-12
2.05777680942823e-11
6.52003811260258e-11
-1.02878975721648e-12
6.88193719253182e-11
-1.93608318184408e-12
2.38869285068573e-11
-2.25455221751516e-12
-2.69887134738838e-13
-2.29950590040081e-12
-3.29569077577618e-12
-2.19177670353535e-12
-4.14898462578345e-12
-1.99292365341352e-12
-3.42063898115446e-12
-1.74555380536914e-12
-2.45095070968131e-12
-1.47800677153263e-12
-1.5804739668197e-12
-1.2081680337493e-12
-8.39553782400945e-13
-9.46885037651178e-13
-2.13574974258134e-13
-7.00293969847566e-13
3.14770876141275e-13
-4.71619006200276e-13
7.60557028669341e-13
-2.62108422907941e-13
1.13627351443962e-12
-7.19513405771063e-14
1.45217994557963e-12
9.94920295753377e-14
1.71666511555597e-12
2.53163765548665e-13
1.93659755242757e-12
3.90351016430518e-13
2.11757976956688e-12
5.12350266345077e-13
2.26423952457579e-12
6.20634281858923e-13
2.3803522263064e-12
7.16566468442463e-13
2.46903202816116e-12
8.01636799877262e-13
2.53279309348272e-12
8.77187589835164e-13
2.57367458865645e-12
9.44675757053219e-13
2.59326145230078e-12
1.00541588085947e-12
2.59280549453693e-12
1.06083773949684e-12
2.57302406542449e-12
1.11222757851828e-12
2.53444232648119e-12
1.16100411515637e-12
2.47731073148609e-12
1.20846238879383e-12
2.40143465653069e-12
1.25603864222469e-12
2.30629826333759e-12
1.30507927407166e-12
2.19104326123484e-12
1.35703597503376e-12
2.05447100266501e-12
1.41329820757613e-12
1.89499143610358e-12
1.47541189928161e-12
1.71040899675314e-12
1.54479891191568e-12
1.49805433942914e-12
1.62295936431418e-12
1.25460000655956e-12
1.71123034706445e-12
9.75939014501815e-13
1.81077318329587e-12
6.56883428555417e-13
1.92247592016709e-12
2.91251478394516e-13
2.04651342154392e-12
-1.28392011407654e-13
2.18184200388925e-12
-6.11848633158025e-13
2.32575625300435e-12
-1.17086113338394e-12
2.47252663525684e-12
-1.81943411825306e-12
2.61194216236312e-12
-2.5739061692391e-12
2.72693227420312e-12
-3.44860459666308e-12
2.79109599480092e-12
-4.42002208306245e-12
2.76561110167059e-12
-5.20318619817113e-12
2.59437081795513e-12
-4.75190401923009e-12
2.1536429235199e-12
-3.06775874868743e-12
1.09574483055283e-12
2.1765601309287e-11
6.63780916592533e-11
-8.64146405832635e-13
7.00276865292961e-11
-1.61274464753665e-12
2.50745831985647e-11
-1.90219159029125e-12
3.78340166098359e-13
-1.96593886660183e-12
-2.90537926409185e-12
-1.89339437812607e-12
-3.90761706625159e-12
-1.73412111368991e-12
-3.2712139061721e-12
-1.5246204539794e-12
-2.35540112500021e-12
-1.29079734677447e-12
-1.51347889396669e-12
-1.05001654437791e-12
-7.84797770988288e-13
-8.13431162160433e-13
-1.60988921320388e-13
-5.8775612154077e-13
3.71081008772035e-13
-3.76830167905638e-13
8.23743973344227e-13
-1.82464789234839e-13
1.20774163524557e-12
-5.31514912226004e-15
1.53223730997369e-12
1.54864711093663e-13
1.80494120052408e-12
2.98702011240139e-13
2.03232950129757e-12
4.27224089441433e-13
2.21979381154744e-12
5.41521364858787e-13
2.37184730654843e-12
6.42888714390091e-13
2.49223663332715e-12
7.32545788248516e-13
2.58407676703665e-12
8.1185253606655e-13
2.6499092157369e-12
8.820438993986e-13
2.69180850280512e-12
9.44471618597097e-13
2.71140142908868e-12
1.00036649197144e-12
2.70995810520279e-12
1.05107027148135e-12
2.68823218356415e-12
1.09778458707513e-12
2.64677580579369e-12
1.14184256557978e-12
2.58584257614539e-12
1.18445919524815e-12
2.50523682131083e-12
1.22697743766257e-12
2.40443767431746e-12
1.27065078197989e-12
2.28255737423573e-12
1.31682566555242e-12
2.13841918378416e-12
1.36676920265174e-12
1.97039949208124e-12
1.42188613257751e-12
1.77627489541236e-12
1.48342884675642e-12
1.55342532076293e-12
1.55270446982936e-12
1.29857036339474e-12
1.63078796686244e-12
1.0077371663587e-12
1.71857074470532e-12
6.76001553573774e-13
1.8165195781514e-12
2.97492751801803e-13
1.92439969615754e-12
-1.34497292955742e-13
2.04062085476789e-12
-6.2859094660784e-13
2.16188495365062e-12
-1.19491452988767e-12
2.28191195642032e-12
-1.84478723239424e-12
2.39019480822257e-12
-2.59049670722768e-12
2.47013401119626e-12
-3.44035541918121e-12
2.49756982140411e-12
-4.36250010268325e-12
2.43890414773617e-12
-5.06029739260671e-12
2.24852712763313e-12
-4.47213933116885e-12
1.83225783300215e-12
-2.55031710050165e-12