/*--------------------------------*- C++ -*----------------------------------*\
  =========                 |
  \\      /  F ield         | OpenFOAM: The Open Source CFD Toolbox
   \\    /   O peration     | Website:  https://openfoam.org
    \\  /    A nd           | Version:  10
     \\/     M anipulation  |
\*---------------------------------------------------------------------------*/
FoamFile
{
    format      ascii;
    class       volScalarField;
    location    "1.2";
    object      rho;
}
// * * * * * * * * * * * * * * * * * * * * * * * * * * * * * * * * * * * * * //

dimensions      [1 -3 0 0 0 0 0];

internalField   nonuniform List<scalar> 
2500
(
1.1424064540697
1.14282974165107
1.14291920035179
1.14293140498197
1.1429329441072
1.14293315484059
1.14293318804607
1.14293319893715
1.14293320715396
1.14293321083623
1.14293321663932
1.14293322054368
1.14293322291426
1.1429332260248
1.14293322889917
1.14293323218002
1.1429332337568
1.14293323584579
1.14293323820517
1.14293323981327
1.1429332417994
1.14293324559333
1.14293324877844
1.14293324781332
1.14293324705016
1.14293324920206
1.14293324935815
1.14293324984217
1.14293325148993
1.14293324950583
1.1429332481324
1.14293324778248
1.14293324686391
1.14293324547198
1.14293324338759
1.14293324215724
1.14293324080632
1.14293323969511
1.1429332374275
1.14293323529788
1.1429332327953
1.14293322976869
1.14293322534899
1.14293321561224
1.14293316703897
1.14293290440054
1.14293119998939
1.1429186936416
1.142827779157
1.14240611522876
1.15365235632385
1.15419728174008
1.15450099106151
1.15455413752973
1.15456274484239
1.15456411885692
1.15456433131778
1.15456436389355
1.1545643698499
1.15456437106992
1.15456437244396
1.15456437330681
1.15456437356732
1.15456437400263
1.15456437441489
1.15456437490377
1.15456437533847
1.15456437563868
1.15456437567589
1.1545643760855
1.15456437786185
1.15456438059081
1.15456438253303
1.15456438168485
1.15456438073303
1.15456438138778
1.15456438058429
1.1545643813303
1.15456438290408
1.1545643810694
1.15456438027627
1.15456438167275
1.154564379549
1.15456437612568
1.15456437502402
1.15456437463552
1.1545643743163
1.15456437409882
1.15456437365423
1.15456437326089
1.15456437262208
1.15456437076913
1.1545643615274
1.15456430889428
1.15456400907252
1.15456235922979
1.154553243681
1.15450033196671
1.15419245747367
1.15362857559162
1.15889590729889
1.15921929190841
1.15940980842091
1.15945043694191
1.15945730447321
1.15945843559241
1.15945861560253
1.15945864315138
1.15945864717168
1.15945864742638
1.15945864817037
1.15945864873825
1.15945864841444
1.15945864823613
1.15945864788056
1.15945864748566
1.15945864729807
1.15945864717066
1.15945864706489
1.15945864715268
1.15945864780288
1.15945864851557
1.15945864903651
1.15945864913671
1.15945864858275
1.15945864848472
1.1594586487222
1.15945864864911
1.15945864842428
1.15945864772775
1.15945864757337
1.15945864814877
1.1594586472887
1.15945864565517
1.1594586451024
1.15945864496216
1.15945864489428
1.15945864490214
1.15945864488017
1.15945864486335
1.15945864477012
1.15945864381451
1.15945863740678
1.1594585988006
1.15945837716513
1.15945714505434
1.15945024191033
1.15941014357602
1.15921636427494
1.15886528495436
1.16077465062264
1.16090832670286
1.16096862615544
1.1609841348038
1.16098682423052
1.16098726856726
1.16098734009235
1.16098735138474
1.16098735312475
1.16098735294179
1.16098735291834
1.16098735322205
1.16098735312315
1.16098735288027
1.16098735265115
1.16098735241622
1.16098735234252
1.1609873523355
1.16098735214175
1.16098735208898
1.16098735223512
1.1609873523388
1.16098735249397
1.16098735241862
1.16098735212399
1.16098735212706
1.16098735220689
1.16098735206329
1.16098735187576
1.16098735166224
1.16098735150187
1.16098735155009
1.16098735133207
1.160987350894
1.16098735068296
1.16098735058883
1.16098735053752
1.16098735066994
1.16098735067298
1.1609873505586
1.160987350742
1.16098735052526
1.16098734832565
1.16098733560816
1.16098726064112
1.1609868256327
1.16098424957682
1.16096893655018
1.16090716189659
1.16075655882919
1.16134350720517
1.16138818545297
1.16140345093181
1.16140816364275
1.16140902096872
1.16140916450538
1.16140918783217
1.16140919157501
1.16140919214314
1.16140919202542
1.1614091919773
1.16140919206096
1.16140919198428
1.1614091918629
1.16140919174675
1.16140919164043
1.1614091915912
1.16140919157497
1.16140919145927
1.16140919140956
1.16140919140712
1.16140919136785
1.16140919136181
1.16140919128638
1.16140919117466
1.16140919113697
1.16140919111117
1.16140919104384
1.16140919095519
1.16140919085507
1.16140919077156
1.16140919073487
1.16140919065374
1.16140919053601
1.16140919045284
1.16140919038451
1.1614091903695
1.16140919037648
1.16140919032307
1.16140919030793
1.1614091903908
1.16140919034317
1.1614091896923
1.16140918604719
1.16140916441122
1.16140903531382
1.16140824784361
1.16140360968439
1.16138787656465
1.16133595112576
1.16149670854251
1.16150966924296
1.16151310468795
1.16151435395486
1.16151459426094
1.16151463528103
1.16151464199099
1.16151464306621
1.16151464321423
1.16151464315709
1.16151464312091
1.16151464311448
1.16151464305929
1.16151464299328
1.16151464293026
1.16151464287501
1.16151464282964
1.16151464279219
1.16151464272618
1.16151464267676
1.16151464263651
1.16151464258361
1.16151464253939
1.16151464248028
1.16151464241453
1.16151464237011
1.16151464232397
1.16151464227473
1.16151464221761
1.1615146421512
1.16151464209714
1.16151464205203
1.16151464200132
1.161514641948
1.16151464189924
1.16151464184956
1.16151464182172
1.16151464179713
1.16151464176035
1.16151464173511
1.16151464172696
1.16151464170838
1.16151464153192
1.16151464055447
1.16151463483987
1.16151460027072
1.16151438693267
1.16151315810526
1.16150961311448
1.16149414014853
1.1615345349415
1.16153792989407
1.16153865575149
1.16153895757918
1.16153901901354
1.16153902974318
1.16153903150219
1.16153903177373
1.16153903179604
1.16153903176146
1.16153903173015
1.16153903170216
1.16153903165975
1.1615390316139
1.1615390315675
1.16153903152164
1.16153903147516
1.16153903143096
1.16153903137924
1.16153903132892
1.16153903128105
1.16153903122911
1.16153903117886
1.16153903112744
1.16153903107459
1.16153903102588
1.16153903097719
1.16153903092974
1.1615390308799
1.1615390308291
1.16153903078259
1.16153903073827
1.16153903069445
1.16153903065216
1.16153903061137
1.16153903057022
1.16153903053646
1.1615390305048
1.16153903047161
1.16153903044181
1.16153903041597
1.16153903039309
1.16153903033112
1.16153903007176
1.16153902864711
1.16153902004954
1.1615389669735
1.16153866917681
1.16153792524316
1.16153377483253
1.16154325559878
1.16154407856078
1.1615442271421
1.16154429532313
1.16154430996357
1.16154431258188
1.16154431300557
1.16154431305938
1.16154431304847
1.16154431302061
1.1615443129907
1.1615443129585
1.16154431292064
1.1615443128802
1.16154431283778
1.16154431279389
1.16154431274809
1.16154431270207
1.16154431265363
1.16154431260404
1.16154431255446
1.16154431250416
1.16154431245424
1.16154431240389
1.1615443123535
1.16154431230464
1.16154431225614
1.16154431220858
1.16154431216116
1.16154431211462
1.1615443120699
1.16154431202659
1.16154431198447
1.16154431194408
1.16154431190517
1.16154431186711
1.16154431183206
1.1615443117989
1.16154431176633
1.16154431173558
1.16154431170691
1.16154431168038
1.16154431164578
1.16154431156617
1.16154431121646
1.16154430919142
1.16154429681797
1.16154422919492
1.16154407942883
1.1615430515601
1.16154514545861
1.16154533313074
1.1615453631075
1.16154537774432
1.16154538104181
1.1615453816416
1.16154538173034
1.16154538172929
1.16154538170994
1.16154538168365
1.16154538165403
1.16154538162118
1.16154538158472
1.16154538154563
1.16154538150421
1.16154538146085
1.16154538141561
1.16154538136924
1.16154538132148
1.16154538127264
1.16154538122327
1.16154538117353
1.16154538112376
1.161545381074
1.16154538102456
1.16154538097579
1.16154538092753
1.16154538088016
1.16154538083369
1.1615453807883
1.16154538074423
1.1615453807015
1.16154538066008
1.16154538062023
1.16154538058193
1.16154538054496
1.16154538050979
1.16154538047638
1.16154538044432
1.1615453804138
1.16154538038488
1.16154538035758
1.16154538032961
1.16154538029276
1.16154538019723
1.16154537973128
1.16154537698588
1.16154536238229
1.16154533294957
1.16154509390428
1.16154552067634
1.16154556140785
1.16154556741523
1.16154557043393
1.16154557114007
1.16154557126531
1.16154557127427
1.16154557125991
1.16154557123834
1.16154557121225
1.16154557118262
1.16154557114969
1.16154557111364
1.16154557107493
1.16154557103385
1.16154557099074
1.16154557094585
1.16154557089958
1.16154557085213
1.16154557080373
1.16154557075473
1.16154557070539
1.16154557065594
1.16154557060659
1.16154557055757
1.16154557050907
1.16154557046122
1.16154557041422
1.16154557036821
1.1615455703233
1.16154557027966
1.16154557023735
1.16154557019639
1.16154557015695
1.16154557011905
1.16154557008263
1.16154557004783
1.16154557001465
1.16154556998302
1.16154556995293
1.16154556992433
1.16154556989726
1.16154556987121
1.16154556984445
1.16154556980649
1.16154556969129
1.16154556909741
1.16154556606153
1.1615455603544
1.16154550751825
1.16154557510344
1.16154558358906
1.16154558478791
1.16154558538966
1.16154558553099
1.16154558554935
1.16154558553981
1.16154558552209
1.16154558549978
1.16154558547358
1.16154558544387
1.16154558541093
1.16154558537502
1.16154558533648
1.1615455852956
1.16154558525271
1.16154558520809
1.16154558516206
1.16154558511489
1.16154558506685
1.16154558501821
1.16154558496923
1.16154558492014
1.16154558487117
1.16154558482253
1.1615455847744
1.16154558472695
1.16154558468035
1.16154558463474
1.16154558459026
1.16154558454701
1.1615455845051
1.16154558446458
1.16154558442555
1.16154558438806
1.16154558435211
1.16154558431776
1.161545584285
1.16154558425383
1.16154558422421
1.16154558419613
1.16154558416957
1.16154558414444
1.1615455841204
1.16154558409538
1.16154558405603
1.16154558392114
1.16154558330124
1.16154558219773
1.16154557099828
1.16154556411464
1.16154556582264
1.16154556606124
1.16154556617625
1.16154556619872
1.16154556619353
1.16154556617952
1.16154556616075
1.16154556613804
1.16154556611166
1.16154556608187
1.16154556604893
1.1615455660131
1.16154556597469
1.16154556593401
1.16154556589134
1.16154556584698
1.16154556580124
1.16154556575439
1.16154556570669
1.16154556565842
1.16154556560981
1.16154556556111
1.16154556551254
1.1615455654643
1.16154556541657
1.16154556536955
1.16154556532337
1.16154556527819
1.16154556523413
1.16154556519132
1.16154556514983
1.16154556510977
1.16154556507118
1.16154556503413
1.16154556499866
1.16154556496478
1.1615455649325
1.16154556490183
1.16154556487274
1.16154556484523
1.16154556481926
1.16154556479485
1.16154556477195
1.16154556475024
1.16154556472718
1.16154556468693
1.16154556455413
1.16154556433483
1.16154556204077
1.16154554020265
1.16154554053638
1.16154554058389
1.16154554060289
1.16154554060069
1.16154554059008
1.16154554057471
1.1615455405554
1.16154554053238
1.16154554050583
1.16154554047597
1.16154554044303
1.16154554040728
1.16154554036902
1.16154554032852
1.16154554028609
1.16154554024202
1.16154554019659
1.16154554015007
1.16154554010274
1.16154554005485
1.16154554000664
1.16154553995836
1.16154553991021
1.1615455398624
1.16154553981511
1.16154553976853
1.1615455397228
1.16154553967808
1.16154553963448
1.16154553959213
1.16154553955111
1.16154553951151
1.1615455394734
1.16154553943683
1.16154553940185
1.16154553936847
1.16154553933671
1.16154553930658
1.16154553927805
1.16154553925113
1.1615455392258
1.16154553920208
1.16154553918
1.16154553915959
1.16154553914046
1.16154553911966
1.16154553908275
1.16154553903236
1.16154553857371
1.1615455138043
1.1615455138676
1.16154551387692
1.16154551387683
1.16154551386917
1.16154551385699
1.16154551384095
1.16154551382123
1.16154551379794
1.16154551377123
1.1615455137413
1.16154551370838
1.16154551367272
1.16154551363461
1.16154551359433
1.16154551355216
1.16154551350838
1.16154551346328
1.16154551341713
1.16154551337018
1.1615455133227
1.16154551327492
1.16154551322707
1.16154551317937
1.16154551313202
1.1615455130852
1.16154551303909
1.16154551299384
1.1615455129496
1.16154551290649
1.16154551286462
1.16154551282409
1.16154551278499
1.16154551274739
1.16154551271133
1.16154551267686
1.16154551264402
1.16154551261281
1.16154551258324
1.1615455125553
1.16154551252899
1.16154551250432
1.1615455124813
1.16154551245998
1.16154551244046
1.16154551242277
1.16154551240643
1.16154551238856
1.16154551237071
1.16154551227878
1.16154548693707
1.16154548694835
1.1615454869497
1.16154548694536
1.16154548693612
1.16154548692317
1.16154548690663
1.16154548688655
1.16154548686301
1.16154548683616
1.16154548680617
1.16154548677328
1.16154548673773
1.16154548669979
1.16154548665973
1.16154548661784
1.16154548657438
1.16154548652963
1.16154548648386
1.16154548643732
1.16154548639026
1.16154548634293
1.16154548629554
1.16154548624831
1.16154548620144
1.16154548615512
1.16154548610951
1.16154548606476
1.16154548602103
1.16154548597843
1.16154548593708
1.16154548589707
1.1615454858585
1.16154548582142
1.1615454857859
1.16154548575198
1.16154548571969
1.16154548568905
1.16154548566007
1.16154548563274
1.16154548560708
1.16154548558308
1.16154548556077
1.16154548554021
1.16154548552149
1.16154548550474
1.16154548548993
1.16154548547638
1.16154548546522
1.1615454854448
1.16154545998177
1.16154545998308
1.16154545998241
1.1615454599767
1.16154545996666
1.16154545995315
1.16154545993617
1.16154545991576
1.161545459892
1.16154545986501
1.16154545983499
1.16154545980214
1.1615454597667
1.16154545972895
1.16154545968913
1.16154545964753
1.1615454596044
1.16154545956002
1.16154545951465
1.16154545946853
1.16154545942193
1.16154545937506
1.16154545932816
1.16154545928143
1.16154545923507
1.16154545918926
1.16154545914417
1.16154545909995
1.16154545905675
1.16154545901468
1.16154545897387
1.16154545893441
1.16154545889638
1.16154545885986
1.1615454588249
1.16154545879155
1.16154545875984
1.16154545872979
1.16154545870142
1.16154545867473
1.16154545864973
1.16154545862642
1.16154545860483
1.16154545858501
1.16154545856708
1.16154545855116
1.16154545853731
1.16154545852526
1.16154545851589
1.16154545850928
1.1615454330089
1.16154543300818
1.16154543300669
1.16154543300019
1.16154543298956
1.16154543297555
1.16154543295818
1.16154543293746
1.16154543291348
1.16154543288638
1.16154543285633
1.16154543282354
1.16154543278824
1.16154543275068
1.16154543271112
1.16154543266981
1.16154543262704
1.16154543258304
1.16154543253809
1.16154543249242
1.16154543244628
1.16154543239991
1.16154543235351
1.16154543230729
1.16154543226146
1.16154543221618
1.16154543217164
1.16154543212797
1.16154543208532
1.16154543204382
1.16154543200357
1.16154543196467
1.16154543192722
1.16154543189127
1.16154543185689
1.16154543182413
1.16154543179302
1.16154543176359
1.16154543173585
1.16154543170981
1.16154543168548
1.16154543166287
1.16154543164201
1.16154543162295
1.16154543160579
1.16154543159066
1.16154543157763
1.16154543156651
1.16154543155798
1.16154543155415
1.16154540603144
1.16154540603016
1.16154540602812
1.16154540602101
1.16154540600986
1.1615454059954
1.16154540597765
1.16154540595665
1.16154540593248
1.16154540590528
1.16154540587522
1.16154540584249
1.16154540580734
1.16154540576998
1.16154540573069
1.16154540568971
1.16154540564729
1.1615454056037
1.16154540555918
1.16154540551397
1.16154540546832
1.16154540542245
1.16154540537657
1.16154540533089
1.1615454052856
1.16154540524088
1.1615454051969
1.1615454051538
1.16154540511172
1.1615454050708
1.16154540503113
1.16154540499282
1.16154540495595
1.1615454049206
1.16154540488683
1.16154540485468
1.16154540482419
1.16154540479539
1.1615454047683
1.16154540474292
1.16154540471928
1.16154540469738
1.16154540467725
1.16154540465895
1.16154540464256
1.1615454046282
1.16154540461593
1.16154540460561
1.1615454045977
1.1615454045946
1.16154537905191
1.16154537905034
1.16154537904783
1.16154537904017
1.16154537902855
1.16154537901367
1.16154537899558
1.16154537897431
1.16154537894997
1.16154537892269
1.16154537889262
1.16154537885998
1.16154537882498
1.16154537878785
1.16154537874883
1.16154537870818
1.16154537866614
1.16154537862296
1.16154537857889
1.16154537853416
1.161545378489
1.16154537844365
1.16154537839831
1.16154537835318
1.16154537830846
1.16154537826431
1.1615453782209
1.16154537817839
1.16154537813691
1.16154537809658
1.16154537805751
1.1615453780198
1.16154537798354
1.1615453779488
1.16154537791565
1.16154537788412
1.16154537785427
1.16154537782612
1.16154537779969
1.161545377775
1.16154537775206
1.16154537773088
1.16154537771149
1.16154537769394
1.16154537767831
1.1615453776647
1.16154537765317
1.16154537764358
1.16154537763622
1.16154537763347
1.16154535207092
1.16154535206912
1.16154535206618
1.16154535205802
1.16154535204596
1.1615453520307
1.16154535201229
1.16154535199078
1.16154535196628
1.16154535193892
1.16154535190887
1.16154535187632
1.16154535184148
1.16154535180458
1.16154535176585
1.16154535172554
1.16154535168389
1.16154535164113
1.16154535159752
1.16154535155328
1.16154535150864
1.16154535146382
1.16154535141903
1.16154535137447
1.16154535133032
1.16154535128676
1.16154535124394
1.16154535120203
1.16154535116115
1.16154535112143
1.16154535108298
1.16154535104589
1.16154535101026
1.16154535097615
1.16154535094362
1.16154535091274
1.16154535088354
1.16154535085605
1.1615453508303
1.1615453508063
1.16154535078406
1.16154535076361
1.16154535074496
1.16154535072817
1.16154535071329
1.16154535070043
1.16154535068961
1.16154535068072
1.16154535067388
1.16154535067139
1.16154532508877
1.16154532508675
1.16154532508342
1.16154532507479
1.16154532506233
1.16154532504671
1.161545325028
1.16154532500626
1.16154532498162
1.1615453249542
1.16154532492417
1.16154532489172
1.16154532485706
1.16154532482039
1.16154532478196
1.161545324742
1.16154532470074
1.16154532465842
1.16154532461528
1.16154532457153
1.16154532452742
1.16154532448314
1.16154532443891
1.16154532439493
1.16154532435136
1.1615453243084
1.1615453242662
1.1615453242249
1.16154532418464
1.16154532414554
1.16154532410772
1.16154532407126
1.16154532403626
1.16154532400279
1.16154532397091
1.16154532394068
1.16154532391214
1.16154532388533
1.16154532386026
1.16154532383696
1.16154532381544
1.16154532379573
1.16154532377783
1.16154532376178
1.16154532374766
1.16154532373552
1.1615453237254
1.16154532371717
1.16154532371084
1.1615453237086
1.1615452981057
1.16154529810348
1.16154529809976
1.1615452980907
1.16154529807786
1.1615452980619
1.16154529804291
1.16154529802096
1.16154529799618
1.16154529796872
1.16154529793872
1.16154529790638
1.16154529787189
1.16154529783547
1.16154529779735
1.16154529775774
1.16154529771688
1.16154529767501
1.16154529763234
1.1615452975891
1.16154529754552
1.16154529750179
1.16154529745814
1.16154529741473
1.16154529737177
1.16154529732942
1.16154529728783
1.16154529724715
1.16154529720752
1.16154529716906
1.16154529713187
1.16154529709605
1.1615452970617
1.16154529702888
1.16154529699766
1.16154529696809
1.16154529694023
1.16154529691409
1.16154529688972
1.16154529686713
1.16154529684634
1.16154529682736
1.16154529681021
1.16154529679492
1.16154529678154
1.16154529677012
1.16154529676068
1.1615452967531
1.16154529674726
1.16154529674525
1.16154527112195
1.16154527111952
1.16154527111543
1.16154527110596
1.16154527109276
1.16154527107648
1.16154527105722
1.16154527103507
1.16154527101017
1.16154527098266
1.1615452709527
1.16154527092048
1.16154527088618
1.16154527085001
1.16154527081219
1.16154527077295
1.1615452707325
1.16154527069107
1.16154527064888
1.16154527060616
1.16154527056311
1.16154527051995
1.16154527047687
1.16154527043406
1.1615452703917
1.16154527034996
1.161545270309
1.16154527026895
1.16154527022995
1.16154527019213
1.16154527015559
1.16154527012042
1.16154527008672
1.16154527005456
1.16154527002401
1.16154526999511
1.16154526996792
1.16154526994248
1.16154526991881
1.16154526989693
1.16154526987687
1.16154526985863
1.16154526984223
1.16154526982769
1.16154526981505
1.16154526980435
1.16154526979559
1.16154526978864
1.16154526978327
1.16154526978151
1.16154524413772
1.16154524413509
1.16154524413064
1.16154524412078
1.16154524410724
1.16154524409065
1.16154524407113
1.1615452440488
1.16154524402378
1.16154524399624
1.16154524396632
1.16154524393421
1.1615452439001
1.16154524386419
1.16154524382669
1.16154524378781
1.16154524374777
1.16154524370679
1.16154524366509
1.16154524362288
1.16154524358038
1.16154524353778
1.16154524349528
1.16154524345307
1.16154524341132
1.1615452433702
1.16154524332986
1.16154524329045
1.1615452432521
1.16154524321492
1.16154524317903
1.16154524314452
1.16154524311148
1.16154524307998
1.16154524305009
1.16154524302187
1.16154524299537
1.16154524297062
1.16154524294765
1.1615452429265
1.16154524290716
1.16154524288967
1.16154524287402
1.16154524286024
1.16154524284834
1.16154524283835
1.16154524283025
1.16154524282392
1.16154524281902
1.1615452428175
1.16154521715325
1.16154521715043
1.16154521714563
1.16154521713538
1.16154521712151
1.16154521710462
1.16154521708485
1.16154521706233
1.16154521703721
1.16154521700964
1.16154521697977
1.16154521694778
1.16154521691386
1.16154521687821
1.16154521684102
1.16154521680251
1.16154521676288
1.16154521672236
1.16154521668114
1.16154521663946
1.16154521659749
1.16154521655546
1.16154521651354
1.16154521647193
1.16154521643079
1.1615452163903
1.16154521635059
1.16154521631182
1.16154521627411
1.16154521623758
1.16154521620234
1.16154521616849
1.16154521613611
1.16154521610528
1.16154521607606
1.16154521604852
1.16154521602271
1.16154521599865
1.16154521597639
1.16154521595596
1.16154521593736
1.16154521592061
1.16154521590572
1.16154521589269
1.16154521588153
1.16154521587224
1.1615452158648
1.16154521585909
1.16154521585466
1.16154521585337
1.16154519016876
1.16154519016575
1.1615451901606
1.16154519014998
1.16154519013579
1.16154519011861
1.16154519009859
1.16154519007589
1.16154519005067
1.16154519002306
1.16154518999324
1.16154518996138
1.16154518992766
1.16154518989226
1.16154518985539
1.16154518981724
1.16154518977803
1.16154518973795
1.16154518969723
1.16154518965606
1.16154518961464
1.16154518957317
1.16154518953184
1.16154518949082
1.1615451894503
1.16154518941042
1.16154518937135
1.16154518933321
1.16154518929615
1.16154518926027
1.16154518922568
1.16154518919249
1.16154518916077
1.16154518913061
1.16154518910206
1.1615451890752
1.16154518905007
1.16154518902672
1.16154518900517
1.16154518898545
1.16154518896759
1.16154518895158
1.16154518893745
1.16154518892517
1.16154518891475
1.16154518890617
1.16154518889938
1.16154518889429
1.16154518889033
1.16154518888926
1.16154516318447
1.16154516318127
1.16154516317579
1.16154516316479
1.16154516315027
1.1615451631328
1.16154516311255
1.16154516308967
1.16154516306434
1.16154516303671
1.16154516300694
1.1615451629752
1.16154516294167
1.16154516290653
1.16154516286997
1.16154516283219
1.16154516279338
1.16154516275376
1.16154516271352
1.16154516267287
1.16154516263199
1.16154516259108
1.16154516255033
1.16154516250991
1.16154516247
1.16154516243074
1.1615451623923
1.1615451623548
1.16154516231837
1.16154516228314
1.16154516224921
1.16154516221667
1.16154516218561
1.16154516215611
1.16154516212824
1.16154516210205
1.16154516207761
1.16154516205495
1.16154516203411
1.16154516201511
1.16154516199798
1.16154516198272
1.16154516196934
1.16154516195781
1.16154516194813
1.16154516194026
1.16154516193414
1.16154516192966
1.16154516192616
1.16154516192533
1.16154513620061
1.16154513619723
1.1615451361914
1.16154513618003
1.16154513616518
1.16154513614742
1.16154513612693
1.16154513610387
1.16154513607844
1.16154513605078
1.16154513602106
1.16154513598944
1.1615451359561
1.16154513592121
1.16154513588496
1.16154513584754
1.16154513580914
1.16154513576996
1.16154513573021
1.16154513569006
1.16154513564972
1.16154513560937
1.16154513556919
1.16154513552937
1.16154513549006
1.16154513545142
1.16154513541359
1.16154513537673
1.16154513534094
1.16154513530635
1.16154513527306
1.16154513524117
1.16154513521077
1.16154513518193
1.16154513515472
1.16154513512921
1.16154513510545
1.16154513508348
1.16154513506335
1.16154513504507
1.16154513502867
1.16154513501415
1.16154513500152
1.16154513499075
1.16154513498181
1.16154513497465
1.16154513496919
1.16154513496533
1.1615451349623
1.16154513496171
1.1615451092174
1.16154510921383
1.16154510920765
1.1615451091959
1.16154510918072
1.16154510916266
1.16154510914192
1.16154510911869
1.16154510909314
1.16154510906545
1.16154510903578
1.16154510900428
1.16154510897112
1.16154510893648
1.16154510890053
1.16154510886347
1.16154510882547
1.16154510878674
1.16154510874745
1.16154510870781
1.161545108668
1.1615451086282
1.1615451085886
1.16154510854936
1.16154510851064
1.16154510847261
1.16154510843541
1.16154510839916
1.161545108364
1.16154510833005
1.1615451082974
1.16154510826615
1.1615451082364
1.16154510820821
1.16154510818167
1.16154510815682
1.16154510813374
1.16154510811246
1.16154510809302
1.16154510807545
1.16154510805978
1.161545108046
1.16154510803412
1.16154510802411
1.16154510801591
1.16154510800947
1.16154510800468
1.16154510800145
1.16154510799889
1.16154510799854
1.16154508223505
1.16154508223129
1.16154508222476
1.16154508221261
1.16154508219709
1.16154508217873
1.16154508215773
1.16154508213432
1.16154508210866
1.16154508208093
1.1615450820513
1.16154508201991
1.16154508198693
1.16154508195253
1.16154508191689
1.16154508188017
1.16154508184257
1.16154508180427
1.16154508176545
1.1615450817263
1.16154508168701
1.16154508164776
1.16154508160871
1.16154508157005
1.16154508153192
1.16154508149449
1.16154508145789
1.16154508142226
1.16154508138772
1.16154508135439
1.16154508132237
1.16154508129176
1.16154508126265
1.1615450812351
1.16154508120921
1.16154508118502
1.1615450811626
1.161545081142
1.16154508112325
1.16154508110639
1.16154508109144
1.16154508107841
1.16154508106728
1.16154508105802
1.16154508105057
1.16154508104484
1.16154508104073
1.16154508103815
1.16154508103608
1.16154508103596
1.16154505525378
1.16154505524983
1.16154505524294
1.16154505523037
1.16154505521449
1.16154505519581
1.16154505517456
1.16154505515094
1.16154505512517
1.1615450550974
1.16154505506779
1.16154505503651
1.16154505500371
1.16154505496955
1.16154505493419
1.16154505489782
1.1615450548606
1.16154505482272
1.16154505478436
1.1615450547457
1.16154505470692
1.1615450546682
1.1615450546297
1.1615450545916
1.16154505455405
1.16154505451721
1.1615450544812
1.16154505444617
1.16154505441224
1.16154505437953
1.16154505434813
1.16154505431814
1.16154505428965
1.16154505426274
1.16154505423748
1.16154505421395
1.16154505419218
1.16154505417225
1.16154505415418
1.16154505413802
1.16154505412378
1.16154505411148
1.1615450541011
1.16154505409259
1.16154505408589
1.1615450540809
1.16154505407748
1.16154505407556
1.16154505407399
1.16154505407411
1.1615450282738
1.16154502826966
1.16154502826239
1.16154502824938
1.16154502823312
1.16154502821411
1.16154502819258
1.16154502816876
1.16154502814286
1.16154502811504
1.16154502808546
1.16154502805428
1.16154502802164
1.1615450279877
1.16154502795263
1.16154502791659
1.16154502787975
1.16154502784228
1.16154502780436
1.16154502776618
1.1615450277279
1.16154502768969
1.16154502765173
1.16154502761418
1.1615450275772
1.16154502754092
1.1615450275055
1.16154502747106
1.16154502743772
1.16154502740561
1.16154502737481
1.16154502734543
1.16154502731755
1.16154502729126
1.16154502726663
1.16154502724373
1.16154502722261
1.16154502720333
1.16154502718593
1.16154502717046
1.16154502715693
1.16154502714535
1.16154502713571
1.16154502712796
1.16154502712202
1.16154502711777
1.16154502711506
1.16154502711383
1.16154502711277
1.16154502711314
1.16154500129532
1.161545001291
1.16154500128332
1.16154500126983
1.16154500125316
1.16154500123379
1.16154500121197
1.16154500118794
1.1615450011619
1.16154500113402
1.16154500110446
1.16154500107337
1.16154500104089
1.16154500100717
1.16154500097237
1.16154500093665
1.16154500090017
1.1615450008631
1.16154500082562
1.16154500078789
1.16154500075009
1.16154500071239
1.16154500067496
1.16154500063794
1.1615450006015
1.16154500056579
1.16154500053093
1.16154500049706
1.1615450004643
1.16154500043277
1.16154500040256
1.16154500037377
1.16154500034649
1.1615450003208
1.16154500029678
1.16154500027449
1.161545000254
1.16154500023536
1.16154500021862
1.16154500020382
1.16154500019099
1.16154500018013
1.16154500017123
1.16154500016424
1.16154500015906
1.16154500015557
1.16154500015359
1.16154500015308
1.16154500015255
1.16154500015317
1.16154497431857
1.16154497431404
1.16154497430592
1.1615449742919
1.1615449742748
1.16154497425505
1.16154497423292
1.16154497420866
1.16154497418247
1.16154497415452
1.16154497412497
1.16154497409396
1.16154497406163
1.16154497402812
1.16154497399358
1.16154497395816
1.16154497392203
1.16154497388535
1.16154497384829
1.16154497381101
1.16154497377368
1.16154497373647
1.16154497369953
1.16154497366304
1.16154497362713
1.16154497359195
1.16154497355764
1.16154497352433
1.16154497349213
1.16154497346116
1.16154497343152
1.1615449734033
1.1615449733766
1.1615449733515
1.16154497332807
1.16154497330638
1.1615449732865
1.16154497326848
1.16154497325238
1.16154497323825
1.1615449732261
1.16154497321595
1.16154497320778
1.16154497320154
1.16154497319713
1.16154497319441
1.16154497319319
1.16154497319344
1.16154497319348
1.16154497319436
1.16154494734375
1.161544947339
1.16154494733039
1.16154494731579
1.1615449472982
1.16154494727804
1.16154494725559
1.16154494723108
1.16154494720473
1.1615449471767
1.16154494714715
1.16154494711621
1.16154494708401
1.1615449470507
1.16154494701641
1.16154494698129
1.1615449469455
1.16154494690919
1.16154494687253
1.16154494683567
1.1615449467988
1.16154494676205
1.16154494672561
1.16154494668961
1.16154494665421
1.16154494661956
1.16154494658577
1.16154494655299
1.16154494652133
1.16154494649091
1.16154494646181
1.16154494643415
1.16154494640801
1.16154494638347
1.16154494636061
1.1615449463395
1.16154494632021
1.1615449463028