/*--------------------------------*- C++ -*----------------------------------*\
  =========                 |
  \\      /  F ield         | OpenFOAM: The Open Source CFD Toolbox
   \\    /   O peration     | Website:  https://openfoam.org
    \\  /    A nd           | Version:  10
     \\/     M anipulation  |
\*---------------------------------------------------------------------------*/
FoamFile
{
    format      ascii;
    class       volScalarField;
    location    "1.2";
    object      T;
}
// * * * * * * * * * * * * * * * * * * * * * * * * * * * * * * * * * * * * * //

dimensions      [0 0 0 1 0 0 0];

internalField   nonuniform List<scalar> 
2500
(
305.026076935537
304.913099714818
304.889233529617
304.885977816912
304.885567244227
304.885511028494
304.88550216806
304.885499258753
304.88549706154
304.885496072756
304.885494517141
304.885493467039
304.885492825198
304.885491985178
304.885491207472
304.885490320737
304.885489888071
304.885489318346
304.88548867616
304.885488234126
304.885487691066
304.885486665648
304.885485802592
304.885486046654
304.885486236915
304.885485649687
304.885485595031
304.88548545311
304.88548500101
304.885485518024
304.885485872453
304.8854859542
304.885486188003
304.885486548457
304.88548709402
304.88548741216
304.885487762861
304.88548805001
304.885488646017
304.885489205578
304.88548986497
304.885490664464
304.885491835854
304.885494425846
304.885507375934
304.885577429514
304.886032087029
304.889368283533
304.913622898837
305.026166984938
302.052649757078
301.910043148597
301.830621053274
301.816727179785
301.814477123793
301.814117941644
301.814062399726
301.814053880116
301.8140523178
301.814051992431
301.814051625722
301.81405139167
301.814051314198
301.814051190255
301.814051071653
301.814050932434
301.814050806879
301.814050716066
301.814050693672
301.814050573674
301.814050096215
301.814049369626
301.814048848649
301.814049057128
301.814049292769
301.814049108561
301.814049305721
301.814049098042
301.814048674229
301.814049141704
301.814049337224
301.814048960699
301.814049504758
301.81405038891
301.814050666547
301.814050758149
301.814050832036
301.814050879712
301.814050987136
301.814051081524
301.814051240415
301.814051717006
301.814054125369
301.814067876892
301.814146246083
301.814577524529
301.816960435796
301.83079295241
301.911304648722
302.058875808127
300.685972669013
300.602091029702
300.552695505941
300.5421637848
300.540383656629
300.54009046082
300.540043798255
300.540036653393
300.540035606043
300.540035533594
300.540035333252
300.540035177591
300.540035252195
300.540035288311
300.5400353697
300.540035460696
300.540035497461
300.540035518216
300.540035533032
300.540035497421
300.540035315852
300.540035117974
300.540034969754
300.540034930609
300.540035061097
300.54003507353
300.540034999166
300.540035005517
300.540035051452
300.54003521994
300.540035248212
300.540035087661
300.54003529955
300.540035712303
300.540035845298
300.540035871758
300.540035879849
300.540035868697
300.540035865652
300.540035861633
300.540035877757
300.540036117726
300.540037771201
300.540047770986
300.540105213487
300.540424579064
300.542213932479
300.552608212792
300.602849794663
300.693917706363
300.199297817787
300.164730519164
300.149140294589
300.145130847352
300.144435561061
300.144320687586
300.144302193865
300.144299270459
300.144298815333
300.144298856191
300.144298854754
300.144298767783
300.144298784031
300.144298836741
300.144298885218
300.144298934619
300.144298941844
300.144298931425
300.14429896895
300.144298969779
300.144298919006
300.144298879101
300.144298825842
300.144298832194
300.144298895308
300.144298881583
300.144298848185
300.144298872762
300.144298908947
300.144298952136
300.1442989819
300.144298958075
300.144299003439
300.144299106067
300.144299150386
300.144299164873
300.144299168683
300.144299125383
300.144299115909
300.14429913715
300.144299081749
300.144299130109
300.144299691374
300.14430297202
300.144322345935
300.14443479975
300.145100770252
300.14905963739
300.165031279375
300.203976372803
300.052245352173
300.040702434743
300.036758707351
300.035541233659
300.035319754131
300.035282671853
300.035276642872
300.035275671845
300.035275519739
300.035275543679
300.035275548594
300.03527551852
300.035275529017
300.035275550303
300.035275569572
300.035275585728
300.035275586646
300.035275578636
300.035275595997
300.035275596062
300.035275583739
300.035275580825
300.035275569285
300.035275575686
300.035275591538
300.035275588389
300.035275582339
300.035275587232
300.035275597884
300.035275611786
300.035275621711
300.035275619877
300.035275629885
300.035275649724
300.035275661021
300.035275668877
300.035275663352
300.035275652535
300.0352756577
300.035275653345
300.035275624014
300.035275628718
300.035275789555
300.035276724179
300.035282306739
300.03531565078
300.035519077508
300.036717286748
300.040781823645
300.054197190207
300.012661522817
300.009313833455
300.008426490667
300.00810381849
300.00804174944
300.008031152734
300.008029416677
300.008029134751
300.008029091119
300.008029099366
300.008029101174
300.008029094364
300.00802909931
300.008029106302
300.008029111862
300.008029114848
300.008029114799
300.008029112304
300.008029116865
300.008029116896
300.008029114383
300.008029115035
300.008029113406
300.00802911564
300.008029119662
300.008029118302
300.00802911756
300.00802911783
300.008029120389
300.008029125634
300.008029128005
300.008029128403
300.008029130607
300.008029133859
300.008029136325
300.00802913942
300.00802913727
300.008029134674
300.008029135607
300.008029133934
300.008029128196
300.008029125485
300.008029163859
300.008029409404
300.008030878773
300.008039801242
300.008094898283
300.00841228646
300.009327921175
300.013324525278
300.002884385969
300.002007535644
300.001820064665
300.001742110209
300.001726242417
300.001723469331
300.001723011918
300.001722937471
300.001722926235
300.001722928608
300.001722929134
300.001722927884
300.001722929531
300.001722931329
300.00172293262
300.00172293321
300.001722933485
300.001722932775
300.001722933691
300.001722934005
300.001722933514
300.001722933974
300.001722933959
300.001722934264
300.001722935017
300.001722934827
300.001722934804
300.001722934677
300.001722935419
300.001722936697
300.001722937181
300.00172293744
300.001722937932
300.001722938403
300.001722938878
300.00172293984
300.001722939292
300.001722938597
300.001722938686
300.001722938273
300.001722937198
300.001722935703
300.001722944625
300.001723004839
300.001723366323
300.00172558073
300.001739283314
300.001816191962
300.002008328843
300.003080299068
300.000625058126
300.000412506113
300.00037413331
300.000356524711
300.000352742587
300.000352064272
300.00035195158
300.000351933252
300.00035193052
300.000351931106
300.000351931243
300.000351931071
300.000351931546
300.000351931965
300.000351932258
300.000351932376
300.000351932517
300.000351932325
300.000351932448
300.00035193263
300.000351932645
300.000351932744
300.00035193271
300.000351932809
300.000351932996
300.000351932916
300.000351932917
300.000351932891
300.000351933081
300.000351933333
300.00035193343
300.000351933505
300.000351933633
300.000351933695
300.000351933762
300.000351934008
300.000351933879
300.000351933657
300.000351933676
300.00035193361
300.000351933373
300.000351932939
300.000351934928
300.000351948877
300.000352032923
300.000352550017
300.000355740209
300.000373199981
300.000411875995
300.000677349732
300.00012998911
300.000081518175
300.000073777475
300.000069997665
300.000069144892
300.000068987695
300.000068961349
300.00006895707
300.000068956434
300.000068956564
300.000068956597
300.000068956585
300.000068956709
300.0000689568
300.000068956864
300.000068956888
300.000068956933
300.000068956889
300.000068956897
300.000068956954
300.000068956982
300.000068957009
300.000068957013
300.000068957036
300.000068957056
300.000068957034
300.000068957053
300.000068957063
300.000068957092
300.00006895713
300.000068957145
300.000068957156
300.000068957191
300.000068957198
300.000068957198
300.000068957254
300.000068957249
300.000068957192
300.000068957182
300.000068957166
300.000068957114
300.00006895701
300.000068957436
300.000068960512
300.000068979113
300.000069093773
300.000069797538
300.000073564034
300.000081161469
300.000142899766
300.000026116824
300.000015597134
300.000014046579
300.000013267027
300.000013083273
300.000013048435
300.000013042531
300.000013041571
300.000013041429
300.000013041455
300.000013041463
300.000013041465
300.000013041493
300.000013041511
300.000013041524
300.000013041529
300.000013041541
300.000013041531
300.000013041529
300.000013041544
300.000013041554
300.000013041561
300.000013041563
300.000013041566
300.000013041568
300.000013041564
300.000013041569
300.000013041573
300.000013041578
300.000013041584
300.000013041582
300.00001304158
300.000013041592
300.000013041592
300.000013041587
300.000013041602
300.000013041607
300.000013041597
300.00001304159
300.000013041582
300.000013041575
300.000013041553
300.000013041642
300.000013042292
300.000013046234
300.000013070543
300.0000132189
300.00001399815
300.000015468428
300.00002911332
300.00000509637
300.00000290493
300.000002595864
300.000002440168
300.000002402041
300.000002394607
300.000002393329
300.000002393121
300.000002393089
300.000002393093
300.000002393095
300.000002393095
300.0000023931
300.000002393104
300.000002393106
300.000002393107
300.000002393109
300.000002393107
300.000002393105
300.000002393109
300.000002393111
300.000002393112
300.000002393113
300.000002393113
300.000002393113
300.000002393112
300.000002393113
300.000002393114
300.000002393114
300.000002393115
300.000002393114
300.000002393113
300.000002393116
300.000002393116
300.000002393114
300.000002393118
300.000002393119
300.000002393118
300.000002393116
300.000002393114
300.000002393114
300.000002393109
300.000002393128
300.000002393261
300.000002394065
300.000002399022
300.000002429102
300.000002584754
300.000002866492
300.000005757698
300.000000970463
300.000000529424
300.000000468023
300.000000437705
300.00000043004
300.000000428504
300.000000428235
300.00000042819
300.000000428183
300.000000428183
300.000000428182
300.000000428182
300.000000428182
300.000000428182
300.000000428182
300.000000428182
300.000000428182
300.000000428181
300.00000042818
300.000000428181
300.000000428181
300.000000428181
300.000000428181
300.00000042818
300.00000042818
300.00000042818
300.00000042818
300.00000042818
300.00000042818
300.00000042818
300.000000428179
300.000000428179
300.000000428179
300.000000428179
300.000000428179
300.00000042818
300.00000042818
300.00000042818
300.00000042818
300.00000042818
300.00000042818
300.00000042818
300.000000428184
300.000000428211
300.000000428371
300.000000429348
300.000000435248
300.000000465447
300.000000519177
300.000001110433
300.000000181539
300.000000095345
300.000000083024
300.000000077208
300.000000075705
300.000000075395
300.000000075339
300.000000075329
300.000000075326
300.000000075325
300.000000075325
300.000000075324
300.000000075323
300.000000075323
300.000000075322
300.000000075322
300.000000075321
300.000000075321
300.00000007532
300.00000007532
300.000000075319
300.000000075319
300.000000075319
300.000000075318
300.000000075318
300.000000075318
300.000000075317
300.000000075317
300.000000075317
300.000000075317
300.000000075317
300.000000075317
300.000000075317
300.000000075317
300.000000075317
300.000000075317
300.000000075317
300.000000075317
300.000000075317
300.000000075318
300.000000075318
300.000000075319
300.00000007532
300.000000075326
300.000000075358
300.000000075546
300.000000076674
300.000000082423
300.000000092815
300.000000210125
300.000000034067
300.000000017634
300.000000014952
300.000000013813
300.00000001352
300.000000013458
300.000000013446
300.000000013443
300.000000013441
300.00000001344
300.000000013439
300.000000013439
300.000000013438
300.000000013437
300.000000013436
300.000000013436
300.000000013435
300.000000013435
300.000000013434
300.000000013434
300.000000013433
300.000000013433
300.000000013432
300.000000013432
300.000000013432
300.000000013431
300.000000013431
300.000000013431
300.000000013431
300.00000001343
300.00000001343
300.00000001343
300.00000001343
300.00000001343
300.00000001343
300.00000001343
300.00000001343
300.000000013431
300.000000013431
300.000000013431
300.000000013432
300.000000013433
300.000000013434
300.000000013435
300.000000013442
300.000000013478
300.000000013693
300.000000014807
300.000000017036
300.00000003972
300.000000007042
300.000000003966
300.000000003155
300.000000002891
300.000000002831
300.000000002818
300.000000002814
300.000000002813
300.000000002811
300.00000000281
300.000000002809
300.000000002809
300.000000002808
300.000000002807
300.000000002806
300.000000002806
300.000000002805
300.000000002804
300.000000002804
300.000000002803
300.000000002803
300.000000002802
300.000000002802
300.000000002801
300.000000002801
300.000000002801
300.000000002801
300.0000000028
300.0000000028
300.0000000028
300.0000000028
300.0000000028
300.000000002799
300.000000002799
300.000000002799
300.0000000028
300.0000000028
300.0000000028
300.0000000028
300.000000002801
300.000000002801
300.000000002802
300.000000002803
300.000000002804
300.000000002806
300.000000002814
300.000000002858
300.000000003115
300.000000003821
300.000000008118
300.000000002175
300.0000000016
300.000000001147
300.000000001044
300.000000001027
300.000000001024
300.000000001022
300.000000001021
300.000000001019
300.000000001018
300.000000001017
300.000000001017
300.000000001016
300.000000001015
300.000000001014
300.000000001013
300.000000001013
300.000000001012
300.000000001012
300.000000001011
300.000000001011
300.00000000101
300.00000000101
300.000000001009
300.000000001009
300.000000001009
300.000000001008
300.000000001008
300.000000001008
300.000000001007
300.000000001007
300.000000001007
300.000000001007
300.000000001007
300.000000001007
300.000000001007
300.000000001007
300.000000001008
300.000000001008
300.000000001008
300.000000001009
300.00000000101
300.00000000101
300.000000001011
300.000000001012
300.000000001015
300.000000001028
300.000000001129
300.000000001554
300.000000002363
300.000000001313
300.000000001196
300.000000000811
300.000000000737
300.000000000729
300.000000000727
300.000000000725
300.000000000724
300.000000000723
300.000000000722
300.000000000721
300.00000000072
300.000000000719
300.000000000718
300.000000000718
300.000000000717
300.000000000716
300.000000000716
300.000000000715
300.000000000715
300.000000000714
300.000000000713
300.000000000713
300.000000000713
300.000000000712
300.000000000712
300.000000000712
300.000000000711
300.000000000711
300.000000000711
300.000000000711
300.00000000071
300.00000000071
300.00000000071
300.00000000071
300.000000000711
300.000000000711
300.000000000711
300.000000000711
300.000000000712
300.000000000712
300.000000000713
300.000000000714
300.000000000714
300.000000000715
300.000000000717
300.000000000724
300.000000000798
300.000000001171
300.000000001331
300.000000001163
300.000000001129
300.000000000756
300.000000000687
300.00000000068
300.000000000679
300.000000000678
300.000000000677
300.000000000675
300.000000000674
300.000000000673
300.000000000672
300.000000000672
300.000000000671
300.00000000067
300.000000000669
300.000000000669
300.000000000668
300.000000000667
300.000000000667
300.000000000666
300.000000000666
300.000000000665
300.000000000665
300.000000000664
300.000000000664
300.000000000664
300.000000000663
300.000000000663
300.000000000663
300.000000000663
300.000000000663
300.000000000663
300.000000000663
300.000000000663
300.000000000663
300.000000000663
300.000000000663
300.000000000663
300.000000000664
300.000000000664
300.000000000665
300.000000000666
300.000000000666
300.000000000667
300.000000000668
300.000000000675
300.000000000743
300.000000001107
300.000000001149
300.000000001137
300.000000001118
300.000000000747
300.00000000068
300.000000000673
300.000000000672
300.000000000671
300.00000000067
300.000000000668
300.000000000667
300.000000000666
300.000000000666
300.000000000665
300.000000000664
300.000000000663
300.000000000662
300.000000000662
300.000000000661
300.00000000066
300.00000000066
300.000000000659
300.000000000659
300.000000000658
300.000000000658
300.000000000657
300.000000000657
300.000000000657
300.000000000656
300.000000000656
300.000000000656
300.000000000656
300.000000000655
300.000000000655
300.000000000655
300.000000000655
300.000000000655
300.000000000656
300.000000000656
300.000000000656
300.000000000657
300.000000000657
300.000000000658
300.000000000658
300.000000000659
300.00000000066
300.000000000661
300.000000000667
300.000000000735
300.000000001097
300.000000001117
300.000000001134
300.000000001117
300.000000000746
300.000000000679
300.000000000672
300.000000000671
300.00000000067
300.000000000669
300.000000000668
300.000000000667
300.000000000666
300.000000000665
300.000000000664
300.000000000663
300.000000000663
300.000000000662
300.000000000661
300.00000000066
300.00000000066
300.000000000659
300.000000000659
300.000000000658
300.000000000658
300.000000000657
300.000000000657
300.000000000656
300.000000000656
300.000000000656
300.000000000655
300.000000000655
300.000000000655
300.000000000655
300.000000000655
300.000000000655
300.000000000655
300.000000000655
300.000000000655
300.000000000655
300.000000000656
300.000000000656
300.000000000656
300.000000000657
300.000000000658
300.000000000658
300.000000000659
300.00000000066
300.000000000666
300.000000000733
300.000000001095
300.000000001112
300.000000001133
300.000000001117
300.000000000747
300.000000000679
300.000000000673
300.000000000672
300.000000000671
300.00000000067
300.000000000668
300.000000000667
300.000000000666
300.000000000665
300.000000000665
300.000000000664
300.000000000663
300.000000000662
300.000000000661
300.000000000661
300.00000000066
300.000000000659
300.000000000659
300.000000000658
300.000000000658
300.000000000657
300.000000000657
300.000000000657
300.000000000656
300.000000000656
300.000000000656
300.000000000655
300.000000000655
300.000000000655
300.000000000655
300.000000000655
300.000000000655
300.000000000655
300.000000000655
300.000000000655
300.000000000656
300.000000000656
300.000000000657
300.000000000657
300.000000000658
300.000000000659
300.000000000659
300.00000000066
300.000000000666
300.000000000733
300.000000001095
300.000000001111
300.000000001134
300.000000001117
300.000000000747
300.000000000679
300.000000000673
300.000000000672
300.000000000671
300.00000000067
300.000000000669
300.000000000668
300.000000000667
300.000000000666
300.000000000665
300.000000000664
300.000000000663
300.000000000663
300.000000000662
300.000000000661
300.00000000066
300.00000000066
300.000000000659
300.000000000659
300.000000000658
300.000000000658
300.000000000657
300.000000000657
300.000000000657
300.000000000656
300.000000000656
300.000000000656
300.000000000656
300.000000000655
300.000000000655
300.000000000655
300.000000000655
300.000000000655
300.000000000656
300.000000000656
300.000000000656
300.000000000656
300.000000000657
300.000000000658
300.000000000658
300.000000000659
300.000000000659
300.00000000066
300.000000000666
300.000000000733
300.000000001095
300.000000001111
300.000000001134
300.000000001117
300.000000000747
300.00000000068
300.000000000673
300.000000000672
300.000000000671
300.00000000067
300.000000000669
300.000000000668
300.000000000667
300.000000000666
300.000000000665
300.000000000664
300.000000000664
300.000000000663
300.000000000662
300.000000000661
300.000000000661
300.00000000066
300.00000000066
300.000000000659
300.000000000658
300.000000000658
300.000000000658
300.000000000657
300.000000000657
300.000000000656
300.000000000656
300.000000000656
300.000000000656
300.000000000656
300.000000000656
300.000000000656
300.000000000656
300.000000000656
300.000000000656
300.000000000656
300.000000000656
300.000000000657
300.000000000657
300.000000000658
300.000000000658
300.000000000659
300.00000000066
300.00000000066
300.000000000667
300.000000000733
300.000000001095
300.000000001111
300.000000001134
300.000000001118
300.000000000747
300.00000000068
300.000000000673
300.000000000672
300.000000000671
300.00000000067
300.000000000669
300.000000000668
300.000000000667
300.000000000666
300.000000000666
300.000000000665
300.000000000664
300.000000000663
300.000000000662
300.000000000662
300.000000000661
300.00000000066
300.00000000066
300.000000000659
300.000000000659
300.000000000658
300.000000000658
300.000000000657
300.000000000657
300.000000000657
300.000000000656
300.000000000656
300.000000000656
300.000000000656
300.000000000656
300.000000000656
300.000000000656
300.000000000656
300.000000000656
300.000000000656
300.000000000657
300.000000000657
300.000000000657
300.000000000658
300.000000000658
300.000000000659
300.00000000066
300.000000000661
300.000000000667
300.000000000733
300.000000001095
300.000000001111
300.000000001134
300.000000001118
300.000000000747
300.00000000068
300.000000000673
300.000000000672
300.000000000671
300.00000000067
300.000000000669
300.000000000668
300.000000000667
300.000000000666
300.000000000666
300.000000000665
300.000000000664
300.000000000663
300.000000000662
300.000000000662
300.000000000661
300.00000000066
300.00000000066
300.000000000659
300.000000000659
300.000000000658
300.000000000658
300.000000000657
300.000000000657
300.000000000657
300.000000000656
300.000000000656
300.000000000656
300.000000000656
300.000000000656
300.000000000656
300.000000000656
300.000000000656
300.000000000656
300.000000000656
300.000000000657
300.000000000657
300.000000000657
300.000000000658
300.000000000659
300.000000000659
300.00000000066
300.000000000661
300.000000000667
300.000000000733
300.000000001095
300.000000001111
300.000000001134
300.000000001117
300.000000000747
300.00000000068
300.000000000673
300.000000000672
300.000000000671
300.00000000067
300.000000000669
300.000000000668
300.000000000667
300.000000000666
300.000000000665
300.000000000665
300.000000000664
300.000000000663
300.000000000662
300.000000000662
300.000000000661
300.00000000066
300.00000000066
300.000000000659
300.000000000659
300.000000000658
300.000000000658
300.000000000657
300.000000000657
300.000000000657
300.000000000656
300.000000000656
300.000000000656
300.000000000656
300.000000000656
300.000000000656
300.000000000656
300.000000000656
300.000000000656
300.000000000656
300.000000000657
300.000000000657
300.000000000657
300.000000000658
300.000000000658
300.000000000659
300.00000000066
300.00000000066
300.000000000666
300.000000000733
300.000000001095
300.000000001111
300.000000001133
300.000000001117
300.000000000747
300.000000000679
300.000000000673
300.000000000672
300.000000000671
300.00000000067
300.000000000669
300.000000000668
300.000000000667
300.000000000666
300.000000000665
300.000000000664
300.000000000664
300.000000000663
300.000000000662
300.000000000661
300.000000000661
300.00000000066
300.000000000659
300.000000000659
300.000000000658
300.000000000658
300.000000000658
300.000000000657
300.000000000657
300.000000000656
300.000000000656
300.000000000656
300.000000000656
300.000000000656
300.000000000656
300.000000000656
300.000000000656
300.000000000656
300.000000000656
300.000000000656
300.000000000656
300.000000000657
300.000000000657
300.000000000658
300.000000000658
300.000000000659
300.00000000066
300.00000000066
300.000000000666
300.000000000733
300.000000001095
300.000000001111
300.000000001133
300.000000001117
300.000000000747
300.000000000679
300.000000000673
300.000000000672
300.000000000671
300.00000000067
300.000000000669
300.000000000668
300.000000000667
300.000000000666
300.000000000665
300.000000000664
300.000000000663
300.000000000662
300.000000000662
300.000000000661
300.00000000066
300.00000000066
300.000000000659
300.000000000659
300.000000000658
300.000000000658
300.000000000657
300.000000000657
300.000000000656
300.000000000656
300.000000000656
300.000000000656
300.000000000655
300.000000000655
300.000000000655
300.000000000655
300.000000000655
300.000000000655
300.000000000656
300.000000000656
300.000000000656
300.000000000656
300.000000000657
300.000000000658
300.000000000658
300.000000000659
300.000000000659
300.00000000066
300.000000000666
300.000000000733
300.000000001095
300.000000001111
300.000000001132
300.000000001116
300.000000000746
300.000000000679
300.000000000672
300.000000000671
300.00000000067
300.000000000669
300.000000000668
300.000000000667
300.000000000666
300.000000000665
300.000000000664
300.000000000664
300.000000000663
300.000000000662
300.000000000661
300.000000000661
300.00000000066
300.000000000659
300.000000000659
300.000000000658
300.000000000658
300.000000000657
300.000000000657
300.000000000656
300.000000000656
300.000000000656
300.000000000655
300.000000000655
300.000000000655
300.000000000655
300.000000000655
300.000000000655
300.000000000655
300.000000000655
300.000000000655
300.000000000655
300.000000000656
300.000000000656
300.000000000657
300.000000000657
300.000000000658
300.000000000658
300.000000000659
300.00000000066
300.000000000666
300.000000000733
300.000000001095
300.00000000111
300.000000001132
300.000000001116
300.000000000746
300.000000000678
300.000000000672
300.000000000671
300.00000000067
300.000000000669
300.000000000668
300.000000000667
300.000000000666
300.000000000665
300.000000000664
300.000000000663
300.000000000662
300.000000000661
300.000000000661
300.00000000066
300.000000000659
300.000000000659
300.000000000658
300.000000000658
300.000000000657
300.000000000657
300.000000000656
300.000000000656
300.000000000656
300.000000000655
300.000000000655
300.000000000655
300.000000000655
300.000000000654
300.000000000654
300.000000000654
300.000000000654
300.000000000655
300.000000000655
300.000000000655
300.000000000655
300.000000000656
300.000000000656
300.000000000657
300.000000000657
300.000000000658
300.000000000659
300.00000000066
300.000000000666
300.000000000733
300.000000001094
300.00000000111
300.000000001131
300.000000001115
300.000000000745
300.000000000678
300.000000000671
300.00000000067
300.000000000669
300.000000000668
300.000000000667
300.000000000666
300.000000000665
300.000000000664
300.000000000663
300.000000000662
300.000000000661
300.000000000661
300.00000000066
300.000000000659
300.000000000659
300.000000000658
300.000000000658
300.000000000657
300.000000000656
300.000000000656
300.000000000656
300.000000000655
300.000000000655
300.000000000655
300.000000000654
300.000000000654
300.000000000654
300.000000000654
300.000000000654
300.000000000654
300.000000000654
300.000000000654
300.000000000654
300.000000000654
300.000000000655
300.000000000655
300.000000000656
300.000000000656
300.000000000657
300.000000000658
300.000000000658
300.000000000659
300.000000000665
300.000000000732
300.000000001094
300.00000000111
300.00000000113
300.000000001114
300.000000000745
300.000000000677
300.000000000671
300.000000000669
300.000000000668
300.000000000667
300.000000000666
300.000000000665
300.000000000664
300.000000000663
300.000000000662
300.000000000661
300.00000000066
300.00000000066
300.000000000659
300.000000000658
300.000000000658
300.000000000657
300.000000000657
300.000000000656
300.000000000656
300.000000000655
300.000000000655
300.000000000655
300.000000000654
300.000000000654
300.000000000654
300.000000000653
300.000000000653
300.000000000653
300.000000000653
300.000000000653
300.000000000653
300.000000000653
300.000000000653
300.000000000654
300.000000000654
300.000000000654
300.000000000655
300.000000000656
300.000000000656
300.000000000657
300.000000000658
300.000000000659
300.000000000665
300.000000000732
300.000000001094
300.00000000111
300.000000001129
300.000000001113
300.000000000744
300.000000000676
300.00000000067
300.000000000668
300.000000000667
300.000000000666
300.000000000665
300.000000000664
300.000000000663
300.000000000662
300.000000000661
300.00000000066
300.000000000659
300.000000000659
300.000000000658
300.000000000657
300.000000000657
300.000000000656
300.000000000656
300.000000000655
300.000000000655
300.000000000654
300.000000000654
300.000000000654
300.000000000653
300.000000000653
300.000000000653
300.000000000653
300.000000000653
300.000000000652
300.000000000652
300.000000000652
300.000000000652
300.000000000653
300.000000000653
300.000000000653
300.000000000653
300.000000000654
300.000000000654
300.000000000655
300.000000000656
300.000000000656
300.000000000657
300.000000000658
300.000000000665
300.000000000732
300.000000001093
300.000000001109
300.000000001129
300.000000001112
300.000000000743
300.000000000675
300.000000000669
300.000000000667
300.000000000666
300.000000000665
300.000000000664
300.000000000663
300.000000000662
300.000000000661
300.00000000066
300.000000000659
300.000000000658
300.000000000658
300.000000000657
300.000000000656
300.000000000656
300.000000000655
300.000000000655
300.000000000654
300.000000000654
300.000000000653
300.000000000653
300.000000000653
300.000000000652
300.000000000652
300.000000000652
300.000000000652
300.000000000652
300.000000000652
300.000000000651
300.000000000651
300.000000000652
300.000000000652
300.000000000652
300.000000000652
300.000000000652
300.000000000653
300.000000000653
300.000000000654
300.000000000655
300.000000000656
300.000000000657
300.000000000658
300.000000000664
300.000000000731
300.000000001093
300.000000001109
300.000000001128
300.000000001111
300.000000000742
300.000000000674
300.000000000668
300.000000000666
300.000000000665
300.000000000664
300.000000000662
300.000000000661
300.00000000066
300.000000000659
300.000000000659
300.000000000658
300.000000000657
300.000000000656
300.000000000656
300.000000000655
300.000000000655
300.000000000654
300.000000000654
300.000000000653
300.000000000653
300.000000000652
300.000000000652
300.000000000652
300.000000000651
300.000000000651
300.000000000651
300.000000000651
300.000000000651
300.000000000651
300.000000000651
300.000000000651
300.000000000651
300.000000000651
300.000000000651