/*--------------------------------*- C++ -*----------------------------------*\
  =========                 |
  \\      /  F ield         | OpenFOAM: The Open Source CFD Toolbox
   \\    /   O peration     | Website:  https://openfoam.org
    \\  /    A nd           | Version:  10
     \\/     M anipulation  |
\*---------------------------------------------------------------------------*/
FoamFile
{
    format      ascii;
    class       volVectorField;
    location    "1.2";
    object      U;
}
// * * * * * * * * * * * * * * * * * * * * * * * * * * * * * * * * * * * * * //

dimensions      [0 1 -1 0 0 0 0];

internalField   nonuniform List<vector> 
2500
(
(-3.31382707901248e-06 2.26517692620206e-06 7.07608539883396e-25)
(-4.49640370026943e-06 5.70739339908227e-06 8.22463450913669e-25)
(-3.07444667159134e-06 6.3381065337013e-06 7.5777246822354e-25)
(-2.40514110672471e-06 6.7880215604324e-06 -1.76185117346716e-25)
(-1.72768923415836e-06 6.93606385469689e-06 -3.73586267797831e-24)
(-1.24782413092016e-06 6.96552735358127e-06 2.0566283043849e-26)
(-8.22196632538253e-07 6.97801173032473e-06 3.47010955876455e-27)
(-4.55407941501661e-07 6.98511889745394e-06 1.96472913476138e-26)
(-1.338114456731e-07 6.99050181259175e-06 6.65385499488486e-25)
(1.49806685487629e-07 6.99489623410998e-06 -3.80053791745341e-24)
(4.00457047918252e-07 6.99852445334648e-06 7.51497534255333e-25)
(6.21757260324048e-07 7.00154580411247e-06 -9.75002693804932e-24)
(8.16855348380056e-07 7.00408106717529e-06 1.07330453351925e-24)
(9.88390607567415e-07 7.00621633436308e-06 8.05774701166215e-25)
(1.13842047458833e-06 7.00801225129836e-06 -1.0510426697538e-23)
(1.26882341591617e-06 7.00951748696915e-06 6.56191033972627e-25)
(1.38127978406938e-06 7.01079122339362e-06 -4.44994540224566e-24)
(1.47726190939311e-06 7.01184192988756e-06 -1.0198934858657e-23)
(1.55811380630854e-06 7.0126987178124e-06 1.04207109967685e-24)
(1.62510210627329e-06 7.01337267012747e-06 -1.63180701803193e-25)
(1.67942054042568e-06 7.01389291800663e-06 7.26545704293487e-25)
(1.72222523738847e-06 7.01430873747198e-06 6.37968735478502e-25)
(1.75464272461873e-06 7.01457295700222e-06 -1.06841710405121e-23)
(1.77774082273271e-06 7.01466309265472e-06 3.51533124528772e-25)
(1.79256052315062e-06 7.01463365057495e-06 9.3494080294331e-25)
(1.80021025651827e-06 7.01449055576919e-06 -4.58360651002301e-25)
(1.8017766737591e-06 7.01421296288352e-06 9.30750933221074e-25)
(1.79829602950192e-06 7.01381664016806e-06 -6.70259462255754e-26)
(1.79087565422336e-06 7.01332728844298e-06 -8.91829987217486e-24)
(1.78059705176956e-06 7.01268471244405e-06 4.10817314440762e-25)
(1.76858920068217e-06 7.01194742190261e-06 -2.67470401119506e-25)
(1.75605361113791e-06 7.01106414798834e-06 2.08664890213866e-25)
(1.74424399035287e-06 7.01001120228166e-06 -2.9364365550172e-25)
(1.73452821346736e-06 7.00879914297237e-06 -2.07479562613924e-25)
(1.72838363802778e-06 7.00741041544976e-06 3.84783656781084e-25)
(1.72748159711162e-06 7.00581999975698e-06 -9.6145802732589e-24)
(1.73374023785969e-06 7.00399230501467e-06 6.65110279324414e-25)
(1.7493405049804e-06 7.00186747388473e-06 -6.91946705526299e-25)
(1.77683353059879e-06 6.99940001870758e-06 -1.12116717009209e-25)
(1.81925366740862e-06 6.99649324688984e-06 2.00437407888139e-24)
(1.88030320617891e-06 6.99304124407831e-06 4.00029806944687e-24)
(1.96458157693627e-06 6.98886621959056e-06 8.75137671418208e-24)
(2.07818734262772e-06 6.98366191600419e-06 3.79463868410845e-24)
(2.22992700486174e-06 6.97646054514693e-06 3.54527184930298e-24)
(2.43615820113227e-06 6.9630233546087e-06 6.35080174613632e-24)
(2.69436509495642e-06 6.931066169147e-06 5.32559102248338e-24)
(3.13012115473669e-06 6.78317296509396e-06 9.12856706281442e-24)
(3.55976225988023e-06 6.33098438702573e-06 4.988286303286e-24)
(4.79101052841327e-06 5.6790740719336e-06 6.31553714697172e-24)
(3.4132450642451e-06 2.36094768906818e-06 4.83891692699494e-24)
(-4.42281019968302e-06 2.75105249704329e-05 6.18901444925767e-25)
(-3.63657879815293e-06 3.25803624974139e-05 1.10103142032743e-23)
(-3.94081585819439e-06 3.09734227576645e-05 6.47481479754626e-25)
(-3.67548010977305e-06 3.10479270088519e-05 -1.15220287919437e-24)
(-2.99498995869296e-06 3.110642386371e-05 -7.01255174347125e-24)
(-2.37050250470692e-06 3.11504272431514e-05 2.10963927028596e-24)
(-1.75167743483317e-06 3.11983014181673e-05 1.18049651990727e-25)
(-1.21110299933351e-06 3.12392804241039e-05 2.09889368267588e-25)
(-7.39083576551779e-07 3.12728051346832e-05 4.76575917225334e-24)
(-3.25817503685912e-07 3.1299780184702e-05 5.30035968542144e-24)
(3.70698536970573e-08 3.1321552445933e-05 -2.62523307399828e-24)
(3.5613299025121e-07 3.1339223896731e-05 3.39812348193107e-24)
(6.36711050732341e-07 3.13534796087027e-05 7.37270557181084e-24)
(8.83165663133174e-07 3.13651219761891e-05 -3.69793140001243e-24)
(1.09904398727571e-06 3.13746467057385e-05 4.77282897631402e-24)
(1.28740848362031e-06 3.13823303885444e-05 4.29391187565481e-25)
(1.45090782367378e-06 3.13885251592499e-05 2.01115153732877e-24)
(1.59188327615613e-06 3.13934209849431e-05 5.12585512570732e-24)
(1.71244604067137e-06 3.13971951908115e-05 7.74630960645021e-25)
(1.81451113836047e-06 3.13999670126879e-05 8.20843762049272e-24)
(1.8998978364688e-06 3.1401831657457e-05 7.12349924268215e-25)
(1.97033663643335e-06 3.14029104679416e-05 4.60615918970483e-24)
(2.02741518919712e-06 3.14032320927207e-05 1.94799366338927e-24)
(2.07274555810013e-06 3.1402796205453e-05 3.23158746676652e-25)
(2.1078965396587e-06 3.14016891783219e-05 3.5739533614409e-24)
(2.13438579490237e-06 3.13999510454664e-05 4.06201217041101e-24)
(2.15377625372765e-06 3.13976052558519e-05 3.38133028196582e-24)
(2.16762100265704e-06 3.13945728134947e-05 -4.1106340968954e-24)
(2.17744902276614e-06 3.13908610453756e-05 1.01711210166321e-24)
(2.18486730999904e-06 3.13864887748727e-05 3.23478126234036e-24)
(2.19155444801746e-06 3.1381441340637e-05 -4.12912503218975e-24)
(2.19920591173027e-06 3.13755921081484e-05 2.8594179440732e-24)
(2.20973369578572e-06 3.13688894785763e-05 -4.44408508226259e-24)
(2.22520595769297e-06 3.13612271481005e-05 -3.30957546383633e-24)
(2.24785083795463e-06 3.13524539180534e-05 3.26759184080844e-24)
(2.28021524843468e-06 3.13423987967765e-05 9.10673176842008e-25)
(2.32524419619744e-06 3.13307989005278e-05 -3.59530441774829e-24)
(2.38635580526836e-06 3.1317315776132e-05 -4.24836076550426e-25)
(2.46759001251007e-06 3.13015123480683e-05 -2.37781775111924e-24)
(2.57381608186877e-06 3.12827375570034e-05 1.04844978372899e-23)
(2.71106615482198e-06 3.12601655765651e-05 -1.18567551062342e-24)
(2.88687451706881e-06 3.12326366955447e-05 3.52300521784869e-25)
(3.11085516288135e-06 3.11987364261347e-05 1.97820048680332e-23)
(3.39454978661348e-06 3.11570717558904e-05 -6.57601575306297e-25)
(3.75056218453539e-06 3.11078712763572e-05 -1.6997808592237e-24)
(4.11022092398514e-06 3.10640636798951e-05 2.0499815807935e-23)
(4.50263440391681e-06 3.1013632164613e-05 1.15815213858646e-24)
(4.48824624776423e-06 3.09004421191617e-05 7.11812783737613e-25)
(4.06412345508713e-06 3.24807231840766e-05 2.12642921151474e-23)
(4.59634151778925e-06 2.7424366194286e-05 7.43569398744304e-25)
(-5.69891164757557e-06 5.38178454363996e-05 1.63672543404849e-24)
(-3.20302399660409e-06 5.24938494021285e-05 2.55030184037683e-23)
(-4.00941227042765e-06 4.46256166360932e-05 1.7239068683081e-24)
(-3.75443671385938e-06 4.29956667110371e-05 8.18826139933568e-25)
(-3.01256847002771e-06 4.25463048995402e-05 1.31023004278401e-23)
(-2.41800219136579e-06 4.25333219520291e-05 1.49214004217302e-23)
(-1.85338690017111e-06 4.26073133240989e-05 8.37356306053096e-25)
(-1.37016878929663e-06 4.26824552240953e-05 1.11001200616427e-24)
(-9.52239128467401e-07 4.27451620294357e-05 1.83758674789276e-23)
(-5.88437639239625e-07 4.27956755024168e-05 1.54116350189112e-23)
(-2.70262546106797e-07 4.28362317675894e-05 -1.32299983687553e-23)
(8.8842197722093e-09 4.28690266320191e-05 1.31959273445603e-24)
(2.54080855188053e-07 4.28956509290353e-05 1.09795699572508e-23)
(4.69370957535583e-07 4.29173810723827e-05 -1.59017165854888e-23)
(6.58182553348824e-07 4.29351526239531e-05 1.49165555343006e-23)
(8.23377344078307e-07 4.29496359062973e-05 8.34175871585692e-25)
(9.67376865369643e-07 4.29613665655972e-05 1.78067760273995e-24)
(1.09234481064228e-06 4.29707456365358e-05 1.60139337384833e-23)
(1.20020530706996e-06 4.29780864382293e-05 1.9282669120514e-24)
(1.29271429521763e-06 4.29836075370534e-05 1.90735323808481e-23)
(1.37150261443189e-06 4.29875077865689e-05 2.19156655099612e-24)
(1.43809619766889e-06 4.29899336766713e-05 1.76147872228797e-23)
(1.49393240731797e-06 4.29910029843435e-05 2.05024530493347e-24)
(1.54043204513216e-06 4.29907888305082e-05 8.52518661494309e-25)
(1.57897176469721e-06 4.29893387491432e-05 1.42190163148134e-23)
(1.61088229104481e-06 4.29867166319414e-05 2.8298655713519e-24)
(1.63753463059568e-06 4.29829299032862e-05 1.31651152980933e-23)
(1.66028499880333e-06 4.29779768986291e-05 -1.67029659530536e-23)
(1.68046745764108e-06 4.29718095140687e-05 6.78034903816953e-25)
(1.69951283737309e-06 4.29644133439652e-05 1.31278023683652e-23)
(1.71889912850388e-06 4.29556732966576e-05 -1.59953309025664e-23)
(1.74014289941523e-06 4.29454811433672e-05 1.2008891157387e-23)
(1.76493883858725e-06 4.29337400219995e-05 -1.41205572041069e-23)
(1.79512531256539e-06 4.29201988063727e-05 -1.44139299320268e-23)
(1.83272506617647e-06 4.29045738890788e-05 1.33731957855047e-23)
(1.88003130654571e-06 4.2886516954364e-05 1.68249899909767e-24)
(1.93972110343445e-06 4.28655270006758e-05 -1.23570784829862e-24)
(2.01490842064044e-06 4.28409952600125e-05 -8.1507150688841e-25)
(2.10928040302569e-06 4.2812045283752e-05 -1.31438403963712e-23)
(2.22734212509214e-06 4.27774518933521e-05 1.27368457531299e-23)
(2.37471139032889e-06 4.27355977557477e-05 1.33435632918796e-25)
(2.5584969969365e-06 4.26842951578472e-05 1.37058532840817e-25)
(2.78808438336671e-06 4.2621034269628e-05 1.60523463136645e-23)
(3.07584946675769e-06 4.25455520765168e-05 9.9265593332356e-26)
(3.43974833569928e-06 4.24729836493776e-05 2.98487016259264e-26)
(3.83086906299163e-06 4.24956206311254e-05 2.19209838770962e-23)
(4.34145017168475e-06 4.29625928596379e-05 4.01550628718643e-25)
(4.40998627097023e-06 4.45053692671082e-05 9.55817035599414e-25)
(3.45127126669564e-06 5.23848047366486e-05 3.16764025376449e-23)
(5.70627296746479e-06 5.35102596998515e-05 1.50019576572259e-25)
(-3.59707862123924e-06 4.50993281215715e-05 7.50555275219766e-25)
(-3.73205403223533e-06 3.87733064128502e-05 1.73040711456608e-23)
(-4.36012509686934e-06 3.04966272333433e-05 7.66688699174836e-25)
(-3.61486165390173e-06 2.91063337210789e-05 1.78767335853742e-25)
(-2.79903061740958e-06 2.86697566931253e-05 3.38027819388232e-24)
(-2.22167022848201e-06 2.87153289138702e-05 3.13646897219882e-24)
(-1.71280503596167e-06 2.88361389218223e-05 1.4627333472912e-25)
(-1.28507846880552e-06 2.89457700426512e-05 1.95314926027502e-25)
(-9.17246029816913e-07 2.90340836184674e-05 4.3184694752489e-24)
(-5.97381442307607e-07 2.91041186380425e-05 6.75010414561897e-24)
(-3.17511047459895e-07 2.91599148809112e-05 -2.5315725914604e-24)
(-7.17850364989318e-08 2.9204724920283e-05 3.9003041876428e-24)
(1.44233470145421e-07 2.92408682144259e-05 6.68508467886827e-24)
(3.34092959442065e-07 2.92701492720576e-05 -3.50064090383342e-24)
(5.00789287447843e-07 2.9293912442723e-05 8.0521157471667e-24)
(6.46832980228616e-07 2.93130843088503e-05 3.82961835797116e-25)
(7.74361311549574e-07 2.93284226470317e-05 5.54520591280093e-24)
(8.85291469575076e-07 2.9340490836742e-05 8.37212577442954e-24)
(9.81325926478954e-07 2.9349734945621e-05 6.18394444065684e-25)
(1.06402509130337e-06 2.93564874269869e-05 8.86272487446682e-24)
(1.13482567927399e-06 2.93610199242205e-05 5.68218246900522e-25)
(1.19508109297493e-06 2.93635151743219e-05 4.17374609063554e-24)
(1.24608274831027e-06 2.93641538979153e-05 3.92484334944125e-24)
(1.28907940330071e-06 2.93630550979992e-05 2.89681784443761e-25)
(1.32529534742497e-06 2.93602905496978e-05 3.1126909659143e-24)
(1.35591438102329e-06 2.93559209304554e-05 4.03368027769696e-24)
(1.38213632184366e-06 2.93499894259781e-05 2.93242122125235e-24)
(1.40515810636191e-06 2.93424558232115e-05 -3.73427752102408e-24)
(1.42617616553958e-06 2.93332892857159e-05 3.69049985170437e-24)
(1.44644941061317e-06 2.93224420543126e-05 2.92889888717005e-24)
(1.46728325650365e-06 2.93097688466273e-05 -3.74130356519147e-24)
(1.49003824676993e-06 2.92951189340448e-05 2.58863362757781e-24)
(1.51619828119347e-06 2.92783103613662e-05 -4.03197745964887e-24)
(1.54738001540151e-06 2.92590246035261e-05 -3.0056906540233e-24)
(1.58537969072943e-06 2.92368806499516e-05 2.9611869522026e-24)
(1.63221658894819e-06 2.921136767772e-05 3.73073419416348e-24)
(1.6902465017654e-06 2.91817942432472e-05 -3.60885204441395e-24)
(1.76218138254434e-06 2.91472992253212e-05 -2.79663801464586e-25)
(1.85122194148786e-06 2.91066531116316e-05 -2.7969110724815e-24)
(1.96129682061771e-06 2.90581024585674e-05 3.31199299260834e-24)
(2.09725775719267e-06 2.89993095039228e-05 -4.98496069727014e-24)
(2.26530281804692e-06 2.89270244386948e-05 -3.68051429841757e-24)
(2.47390131938302e-06 2.88370655106169e-05 3.42439570684907e-24)
(2.73541346929546e-06 2.87261772126363e-05 -3.71477778978879e-24)
(3.07138035490383e-06 2.86052199060084e-05 -5.28293136460549e-24)
(3.47010301872167e-06 2.8564229458645e-05 3.88762776948459e-24)
(4.08249240625862e-06 2.90015643566706e-05 -3.77150947088052e-24)
(4.70752533122455e-06 3.02865999368704e-05 -4.82462708314244e-24)
(3.94550569727821e-06 3.85973844041773e-05 7.43440218388335e-24)
(3.57455405314667e-06 4.49521099846091e-05 -9.46613029709967e-24)
(-1.66157079772034e-06 3.91084248387402e-05 1.00300088951933e-25)
(-3.81049657076045e-06 3.14323491918957e-05 2.67477258564914e-24)
(-4.32112325281533e-06 2.35544148303333e-05 1.02912946461645e-25)
(-3.40086581627e-06 2.24364611239906e-05 -3.0622501797964e-26)
(-2.61399836374136e-06 2.21315257321311e-05 -9.32324663998311e-25)
(-2.07302742555233e-06 2.22596592742448e-05 3.12790184685403e-25)
(-1.60947335556373e-06 2.24313870476817e-05 1.07261554468059e-26)
(-1.21866522110624e-06 2.25741952128821e-05 1.19608939014513e-26)
(-8.81553743122313e-07 2.2686000421077e-05 4.56310199642739e-25)
(-5.8739524679973e-07 2.27736450742055e-05 9.06711908859087e-25)
(-3.29212644853418e-07 2.28430529138423e-05 -2.75755168255026e-25)
(-1.01940096142128e-07 2.28985233766094e-05 5.83778496599971e-25)
(9.82795658296703e-08 2.29431121748801e-05 9.05620854174398e-25)
(2.74578876742521e-07 2.29790800929152e-05 -3.61746339814165e-25)
(4.29608514036351e-07 2.30080996854072e-05 8.01960620311829e-25)
(5.65625305018679e-07 2.30313608256116e-05 4.74544695878456e-26)
(6.845783968819e-07 2.304980996433e-05 5.86561991292602e-25)
(7.88214473131217e-07 2.30641617305783e-05 8.22565370386835e-25)
(8.78101634758937e-07 2.3074968487801e-05 5.7522853177606e-26)
(9.55683208687778e-07 2.30826539900914e-05 1.14784800087261e-24)
(1.02228981322504e-06 2.30875594587268e-05 4.23091656761533e-26)
(1.07918146747844e-06 2.30899453482004e-05 4.26431461955176e-25)
(1.12756439346301e-06 2.30900150990417e-05 5.68387551090747e-25)
(1.16859841529827e-06 2.30879267521349e-05 3.19754497775223e-26)
(1.20342153384966e-06 2.3083782120473e-05 3.3702426280933e-25)
(1.23315157885959e-06 2.30776384199685e-05 5.7921980913209e-25)
(1.25889925601403e-06 2.30695472853517e-05 3.13749653066401e-25)
(1.2817743647167e-06 2.30594812340183e-05 -3.72848381703066e-25)
(1.30290619633659e-06 2.30473972941716e-05 5.5976664211551e-25)
(1.32345983648286e-06 2.30332096773884e-05 3.28637554116434e-25)
(1.34464715207824e-06 2.30167687686889e-05 -3.83883525896556e-25)
(1.36774157398941e-06 2.2997870859288e-05 2.95406994100512e-25)
(1.39411547306743e-06 2.29762593680585e-05 -3.9087254353474e-25)
(1.42525786794292e-06 2.2951561619543e-05 -3.0704481579334e-25)
(1.4628206484443e-06 2.29232959437985e-05 3.19137610232101e-25)
(1.50865485544506e-06 2.28908224770789e-05 5.47623468187141e-25)
(1.56489442252166e-06 2.28532817278082e-05 -5.37546762726924e-25)
(1.63397859728576e-06 2.28095771279139e-05 -2.9114690520611e-26)
(1.71876773417613e-06 2.27581859146051e-05 -2.46089828080928e-25)
(1.82269644685585e-06 2.26968977555851e-05 1.65078534774235e-24)
(1.9499719977102e-06 2.26227284990827e-05 -3.97511574930855e-25)
(2.10590798713033e-06 2.25314211808819e-05 -5.24221601381152e-25)
(2.29770308212519e-06 2.24170031877098e-05 1.53010492285607e-24)
(2.53602280571633e-06 2.22725601763197e-05 -5.35042246435325e-25)
(2.83937624575589e-06 2.21005970604657e-05 -5.27187921848897e-25)
(3.21336438767864e-06 2.19739281611891e-05 1.66153154738418e-24)
(3.81399029103185e-06 2.22606434625575e-05 -5.28326127240653e-25)
(4.6431988648933e-06 2.32371269511012e-05 -7.09430424442634e-25)
(4.04505939142515e-06 3.11520963853897e-05 2.87017874487511e-24)
(1.67395875317952e-06 3.89307723487291e-05 -1.51467420988757e-24)
(-9.07255522645314e-07 3.72446551315481e-05 2.87231275563372e-26)
(-3.37636434903434e-06 2.94735291499388e-05 7.625894820485e-25)
(-3.8499159472723e-06 2.10449591368056e-05 2.87963796232548e-26)
(-3.09322562681829e-06 1.99495165116673e-05 7.76886432945934e-27)
(-2.41883054122021e-06 1.97256485780137e-05 2.19568732986065e-25)
(-1.93853939532458e-06 1.99110923907458e-05 4.44150894856064e-25)
(-1.52156859517968e-06 2.01236088297736e-05 1.82227855901921e-26)
(-1.163182019165e-06 2.02945473579654e-05 1.57484536818534e-26)
(-8.50541108296318e-07 2.04267469948591e-05 3.95457213130278e-25)
(-5.75649525062718e-07 2.05298489182048e-05 4.99542121528175e-25)
(-3.33046087247592e-07 2.06112951628179e-05 -3.48890691594648e-25)
(-1.18619223644006e-07 2.06762818551509e-05 8.25500836882424e-26)
(7.08727820682993e-08 2.07284391826446e-05 4.42071894075447e-25)
(2.38142992334053e-07 2.07704232675387e-05 -3.36562453802759e-25)
(3.85525777525279e-07 2.08041708235251e-05 4.77208058012475e-25)
(5.15052148872224e-07 2.08311175203368e-05 2.25018683264112e-26)
(6.28508819505509e-07 2.08523552353908e-05 8.97118781668036e-26)
(7.27509609042308e-07 2.08687311500262e-05 4.38653427090572e-25)
(8.13513062228297e-07 2.08808958595862e-05 3.07265418182279e-26)
(8.87878101425057e-07 2.0889365838549e-05 5.92578596854403e-25)
(9.51864880359555e-07 2.08945308149917e-05 2.39307187638763e-26)
(1.00666419226209e-06 2.08967174223346e-05 3.39743907270387e-25)
(1.05342383987562e-06 2.08961590674418e-05 6.67247469512256e-26)
(1.09324792641545e-06 2.08930490802478e-05 1.22019385267289e-26)
(1.12722192773568e-06 2.08875128205371e-05 3.40060721461386e-25)
(1.15641512625693e-06 2.08796240573364e-05 8.10275492648333e-26)
(1.18188269667966e-06 2.08694208798783e-05 2.83428006745122e-25)
(1.20468398239292e-06 2.08568938913719e-05 -3.28805149132949e-25)
(1.22589897016626e-06 2.0841986808831e-05 6.36966788821215e-26)
(1.24663628867083e-06 2.082458846044e-05 3.29485382658044e-25)
(1.26804901269941e-06 2.08045275038505e-05 -3.1682791852514e-25)
(1.29134090376555e-06 2.07815645929613e-05 3.20455264728124e-25)
(1.31780640135619e-06 2.07553848017154e-05 -2.89982515106202e-25)
(1.34884942500564e-06 2.07255624868929e-05 -3.1263550197479e-25)
(1.38601374564702e-06 2.06915126183002e-05 3.07791365493944e-25)
(1.43101529387388e-06 2.06525110387604e-05 6.78069371963035e-26)
(1.48580359168773e-06 2.06075231405097e-05 -5.52369637857873e-26)
(1.55258521139221e-06 2.05552940233462e-05 -7.94835108352203e-27)
(1.6339049732649e-06 2.04940238757075e-05 -2.85148119868989e-25)
(1.7327444250342e-06 2.04211436752513e-05 4.7741045202501e-25)
(1.85264847905815e-06 2.03331608880575e-05 -2.07051638273003e-26)
(1.99792853794823e-06 2.02250070498168e-05 -4.5177751233571e-26)
(2.17414462942719e-06 2.00893616954605e-05 4.49504546821135e-25)
(2.38907783786684e-06 1.99167782906591e-05 -4.33637357230793e-26)
(2.6550528551134e-06 1.97047450180285e-05 -4.01359190071432e-26)
(2.97877943862614e-06 1.95188937533778e-05 5.05516108710814e-25)
(3.48283606069815e-06 1.97056254955408e-05 -4.23158092180485e-26)
(4.15175187873295e-06 2.06146866456674e-05 -3.64600904015748e-26)
(3.62157871402196e-06 2.91012635694805e-05 8.30982228011259e-25)
(9.40358934313679e-07 3.69490567010491e-05 -1.47252618112465e-25)
(-6.38847630209347e-07 3.72815126229432e-05 2.21889699841966e-26)
(-2.77960073905775e-06 2.95965537998477e-05 3.13001363797828e-25)
(-3.23080651892922e-06 2.03346811921499e-05 2.17198261161598e-26)
(-2.73693216908016e-06 1.91449078471767e-05 1.58822925487994e-27)
(-2.19892296178194e-06 1.89433797871487e-05 1.28830224636294e-26)
(-1.78911705921046e-06 1.91583636135455e-05 7.37801859825792e-26)
(-1.42003100339966e-06 1.93987337167609e-05 3.53688446424467e-27)
(-1.09344823957975e-06 1.9591479649504e-05 3.81141773318772e-27)
(-8.03530966151187e-07 1.97405691332331e-05 7.53018835842384e-26)
(-5.45711643105069e-07 1.98569598005643e-05 2.36833317334136e-25)
(-3.16395903631704e-07 1.99490019192634e-05 -3.91293654535882e-26)
(-1.12586485647668e-07 2.00224966992805e-05 1.24332770084783e-25)
(6.82572469738063e-08 2.00815028927497e-05 2.26431157298615e-25)
(2.28386299692959e-07 2.01289658969809e-05 -4.01547759200011e-26)
(3.69806787251438e-07 2.01670541555501e-05 1.83466903972792e-25)
(4.94317071960045e-07 2.01973771898725e-05 1.65395397940877e-26)
(6.03532713952123e-07 2.02211750122824e-05 1.47454760653916e-25)
(6.98940370583965e-07 2.02393928694071e-05 2.05420969939386e-25)
(7.81904017430453e-07 2.02527763128521e-05 2.0407037147919e-26)
(8.53697095785893e-07 2.02619144439464e-05 1.80576081415475e-25)
(9.1551475956858e-07 2.02672615394156e-05 1.15027771900118e-26)
(9.68497801599184e-07 2.02691844813922e-05 4.74714153145345e-26)
(1.01374390751644e-06 2.02679608676059e-05 1.02863389167508e-25)
(1.05231423258649e-06 2.02638034452482e-05 5.46392664451753e-27)
(1.08524857349091e-06 2.02568683815384e-05 4.92870476484302e-26)
(1.11357936468392e-06 2.02472284592015e-05 1.21904853566122e-25)
(1.13832392307302e-06 2.02349401509868e-05 3.23805635654458e-26)
(1.16050398504972e-06 2.02199893229646e-05 -3.69921033908938e-26)
(1.18115822802486e-06 2.02023088535536e-05 1.18484743469758e-25)
(1.20134895523985e-06 2.01817721065938e-05 4.64650447224302e-26)
(1.22218214468141e-06 2.01581777418611e-05 -3.90230872066313e-26)
(1.24480915856005e-06 2.01312580186883e-05 3.97580564046868e-26)
(1.27046192204614e-06 2.01006640742201e-05 -2.86405556394939e-26)
(1.30045769980091e-06 2.00658896453226e-05 -3.59190323161355e-26)
(1.33624741808229e-06 2.0026296785867e-05 3.91581998769955e-26)
(1.37941663953132e-06 1.99810560868133e-05 1.00902049866409e-25)
(1.43173995656828e-06 1.99290179367804e-05 -8.67318806649652e-26)
(1.49519671723801e-06 1.98687766743461e-05 -4.1814108035633e-27)
(1.57200454933764e-06 1.97983319638697e-05 -2.33348715347826e-26)
(1.66466593674956e-06 1.9714845889652e-05 6.22825223653582e-26)
(1.77601257517068e-06 1.96144590625168e-05 -1.36212683179373e-25)
(1.90924791457804e-06 1.94915847497741e-05 -1.08376282248381e-25)
(2.06805207870895e-06 1.9338138510978e-05 4.68580194509359e-26)
(2.25687353236489e-06 1.91435430236976e-05 -9.28042574015348e-26)
(2.48149865796288e-06 1.89038623868794e-05 -9.17522404675717e-26)
(2.74341318654835e-06 1.86858632575313e-05 6.43088413245916e-26)
(3.12402706523308e-06 1.88325819867038e-05 -1.10169028947945e-25)
(3.5197026414649e-06 1.97927728149133e-05 -1.72492647388374e-25)
(3.02151525353717e-06 2.91410410571718e-05 1.11184445819754e-25)
(6.82056214096697e-07 3.68659828446699e-05 -2.82162827746676e-25)
(-5.094922051666e-07 3.78961298764329e-05 7.81511265060132e-27)
(-2.22945530412891e-06 3.02729830887729e-05 1.65279150065301e-25)
(-2.65345529872846e-06 2.02507473662459e-05 7.71002942896416e-27)
(-2.37974786246336e-06 1.8925551485081e-05 -6.79773165587811e-27)
(-1.96764175982331e-06 1.8707914665639e-05 -6.16438000823421e-26)
(-1.62691398472689e-06 1.89309895303459e-05 3.50677573838103e-26)
(-1.30456399733648e-06 1.91870201310084e-05 2.15867479833447e-27)
(-1.00941262963329e-06 1.93949001862185e-05 2.40716335549622e-27)
(-7.41741582943481e-07 1.95570286096199e-05 5.13226482870405e-26)
(-5.003582213769e-07 1.96843301008584e-05 8.2291518387218e-26)
(-2.8360454999355e-07 1.9785419574732e-05 -3.81691244761991e-26)
(-8.96643237447614e-08 1.98663611598375e-05 3.77991688815306e-26)
(8.32567262334104e-08 1.9931470863735e-05 6.57014319641226e-26)
(2.36918632313254e-07 1.99838839894879e-05 -3.59118933619466e-26)
(3.72978774308038e-07 2.00259237607074e-05 6.56460873007788e-26)
(4.92992736931568e-07 2.00593405796113e-05 5.38245979285372e-27)
(5.9840107106675e-07 2.00854776636654e-05 3.26243220500046e-26)
(6.90555408000741e-07 2.01053807300964e-05 6.75384755727593e-26)
(7.70720689896541e-07 2.01198737133663e-05 6.54298937976703e-27)
(8.40093755477564e-07 2.0129597534999e-05 5.3862618002228e-26)
(8.9980637126347e-07 2.01350719050335e-05 4.01593462713423e-27)
(9.50943212248416e-07 2.01366991162439e-05 2.46858173208612e-26)
(9.94554748882615e-07 2.01347916379313e-05 1.41842112544722e-26)
(1.03166675336074e-06 2.01295896281251e-05 1.6097516078626e-27)
(1.06328150686104e-06 2.01212600850363e-05 2.66104444304597e-26)
(1.09039309884123e-06 2.01099043695678e-05 2.32702099341063e-26)
(1.11398754556229e-06 2.00955737684694e-05 2.28442678408735e-26)
(1.13504890228693e-06 2.00782541339017e-05 -2.20618816892044e-26)
(1.15458288263339e-06 2.00578642703567e-05 2.05602818142937e-26)
(1.17361161554746e-06 2.00342765681147e-05 1.69847230965269e-26)
(1.19319609413384e-06 2.00072558799148e-05 -1.51313667383474e-26)
(1.21444021515171e-06 1.99765194943617e-05 1.34740755391791e-26)
(1.23850448546417e-06 1.99416672674957e-05 -2.19104877538144e-26)
(1.26663562923098e-06 1.99021425824807e-05 -2.18867568509497e-26)
(1.30019003105028e-06 1.98572560358247e-05 2.16428882652122e-26)
(1.34061997106576e-06 1.98060947658462e-05 1.85290912174976e-26)
(1.38952578945124e-06 1.97474273635646e-05 -1.34943049645979e-26)
(1.44864751308605e-06 1.96797295653019e-05 -9.32786019609201e-28)
(1.51986893368536e-06 1.96008693166349e-05 -3.33112430537255e-27)
(1.60519949172914e-06 1.9507838748402e-05 7.70679022009556e-26)
(1.70673058480608e-06 1.93965812810349e-05 -1.04330079721099e-26)
(1.82651469083023e-06 1.92613082185271e-05 -1.56243462665371e-26)
(1.96636001183075e-06 1.9093755401786e-05 5.07679378661818e-26)
(2.12752071192897e-06 1.88834386878127e-05 -1.29622685969483e-26)
(2.31016636525305e-06 1.86275584323852e-05 -1.09313835312036e-26)
(2.5098246749194e-06 1.8398258048056e-05 6.62341213651721e-26)
(2.77395264896767e-06 1.85461703493376e-05 -1.37400557981156e-26)
(2.93538470746604e-06 1.96058403615578e-05 -1.75794594595273e-26)
(2.462506694706e-06 2.97358538417547e-05 6.84981137934477e-26)
(5.58570645419961e-07 3.7374099863555e-05 -3.52436950351977e-26)
(-4.21616219340101e-07 3.85915267123776e-05 2.12179520038163e-26)
(-1.78214081795812e-06 3.09999485439223e-05 2.44288234856956e-25)
(-2.17081227093703e-06 2.03851386381579e-05 2.09424620458255e-26)
(-2.04654429465016e-06 1.89197290458134e-05 1.01592450106956e-26)
(-1.7384089733141e-06 1.8665560099473e-05 1.16354760119014e-25)
(-1.45967122748433e-06 1.88819892174106e-05 1.15872429357013e-25)
(-1.18087878199575e-06 1.91436906290324e-05 1.05279514209706e-26)
(-9.16148532497234e-07 1.93605677196119e-05 1.18208214495667e-26)
(-6.70400670834472e-07 1.95319521216095e-05 1.50206682912314e-25)
(-4.45327480890262e-07 1.96677530130017e-05 1.30610840283357e-25)
(-2.41064804728875e-07 1.97762860215188e-05 -1.1595567405018e-25)
(-5.69274376116427e-08 1.98635868915455e-05 3.53773926904275e-28)
(1.08143000219182e-07 1.99340340778029e-05 7.24364559677967e-26)
(2.55399205167065e-07 1.99908523775293e-05 -9.38781168284424e-26)
(3.8615215627937e-07 2.0036455876582e-05 1.22588910006236e-25)
(5.01706923678395e-07 2.00726844648384e-05 1.10415127223377e-26)
(6.03321848703813e-07 2.01009591659936e-05 1.24178160256907e-26)
(6.92218311249289e-07 2.0122405831724e-05 1.02940218943224e-25)
(7.69551817541492e-07 2.01379015384057e-05 1.49206322043602e-26)
(8.36437121249544e-07 2.01481512229899e-05 8.25140990577484e-26)
(8.93942981168457e-07 2.01537112633179e-05 1.17651629228954e-26)
(9.43099163380438e-07 2.0155019996462e-05 7.15545920161757e-26)
(9.84912847588437e-07 2.01524287912274e-05 6.51379600969214e-27)
(1.02036777772823e-06 2.01461998759429e-05 6.47548115465167e-27)
(1.0504280605117e-06 2.01365098447002e-05 7.96239442824712e-26)
(1.07605265594292e-06 2.01234837271025e-05 1.38469340452749e-26)
(1.09819443982947e-06 2.01071631056697e-05 6.87303965985996e-26)
(1.11780443006906e-06 2.00875414137237e-05 -6.29277759631308e-26)
(1.13585440232309e-06 2.00645424572615e-05 1.81321707699822e-28)
(1.15332528521837e-06 2.00380031220046e-05 4.60962260029273e-26)
(1.17122900394721e-06 2.0007685825739e-05 -4.34382469720759e-26)
(1.19062205892409e-06 1.99732812866578e-05 3.25879671034791e-26)
(1.21260686376343e-06 1.99343454594443e-05 -6.66267916890384e-26)
(1.23834510886378e-06 1.98902945930443e-05 -6.13929464708025e-26)
(1.2690933908361e-06 1.98403942232478e-05 5.44094890452122e-26)
(1.30617873347191e-06 1.97836684877281e-05 6.89352949488838e-27)
(1.35102008650051e-06 1.97188167124687e-05 -1.51291967988589e-27)
(1.40511929096287e-06 1.96442603172167e-05 -2.05550808309255e-27)
(1.47002357237885e-06 1.95577834203279e-05 -2.64738843348709e-26)
(1.54724504149881e-06 1.94563203255129e-05 7.13020312676223e-26)
(1.63815792671749e-06 1.93357895368829e-05 3.96935303446101e-27)
(1.74372030963979e-06 1.91904696567374e-05 1.42587975465857e-27)
(1.86404191748302e-06 1.90124287089622e-05 4.43662862377131e-26)
(1.99766603590415e-06 1.87921610650576e-05 1.41302521395395e-27)
(2.14050644034698e-06 1.85294793518809e-05 3.37334072654666e-27)
(2.28347386699117e-06 1.83034005728943e-05 6.32207215479578e-26)
(2.44995894118172e-06 1.8475963425471e-05 3.5173898366352e-27)
(2.44942497916365e-06 1.96484702644937e-05 5.11635243163644e-27)
(2.00644553044137e-06 3.03805172130416e-05 6.41405752154871e-26)
(4.74334097843592e-07 3.79714041376647e-05 4.4087128584043e-27)