/*--------------------------------*- C++ -*----------------------------------*\
  =========                 |
  \\      /  F ield         | OpenFOAM: The Open Source CFD Toolbox
   \\    /   O peration     | Website:  https://openfoam.org
    \\  /    A nd           | Version:  10
     \\/     M anipulation  |
\*---------------------------------------------------------------------------*/
FoamFile
{
    format      ascii;
    class       volScalarField;
    location    "1.2";
    object      wallHeatFlux;
}
// * * * * * * * * * * * * * * * * * * * * * * * * * * * * * * * * * * * * * //

dimensions      [1 0 -3 0 0 0 0];

internalField   uniform 0;

boundaryField
{
    back
    {
        type            calculated;
        value           uniform 0;
    }
    bottom
    {
        type            calculated;
        value           nonuniform List<scalar> 
50
(
598.283772303426
627.753506477965
633.976112827297
634.822355671166
634.927372402891
634.940545210264
634.942045346367
634.941775228255
634.941217216897
634.940985652535
634.940532576544
634.940247028381
634.940075189253
634.939830090142
634.939615814075
634.939355072413
634.939246454858
634.939091028816
634.93890145174
634.938782280992
634.938716192898
634.938801345868
634.938868518464
634.938712664459
634.938544000564
634.938573622454
634.938540959238
634.938526104041
634.938614417282
634.938472403239
634.938395681664
634.93843196454
634.938442816628
634.938446474156
634.938429226734
634.938500637767
634.938595372163
634.9386639408
634.93884663155
634.939005637356
634.939190439819
634.939400507734
634.939589711089
634.939297480958
634.93685417299
634.919167923762
634.801684732101
633.933800591861
627.608546422954
598.252817693724
)
;
    }
    left
    {
        type            calculated;
        value           uniform 0;
    }
    front
    {
        type            calculated;
        value           uniform 0;
    }
    right
    {
        type            calculated;
        value           uniform 0;
    }
    top
    {
        type            calculated;
        value           uniform 0;
    }
}


// ************************************************************************* //
