/*--------------------------------*- C++ -*----------------------------------*\
  =========                 |
  \\      /  F ield         | OpenFOAM: The Open Source CFD Toolbox
   \\    /   O peration     | Website:  https://openfoam.org
    \\  /    A nd           | Version:  10
     \\/     M anipulation  |
\*---------------------------------------------------------------------------*/
FoamFile
{
    format      ascii;
    class       volScalarField;
    location    "3.4";
    object      alphat;
}
// * * * * * * * * * * * * * * * * * * * * * * * * * * * * * * * * * * * * * //

dimensions      [1 -1 -1 0 0 0 0];

internalField   nonuniform List<scalar> 
2500
(
2.20540357850343e-14
4.23137749131592e-13
1.75024442508395e-12
2.86679412182393e-12
3.63384389232018e-12
4.08642823048298e-12
4.3198093454578e-12
4.42652728286654e-12
4.47036732807679e-12
4.48673407974302e-12
4.49234243688272e-12
4.4941209080144e-12
4.49464569255027e-12
4.49478962955527e-12
4.49482547437943e-12
4.49483260561904e-12
4.49483268141797e-12
4.49483139597272e-12
4.49482999745921e-12
4.49482872265967e-12
4.49482761503201e-12
4.49482666880982e-12
4.49482587139755e-12
4.49482521019603e-12
4.49482468839397e-12
4.49482431162518e-12
4.49482411507496e-12
4.49482415066379e-12
4.49482426726123e-12
4.49482436768058e-12
4.49482462185439e-12
4.4948250286573e-12
4.49482549873398e-12
4.4948255779486e-12
4.49482282284579e-12
4.49480796960933e-12
4.49474962258992e-12
4.49454132287774e-12
4.4938428746653e-12
4.49163753190448e-12
4.4851011686038e-12
4.46702348390495e-12
4.42072522849028e-12
4.31193430853002e-12
4.07991623886106e-12
3.63637955233297e-12
2.88701694592157e-12
1.78637982348558e-12
4.43125947867412e-13
2.39921821596826e-14
2.15676501385447e-12
1.08752848681667e-10
4.60130024645166e-10
7.5617770119309e-10
9.61820562141204e-10
1.08487083252452e-09
1.14931070723788e-09
1.17925108185948e-09
1.19174791788114e-09
1.196486245691e-09
1.19813428688286e-09
1.19866439942366e-09
1.19882299943828e-09
1.19886713129278e-09
1.19887834012771e-09
1.19888067876885e-09
1.19888079793635e-09
1.19888047093983e-09
1.19888009462304e-09
1.19887974944929e-09
1.19887944947881e-09
1.19887919391975e-09
1.19887897906957e-09
1.1988788012203e-09
1.19887866062135e-09
1.19887856011998e-09
1.19887851150652e-09
1.19887852210821e-09
1.19887854586288e-09
1.19887857582317e-09
1.1988786483751e-09
1.19887876121949e-09
1.19887888130654e-09
1.1988788656661e-09
1.19887795095844e-09
1.19887332193763e-09
1.19885552009912e-09
1.19879270065138e-09
1.19858441018504e-09
1.19793425159999e-09
1.19603044206929e-09
1.19083196319505e-09
1.17769615745637e-09
1.14725863983079e-09
1.08326485151387e-09
9.62648357350728e-10
7.61549018147918e-10
4.69424497784169e-10
1.13706978880589e-10
2.33467186261511e-12
7.56774276305742e-12
1.93356845265707e-09
6.38430953061522e-07
1.04365120572394e-06
1.32321028829829e-06
1.49082520830454e-06
1.57924309512371e-06
1.62075513476049e-06
1.63829264077448e-06
1.64502784599502e-06
1.6474010385376e-06
1.64817436492635e-06
1.64840877456179e-06
1.64847493192103e-06
1.64849207006966e-06
1.64849581657896e-06
1.64849614696497e-06
1.64849576442067e-06
1.64849528547492e-06
1.64849483941259e-06
1.64849444999603e-06
1.64849411760379e-06
1.64849383799127e-06
1.64849360673908e-06
1.64849342327291e-06
1.64849329191785e-06
1.64849323036271e-06
1.64849323908996e-06
1.64849325991358e-06
1.64849330012758e-06
1.64849339288504e-06
1.64849353408717e-06
1.64849367376569e-06
1.64849359394683e-06
1.64849215350014e-06
1.64848525781485e-06
1.64845915501157e-06
1.64836781810853e-06
1.6480672911657e-06
1.64713647725143e-06
1.64443298178674e-06
1.6371140865699e-06
1.61878402247459e-06
1.57668235797323e-06
1.48886091107337e-06
1.32426850341347e-06
1.05026959130025e-06
6.49870005460482e-07
2.01073772071762e-09
8.06985946299222e-12
1.32348140675016e-11
3.4058526225653e-09
1.12003013991938e-06
1.81542900100618e-06
2.29001065429773e-06
2.57315009639196e-06
2.72239407254367e-06
2.79260430129019e-06
2.82237689537145e-06
2.83386618678285e-06
2.83793700554619e-06
2.83927162886807e-06
2.83967889238015e-06
2.83979473287405e-06
2.83982508435058e-06
2.83983189138089e-06
2.83983262930524e-06
2.83983206278776e-06
2.8398313085759e-06
2.83983059677049e-06
2.83982997196105e-06
2.83982943663625e-06
2.83982898511841e-06
2.83982861122877e-06
2.83982831275507e-06
2.83982809537626e-06
2.83982798682939e-06
2.83982798271026e-06
2.8398280133375e-06
2.83982807432751e-06
2.83982821562842e-06
2.83982843022143e-06
2.83982864062434e-06
2.83982848587423e-06
2.83982604764788e-06
2.83981459567767e-06
2.83977121713996e-06
2.83961901261146e-06
2.83911673555233e-06
2.83755676693798e-06
2.83301509170365e-06
2.82069571292341e-06
2.78979331361117e-06
2.71871545002882e-06
2.57019907110092e-06
2.29105385353108e-06
1.82389142107441e-06
1.13498115910165e-06
3.50725424726085e-09
1.3888666588663e-11
1.84950007857678e-11
4.76461165671952e-09
1.55497239879877e-06
2.5028985016599e-06
3.14460982388212e-06
3.52611325438615e-06
3.72714265962535e-06
3.82188899006274e-06
3.86219709729974e-06
3.87781770110364e-06
3.88337953488005e-06
3.88521303739328e-06
3.88577598828773e-06
3.88593729194345e-06
3.88598001605812e-06
3.88598985127026e-06
3.88599112872196e-06
3.88599047628348e-06
3.88598955015187e-06
3.88598866135447e-06
3.88598787574235e-06
3.88598719913646e-06
3.88598662593154e-06
3.8859861495482e-06
3.88598576628307e-06
3.88598548067768e-06
3.88598531778516e-06
3.88598529142139e-06
3.88598533530966e-06
3.8859853977762e-06
3.88598556061137e-06
3.8859858091685e-06
3.88598604484988e-06
3.88598577919098e-06
3.8859824711497e-06
3.88596728893185e-06
3.8859097911658e-06
3.88570756089519e-06
3.88503826801052e-06
3.88295372646824e-06
3.87686949528583e-06
3.86033058921591e-06
3.81877097578669e-06
3.72303776557803e-06
3.52269114024609e-06
3.1452799356319e-06
2.51122392850257e-06
1.57008851277852e-06
4.87027760956893e-09
1.91944126315368e-11
2.31021087130211e-11
5.95806418971695e-09
1.93185872911358e-06
3.09229922554821e-06
3.87316637163349e-06
4.33629557617509e-06
4.58036976626191e-06
4.69561483272577e-06
4.7447907283151e-06
4.76392068032987e-06
4.77076239573765e-06
4.77302914596014e-06
4.77372907389676e-06
4.7739310076917e-06
4.77398503571155e-06
4.77399778260254e-06
4.77399969135836e-06
4.77399907964333e-06
4.77399807991169e-06
4.7739970986367e-06
4.77399622392779e-06
4.77399546606318e-06
4.77399482017621e-06
4.77399428001117e-06
4.77399384173318e-06
4.77399350815631e-06
4.77399329695564e-06
4.77399324030793e-06
4.77399326646077e-06
4.77399333637014e-06
4.77399349286883e-06
4.77399373746146e-06
4.77399395510812e-06
4.77399353423984e-06
4.77398945320101e-06
4.77397123720085e-06
4.77390235860296e-06
4.77365969317291e-06
4.77285466692973e-06
4.77034134437534e-06
4.76298962283013e-06
4.74296840280612e-06
4.69258342830447e-06
4.576380216091e-06
4.33290973568462e-06
3.87353237769706e-06
3.09966718853675e-06
1.9455263958961e-06
6.05774738644355e-09
2.3789527112244e-11
2.69589314915943e-11
6.96273911198264e-09
2.24659027875478e-06
3.58065858862369e-06
4.47444187409618e-06
5.00374106279724e-06
5.28281400284973e-06
5.41482184104963e-06
5.47130523565692e-06
5.49335359732424e-06
5.50127068664263e-06
5.5039056138335e-06
5.50472343085955e-06
5.5049608704598e-06
5.5050249908479e-06
5.50504046346835e-06
5.50504306392624e-06
5.50504258734605e-06
5.50504159560061e-06
5.50504059271564e-06
5.50503968930091e-06
5.5050389010707e-06
5.50503822458378e-06
5.5050376542624e-06
5.50503718656724e-06
5.50503682281159e-06
5.50503657483038e-06
5.50503646876949e-06
5.5050364735218e-06
5.50503654731274e-06
5.50503667008147e-06
5.50503688026054e-06
5.50503705317321e-06
5.50503643948388e-06
5.5050316564856e-06
5.50501101131894e-06
5.50493311660703e-06
5.50465839018703e-06
5.50374526903477e-06
5.5008887632182e-06
5.49251791767367e-06
5.46968619103406e-06
5.4121584583923e-06
5.27935658577875e-06
5.00087355365893e-06
4.47486238936566e-06
3.5870653289006e-06
2.2583895618805e-06
7.05274389216081e-09
2.76093119913915e-11
3.00601921705484e-11
7.77637043048466e-09
2.50052312014613e-06
3.97255435715905e-06
4.9557265008707e-06
5.53745773641086e-06
5.84437634082158e-06
5.98980505496614e-06
6.0521855798986e-06
6.07661077298484e-06
6.0854126462315e-06
6.0883538959949e-06
6.08927101913336e-06
6.08953881456602e-06
6.08961175083869e-06
6.08962971046685e-06
6.08963300976442e-06
6.08963273092666e-06
6.08963180763667e-06
6.08963083636623e-06
6.08962994992722e-06
6.08962917004009e-06
6.08962849522298e-06
6.0896279208714e-06
6.08962744379725e-06
6.08962706423681e-06
6.08962678940542e-06
6.08962663682259e-06
6.08962661132924e-06
6.0896266555329e-06
6.0896267468882e-06
6.08962690032305e-06
6.08962699321722e-06
6.08962614300156e-06
6.08962077217335e-06
6.08959821559234e-06
6.0895133132905e-06
6.08921368532597e-06
6.08821631113094e-06
6.08509113004802e-06
6.07591913888271e-06
6.05087069397293e-06
5.9876959235153e-06
5.84175236897166e-06
5.5355290401356e-06
4.95669845830046e-06
3.9784802166515e-06
2.51077705804471e-06
7.85719114016075e-09
3.06698634316385e-11
3.24618717512702e-11
8.41164381613283e-09
2.69874490149419e-06
4.27744669366259e-06
5.32965418808479e-06
5.95198056046875e-06
6.28056644296778e-06
6.43650950268563e-06
6.50354795865067e-06
6.52986799259699e-06
6.53938243766104e-06
6.54257312767049e-06
6.5435721069401e-06
6.54386528733168e-06
6.5439457488242e-06
6.54396590770909e-06
6.54396987979945e-06
6.54396983771482e-06
6.54396902193135e-06
6.54396811752428e-06
6.54396727867614e-06
6.54396653331807e-06
6.54396588222335e-06
6.54396532197166e-06
6.54396484979423e-06
6.54396446531378e-06
6.54396417258889e-06
6.54396398304927e-06
6.54396390670119e-06
6.543963912109e-06
6.54396397270216e-06
6.54396405653334e-06
6.54396404158078e-06
6.54396295814415e-06
6.54395710344445e-06
6.54393306215075e-06
6.54384282441044e-06
6.54352428103447e-06
6.54246273145383e-06
6.53913209387356e-06
6.5293451892982e-06
6.5025902632759e-06
6.43505935823445e-06
6.27896684665001e-06
5.95131242573359e-06
5.33167440041181e-06
4.28356449711486e-06
2.70813750795636e-06
8.4859948261157e-09
3.30392740170052e-11
3.42564953915506e-11
8.89061305749286e-09
2.84859322354452e-06
4.50755657182475e-06
5.61175986996264e-06
6.26477846712756e-06
6.60984130466204e-06
6.77383854543462e-06
6.84447538500134e-06
6.8722730779634e-06
6.88234891786238e-06
6.88573830233299e-06
6.88680327422679e-06
6.88711720926502e-06
6.88720394268809e-06
6.88722599252404e-06
6.88723058595295e-06
6.88723079308116e-06
6.88723010349603e-06
6.88722928506742e-06
6.8872285110131e-06
6.8872278152796e-06
6.88722720099041e-06
6.88722666595732e-06
6.88722620793303e-06
6.88722582629904e-06
6.88722552310725e-06
6.88722530511673e-06
6.88722517911734e-06
6.88722513626559e-06
6.88722514740689e-06
6.88722518130938e-06
6.8872250422078e-06
6.88722373896029e-06
6.88721750458607e-06
6.88719233098242e-06
6.88709811939783e-06
6.88676554532461e-06
6.88565629604829e-06
6.88217241108241e-06
6.87192529747644e-06
6.84388977644021e-06
6.7730839360887e-06
6.6093542520211e-06
6.26556941413588e-06
5.61522271361371e-06
4.51451215296475e-06
2.85787814806138e-06
8.9619010824938e-09
3.48148226441546e-11
3.55525502998457e-11
9.23982443180792e-09
2.95839510120685e-06
4.67613366127611e-06
5.81851902594382e-06
6.49418713986623e-06
6.85148865885227e-06
7.02151492333194e-06
7.09486907482229e-06
7.12379338219311e-06
7.13430168759935e-06
7.13784583130008e-06
7.13896282109294e-06
7.13929334178205e-06
7.13938517982568e-06
7.13940881162377e-06
7.13941395599205e-06
7.13941440424233e-06
7.1394138417513e-06
7.13941311544879e-06
7.13941241266587e-06
7.13941177280131e-06
7.13941120123122e-06
7.13941069695073e-06
7.13941025828355e-06
7.13940988460833e-06
7.13940957681804e-06
7.13940933863853e-06
7.13940917414639e-06
7.13940907942557e-06
7.13940903796098e-06
7.13940899656934e-06
7.13940873947128e-06
7.13940727459616e-06
7.13940074866185e-06
7.13937472811969e-06
7.13927762496189e-06
7.13893490031227e-06
7.1377910939089e-06
7.13419583420362e-06
7.12361321301029e-06
7.09464177086769e-06
7.02143843291784e-06
6.85211295748489e-06
6.496507242586e-06
5.82366103377972e-06
4.68441211296244e-06
2.96820852129464e-06
9.31113358613275e-09
3.61047213478273e-11
3.64586238520079e-11
9.4863902765452e-09
3.0364593170267e-06
4.79609832492411e-06
5.96581950251876e-06
6.65779874593024e-06
7.02397720458584e-06
7.19841241226988e-06
7.27377180793683e-06
7.3035356999802e-06
7.31436967812315e-06
7.3180316637779e-06
7.31918873676025e-06
7.31953221081587e-06
7.31962810508975e-06
7.31965302285524e-06
7.31965864316225e-06
7.31965931486027e-06
7.31965886260224e-06
7.31965822505971e-06
7.31965759230347e-06
7.31965700816423e-06
7.31965648002474e-06
7.31965600794588e-06
7.3196555908126e-06
7.31965522812278e-06
7.31965492015787e-06
7.31965466886911e-06
7.31965447639132e-06
7.31965434045932e-06
7.31965424653103e-06
7.31965414003131e-06
7.31965378935505e-06
7.31965219591899e-06
7.31964543735224e-06
7.31961879643307e-06
7.31951964003684e-06
7.3191697587512e-06
7.31800156647302e-06
7.31432748748547e-06
7.30350673693858e-06
7.27386945746819e-06
7.19895774867151e-06
7.0256414906975e-06
6.66160338677662e-06
5.97270892917113e-06
4.80597060821945e-06
3.04723100034431e-06
9.55996341295198e-09
3.70145756353678e-11
3.70728110826352e-11
9.6552371116499e-09
3.09036734170713e-06
4.87909887277213e-06
6.06790463958306e-06
6.77134810369738e-06
7.14381403094544e-06
7.32139905702198e-06
7.39820452781583e-06
7.42857999024504e-06
7.43965372533266e-06
7.44340343931747e-06
7.44459070909807e-06
7.44494407131792e-06
7.44504311271245e-06
7.4450690457595e-06
7.4450750545137e-06
7.44507591527469e-06
7.44507557267544e-06
7.44507501555393e-06
7.4450744468213e-06
7.44507391425341e-06
7.44507342694489e-06
7.4450729858777e-06
7.44507259043157e-06
7.44507224027229e-06
7.44507193538187e-06
7.44507167672239e-06
7.44507146517254e-06
7.44507129878266e-06
7.44507116412214e-06
7.44507100501479e-06
7.44507058109064e-06
7.44506888511864e-06
7.44506194916611e-06
7.44503486505924e-06
7.44493428721645e-06
7.44457949049826e-06
7.44339454098895e-06
7.43966615645643e-06
7.42868088352225e-06
7.39858254058378e-06
7.32248598457259e-06
7.14639935405111e-06
6.776505299549e-06
6.07646492266568e-06
4.89062998594368e-06
3.10230832932344e-06
9.73235157787433e-09
3.7638659864445e-11
3.74771494838287e-11
9.76755044173081e-09
3.12656888896514e-06
4.93498661272953e-06
6.13679127518283e-06
6.84810136467805e-06
7.22491735307795e-06
7.40470130501658e-06
7.48252610822296e-06
7.51333710903869e-06
7.52458343953322e-06
7.52839702262007e-06
7.52960653952353e-06
7.52996728218823e-06
7.53006870949663e-06
7.53009542645781e-06
7.53010174179101e-06
7.53010276067913e-06
7.53010251375799e-06
7.53010202594417e-06
7.53010151286177e-06
7.53010102565515e-06
7.53010057483566e-06
7.53010016213153e-06
7.53009978733761e-06
7.53009945028416e-06
7.53009915081991e-06
7.53009888936044e-06
7.53009866599689e-06
7.53009847857849e-06
7.53009831396969e-06
7.53009811490595e-06
7.53009763615376e-06
7.5300958629983e-06
7.53008879724733e-06
7.5300614051781e-06
7.52995986849602e-06
7.5296017830993e-06
7.52840561939976e-06
7.5246408021696e-06
7.51354485889358e-06
7.48313568007803e-06
7.40623904231978e-06
7.22827974913811e-06
6.85442499556529e-06
6.14684327729668e-06
4.94808075191333e-06
3.13970726668725e-06
9.84864501264744e-09
3.80555526702397e-11
3.77360867864005e-11
9.84022919943276e-09
3.15023952191077e-06
4.97165005800943e-06
6.18209796916788e-06
6.8986809741699e-06
7.27843822820652e-06
7.45972293198079e-06
7.53825037667164e-06
7.56936476118343e-06
7.58073263818243e-06
7.58459171405148e-06
7.58581726712969e-06
7.58618339888534e-06
7.58628659512387e-06
7.58631390631953e-06
7.5863204588309e-06
7.58632160279684e-06
7.58632143448653e-06
7.58632100416266e-06
7.58632053779213e-06
7.58632008918221e-06
7.5863196699605e-06
7.5863192824367e-06
7.58631892673155e-06
7.58631860281807e-06
7.58631831049247e-06
7.58631804986367e-06
7.58631782053861e-06
7.58631762004367e-06
7.58631743514529e-06
7.58631720784451e-06
7.58631669015281e-06
7.58631486189712e-06
7.58630770507871e-06
7.58628010533549e-06
7.5861779387936e-06
7.58581770977959e-06
7.58461423487175e-06
7.58082560724285e-06
7.56965714549733e-06
7.53904383230314e-06
7.46162087091697e-06
7.28242820650425e-06
6.90596272057625e-06
6.19340669291427e-06
4.98610960901762e-06
3.16447714968449e-06
9.92514477889382e-09
3.83271663009569e-11
3.78976430340396e-11
9.88605011852297e-09
3.16532804800651e-06
4.9951099439208e-06
6.21117258231185e-06
6.93121046898486e-06
7.31291251864233e-06
7.49519917844029e-06
7.57420054189777e-06
7.60552174848903e-06
7.61697340941004e-06
7.62086420619248e-06
7.62210107553171e-06
7.62247105951525e-06
7.62257553941247e-06
7.62260329189604e-06
7.62261002420141e-06
7.62261126488843e-06
7.62261115909012e-06
7.62261077537936e-06
7.62261034738947e-06
7.62260993100104e-06
7.62260953870004e-06
7.62260917322907e-06
7.62260883494938e-06
7.62260852394548e-06
7.62260823999973e-06
7.6226079830495e-06
7.62260775239692e-06
7.62260754527876e-06
7.62260734824123e-06
7.62260710276447e-06
7.62260655926869e-06
7.62260469393131e-06
7.62259747611323e-06
7.62256974085889e-06
7.62246717168274e-06
7.62210558109477e-06
7.62089745993538e-06
7.61709366328692e-06
7.60587887917771e-06
7.57513487439602e-06
7.49737434251327e-06
7.31738954197147e-06
6.93924549109352e-06
6.22348800635895e-06
5.01069121372729e-06
3.18049794356748e-06
9.97428240433298e-09
3.8500001451508e-11
3.79959918793098e-11
9.91423477500176e-09
3.17471612218992e-06
5.00976860888383e-06
6.22939770138658e-06
6.95165013451859e-06
7.3346106654696e-06
7.51755218745492e-06
7.59686654541294e-06
7.62832583608737e-06
7.63983406653255e-06
7.64374653037475e-06
7.64499122310513e-06
7.64536390509274e-06
7.64546929783665e-06
7.6454973711625e-06
7.64550423706361e-06
7.64550555198263e-06
7.64550549627535e-06
7.64550515009277e-06
7.64550475341357e-06
7.64550436381024e-06
7.64550399441471e-06
7.6455036482813e-06
7.64550332593952e-06
7.64550302755632e-06
7.6455027529151e-06
7.64550250185727e-06
7.64550227349132e-06
7.64550206483002e-06
7.6455018622007e-06
7.645501606716e-06
7.64550104785559e-06
7.64549915948653e-06
7.64549190312654e-06
7.6454640828226e-06
7.64536126362014e-06
7.64499883025506e-06
7.64378782925911e-06
7.63997460484903e-06
7.62873095130278e-06
7.59790530215539e-06
7.51993347854993e-06
7.33945208677617e-06
6.96025431539538e-06
6.24248439525952e-06
5.02622481826131e-06
3.19062882720673e-06
1.00051411386395e-08
3.86075578947661e-11
3.8054486410623e-11
9.93117121474118e-09
3.18042451161404e-06
5.01872279518435e-06
6.24056905446068e-06
6.9642113921284e-06
7.34796958631385e-06
7.53133045160276e-06
7.61084738212189e-06
7.64239703222132e-06
7.65394270340932e-06
7.65786967647632e-06
7.65911967240932e-06
7.65949420773912e-06
7.65960023772553e-06
7.65962854026201e-06
7.65963550434825e-06
7.65963687645598e-06
7.65963686098029e-06
7.65963654508455e-06
7.65963617409269e-06
7.6596358069457e-06
7.65963545725462e-06
7.65963512828745e-06
7.65963482067915e-06
7.65963453465839e-06
7.65963427001598e-06
7.65963402653676e-06
7.65963380320622e-06
7.65963359687339e-06
7.65963339368781e-06
7.65963313450711e-06
7.65963256824879e-06
7.65963066737586e-06
7.65962338867157e-06
7.65959551764744e-06
7.65949254819745e-06
7.65912960677411e-06
7.65791686400033e-06
7.65409791852434e-06
7.64283669358129e-06
7.61196122564556e-06
7.53386020237727e-06
7.35307461594568e-06
6.97323032112281e-06
6.25422356649199e-06
5.03583149024466e-06
3.19689929395739e-06
1.00241113787602e-08
3.86730954313622e-11
3.80885164936295e-11
9.94112495170065e-09
3.18382013187337e-06
5.02407542192826e-06
6.24727191884997e-06
6.97176917301454e-06
7.35602302038265e-06
7.53964720861129e-06
7.61929273012114e-06
7.65090038391454e-06
7.66247036665944e-06
7.6664068731866e-06
7.66766039721788e-06
7.66803618279208e-06
7.6681426505032e-06
7.66817111501598e-06
7.66817815120572e-06
7.66817956763544e-06
7.66817958465562e-06
7.66817929353995e-06
7.66817894402811e-06
7.66817859612002e-06
7.66817826376503e-06
7.66817795036995e-06
7.66817765662874e-06
7.66817738280893e-06
7.66817712871535e-06
7.66817689410198e-06
7.66817667787409e-06
7.6681764767623e-06
7.66817627678561e-06
7.66817601862666e-06
7.66817545086954e-06
7.66817354515244e-06
7.66816625549229e-06
7.66813835659286e-06
7.66803530061626e-06
7.66767206164065e-06
7.66645829111322e-06
7.66263595401931e-06
7.65136427547011e-06
7.6204590856674e-06
7.54228080240713e-06
7.36131294360007e-06
6.98108051860842e-06
6.2613297671515e-06
5.04165189510113e-06
3.2007019516719e-06
1.00355392358408e-08
3.87122389281953e-11
3.81078964701883e-11
9.94685095175222e-09
3.18579769186569e-06
5.02720911249688e-06
6.25121177181845e-06
6.97622480875567e-06
7.36078085937102e-06
7.54456733724745e-06
7.62429299197326e-06
7.65593720326808e-06
7.66752268759275e-06
7.67146534615373e-06
7.67272117614026e-06
7.67309779116839e-06
7.67320455558996e-06
7.67323313408636e-06
7.67324022366425e-06
7.67324167487144e-06
7.67324171854076e-06
7.67324144817383e-06
7.67324111713917e-06
7.67324078620482e-06
7.67324046953905e-06
7.67324017063023e-06
7.67323989018448e-06
7.67323962849999e-06
7.67323938540259e-06
7.6732391606313e-06
7.67323895303387e-06
7.67323875925728e-06
7.67323856522692e-06
7.67323831150964e-06
7.67323774650036e-06
7.67323584136797e-06
7.67322854858556e-06
7.67320063675637e-06
7.67309753417801e-06
7.67273412713501e-06
7.67151976627601e-06
7.66769546583388e-06
7.65641770692407e-06
7.6254951696528e-06
7.54727166944397e-06
7.36619688423802e-06
6.98573626884518e-06
6.2655470969814e-06
5.04510950737894e-06
3.20296332989486e-06
1.0042291215059e-08
3.87351750472012e-11
3.81186989045102e-11
9.95007484080453e-09
3.18692524044667e-06
5.02900601224173e-06
6.25348074218756e-06
6.97879916753033e-06
7.36353613218916e-06
7.54742085318872e-06
7.62719556915422e-06
7.65886242212989e-06
7.67045762109469e-06
7.67440418232343e-06
7.67566149463869e-06
7.67603865174782e-06
7.67614561534055e-06
7.67617427431542e-06
7.67618140411167e-06
7.6761828832024e-06
7.67618294928509e-06
7.67618269681504e-06
7.67618238221971e-06
7.67618206676666e-06
7.67618176473798e-06
7.67618147966602e-06
7.67618121221345e-06
7.67618096270659e-06
7.67618073100556e-06
7.67618051684702e-06
7.67618031903839e-06
7.67618013416356e-06
7.67617994808262e-06
7.67617970128939e-06
7.6761791420782e-06
7.6761772413817e-06
7.67616995088216e-06
7.67614203593294e-06
7.67603891163568e-06
7.67567541510088e-06
7.67446072709904e-06
7.6706353214748e-06
7.65935411203552e-06
7.62842167937557e-06
7.55017228925815e-06
7.36903609475067e-06
6.98844407013719e-06
6.26800173689507e-06
5.04712412923962e-06
3.20428254027926e-06
1.00462054692964e-08
3.87483653239986e-11
3.81245748360494e-11
9.95184640083585e-09
3.18755306450012e-06
5.03001298344349e-06
6.25475854917656e-06
6.98025432429001e-06
7.3650976080078e-06
7.54904074970679e-06
7.62884498693946e-06
7.66052562774123e-06
7.67212681474485e-06
7.67607581169188e-06
7.67733406200487e-06
7.67771156856266e-06
7.67781866495295e-06
7.67784738125677e-06
7.67785454199638e-06
7.67785604403101e-06
7.67785612943656e-06
7.67785589275448e-06
7.67785559318143e-06
7.67785529221692e-06
7.67785500416048e-06
7.67785473257233e-06
7.67785447798825e-06
7.67785424076761e-06
7.67785402083086e-06
7.67785381792074e-06
7.67785363081766e-06
7.677853456059e-06
7.67785327945334e-06
7.67785304145668e-06
7.67785249031862e-06
7.67785059688802e-06
7.67784331255136e-06
7.6778154011666e-06
7.67771227100435e-06
7.67734873293233e-06
7.67613387546765e-06
7.67230787512446e-06
7.66102477525363e-06
7.63008686439067e-06
7.55182304125324e-06
7.37065243627193e-06
6.98998647204277e-06
6.26940116537201e-06
5.04827413109857e-06
3.20503666748482e-06
1.00484299748538e-08
3.87558045783556e-11
3.81276543302642e-11
9.95278498391567e-09
3.18789062717949e-06
5.03055893839516e-06
6.25545579449489e-06
6.98105211221417e-06
7.36595651847683e-06
7.54993370235319e-06
7.62975536994459e-06
7.66144426041873e-06
7.67304907731944e-06
7.67699956980639e-06
7.67825840424439e-06
7.67863613288737e-06
7.67874331718718e-06
7.67877207461093e-06
7.67877925951131e-06
7.67878078079025e-06
7.6787808829993e-06
7.67878066027899e-06
7.67878037456607e-06
7.67878008730323e-06
7.67877981271941e-06
7.67877955440995e-06
7.67877931265561e-06
7.67877908786868e-06
7.67877888006138e-06
7.67877868899975e-06
7.67877851344447e-06
7.67877834989406e-06
7.6787781841221e-06
7.67877795656534e-06
7.67877741547139e-06
7.67877553171698e-06
7.67876825674381e-06
7.67874035406793e-06
7.6786372290905e-06
7.6782736804335e-06
7.67705875107349e-06
7.67323246496076e-06
7.66194840712139e-06
7.63100763829279e-06
7.55273614662938e-06
7.37154702825388e-06
6.99084091934594e-06
6.27017743251165e-06
5.04891317894e-06
3.20545662096877e-06
1.00496628983638e-08
3.87599004523519e-11
3.81291313289842e-11
9.9532413922118e-09
3.18805815509979e-06
5.03083397266608e-06
6.25581102384081e-06
6.98146186646792e-06
7.36640010859137e-06
7.55039649789196e-06
7.63022817441928e-06
7.66192189000776e-06
7.67352886268064e-06
7.67748025514205e-06
7.67873944585263e-06
7.67911731259879e-06
7.67922455390809e-06
7.679253340323e-06
7.67926054372066e-06
7.67926208083727e-06
7.67926219721074e-06
7.67926198645431e-06
7.67926171322496e-06
7.67926143868374e-06
7.67926117690547e-06
7.67926093153712e-06
7.67926070246362e-06
7.67926049018866e-06
7.67926029484439e-06
7.67926011622668e-06
7.67925995308312e-06
7.67925980188434e-06
7.67925964837327e-06
7.67925943297769e-06
7.67925890398235e-06
7.67925703238286e-06
7.67924976995504e-06
7.67922188072713e-06
7.67911877006667e-06
7.67875523390766e-06
7.67754030018727e-06
7.67371393167978e-06
7.66242950892877e-06
7.63148750861673e-06
7.55321247501579e-06
7.37201442162002e-06
6.99128835540413e-06
6.27058517423517e-06
5.04925015441802e-06
3.20567911127658e-06
1.00503155832386e-08
3.87620622032465e-11
3.81296235767152e-11
9.95339863649083e-09
3.18811917888098e-06
5.03093937111334e-06
6.25595228800384e-06
6.98162909940977e-06
7.36658430542912e-06
7.55059074170485e-06
7.63042784722743e-06
7.66212429499743e-06
7.67373251574965e-06
7.67768444070077e-06
7.67894384932008e-06
7.67932180556732e-06
7.67942908814481e-06
7.67945789916061e-06
7.6794651204074e-06
7.67946667384288e-06
7.67946680498033e-06
7.67946660669922e-06
7.67946634655748e-06
7.67946608531238e-06
7.67946583679969e-06
7.67946560469808e-06
7.67946538851983e-06
7.67946518892146e-06
7.67946500612653e-06
7.67946483994621e-06
7.67946468910866e-06
7.67946455004279e-06
7.67946440844707e-06
7.67946420471932e-06
7.67946368717767e-06
7.67946182699484e-06
7.67945457648772e-06
7.67942670093516e-06
7.67932360829997e-06
7.67896010008054e-06
7.67774521349201e-06
7.67391891822485e-06
7.66263456912839e-06
7.63169249223573e-06
7.55341674196792e-06
7.37221612165514e-06
6.99148321772837e-06
6.27076491236437e-06
5.04940089901484e-06
3.20578036069722e-06
1.00506175566482e-08
3.87630749903072e-11
3.81293508078921e-11
9.95332376585228e-09
3.18809894325752e-06
5.03091703039596e-06
6.25593384919942e-06
6.98161645776067e-06
7.36657693498195e-06
7.55058718307702e-06
7.63042664549692e-06
7.66212438841993e-06
7.6737332511558e-06
7.67768547579613e-06
7.67894502078078e-06
7.679323042154e-06
7.67943036174429e-06
7.67945919950667e-06
7.67946644250433e-06
7.67946801650867e-06
7.67946816612359e-06
7.67946798319233e-06
7.67946773863494e-06
7.67946749274072e-06
7.67946725897632e-06
7.67946704093278e-06
7.67946683815549e-06
7.67946665140437e-06
7.67946648089694e-06
7.67946632642044e-06
7.67946618666419e-06
7.67946605798483e-06
7.67946592598628e-06
7.67946573098804e-06
7.67946522130837e-06
7.67946336833022e-06
7.67945612512195e-06
7.6794282590902e-06
7.6793251840382e-06
7.67896171651892e-06
7.67774692896042e-06
7.67392086524558e-06
7.66263701841214e-06
7.63169593410002e-06
7.55342194317589e-06
7.372224067352e-06
6.99149481531314e-06
6.27078036113392e-06
5.04941870278022e-06
3.20579618919602e-06
1.0050679316182e-08
3.87633245703093e-11
3.81282324281027e-11
9.95299814398693e-09
3.18799300560948e-06
5.03076246348953e-06
6.2557523045008e-06
6.98142188453576e-06
7.36637712499294e-06
7.55038580641584e-06
7.63022508468153e-06
7.66192296358905e-06
7.67353200673648e-06
7.67748435608081e-06
7.67874397456165e-06
7.67912203977442e-06
7.67922938955002e-06
7.67925825194633e-06
7.67926551632051e-06
7.67926711140045e-06
7.67926727970865e-06
7.67926711194792e-06
7.67926688298681e-06
7.67926665251462e-06
7.67926643342941e-06
7.6792662291509e-06
7.67926603966975e-06
7.67926586569934e-06
7.67926570738001e-06
7.67926556446048e-06
7.67926543557395e-06
7.67926531698e-06
7.6792651941603e-06
7.67926500733229e-06
7.67926450483279e-06
7.67926265837857e-06
7.67925542220753e-06
7.67922756733389e-06
7.67912451826194e-06
7.67876112018433e-06
7.67754651662058e-06
7.67372091487617e-06
7.66243815280748e-06
7.63149943662081e-06
7.55323023162933e-06
7.37204127629441e-06
6.9913273021389e-06
6.27063682362374e-06
5.04930952464233e-06
3.20573166743209e-06
1.00505178115368e-08
3.87628604965777e-11
3.8125927129478e-11
9.95231965325977e-09
3.18776647119015e-06
5.03042340093697e-06
6.25534526642363e-06
6.98097769288011e-06
7.36591476742165e-06
7.5499155700936e-06
7.6297518451835e-06
7.66144872589293e-06
7.67305750062121e-06
7.67700980892673e-06
7.6782694412981e-06
7.67864752830562e-06
7.67875489885227e-06
7.67878378067057e-06
7.67879106320551e-06
7.67879267724777e-06
7.6787928618733e-06
7.67879270697815e-06
7.67879249184443e-06
7.67879227549716e-06
7.67879207004685e-06
7.67879187876552e-06
7.67879170210049e-06
7.67879154069533e-06
7.67879139461842e-06
7.67879126358282e-06
7.67879114615906e-06
7.67879103849957e-06
7.67879092594827e-06
7.67879074862505e-06
7.67879025495747e-06
7.67878841725221e-06
7.67878119170808e-06
7.67875335546246e-06
7.67865035129776e-06
7.67828707416935e-06
7.67707279436589e-06
7.67324801985057e-06
7.66196724669703e-06
7.63103299807839e-06
7.55277311967469e-06
7.37160217467258e-06
6.99092023245457e-06
6.27028206062794e-06
5.04903302263422e-06
3.20556228141449e-06
1.0050068857034e-08
3.87615140530078e-11
3.81216344963862e-11
9.95105847186556e-09
3.18734398847286e-06
5.02978579046124e-06