/*--------------------------------*- C++ -*----------------------------------*\
  =========                 |
  \\      /  F ield         | OpenFOAM: The Open Source CFD Toolbox
   \\    /   O peration     | Website:  https://openfoam.org
    \\  /    A nd           | Version:  10
     \\/     M anipulation  |
\*---------------------------------------------------------------------------*/
FoamFile
{
    format      ascii;
    class       volScalarField;
    location    "3.4";
    object      h;
}
// * * * * * * * * * * * * * * * * * * * * * * * * * * * * * * * * * * * * * //

dimensions      [0 2 -2 0 0 0 0];

internalField   nonuniform List<scalar> 
2500
(
6959.10222010719
6931.99191445462
6908.83260800064
6898.20142036264
6893.94284434834
6892.30818018371
6891.70560033495
6891.4938593242
6891.42272412554
6891.40035300512
6891.39215671219
6891.38901893742
6891.38766251648
6891.38638064724
6891.38524714673
6891.38402727912
6891.38338208643
6891.38259803096
6891.38171025178
6891.38107720791
6891.38049715696
6891.37994198291
6891.37946320512
6891.37921698394
6891.37895761185
6891.37866565909
6891.37856295269
6891.37847588682
6891.37841940777
6891.37849841036
6891.37861118594
6891.37879703475
6891.37915886532
6891.37963714829
6891.38009645381
6891.38059726554
6891.38120399241
6891.38184705447
6891.38343117648
6891.38654270921
6891.39515152772
6891.42111017682
6891.49904756969
6891.72401082253
6892.34581025188
6893.98638551292
6898.215714451
6908.83559154237
6932.3125020021
6958.96664594025
5303.2407194678
5219.44128446982
5155.10939341588
5123.48871416859
5109.47629936027
5103.5577798676
5101.18601144208
5100.29582992091
5099.98449677019
5099.88312295227
5099.85153957007
5099.84212085258
5099.839426725
5099.83833689678
5099.83768725157
5099.83711899129
5099.83679771557
5099.83642706142
5099.83599680096
5099.8356528168
5099.83528429468
5099.83486277181
5099.83447479206
5099.83430180468
5099.83417135398
5099.83397453858
5099.83391903821
5099.833866292
5099.83373449497
5099.83381351942
5099.83385899922
5099.83380673769
5099.83419150583
5099.83471655783
5099.83496906729
5099.83519369196
5099.83565675629
5099.83672336642
5099.84029830071
5099.85177328608
5099.88895747348
5100.00438521075
5100.34271030368
5101.27469711915
5103.68644005046
5109.58739904701
5123.47385543272
5155.0949783051
5220.57228583128
5303.78712442753
3898.11911852831
3795.00963499923
3720.74133390469
3684.32705102046
3668.19841338353
3661.38086449327
3658.63851957194
3657.60264856109
3657.23774456037
3657.11798841872
3657.08089000213
3657.07009324862
3657.06728159671
3657.06647014021
3657.06617585379
3657.06600531541
3657.06592412011
3657.06582078745
3657.06567143436
3657.06553879279
3657.06535716104
3657.06510062236
3657.06483543848
3657.06470777797
3657.06464819436
3657.06452485697
3657.0645115342
3657.06448667996
3657.06436567593
3657.06442575636
3657.06442368188
3657.06431340538
3657.06463064711
3657.0650661756
3657.06507900191
3657.06504969665
3657.06541458172
3657.06649151091
3657.07028008161
3657.08323722421
3657.12591591179
3657.25900595724
3657.64901759606
3658.72193317481
3661.49526587478
3668.28731258981
3684.31037286948
3720.87571093771
3796.83422181692
3901.46766711975
2931.57508470304
2845.10553935802
2789.81238355833
2763.55122217114
2752.41455509458
2747.89071992753
2746.12218003055
2745.46554689866
2745.23632759279
2745.16138382488
2745.13819991776
2745.13152731436
2745.12989739117
2745.12949936629
2745.12943935017
2745.12943522909
2745.12944800086
2745.12944864235
2745.12941856474
2745.12939187179
2745.12932996002
2745.12920513135
2745.12904944787
2745.12896004584
2745.12893791482
2745.12888470512
2745.12888673342
2745.12891117418
2745.12886944185
2745.12887390892
2745.12886692632
2745.12877171008
2745.12893825768
2745.12915787587
2745.12915385854
2745.12914447937
2745.12921904187
2745.12972343097
2745.13189173114
2745.13948227574
2745.16493040195
2745.24558403
2745.48561161536
2746.15826942568
2747.94009426972
2752.45352803747
2763.57008721567
2790.09991690544
2846.98660737893
2936.52956642117
2367.22364440434
2310.15740773674
2277.52647665487
2262.48835490827
2256.34791122679
2253.93992111534
2253.02139984497
2252.68469077144
2252.56761538796
2252.52927965181
2252.51735644105
2252.51393660181
2252.51315934613
2252.5130161869
2252.51302827116
2252.51305598421
2252.5130886794
2252.51311046982
2252.51311595482
2252.51311758089
2252.51310479186
2252.51305816752
2252.51298162917
2252.51292808629
2252.51293032127
2252.51293559891
2252.51294135217
2252.51295370732
2252.51294276711
2252.51294438667
2252.51293178797
2252.51285824445
2252.51293527001
2252.51302887964
2252.51301235065
2252.51300913025
2252.51302198237
2252.5131974447
2252.51419323204
2252.51786533022
2252.53033031571
2252.57023290424
2252.69012627597
2253.03052518492
2253.95025380093
2256.35019037855
2262.49534044753
2277.76109418935
2311.57530338079
2371.80075510497
2078.58801857
2046.90326820909
2030.55705850382
2023.22104877489
2020.31600754048
2019.21000396935
2018.79682480312
2018.64681045412
2018.59469196031
2018.57754944264
2018.57217345582
2018.57062810664
2018.57030838594
2018.57027358595
2018.57028947228
2018.57031371986
2018.57033917402
2018.57035915432
2018.57037010635
2018.57037529994
2018.57037539807
2018.5703603188
2018.57032905278
2018.57030728898
2018.57031339485
2018.57032292637
2018.57032733868
2018.57033424316
2018.57033098496
2018.57033086311
2018.57032343468
2018.57028365441
2018.57031376103
2018.57034783933
2018.57033798282
2018.57033933183
2018.5703334853
2018.57037855683
2018.57077780548
2018.57234562008
2018.57772800049
2018.59504011491
2018.64729450434
2018.79686582307
2019.20721371574
2020.30522384372
2023.21166907462
2030.68250682378
2047.7567398243
2081.80478833384
1946.29540247846
1930.90411351931
1923.6697020995
1920.49921287083
1919.27386340936
1918.81857315232
1918.6514783445
1918.59126707193
1918.57032856786
1918.56339991721
1918.56120821194
1918.56057867527
1918.56045838988
1918.56045329432
1918.56046523647
1918.56047973055
1918.56049427227
1918.56050607687
1918.56051353831
1918.56051718158
1918.56051963941
1918.56051561287
1918.56050430554
1918.56049826864
1918.56050250881
1918.56050739938
1918.5605099135
1918.56051324266
1918.56051228226
1918.56051194913
1918.56050859148
1918.56049039435
1918.56050048892
1918.56051090787
1918.56050687398
1918.5605074644
1918.56050232999
1918.56051037369
1918.56065249297
1918.5612634434
1918.56338462955
1918.57020991119
1918.59082071056
1918.65005353277
1918.81439826518
1919.2634024928
1920.48548890079
1923.71905205415
1931.33713588942
1948.16610256703
1891.01152394061
1884.29878931593
1881.39391115574
1880.14882836849
1879.67681073831
1879.50486212036
1879.44270596913
1879.42044862491
1879.41269520582
1879.41011258362
1879.40928951132
1879.40905386169
1879.40901152125
1879.40901265367
1879.40901936708
1879.40902657718
1879.40903350982
1879.40903916225
1879.40904301242
1879.40904491798
1879.40904672254
1879.40904593281
1879.40904231268
1879.40904160644
1879.40904387353
1879.40904566775
1879.40904678717
1879.40904844702
1879.40904795447
1879.40904719974
1879.4090462541
1879.40903902252
1879.40904171374
1879.40904419274
1879.40904236381
1879.4090422727
1879.40903894351
1879.40903921188
1879.4090867001
1879.40930824031
1879.41008668551
1879.41258421384
1879.4201055764
1879.44173457594
1879.50221240625
1879.67025367892
1880.13831444854
1881.408002676
1884.49058697702
1891.95448714281
1869.66337346202
1866.98590839326
1865.90753868658
1865.45524761387
1865.28642444247
1865.22589344205
1865.20429463064
1865.19660285866
1865.19391840232
1865.19301846808
1865.19272999653
1865.19264782139
1865.19263377726
1865.19263514585
1865.19263831861
1865.19264148278
1865.19264439894
1865.19264677423
1865.19264848631
1865.19264936251
1865.1926502491
1865.19265023871
1865.19264933271
1865.19264964009
1865.1926505933
1865.19265118312
1865.19265160622
1865.19265221994
1865.19265203351
1865.19265165267
1865.19265128064
1865.19264860348
1865.19264921068
1865.19264954154
1865.19264868478
1865.19264855787
1865.19264685667
1865.19264607807
1865.19266108384
1865.19273707165
1865.19300656845
1865.19386666034
1865.19644374823
1865.20383938754
1865.22461630814
1865.28311774101
1865.44919329562
1865.90966480488
1867.0618568693
1870.08766034594
1861.96422336462
1860.97403541173
1860.59879714406
1860.44479848566
1860.38805221812
1860.36796089209
1860.36087045316
1860.3583580965
1860.35747989345
1860.35718379358
1860.35708848114
1860.35706156373
1860.35705716016
1860.35705784397
1860.35705916552
1860.35706042412
1860.35706154219
1860.35706245768
1860.35706314932
1860.35706354068
1860.35706389052
1860.35706395652
1860.35706382454
1860.35706407636
1860.35706441706
1860.35706461251
1860.35706475903
1860.35706495074
1860.35706488214
1860.35706472911
1860.35706457948
1860.35706364953
1860.35706365415
1860.35706364968
1860.35706335298
1860.35706315539
1860.35706241105
1860.35706192633
1860.3570664828
1860.35709136352
1860.35718013937
1860.35746158963
1860.35829935868
1860.36069376863
1860.3674346874
1860.38660629064
1860.44188063782
1860.59818102255
1861.00137087203
1862.13812540559
1859.34856744769
1859.00541325718
1858.8817630996
1858.83211863692
1858.8140271125
1858.80768480741
1858.80546714626
1858.80468504936
1858.80441137846
1858.80431866585
1858.80428874017
1858.80428036208
1858.80427904259
1858.80427933059
1858.80427983037
1858.80428029156
1858.80428068973
1858.80428101876
1858.80428127732
1858.80428143413
1858.80428156471
1858.80428161859
1858.80428162991
1858.80428173885
1858.80428184502
1858.804281908
1858.80428195662
1858.80428201034
1858.80428198286
1858.80428192798
1858.8042818732
1858.80428160576
1858.80428157087
1858.80428151856
1858.80428137976
1858.80428124172
1858.80428095438
1858.80428077104
1858.80428211703
1858.80428991224
1858.80431790731
1858.8044060275
1858.80466639467
1858.80540646735
1858.80748982737
1858.81345734538
1858.83087883862
1858.88103882963
1859.01445989262
1859.41446328962
1858.50555017422
1858.39317032747
1858.35428704077
1858.33901555608
1858.33350530548
1858.33158839967
1858.33092320995
1858.3306896473
1858.33060788381
1858.33058008172
1858.33057109276
1858.33056859498
1858.33056821514
1858.33056832295
1858.33056849695
1858.33056865401
1858.33056878684
1858.33056889758
1858.33056898772
1858.33056904592
1858.33056909143
1858.33056911705
1858.33056913428
1858.33056917282
1858.33056920422
1858.3305692238
1858.33056923954
1858.33056924977
1858.33056923983
1858.33056922505
1858.33056920532
1858.33056913086
1858.33056910711
1858.33056907889
1858.33056902341
1858.33056895855
1858.3305688576
1858.33056879619
1858.33056918534
1858.33057154319
1858.33058003294
1858.33060656414
1858.33068435886
1858.33090408054
1858.33152148422
1858.3332980489
1858.33853654967
1858.35387551671
1858.39594489007
1858.52889582471
1858.24627870449
1858.21126288824
1858.19952666616
1858.19501620855
1858.19340367361
1858.1928460285
1858.19265369374
1858.19258643267
1858.19256288966
1858.19255486229
1858.19255226384
1858.19255154521
1858.1925514383
1858.19255147418
1858.19255152992
1858.19255157947
1858.19255162075
1858.19255165542
1858.19255168456
1858.19255170449
1858.19255171924
1858.1925517288
1858.19255173657
1858.19255174851
1858.19255175729
1858.19255176308
1858.19255176808
1858.19255176992
1858.19255176742
1858.19255176281
1858.19255175549
1858.1925517352
1858.19255172505
1858.19255171381
1858.19255169381
1858.19255166935
1858.19255163704
1858.19255161837
1858.19255173069
1858.19255242239
1858.19255490709
1858.19256261799
1858.19258505811
1858.19264800738
1858.19282432933
1858.19333291143
1858.1948444678
1858.19934167397
1858.21205514301
1858.25408019971
1858.16981186796
1858.15937333633
1858.15595813068
1858.15467282573
1858.15421732637
1858.15406052686
1858.15400669969
1858.15398794288
1858.15398138064
1858.15397913809
1858.15397841075
1858.15397820893
1858.15397817802
1858.15397818799
1858.15397820382
1858.15397821774
1858.15397822918
1858.1539782388
1858.15397824714
1858.15397825308
1858.15397825726
1858.15397826007
1858.15397826246
1858.1539782656
1858.15397826771
1858.1539782692
1858.15397827068
1858.153978271
1858.15397827026
1858.15397826885
1858.15397826667
1858.15397826136
1858.15397825803
1858.15397825447
1858.15397824832
1858.15397824083
1858.15397823186
1858.15397822697
1858.15397826059
1858.15397845925
1858.15397916371
1858.1539813342
1858.15398760361
1858.15400506756
1858.15405378
1858.15419437512
1858.15461486829
1858.15588518578
1858.15958426407
1858.17228841429
1858.14809456823
1858.14510347338
1858.14414199606
1858.14378723089
1858.14366256513
1858.14361980377
1858.14360517448
1858.1436000911
1858.14359831282
1858.14359770301
1858.1435975039
1858.14359744705
1858.14359743663
1858.143597438
1858.14359744115
1858.14359744387
1858.143597446
1858.1435974478
1858.14359744942
1858.1435974505
1858.14359745114
1858.14359745153
1858.14359745183
1858.14359745228
1858.14359745254
1858.14359745264
1858.14359745294
1858.14359745305
1858.14359745292
1858.14359745265
1858.14359745216
1858.14359745098
1858.14359745039
1858.14359744983
1858.14359744862
1858.1435974473
1858.1435974457
1858.14359744571
1858.14359745712
1858.14359751371
1858.1435977087
1858.14359830304
1858.14360000495
1858.14360471029
1858.14361776881
1858.14365542903
1858.14376863155
1858.1441156997
1858.14515570177
1858.14884571392
1858.14213374531
1858.14130670335
1858.14104408171
1858.14094892038
1858.14091575369
1858.14090440947
1858.14090053637
1858.14089919215
1858.14089872064
1858.14089855719
1858.14089850225
1858.14089848501
1858.14089848018
1858.14089847873
1858.14089847804
1858.1408984774
1858.14089847677
1858.14089847619
1858.1408984757
1858.14089847522
1858.14089847472
1858.14089847425
1858.14089847384
1858.14089847356
1858.1408984733
1858.1408984731
1858.14089847306
1858.14089847302
1858.14089847305
1858.14089847318
1858.14089847331
1858.14089847338
1858.14089847372
1858.14089847419
1858.14089847464
1858.14089847524
1858.14089847599
1858.14089847752
1858.14089848237
1858.14089849938
1858.14089855343
1858.14089871343
1858.14089916471
1858.14090040011
1858.14090380657
1858.14091361011
1858.14094320003
1858.141035226
1858.14131862366
1858.14235246758
1858.14054770158
1858.14032632337
1858.14025654859
1858.14023166034
1858.14022305437
1858.14022011741
1858.14021911447
1858.14021876504
1858.1402186407
1858.14021859582
1858.14021857911
1858.14021857233
1858.14021856897
1858.14021856672
1858.1402185649
1858.14021856328
1858.14021856182
1858.14021856053
1858.14021855941
1858.14021855843
1858.14021855756
1858.1402185568
1858.14021855617
1858.14021855567
1858.14021855527
1858.14021855499
1858.14021855485
1858.1402185548
1858.14021855488
1858.14021855511
1858.14021855545
1858.14021855589
1858.14021855654
1858.14021855735
1858.14021855833
1858.14021855953
1858.14021856098
1858.14021856287
1858.14021856587
1858.14021857226
1858.1402185885
1858.1402186323
1858.14021875094
1858.14021906926
1858.1402199375
1858.14022242594
1858.14022996231
1858.1402537249
1858.14032877441
1858.14060908946
1858.14013749872
1858.14007999353
1858.140061909
1858.14005552991
1858.14005334046
1858.1400525944
1858.14005233799
1858.1400522467
1858.14005221231
1858.14005219815
1858.14005219132
1858.14005218723
1858.14005218424
1858.14005218176
1858.1400521796
1858.14005217768
1858.14005217597
1858.14005217446
1858.14005217314
1858.14005217199
1858.14005217099
1858.14005217014
1858.14005216943
1858.14005216886
1858.14005216842
1858.14005216811
1858.14005216794
1858.1400521679
1858.140052168
1858.14005216826
1858.14005216866
1858.14005216922
1858.14005216997
1858.14005217092
1858.14005217207
1858.14005217345
1858.14005217511
1858.14005217709
1858.1400521796
1858.14005218321
1858.14005218957
1858.14005220312
1858.14005223563
1858.14005231794
1858.1400525364
1858.14005315632
1858.14005503848
1858.14006104727
1858.14008041856
1858.14015415862
1858.14003413253
1858.14001962701
1858.14001502951
1858.14001340504
1858.14001285102
1858.14001266223
1858.14001259553
1858.14001256975
1858.14001255817
1858.14001255181
1858.14001254749
1858.14001254408
1858.14001254118
1858.14001253862
1858.14001253634
1858.14001253432
1858.14001253252
1858.14001253093
1858.14001252953
1858.14001252832
1858.14001252727
1858.14001252638
1858.14001252564
1858.14001252504
1858.14001252458
1858.14001252426
1858.14001252409
1858.14001252405
1858.14001252416
1858.14001252443
1858.14001252486
1858.14001252546
1858.14001252625
1858.14001252725
1858.14001252846
1858.14001252992
1858.14001253164
1858.14001253366
1858.14001253604
1858.14001253894
1858.14001254277
1858.14001254862
1858.14001255934
1858.14001258236
1858.14001263854
1858.14001279316
1858.14001326283
1858.14001477413
1858.14001967188
1858.14003851253
1858.1400087018
1858.1400051682
1858.1400040029
1858.14000357202
1858.14000342559
1858.14000337549
1858.14000335604
1858.1400033466
1858.14000334074
1858.14000333633
1858.14000333265
1858.14000332941
1858.14000332652
1858.14000332393
1858.14000332161
1858.14000331954
1858.1400033177
1858.14000331607
1858.14000331464
1858.14000331339
1858.14000331232
1858.1400033114
1858.14000331064
1858.14000331003
1858.14000330956
1858.14000330924
1858.14000330906
1858.14000330903
1858.14000330915
1858.14000330942
1858.14000330987
1858.14000331049
1858.1400033113
1858.14000331232
1858.14000331356
1858.14000331505
1858.1400033168
1858.14000331884
1858.14000332119
1858.1400033239
1858.14000332708
1858.14000333099
1858.14000333628
1858.14000334468
1858.14000336119
1858.14000340257
1858.14000352764
1858.1400039268
1858.14000515714
1858.14000981523
1858.14000258175
1858.14000177702
1858.14000146515
1858.14000132769
1858.14000128086
1858.14000126466
1858.14000125682
1858.14000125143
1858.14000124701
1858.14000124312
1858.14000123961
1858.14000123642
1858.14000123353
1858.14000123092
1858.14000122857
1858.14000122647
1858.14000122461
1858.14000122295
1858.1400012215
1858.14000122023
1858.14000121914
1858.14000121821
1858.14000121744
1858.14000121682
1858.14000121634
1858.14000121602
1858.14000121584
1858.14000121581
1858.14000121593
1858.14000121621
1858.14000121667
1858.1400012173
1858.14000121813
1858.14000121917
1858.14000122043
1858.14000122193
1858.1400012237
1858.14000122574
1858.14000122808
1858.14000123074
1858.14000123375
1858.14000123715
1858.14000124107
1858.14000124589
1858.14000125283
1858.14000126716
1858.14000130989
1858.14000144002
1858.14000176279
1858.14000285088
1858.1400011385
1858.1400009967
1858.14000089259
1858.14000082596
1858.14000080309
1858.14000079511
1858.14000079012
1858.14000078577
1858.14000078174
1858.140000778
1858.14000077454
1858.14000077137
1858.14000076848
1858.14000076586
1858.14000076349
1858.14000076138
1858.1400007595
1858.14000075783
1858.14000075636
1858.14000075508
1858.14000075397
1858.14000075303
1858.14000075225
1858.14000075162
1858.14000075115
1858.14000075082
1858.14000075064
1858.14000075061
1858.14000075074
1858.14000075103
1858.14000075149
1858.14000075213
1858.14000075297
1858.14000075402
1858.14000075529
1858.14000075681
1858.14000075858
1858.14000076064
1858.14000076298
1858.14000076562
1858.14000076856
1858.1400007718
1858.14000077536
1858.14000077927
1858.14000078389
1858.1400007918
1858.14000081517
1858.14000088145
1858.14000098441
1858.14000119508
1858.14000080435
1858.14000082014
1858.14000076569
1858.14000071593
1858.14000069878
1858.14000069281
1858.14000068856
1858.14000068451
1858.14000068061
1858.14000067692
1858.14000067349
1858.14000067033
1858.14000066743
1858.1400006648
1858.14000066243
1858.14000066031
1858.14000065841
1858.14000065673
1858.14000065525
1858.14000065396
1858.14000065285
1858.1400006519
1858.14000065112
1858.14000065049
1858.14000065001
1858.14000064968
1858.1400006495
1858.14000064947
1858.1400006496
1858.1400006499
1858.14000065037
1858.14000065102
1858.14000065186
1858.14000065292
1858.1400006542
1858.14000065573
1858.14000065751
1858.14000065956
1858.1400006619
1858.14000066453
1858.14000066744
1858.14000067063
1858.14000067406
1858.14000067771
1858.14000068173
1858.14000068809
1858.14000070693
1858.14000075827
1858.140000809
1858.14000080872
1858.14000072823
1858.14000078073
1858.14000073798
1858.14000069221
1858.14000067645
1858.14000067099
1858.14000066696
1858.14000066301
1858.14000065916
1858.1400006555
1858.14000065209
1858.14000064893
1858.14000064603
1858.1400006434
1858.14000064103
1858.1400006389
1858.140000637
1858.14000063531
1858.14000063383
1858.14000063253
1858.14000063141
1858.14000063047
1858.14000062968
1858.14000062905
1858.14000062857
1858.14000062824
1858.14000062806
1858.14000062803
1858.14000062817
1858.14000062847
1858.14000062894
1858.14000062959
1858.14000063045
1858.14000063151
1858.1400006328
1858.14000063433
1858.14000063611
1858.14000063817
1858.14000064051
1858.14000064313
1858.14000064602
1858.14000064918
1858.14000065256
1858.14000065612
1858.14000065996
1858.14000066592
1858.14000068368
1858.14000073155
1858.14000077007
1858.14000072011
1858.14000071118
1858.14000077207
1858.14000073202
1858.14000068719
1858.14000067176
1858.14000066644
1858.14000066247
1858.14000065855
1858.14000065473
1858.14000065109
1858.14000064768
1858.14000064452
1858.14000064163
1858.140000639
1858.14000063663
1858.1400006345
1858.1400006326
1858.14000063091
1858.14000062942
1858.14000062813
1858.14000062701
1858.14000062606
1858.14000062527
1858.14000062464
1858.14000062416
1858.14000062384
1858.14000062366
1858.14000062364
1858.14000062377
1858.14000062408
1858.14000062455
1858.14000062521
1858.14000062607
1858.14000062713
1858.14000062842
1858.14000062996
1858.14000063175
1858.1400006338
1858.14000063614
1858.14000063875
1858.14000064164
1858.14000064479
1858.14000064814
1858.14000065167
1858.14000065545
1858.14000066131
1858.14000067881
1858.14000072589
1858.14000076162
1858.14000070018
1858.14000070752
1858.14000077028
1858.1400007308
1858.14000068615
1858.14000067078
1858.14000066547
1858.14000066151
1858.14000065759
1858.14000065377
1858.14000065013
1858.14000064673
1858.14000064358
1858.14000064069
1858.14000063806
1858.14000063569
1858.14000063357
1858.14000063167
1858.14000062998
1858.1400006285
1858.14000062721
1858.1400006261
1858.14000062515
1858.14000062437
1858.14000062374
1858.14000062326
1858.14000062294
1858.14000062277
1858.14000062275
1858.14000062288
1858.14000062319
1858.14000062367
1858.14000062433
1858.14000062518
1858.14000062625
1858.14000062754
1858.14000062908
1858.14000063086
1858.14000063292
1858.14000063525
1858.14000063787
1858.14000064076
1858.1400006439
1858.14000064726
1858.14000065078
1858.14000065456
1858.14000066041
1858.14000067789
1858.14000072483
1858.14000075999
1858.14000069596
1858.14000070698
1858.14000077014
1858.14000073067
1858.14000068597
1858.14000067055
1858.14000066519
1858.1400006612
1858.14000065725
1858.14000065341
1858.14000064977
1858.14000064636
1858.14000064321
1858.14000064033
1858.14000063771
1858.14000063535
1858.14000063323
1858.14000063134
1858.14000062967
1858.14000062819
1858.14000062691
1858.1400006258
1858.14000062487
1858.14000062409
1858.14000062347
1858.14000062299
1858.14000062267
1858.1400006225
1858.14000062249
1858.14000062263
1858.14000062293
1858.14000062341
1858.14000062407
1858.14000062493
1858.14000062599
1858.14000062728
1858.14000062881
1858.1400006306
1858.14000063265
1858.14000063499
1858.1400006376
1858.14000064049
1858.14000064365
1858.14000064702
1858.14000065057
1858.14000065439
1858.1400006603
1858.14000067783
1858.14000072484
1858.14000076002
1858.14000069541
1858.14000070728
1858.14000077049
1858.14000073084
1858.14000068599
1858.14000067044
1858.14000066499
1858.14000066093
1858.14000065693
1858.14000065306
1858.1400006494
1858.14000064598
1858.14000064283
1858.14000063996
1858.14000063735
1858.140000635
1858.14000063289
1858.14000063102
1858.14000062936
1858.1400006279
1858.14000062663
1858.14000062553
1858.1400006246
1858.14000062384
1858.14000062322
1858.14000062276
1858.14000062244
1858.14000062228
1858.14000062226
1858.1400006224
1858.14000062271
1858.14000062318
1858.14000062384
1858.1400006247
1858.14000062576
1858.14000062704
1858.14000062857
1858.14000063035
1858.1400006324
1858.14000063473
1858.14000063735
1858.14000064026
1858.14000064343
1858.14000064684
1858.14000065045
1858.14000065434
1858.14000066034
1858.140000678
1858.14000072519
1858.14000076057
1858.14000069586
1858.14000070795
1858.14000077113
1858.14000073116
1858.14000068607
1858.14000067034
1858.14000066475
1858.14000066057
1858.1400006565
1858.14000065258
1858.14000064889
1858.14000064546
1858.14000064232
1858.14000063945
1858.14000063686
1858.14000063452
1858.14000063244
1858.14000063058
1858.14000062894
1858.1400006275
1858.14000062624
1858.14000062516
1858.14000062425
1858.14000062349
1858.14000062289
1858.14000062243
1858.14000062212
1858.14000062196
1858.14000062195
1858.14000062209
1858.1400006224
1858.14000062287
1858.14000062352
1858.14000062437
1858.14000062542
1858.1400006267
1858.14000062822
1858.14000062999
1858.14000063204
1858.14000063437
1858.14000063699
1858.14000063992
1858.14000064313
1858.14000064659
1858.14000065027
1858.14000065428
1858.14000066042
1858.14000067827
1858.14000072572
1858.14000076144
1858.14000069673
1858.14000070889
1858.14000077201
1858.14000073161
1858.14000068619
1858.14000067021
1858.14000066443
1858.14000066011
1858.14000065594
1858.14000065195
1858.14000064822
1858.14000064478
1858.14000064164
1858.14000063878
1858.14000063621
1858.1400006339
1858.14000063183
1858.14000063
1858.14000062838
1858.14000062697
1858.14000062573
1858.14000062467
1858.14000062377
1858.14000062303
1858.14000062244
1858.14000062199
1858.14000062169
1858.14000062153
1858.14000062153
1858.14000062167
1858.14000062197
1858.14000062244
1858.14000062309
1858.14000062393
1858.14000062497
1858.14000062624
1858.14000062774
1858.14000062951
1858.14000063154
1858.14000063387
1858.14000063651
1858.14000063945
1858.1400006427
1858.14000064624
1858.14000065003
1858.14000065418
1858.14000066052
1858.14000067862
1858.14000072642
1858.1400007626
1858.14000069792
1858.14000071013
1858.14000077316
1858.1400007322
1858.14000068634
1858.14000067005
1858.14000066402
1858.14000065953
1858.14000065523
1858.14000065116
1858.14000064739
1858.14000064394
1858.14000064079
1858.14000063795
1858.1400006354
1858.14000063312
1858.14000063109
1858.14000062928
1858.14000062769
1858.1400006263
1858.14000062509
1858.14000062405
1858.14000062318
1858.14000062245
1858.14000062187
1858.14000062144
1858.14000062115
1858.140000621
1858.14000062099
1858.14000062113
1858.14000062143
1858.1400006219
1858.14000062254
1858.14000062336
1858.1400006244
1858.14000062565
1858.14000062714
1858.14000062889
1858.14000063091
1858.14000063324
1858.14000063588
1858.14000063885
1858.14000064215
1858.14000064577
1858.14000064969
1858.14000065402
1858.14000066061
1858.14000067904
1858.14000072729
1858.14000076406
1858.14000069944
1858.1400007117
1858.14000077461
1858.14000073294
1858.14000068653
1858.14000066984
1858.14000066352
1858.14000065881
1858.14000065436
1858.14000065021
1858.14000064639
1858.14000064292
1858.14000063978
1858.14000063696
1858.14000063444
1858.14000063219
1858.14000063019
1858.14000062842
1858.14000062687
1858.14000062551
1858.14000062433
1858.14000062332
1858.14000062246
1858.14000062176
1858.14000062119
1858.14000062077
1858.14000062049
1858.14000062035
1858.14000062034
1858.14000062049
1858.14000062078
1858.14000062124
1858.14000062187
1858.14000062268
1858.1400006237
1858.14000062493
1858.1400006264
1858.14000062813
1858.14000063015
1858.14000063246
1858.14000063511
1858.14000063811
1858.14000064147
1858.14000064519
1858.14000064925
1858.1400006538
1858.14000066069
1858.14000067953
1858.14000072835
1858.14000076586
1858.14000070133
1858.14000071366
1858.14000077642
1858.14000073385
1858.14000068676
1858.14000066958
1858.1400006629
1858.14000065794
1858.14000065333
1858.14000064908
1858.14000064521
1858.14000064172
1858.1400006386
1858.1400006358
1858.14000063331
1858.14000063111
1858.14000062915
1858.14000062743
1858.14000062591
1858.14000062459
1858.14000062344
1858.14000062246
1858.14000062163
1858.14000062095
1858.14000062041
1858.14000062
1858.14000061973
1858.14000061959
1858.14000061959
1858.14000061973
1858.14000062002
1858.14000062047
1858.14000062109
1858.14000062189
1858.14000062288
1858.14000062409
1858.14000062554
1858.14000062725
1858.14000062924
1858.14000063155
1858.1400006342
1858.14000063722
1858.14000064064
1858.14000064446
1858.1400006487
1858.14000065351
1858.14000066075
1858.14000068009
1858.14000072962
1858.14000076805
1858.14000070363
1858.14000071609
1858.14000077865
1858.14000073496
1858.14000068703
1858.14000066925
1858.14000066216
1858.14000065692
1858.14000065213
1858.14000064777
1858.14000064385
1858.14000064035
1858.14000063724
1858.14000063448
1858.14000063204
1858.14000062988
1858.14000062797
1858.14000062629
1858.14000062482
1858.14000062354
1858.14000062243
1858.14000062149
1858.14000062069
1858.14000062003
1858.14000061951
1858.14000061912
1858.14000061886
1858.14000061873
1858.14000061873
1858.14000061887
1858.14000061916
1858.1400006196
1858.1400006202
1858.14000062097
1858.14000062195
1858.14000062313
1858.14000062455
1858.14000062623
1858.1400006282
1858.14000063049
1858.14000063314
1858.14000063618
1858.14000063965
1858.14000064359
1858.14000064802
1858.14000065311
1858.14000066078
1858.14000068071
1858.14000073111
1858.14000077069
1858.14000070644
1858.14000071909
1858.14000078136
1858.14000073628
1858.14000068732
1858.14000066884
1858.14000066127
1858.14000065571
1858.14000065073
1858.14000064626
1858.1400006423
1858.1400006388
1858.14000063572
1858.140000633
1858.14000063061
1858.14000062851
1858.14000062666
1858.14000062503
1858.14000062361
1858.14000062238
1858.14000062131
1858.1400006204
1858.14000061964
1858.14000061901
1858.14000061851
1858.14000061813
1858.14000061789
1858.14000061777
1858.14000061777
1858.14000061791
1858.14000061819
1858.14000061861
1858.1400006192
1858.14000061995
1858.1400006209
1858.14000062205
1858.14000062344
1858.14000062508