/*--------------------------------*- C++ -*----------------------------------*\
  =========                 |
  \\      /  F ield         | OpenFOAM: The Open Source CFD Toolbox
   \\    /   O peration     | Website:  https://openfoam.org
    \\  /    A nd           | Version:  10
     \\/     M anipulation  |
\*---------------------------------------------------------------------------*/
FoamFile
{
    format      ascii;
    class       volScalarField;
    location    "3.4";
    object      k;
}
// * * * * * * * * * * * * * * * * * * * * * * * * * * * * * * * * * * * * * //

dimensions      [0 2 -2 0 0 0 0];

internalField   nonuniform List<scalar> 
2500
(
2.47601870283687e-09
4.75078085219796e-08
1.96484017408755e-07
3.21810283840943e-07
4.07905553069018e-07
4.58704883248594e-07
4.84900511954791e-07
4.96879073406989e-07
5.01799935842643e-07
5.03637045894456e-07
5.04266561283271e-07
5.04466185436991e-07
5.04525088266051e-07
5.0454124083871e-07
5.04545260538671e-07
5.04546056762898e-07
5.04546063092704e-07
5.04545916094215e-07
5.04545756030449e-07
5.04545610779327e-07
5.04545484491852e-07
5.04545376441015e-07
5.04545285352379e-07
5.04545210305469e-07
5.04545150834085e-07
5.04545107562405e-07
5.04545085157624e-07
5.04545088861921e-07
5.04545101788643e-07
5.04545113317046e-07
5.0454514224406e-07
5.04545188609368e-07
5.04545242571283e-07
5.04545253032538e-07
5.04544945346752e-07
5.04543279818957e-07
5.04536732462743e-07
5.04513352873035e-07
5.04434957030479e-07
5.041874160104e-07
5.03453732025187e-07
5.01424579146981e-07
4.96227799113629e-07
4.8401657716625e-07
4.57973994661129e-07
4.08190275402965e-07
3.24080403898468e-07
2.00540609154498e-07
4.97520700083022e-08
2.69361333488105e-09
5.98491411227337e-08
1.34052325513459e-06
5.66931863167336e-06
9.31502428133875e-06
1.18471591329455e-05
1.33623031050252e-05
1.41557855404066e-05
1.45244690801571e-05
1.46783587161368e-05
1.47367092975385e-05
1.47570045930217e-05
1.47635328922019e-05
1.47654860521939e-05
1.4766029503172e-05
1.47661674954443e-05
1.47661962445124e-05
1.4766197681043e-05
1.47661936175367e-05
1.47661889407882e-05
1.47661846559829e-05
1.47661809255504e-05
1.47661777369783e-05
1.47661750530554e-05
1.47661728457079e-05
1.47661711012846e-05
1.47661698442945e-05
1.47661692400941e-05
1.47661693654942e-05
1.47661696452303e-05
1.47661700218438e-05
1.47661709197919e-05
1.47661723045323e-05
1.47661738208568e-05
1.47661736790777e-05
1.47661624373746e-05
1.47661054450666e-05
1.47658862308697e-05
1.47651126089646e-05
1.47625475142783e-05
1.47545408487735e-05
1.47310958838629e-05
1.46670791237557e-05
1.45053220231948e-05
1.41305189436135e-05
1.33425335833056e-05
1.18573640928089e-05
9.38119028260155e-06
5.78383643025013e-06
1.40159989305979e-06
6.47861987250228e-08
2.080690948307e-07
5.90286678775861e-06
2.80522119867366e-05
4.58462931336421e-05
5.81207892148265e-05
6.5480174229043e-05
6.93624184605743e-05
7.11851949028243e-05
7.19552865536409e-05
7.22510457357374e-05
7.23552606935435e-05
7.23892206919874e-05
7.23995148192988e-05
7.24024201188579e-05
7.24031727000512e-05
7.24033371681657e-05
7.24033516399121e-05
7.24033347885685e-05
7.2403313681199e-05
7.24032940260761e-05
7.24032768354765e-05
7.24032621136473e-05
7.24032497058181e-05
7.2403239487715e-05
7.24032314009392e-05
7.24032255724747e-05
7.24032228622432e-05
7.2403223233371e-05
7.24032240898543e-05
7.24032258844948e-05
7.24032299572037e-05
7.24032361059599e-05
7.24032423920412e-05
7.24032390941269e-05
7.24031758343563e-05
7.24028729557536e-05
7.24017266725291e-05
7.23977155923473e-05
7.23845180027792e-05
7.2343642048102e-05
7.22249225544663e-05
7.19035334708015e-05
7.10986434128116e-05
6.92499856455029e-05
6.53939475207639e-05
5.8167304445397e-05
4.61370254573629e-05
2.85548613003505e-05
6.13852574875306e-06
2.21879294083448e-07
3.6156570130456e-07
1.03324738411339e-05
4.89115901135032e-05
7.92658042596233e-05
9.99797617199561e-05
0.000112338006446107
0.000118852275223773
0.000121916931875989
0.000123216529294969
0.00012371805601477
0.000123895756682168
0.000123954016830623
0.000123971795386824
0.00012397685230556
0.000123978177309551
0.00012397847448004
0.000123978506705553
0.000123978481973111
0.000123978449021283
0.000123978417923561
0.000123978390594919
0.00012397836712128
0.000123978347281083
0.000123978330884285
0.000123978317835119
0.000123978308300817
0.000123978303563119
0.000123978303402819
0.000123978304705156
0.000123978307370959
0.000123978313533511
0.000123978322823393
0.000123978332145134
0.000123978325568957
0.000123978219119635
0.000123977719153124
0.00012397582543809
0.000123969181061979
0.00012394725494235
0.00012387915765052
0.000123680902657241
0.000123143141428638
0.000121794228536827
0.000118691704963958
0.000112209207899412
0.000100025332624559
7.96353029073426e-05
4.95645937328195e-05
1.06402324929753e-05
3.79440920175821e-07
5.03386087962823e-07
1.44034860470916e-05
6.76754819814959e-05
0.000108920247946952
0.000136840443430375
0.000153439449260907
0.000162186292303382
0.000166308799527365
0.000168062669004099
0.00016874235330951
0.000168984361882083
0.000169064142486598
0.000169088638292204
0.000169095657222194
0.000169097516365011
0.000169097944372372
0.000169097999996337
0.000169097971629335
0.000169097931334347
0.000169097892659611
0.000169097858458794
0.000169097828963427
0.000169097803933999
0.00016909778314352
0.000169097766467586
0.000169097754044712
0.000169097746962205
0.000169097745828129
0.000169097747724956
0.000169097750444307
0.000169097757515255
0.000169097768248078
0.00016909777858941
0.000169097767133645
0.000169097623165881
0.000169096962511022
0.000169094460522964
0.000169085660715918
0.000169056537707121
0.000168965833478562
0.000168701093504546
0.000167981451203649
0.000166173125673278
0.000162007677970429
0.000153290545830321
0.000136869605977465
0.000109282555959962
6.83334714896123e-05
1.47230540156711e-05
5.22438114195337e-07
6.2757766473859e-07
1.79798991354386e-05
8.39407486758513e-05
0.00013435624276736
0.00016828062706591
0.000188401198064207
0.000199005065740531
0.000204011958905558
0.000206148449325098
0.000206979570966331
0.000207276817750183
0.000207375299835089
0.000207405709383893
0.00020741448281641
0.000207416830209868
0.000207417384060595
0.000207417467025082
0.000207417440474321
0.000207417397052838
0.000207417354425309
0.00020741731642077
0.000207417283471915
0.000207417255365915
0.000207417231866329
0.000207417212831818
0.000207417198351015
0.000207417189180099
0.00020741718672754
0.000207417187858477
0.000207417190894853
0.000207417197683271
0.000207417208254639
0.000207417217751464
0.000207417199512018
0.00020741702218756
0.000207416230752431
0.000207413238153596
0.000207402695053654
0.000207367719373716
0.000207258524412461
0.000206939119237048
0.000206069274613145
0.00020388025308565
0.000198831730266331
0.000188254088252666
0.000168296517168022
0.000134676362451846
8.45346896534677e-05
1.82808207722117e-05
6.46265437963319e-07
7.31707315754289e-07
2.09955850168253e-05
9.75468782896921e-05
0.000155468810753034
0.000194274456265493
0.000217255283354675
0.000229371977093188
0.000235103468406844
0.000237555859940961
0.000238513155738833
0.000238856900381606
0.000238971303958755
0.000239006812152472
0.000239017121413872
0.000239019905442729
0.000239020577262685
0.000239020690192743
0.000239020669518064
0.000239020626468773
0.000239020582929749
0.000239020543707683
0.000239020509476467
0.000239020480085429
0.000239020455312304
0.000239020435011366
0.000239020419224371
0.000239020408460375
0.000239020403859657
0.000239020404063499
0.000239020407265913
0.000239020412590096
0.000239020421685992
0.00023902042920874
0.000239020402578953
0.000239020194901144
0.000239019298519203
0.000239015916439057
0.000239003988243111
0.000238964342120682
0.000238840317901874
0.000238476871732595
0.000237485563238041
0.000234987827588311
0.000229221858956144
0.000217130774162792
0.000194292700978189
0.000155746971152893
9.8059234886279e-05
2.12670483672841e-05
7.49368955489714e-07
8.15581121590084e-07
2.34417750628205e-05
0.000108542181963096
0.000172438379501243
0.000215114682670759
0.000240365787771632
0.00025368817434768
0.000260000793242486
0.000262708544970377
0.000263768770154267
0.000264150833543769
0.000264278504599411
0.000264318314288238
0.000264329938544004
0.000264333104515477
0.000264333884104582
0.000264334027328996
0.000264334015234232
0.000264333975162404
0.000264333933004449
0.000264333894528604
0.000264333860673324
0.000264333831373877
0.000264333806440478
0.000264333785734849
0.000264333769261205
0.000264333757332392
0.000264333750711018
0.000264333749602492
0.000264333751518886
0.000264333755481694
0.000264333762128202
0.000264333766164246
0.000264333729262175
0.00026433349612536
0.000264332517005907
0.000264328831626509
0.000264315825609811
0.000264272532453258
0.000264136877424423
0.000263738748166009
0.000262651469203863
0.000259909241082675
0.000253574273336647
0.000240282064121299
0.000215156863321155
0.000172695593764211
0.000108987292921739
2.36854382661171e-05
8.32127686094209e-07
8.8061779134267e-07
2.53538866883415e-05
0.000117134516435962
0.000185654874479739
0.000231323787632165
0.000258334609603474
0.000272596227600489
0.000279364629878848
0.000282274303368057
0.00028341667339133
0.000283829629490716
0.000283968115250417
0.000284011474044513
0.000284024198991098
0.000284027691276189
0.000284028566239633
0.000284028738645111
0.0002840287368218
0.000284028701416267
0.000284028662162599
0.000284028625754403
0.000284028593402274
0.000284028565139781
0.000284028540822456
0.000284028520329058
0.000284028503641314
0.000284028490935754
0.000284028482709141
0.00028402847939391
0.000284028479626802
0.000284028482254958
0.000284028485887401
0.000284028485238545
0.000284028438213652
0.000284028184098829
0.000284027140630412
0.000284023224026453
0.000284009398246362
0.000283963323705332
0.000283818763770503
0.000283393982039815
0.00028223273626557
0.000279301688747604
0.000272526799258825
0.000258305608238515
0.000231411466103645
0.000185920399230272
0.000117542188479379
2.55780040606519e-05
8.96283943979776e-07
9.29254461431387e-07
2.67964998126011e-05
0.000123634081845953
0.000195635882262531
0.000243560155531119
0.000271902264120448
0.000286878576961991
0.000293996336751141
0.000297062096320108
0.00029826856379393
0.000298705872520979
0.000298852977627701
0.000298899199244142
0.000298912824569269
0.000298916588951684
0.000298917545954121
0.000298917745317912
0.000298917754308214
0.000298917724379133
0.000298917688857408
0.000298917655261511
0.000298917625064308
0.000298917598401538
0.00029891757517939
0.000298917555299748
0.000298917538735307
0.000298917525575317
0.000298917516113324
0.000298917510643417
0.000298917508782124
0.000298917509264261
0.000298917510732757
0.000298917504694465
0.000298917448130238
0.000298917177546018
0.000298916084966644
0.000298911996018177
0.00029889756172509
0.000298849418391978
0.000298698211794217
0.000298253469476905
0.000297036679822194
0.000293963585246555
0.000286857437659849
0.000271936591608895
0.000243710446607402
0.000195937762894959
0.000124037063786261
2.70113683570593e-05
9.44400944521344e-07
9.64395030677592e-07
2.78486678181622e-05
0.000128398223833122
0.00020295026125103
0.000252531236305018
0.000281856092740504
0.000297363434841342
0.000304742792189056
0.000307926456292408
0.000309181808296892
0.000309637882224003
0.000309791702607336
0.000309840181399314
0.000309854526422448
0.000309858512311716
0.000309859537961945
0.000309859761233735
0.000309859780687778
0.000309859756274176
0.000309859724750718
0.000309859694247976
0.000309859666475811
0.000309859641667631
0.000309859619780116
0.000309859600740311
0.000309859584521171
0.000309859571161515
0.000309859560823093
0.000309859553682659
0.000309859549570366
0.000309859547769494
0.000309859545971385
0.000309859534811853
0.000309859471233241
0.000309859187997998
0.000309858058671703
0.00030985384426806
0.000309838969575559
0.000309789326906331
0.000309633288019621
0.000309173988686079
0.000307916590961046
0.000304739472331829
0.000297390530049259
0.000281956787787905
0.000252754405093302
0.000203309555082977
0.000128824138486901
2.80635940324773e-05
9.79373597185714e-07
9.88967605249555e-07
2.85916980372988e-05
0.000131785857696396
0.000208156211326574
0.000258923453097531
0.000288956147376485
0.000304848713634576
0.00031241940239415
0.000315690086924754
0.000316981874113559
0.000317452081242349
0.000317611015637715
0.000317661233938026
0.000317676141107373
0.00031768030302868
0.00031768138448756
0.000317681628414389
0.000317681657565797
0.000317681637936148
0.000317681610264853
0.000317681582801252
0.000317681557447641
0.00031768153452447
0.000317681514034451
0.000317681495929132
0.000317681480186717
0.000317681466819443
0.000317681455911993
0.000317681447556995
0.000317681441656171
0.00031768143757838
0.000317681432954895
0.000317681417734009
0.000317681348575941
0.000317681055245222
0.000317679898997489
0.000317675595494363
0.000317660410241939
0.00031760970934949
0.000317450250087471
0.00031698061704895
0.000315694324987824
0.000312443070574627
0.000304920945495305
0.000289121273013851
0.000259222461776801
0.000208584679142653
0.000132253360872294
2.88134458080953e-05
1.00404837114583e-06
1.00562621124984e-06
2.9100563564012e-05
0.000134125396853634
0.000211758338297159
0.000263353832987872
0.000293884063267948
0.000310049499717277
0.000317756887848789
0.000321090330925383
0.000322408659867808
0.000322889272319506
0.000323052014087631
0.00032310354291952
0.000323118879233088
0.000323123177739061
0.000323124303261117
0.000323124564046572
0.00032312460140333
0.000323124586532875
0.000323124562351877
0.000323124537666924
0.000323124514551549
0.000323124493400482
0.000323124474256359
0.000323124457092251
0.000323124441893656
0.000323124428659803
0.000323124417432446
0.00032312440824972
0.000323124401027016
0.000323124395181431
0.000323124388274834
0.000323124369874951
0.000323124296266807
0.00032312399523768
0.000323122819756202
0.000323118454564604
0.000323103055990237
0.000323051627858823
0.000322889811810897
0.000322413038713502
0.000321106737064108
0.000317804061676731
0.000310161705575079
0.000294107891243119
0.000263725358669017
0.000212258801212934
0.000134643648879975
2.93329841510734e-05
1.02097531224577e-06
1.01659370659395e-06
2.94390634076564e-05
0.000135696551408704
0.000214183881009821
0.000266343532706185
0.000297215177461809
0.000313569408237547
0.000321372230660655
0.000324749913225793
0.000326087144750923
0.000326575247937091
0.000326740761661764
0.000326793256032714
0.000326808912662467
0.000326813314718748
0.000326814474263229
0.000326814748354431
0.000326814792574018
0.000326814781856057
0.000326814760683065
0.000326814738413377
0.000326814717266724
0.000326814697699316
0.000326814679786171
0.000326814663518384
0.000326814648888596
0.000326814635890245
0.00032681462454137
0.000326814614845929
0.00032681460671058
0.000326814599565226
0.00032681459092452
0.000326814570145068
0.000326814493187119
0.000326814186524699
0.000326812997677609
0.000326808590872305
0.000326793049568934
0.000326741134739924
0.000326577737505623
0.000326096161289498
0.000324776369282295
0.000321438970123092
0.000313715339906247
0.000297489629990053
0.000266779800647733
0.000214752181032678
0.000136266771464471
2.96834797121696e-05
1.03228331154304e-06
1.02361745982885e-06
2.96581132428846e-05
0.000136723878590979
0.00021577510935283
0.000268309886789848
0.000299410381376039
0.000315892266025204
0.000323760222582987
0.000327168400496623
0.000328518799181848
0.000329012177610425
0.000329179665768586
0.000329232856126066
0.000329248746647939
0.000329253225477613
0.000329254410812479
0.000329254695197452
0.000329254744845542
0.000329254737539368
0.000329254718861501
0.00032925469861916
0.000329254679147649
0.000329254660951625
0.000329254644131338
0.000329254628692032
0.000329254614632541
0.000329254601944026
0.000329254590631214
0.000329254580677052
0.000329254571974182
0.000329254563948256
0.000329254554082056
0.000329254531612607
0.000329254452263271
0.000329254141648458
0.000329252943788145
0.000329248509646366
0.000329232875308025
0.000329180643165675
0.000329016212537272
0.00032853148894956
0.000327202837312091
0.000323842595193822
0.000316065435456172
0.000299726417180152
0.00026880069785717
0.000216402669799453
0.000137341807337859
2.9914045892898e-05
1.03965090561725e-06
1.0279997909669e-06
2.97962165275866e-05
0.000137378740740721
0.000216793300130861
0.000269571764510164
0.000300822205696675
0.000317388497104472
0.00032529993988779
0.000328728686497392
0.000330088061528052
0.000330585076285519
0.000330753941171142
0.000330807622668357
0.00033082368038162
0.000330828214923622
0.000330829419410902
0.000330829711599143
0.00033082976544504
0.000330829760851962
0.000330829744197162
0.000330829725620592
0.00033082970754754
0.000330829690519916
0.000330829674656758
0.00033082965997375
0.000330829646474564
0.000330829634149759
0.000330829622996617
0.000330829612984857
0.00033082960399455
0.000330829595441792
0.000330829584786755
0.000330829561197401
0.000330829480238699
0.000330829166976449
0.000330827963234795
0.000330823511618147
0.000330807818185583
0.000330755384389338
0.00033059029540409
0.000330103561360846
0.000328769237526196
0.000325394344379243
0.000317582804834775
0.00030117093451196
0.000270106267507433
0.000217469544450385
0.000138037130972923
3.00621456142219e-05
1.04433918123164e-06
1.03066760754837e-06
2.98811652838152e-05
0.000137786199107532
0.000217429511283756
0.00027036276592195
0.00030170932217633
0.000318330233752774
0.000326270098607705
0.000329712429667048
0.000331077797756028
0.000331577267714032
0.000331747072981018
0.000331801094024291
0.000331817268834583
0.000331821842995334
0.00033182306140758
0.000331823359394045
0.000331823416461705
0.000331823414042644
0.000331823399016622
0.000331823381798984
0.00033182336488845
0.000331823348854965
0.000331823333831095
0.000331823319839827
0.000331823306888412
0.000331823294967452
0.000331823284070067
0.000331823274157569
0.00033182326510031
0.000331823256304883
0.000331823245215513
0.00033182322095934
0.000331823139001057
0.000331822824066057
0.000331821616633132
0.000331817154164909
0.000331801424154266
0.000331748865367792
0.000331583367200466
0.000331095380171622
0.000329757512826008
0.000326373449244871
0.00031854035676797
0.000302082753128781
0.00027093074290975
0.000218143728984365
0.000138476828125894
3.01551539583192e-05
1.04725675977338e-06
1.0322543564532e-06
2.9932212449777e-05
0.000138033955646167
0.000217818142562981
0.000270847627062116
0.000302254508113765
0.000318910039900565
0.000326868105073973
0.000330319228160604
0.000331688518009719
0.000332189612959756
0.000332360047950764
0.000332414299161324
0.00033243055440945
0.000332435156227444
0.00033243638458775
0.000332436686835584
0.000332436746385313
0.000332436745712362
0.000332436732000838
0.000332436715898076
0.000332436699962189
0.000332436684783917
0.0003324366705051
0.000332436657153302
0.000332436644738451
0.000332436633251472
0.00033243662268303
0.000332436612989096
0.000332436604032919
0.000332436595213373
0.000332436583963616
0.000332436559386389
0.000332436476885447
0.000332436160980692
0.000332434951346427
0.000332430482357122
0.000332414730295516
0.00033236209591164
0.000332196349436369
0.00033170759976771
0.000330367570171859
0.000326977899031311
0.000319131603819826
0.000302645939612537
0.000271440248015128
0.000218560678900698
0.000138748979477338
3.02123309411848e-05
1.04903455548692e-06
1.03317749242891e-06
2.99622140274555e-05
0.000138181335587696
0.00021805046237938
0.000271138551098083
0.000302582537900038
0.000319259582341007
0.00032722907638346
0.000330685780618472
0.000332057587954452
0.000332559738075799
0.000332730586837305
0.000332784991173716
0.000332801300684582
0.000332805921500533
0.000332807156890858
0.00033280746226809
0.000332807523741461
0.000332807524478884
0.000332807511842859
0.000332807496672372
0.000332807481571494
0.000332807467145649
0.000332807453542699
0.000332807440792769
0.000332807428907476
0.00033280741787835
0.000332807407694719
0.000332807398309074
0.000332807389579519
0.000332807380899268
0.000332807369693882
0.000332807345051631
0.000332807262340469
0.000332806945960231
0.000332805735116121
0.000332801262371291
0.000332785497394901
0.00033273281840302
0.000332566924720281
0.000332077721331378
0.000330736401712765
0.000327343377249087
0.00031948917085829
0.000302986660622978
0.000271748677321579
0.000218813300842175
0.000138914025330452
3.02467754796386e-05
1.05009639703768e-06
1.03370323468055e-06
2.99794733604916e-05
0.000138267170179517
0.000218186477960677
0.000271309557441437
0.000302775931221133
0.000319466092378526
0.000327442630335103
0.000330902812598234
0.000332276206632916
0.000332779029562941
0.000332950145337344
0.000333004649757261
0.000333020995268101
0.000333025628961837
0.000333026869299246
0.000333027176993612
0.000333027239976383
0.000333027241870426
0.000333027230134937
0.0003330272157664
0.000333027201402222
0.000333027187657327
0.00033302717468312
0.000333027162510251
0.000333027151151668
0.000333027140599813
0.000333027130843365
0.000333027121832316
0.000333027113421143
0.000333027104998996
0.00033302709398641
0.000333027069463444
0.000333026986777685
0.000333026670261951
0.000333025458856648
0.000333020984089078
0.000333005211817688
0.000332952507202395
0.000332786528300642
0.000332297060995091
0.000330954988416022
0.000327560001332058
0.000319701153859091
0.00030318873915529
0.000271931726498396
0.000218963375021997
0.000139012177983596
3.02671270922836e-05
1.05071860287776e-06
1.03399630529397e-06
2.99891914187679e-05
0.000138316113342691
0.000218264475351132
0.0002714080456432
0.000302887675053561
0.000319585688842439
0.000327566491023457
0.00033102880275672
0.000332403179528161
0.000332906424107307
0.000333077709269641
0.000333132278026767
0.000333148647065279
0.000333153289403486
0.000333154533233821
0.000333154842673738
0.000333154906866705
0.000333154909733531
0.000333154898774806
0.000333154885119775
0.000333154871427524
0.000333154858317918
0.000333154845944268
0.000333154834335343
0.000333154823505306
0.000333154813448092
0.000333154804152275
0.000333154795566096
0.000333154787541297
0.000333154779464191
0.000333154768752144
0.00033315474448085
0.000333154661987638
0.000333154345570999
0.000333153134030259
0.00033314865831989
0.000333132882163771
0.000333080163347746
0.000332914136472331
0.000332424519387694
0.00033108201727663
0.000327685906387161
0.000319824393324097
0.000303306274561469
0.000272038272994682
0.000219050821831299
0.000139069439517326
3.02789259012146e-05
1.05107644615555e-06
1.03415574113436e-06
2.99945322073464e-05
0.000138343367908716
0.000218308188968954
0.00027146351625768
0.000302950844280255
0.000319653473195739
0.000327636811263942
0.000331100404410903
0.000332475379652009
0.000332978884141656
0.000333150275024689
0.000333204884494456
0.000333221268700184
0.000333225916802177
0.000333227163120721
0.000333227473903644
0.000333227539092422
0.000333227542797901
0.000333227532524412
0.000333227519521385
0.000333227506457975
0.000333227493954802
0.000333227482166389
0.000333227471115995
0.000333227460819219
0.000333227451272615
0.000333227442465018
0.000333227434343499
0.000333227426757781
0.00033322741909194
0.000333227408761702
0.00033322738484082
0.000333227302662982
0.000333226986513834
0.000333225775127772
0.000333221299162684
0.000333205521203117
0.000333152795029848
0.000332986742335437
0.000332497043181692
0.000331154303249378
0.000327757565796047
0.000319894558921882
0.000303373230344874
0.000272099022147145
0.000219100743175986
0.000139102175816088
3.02856318657343e-05
1.05127828899929e-06
1.03423932167611e-06
2.99973624317387e-05
0.000138358024808772
0.000218331893969525
0.000271493789850891
0.000302985482969436
0.000319690765432633
0.000327675581333098
0.000331139931134911
0.000332515264483662
0.000333018926537841
0.00033319038233679
0.000333245017160729
0.000333261411005958
0.000333266062923545
0.00033326731102681
0.000333267622858367
0.00033326768888239
0.000333267693317179
0.000333267683649667
0.000333267671248207
0.000333267658779487
0.000333267646861064
0.000333267635648985
0.000333267625155441
0.000333267615398329
0.000333267606378181
0.000333267598084849
0.000333267590464545
0.000333267583365306
0.000333267576169688
0.000333267566292583
0.000333267542807654
0.0003332674610498
0.000333267145307055
0.000333265934298944
0.000333261458558712
0.00033324568013906
0.000333192950843086
0.00033302688573843
0.000332537144985507
0.000331194280953157
0.000327797210522519
0.000319933399788167
0.000303410328134576
0.000272132725405571
0.000219128488548939
0.000139120408604301
3.02893492357184e-05
1.05138944033659e-06
1.03427943341269e-06
2.99987393976075e-05
0.000138365302010853
0.000218343840710739
0.000271509219569908
0.000303003280565093
0.000319710032303537
0.000327695682104663
0.000331160466463319
0.000332536009290088
0.000333039764930136
0.000333211259796798
0.00033326591008586
0.000333282309925676
0.000333286964317762
0.000333288213679347
0.000333288526313737
0.000333288593025153
0.000333288598074713
0.000333288588926467
0.000333288577066829
0.000333288565150264
0.000333288553787641
0.000333288543137245
0.000333288533194089
0.000333288523980036
0.000333288515500825
0.0003332885077476
0.000333288500666007
0.00033328849410287
0.000333288487439419
0.000333288478090151
0.000333288455130345
0.000333288373900055
0.000333288058701809
0.000333286848277332
0.000333282373158302
0.000333266595280391
0.000333213865792805
0.000333047797104595
0.000332558040491827
0.000331215122950583
0.000327817898641175
0.000319953699758739
0.00030342976118295
0.000272150434250516
0.00021914312364492
0.000139130071270784
3.02913177860656e-05
1.05144812724017e-06
1.03429283309065e-06
2.99992146931394e-05
0.00013836795681422
0.000218348425067575
0.000271515362960833
0.000303010552464767
0.000319718041216349
0.000327704127431226
0.00033116914757219
0.000332544809041357
0.000333048618872395
0.000333220136857522
0.000333274796606562
0.000333291200331581
0.000333295856514975
0.000333297106944337
0.000333297420353429
0.000333297487773123
0.000333297493463477
0.000333297484856693
0.000333297473565095
0.000333297462225619
0.00033329745143876
0.000333297441364182
0.000333297431980719
0.00033329742331687
0.000333297415382342
0.000333297408168941
0.000333297401621471
0.000333297395584945
0.000333297389438661
0.00033329738059582
0.000333297358133147
0.00033329727739838
0.000333296962717523
0.000333295752886549
0.000333291278549665
0.000333275501883679
0.000333222774439301
0.000333056708922276
0.000332566955483927
0.000331224034557864
0.000327826778989598
0.000319962468341882
0.00030343823224908
0.000272158247484743
0.000219149676112616
0.000139134471947337
3.02922293038251e-05
1.05147564769813e-06
1.0342854811573e-06
2.99989904019878e-05
0.00013836708486814
0.000218347465401201
0.000271514575063646
0.000303010017605255
0.000319717735893952
0.000327703987909836
0.000331169110500619
0.00033254482824354
0.000333048665960338
0.000333220196960127
0.000333274862630071
0.000333291269182386
0.0003332959269724
0.000333297178562664
0.000333297492915798
0.000333297561228225
0.000333297567720542
0.00033329755977998
0.000333297549164781
0.000333297538491574
0.000333297528344831
0.000333297518880413
0.000333297510078593
0.000333297501972356
0.000333297494571146
0.000333297487865731
0.000333297481799231
0.000333297476213519
0.000333297470483793
0.000333297462019852
0.000333297439898427
0.000333297359476379
0.000333297045112318
0.000333295835694535
0.00033329136212061
0.000333275587220372
0.000333222864071644
0.000333056808596722
0.000332567076934883
0.0003312241990268
0.000327827019661318
0.000319962827769311
0.00030343874941987
0.000272158930376426
0.000219150458799088
0.000139135165260071
3.02924168249475e-05
1.05148246562984e-06
1.0342551914295e-06
2.99980103548321e-05
0.000138362493357415
0.000218340766968944
0.000271506708186548
0.000303001586710031
0.000319709078478283
0.000327695262862589
0.000331160377618698
0.000332536101326157
0.000333039946895967
0.000333211483315865
0.000333266152178121
0.000333282560633878
0.000333287219734191
0.000333288472393665
0.000333288787674595
0.000333288856901747
0.000333288864205393
0.000333288856923269
0.000333288846984988
0.000333288836981137
0.000333288827471513
0.000333288818604536
0.00033328881037981
0.000333288802828296
0.00033328879595609
0.000333288789752289
0.000333288784157575
0.00033328877900961
0.000333288773678285
0.000333288765568971
0.000333288743759203
0.000333288663620329
0.000333288349561709
0.000333287140628178
0.000333282668181647
0.000333266896294571
0.000333214181129056
0.000333048145696645
0.00033255846109255
0.000331215685902652
0.000327818714097337
0.000319954909006421
0.000303431492981675
0.000272152713084247
0.000219145730327753
0.000139132371280805
3.02919314351644e-05
1.05146992520149e-06
1.03419270568711e-06
2.99959667723492e-05
0.000138352667810096
0.000218326061216513
0.000271489054641245
0.00030298232209202
0.000319689026200018
0.000327674869001387
0.000331139853574097
0.000332515534021289
0.000333019367964352
0.000333190902610934
0.000333245572078549
0.000333261981480977
0.000333266641483001
0.000333267894985482
0.000333268211054639
0.000333268281104798
0.000333268289116653
0.000333268282392931
0.000333268273054796
0.000333268263664005
0.000333268254746174
0.000333268246443315
0.000333268238774848
0.000333268231768707
0.000333268225427862
0.000333268219739865
0.000333268214642675
0.000333268209969307
0.000333268205083672
0.000333268197386906
0.000333268175960483
0.00033326809620135
0.000333267782603967
0.000333266574478891
0.000333262103981215
0.000333246337342788
0.000333193636226469
0.000333027636689209
0.000332538038384012
0.000331195457030488
0.000327798889854924
0.000319935866074631
0.000303413839519525
0.000272137328366689
0.000219133739810905
0.000139125026074154
3.02905796808443e-05
1.05143344986679e-06
1.03407631208534e-06
2.99921669789395e-05
0.0001383343378839
0.000218298398144864