/*--------------------------------*- C++ -*----------------------------------*\
  =========                 |
  \\      /  F ield         | OpenFOAM: The Open Source CFD Toolbox
   \\    /   O peration     | Website:  https://openfoam.org
    \\  /    A nd           | Version:  10
     \\/     M anipulation  |
\*---------------------------------------------------------------------------*/
FoamFile
{
    format      ascii;
    class       volScalarField;
    location    "3.4";
    object      nut;
}
// * * * * * * * * * * * * * * * * * * * * * * * * * * * * * * * * * * * * * //

dimensions      [0 2 -1 0 0 0 0];

internalField   nonuniform List<scalar> 
2500
(
1.9302327494996e-14
3.7030958292598e-13
1.53161303665732e-12
2.50860212678174e-12
3.17976855455769e-12
3.57578009388005e-12
3.77999000910063e-12
3.87336940161035e-12
3.9117300979715e-12
3.926051299954e-12
3.93095870599849e-12
3.93251489093019e-12
3.9329740785567e-12
3.93310001206682e-12
3.93313136299671e-12
3.93313758741457e-12
3.93313764544985e-12
3.93313651056524e-12
3.93313527541006e-12
3.93313415177927e-12
3.93313317511005e-12
3.93313233999568e-12
3.93313163607607e-12
3.93313105433141e-12
3.93313059439744e-12
3.93313026095453e-12
3.93313008763901e-12
3.93313011765433e-12
3.9331302189479e-12
3.93313030782465e-12
3.93313053167577e-12
3.93313089002112e-12
3.93313130599281e-12
3.93313138144167e-12
3.9331289765191e-12
3.93311598583466e-12
3.93306493791137e-12
3.932882676543e-12
3.932271529973e-12
3.93034181693466e-12
3.92462237797941e-12
3.90880409478891e-12
3.86829246215791e-12
3.7730992923799e-12
3.57008229186037e-12
3.18198781735276e-12
2.52629832496959e-12
1.56323460501265e-12
3.87802688270981e-13
2.09986397477808e-14
1.87746221862915e-12
9.46432371058216e-11
4.00348134066375e-10
6.57863843321889e-10
8.36731711530667e-10
9.43760431657165e-10
9.99810751544212e-10
1.02585354587413e-09
1.03672372780753e-09
1.04084534104301e-09
1.04227889423101e-09
1.04274001656133e-09
1.0428779763789e-09
1.04291636374968e-09
1.04292611229286e-09
1.0429281447714e-09
1.04292824733506e-09
1.04292796160336e-09
1.04292763276289e-09
1.04292733130972e-09
1.04292706909565e-09
1.04292684533438e-09
1.04292665710137e-09
1.04292650179233e-09
1.04292637903372e-09
1.0429262909295e-09
1.04292624844745e-09
1.04292625748721e-09
1.04292627769835e-09
1.04292630402983e-09
1.04292636729774e-09
1.04292646528216e-09
1.04292657106368e-09
1.04292655925384e-09
1.04292576439582e-09
1.04292173829372e-09
1.04290625373411e-09
1.04285160960279e-09
1.04267042616876e-09
1.04210488062646e-09
1.04044884897852e-09
1.03592698933655e-09
1.02450104440221e-09
9.98025903362877e-10
9.4236374047607e-10
8.37452153878629e-10
6.62536780297434e-10
4.08435013583585e-10
9.89549849992568e-11
2.0323336316702e-12
6.55734146632449e-12
1.67484010509863e-09
5.52867883442131e-07
9.03671616543569e-07
1.14567391380422e-06
1.29077075089388e-06
1.36731143441904e-06
1.40324783553907e-06
1.41843007948527e-06
1.4242608423015e-06
1.42631537168219e-06
1.42698486475206e-06
1.42718780273378e-06
1.42724507777092e-06
1.42725991454465e-06
1.42726315745629e-06
1.42726344311833e-06
1.42726311142294e-06
1.42726269604666e-06
1.42726230921941e-06
1.4272619712052e-06
1.42726168220977e-06
1.42726143887016e-06
1.42726123804835e-06
1.42726107892012e-06
1.4272609646094e-06
1.42726091124931e-06
1.42726091868529e-06
1.42726093614159e-06
1.42726097123875e-06
1.42726105153532e-06
1.42726117326573e-06
1.4272612956901e-06
1.42726122863127e-06
1.42725998155435e-06
1.42725401114854e-06
1.42723141312881e-06
1.42715233895693e-06
1.42689216138554e-06
1.42608632619722e-06
1.42374584756375e-06
1.41740978924101e-06
1.40154146321358e-06
1.3650947192749e-06
1.28907052994751e-06
1.14659048337961e-06
9.09402261874697e-07
5.6277411351847e-07
1.74169393001861e-09
6.99249562831446e-12
1.14312405858369e-11
2.94087907738617e-09
9.66944582424298e-07
1.56716025309857e-06
1.97676771211781e-06
2.22114420275159e-06
2.34995791115821e-06
2.41055781667308e-06
2.43625547781307e-06
2.44617234506749e-06
2.44968605780152e-06
2.45083804058211e-06
2.45118957417629e-06
2.45128956359107e-06
2.45131576226704e-06
2.45132163800637e-06
2.45132227507568e-06
2.45132178606201e-06
2.45132113478268e-06
2.45132052013563e-06
2.45131998029713e-06
2.45131951719073e-06
2.4513191261756e-06
2.45131880270622e-06
2.45131854488101e-06
2.45131835680428e-06
2.45131826311861e-06
2.45131825975607e-06
2.45131828584968e-06
2.45131833852707e-06
2.45131846043548e-06
2.45131864489352e-06
2.45131882785808e-06
2.45131869605592e-06
2.45131659136029e-06
2.45130670602507e-06
2.45126926259673e-06
2.45113788487389e-06
2.45070434065441e-06
2.44935784892598e-06
2.4454377146402e-06
2.43480436761746e-06
2.40813155017574e-06
2.34678282139534e-06
2.21859723884715e-06
1.97766847049638e-06
1.57446549422121e-06
9.79853030535698e-07
3.02845600127381e-09
1.19961859385856e-11
1.59447829403604e-11
4.10685762653374e-09
1.34016372890003e-06
2.15703289650953e-06
2.71001352622483e-06
3.03876756905813e-06
3.21200283213621e-06
3.29365030575013e-06
3.32838597546425e-06
3.34184716280417e-06
3.3466401383865e-06
3.34822018629361e-06
3.34870532056872e-06
3.34884432812196e-06
3.34888114727135e-06
3.34888962341531e-06
3.34889072466063e-06
3.34889016263337e-06
3.34888936456021e-06
3.34888859861817e-06
3.34888792143964e-06
3.34888733782551e-06
3.34888684298881e-06
3.34888643184681e-06
3.34888610157191e-06
3.34888585549261e-06
3.34888571517087e-06
3.34888569258104e-06
3.34888573027498e-06
3.34888578411896e-06
3.34888592430153e-06
3.34888613768175e-06
3.34888634163728e-06
3.34888611372929e-06
3.34888326271806e-06
3.34887017886178e-06
3.34882062825916e-06
3.3486463510908e-06
3.34806957524667e-06
3.34627318833138e-06
3.34103002419339e-06
3.32677747426808e-06
3.29096330387481e-06
3.20846538492386e-06
3.03581853060037e-06
2.7105910464285e-06
2.16420791563066e-06
1.35319270847974e-06
4.19795613207956e-09
1.65480060115289e-11
1.98975855679127e-11
5.1310742494762e-09
1.66362309285715e-06
2.6628734018958e-06
3.33526983610932e-06
3.73406701151383e-06
3.94423855664097e-06
4.04347613833786e-06
4.08582165660835e-06
4.10229455708155e-06
4.10818600338066e-06
4.11013792012364e-06
4.11074063580492e-06
4.11091452400504e-06
4.11096104867585e-06
4.11097202556656e-06
4.11097366956784e-06
4.1109731430732e-06
4.11097228232744e-06
4.11097143739636e-06
4.11097068416162e-06
4.11097003133652e-06
4.11096947471659e-06
4.11096900926525e-06
4.11096863193074e-06
4.11096834480298e-06
4.11096816298583e-06
4.11096811429105e-06
4.11096813675885e-06
4.11096819694913e-06
4.11096833160355e-06
4.11096854167625e-06
4.1109687294985e-06
4.1109683675389e-06
4.1109648531443e-06
4.11094916704315e-06
4.11088985440533e-06
4.11068089161634e-06
4.10998767503721e-06
4.10782343088727e-06
4.10149280954143e-06
4.08425242494725e-06
4.04086574915161e-06
3.94080308371271e-06
3.73115136476203e-06
3.33558489254408e-06
2.66921809685108e-06
1.67539372196373e-06
5.21693600764561e-09
2.04898698566675e-11
2.32092371517812e-11
5.99399168670292e-09
1.93396880289357e-06
3.08236407053837e-06
3.85175030029808e-06
4.30738236588954e-06
4.54761486984001e-06
4.66125049812151e-06
4.70987286966306e-06
4.7288526891251e-06
4.73566793581011e-06
4.73793615463402e-06
4.73864015551543e-06
4.73884455094985e-06
4.73889974798823e-06
4.73891306752818e-06
4.7389153063036e-06
4.7389148962239e-06
4.73891404260515e-06
4.73891317933695e-06
4.73891240167714e-06
4.73891172306981e-06
4.73891114054018e-06
4.73891064948412e-06
4.73891024693366e-06
4.73890993386797e-06
4.73890972042739e-06
4.73890962916931e-06
4.73890963323551e-06
4.73890969674244e-06
4.73890980236368e-06
4.73890998299744e-06
4.73891013199621e-06
4.73890960386846e-06
4.73890548644061e-06
4.73888771442915e-06
4.73882066010743e-06
4.73858416702903e-06
4.73779812566758e-06
4.73533916464244e-06
4.72813330911005e-06
4.70847914262286e-06
4.65895776660491e-06
4.54463859311712e-06
4.30491386123012e-06
3.85211216003905e-06
3.08787908999643e-06
1.94412648965419e-06
6.07148254615772e-09
2.37693043157861e-11
2.58744000506512e-11
6.6933849366067e-09
2.1522640410238e-06
3.41926475241544e-06
4.26549592058053e-06
4.76620126293944e-06
5.03037124201238e-06
5.1555442550449e-06
5.20923627859764e-06
5.23025948235241e-06
5.23783541501516e-06
5.24036700294276e-06
5.24115638828052e-06
5.24138688513341e-06
5.24144966293744e-06
5.24146512126087e-06
5.24146796114166e-06
5.24146772122778e-06
5.24146692658951e-06
5.24146609061951e-06
5.24146532766376e-06
5.24146465637415e-06
5.24146407547119e-06
5.24146358109164e-06
5.24146317049254e-06
5.24146284381735e-06
5.24146260727298e-06
5.24146247595997e-06
5.24146245399821e-06
5.24146249202173e-06
5.24146257062656e-06
5.24146270255544e-06
5.24146278254864e-06
5.2414620507851e-06
5.24145742796601e-06
5.24143801305901e-06
5.241364935897e-06
5.24110704015942e-06
5.24024858121809e-06
5.23755867969331e-06
5.22966417840349e-06
5.20810452794551e-06
5.15372887749781e-06
5.02811272059114e-06
4.76454115304766e-06
4.26633241124667e-06
3.42436515006957e-06
2.16108996787124e-06
6.76295435778631e-09
2.63992590104801e-11
2.79396741322906e-11
7.23977042038089e-09
2.32275926265298e-06
3.68151284311176e-06
4.58712422501777e-06
5.1227467613653e-06
5.405553457743e-06
5.53977027801972e-06
5.59746883725979e-06
5.62012192777965e-06
5.62831080788612e-06
5.63105696704399e-06
5.63191676750612e-06
5.63216910180289e-06
5.63223835338915e-06
5.63225570377133e-06
5.6322591225102e-06
5.63225908632149e-06
5.63225838421358e-06
5.63225760581339e-06
5.63225688383851e-06
5.63225624231178e-06
5.63225568189884e-06
5.63225519969537e-06
5.63225479330778e-06
5.63225446239253e-06
5.63225421044647e-06
5.63225404731364e-06
5.6322539815877e-06
5.63225398622401e-06
5.63225403835766e-06
5.63225411044902e-06
5.63225409758097e-06
5.63225316508599e-06
5.63224812604199e-06
5.63222743418777e-06
5.63214976839607e-06
5.63187560469744e-06
5.6309619512672e-06
5.6280953420064e-06
5.61967196128137e-06
5.59664456741887e-06
5.53852216548909e-06
5.40417670981176e-06
5.12217168954926e-06
4.58886292973455e-06
3.68677823989262e-06
2.33084331965208e-06
7.30376501348371e-09
2.84366796955601e-11
2.94835397225525e-11
7.65185927110417e-09
2.45168777252366e-06
3.87949939352943e-06
4.82984840351734e-06
5.39187865508882e-06
5.68886219879782e-06
5.83000891313059e-06
5.89080358444927e-06
5.91472809294736e-06
5.9234000184813e-06
5.92631714409811e-06
5.92723372852994e-06
5.92750392157807e-06
5.92757857005481e-06
5.92759754760034e-06
5.92760150101602e-06
5.92760167928986e-06
5.92760108578883e-06
5.92760038139058e-06
5.92759971518284e-06
5.92759911637751e-06
5.92759858766461e-06
5.92759812717233e-06
5.92759773296075e-06
5.92759740449299e-06
5.92759714353696e-06
5.92759695591185e-06
5.92759684745549e-06
5.92759681056006e-06
5.92759682013496e-06
5.92759684928461e-06
5.92759672955435e-06
5.92759560788405e-06
5.92759024215789e-06
5.92756857609334e-06
5.92748749141253e-06
5.92720125637551e-06
5.92624656391466e-06
5.92324810492839e-06
5.91442876988631e-06
5.89029957067889e-06
5.82935944543151e-06
5.68844300570981e-06
5.39255938611845e-06
4.8328287302458e-06
3.88548578584708e-06
2.45967898759523e-06
7.71321523697396e-09
2.99640925599385e-11
3.0598750450622e-11
7.95236228157058e-09
2.546176081184e-06
4.02456646655657e-06
5.00777284122311e-06
5.58929396901767e-06
5.89680942866204e-06
6.04314439642324e-06
6.10627745181007e-06
6.13117147460488e-06
6.14021556312561e-06
6.14326586937549e-06
6.14422721894374e-06
6.14451168522143e-06
6.14459072664714e-06
6.1446110656128e-06
6.14461549316603e-06
6.14461587895167e-06
6.14461539482995e-06
6.14461476971982e-06
6.14461416485144e-06
6.14461361413286e-06
6.14461312219184e-06
6.14461268816643e-06
6.14461231061193e-06
6.14461198899278e-06
6.14461172407815e-06
6.14461151907517e-06
6.14461137749067e-06
6.14461129595538e-06
6.14461126025598e-06
6.14461122461536e-06
6.14461100332973e-06
6.14460974255742e-06
6.14460412592718e-06
6.14458173104771e-06
6.14449815812709e-06
6.14420318835849e-06
6.14321875876016e-06
6.14012445892708e-06
6.13101640964815e-06
6.10608181968476e-06
6.04307856336231e-06
5.89734673662205e-06
5.59129078709916e-06
5.01219835740873e-06
4.03169139125577e-06
2.55462210545388e-06
8.01373557404055e-09
3.10739902149888e-11
3.13784869974374e-11
8.16455563807976e-09
2.61335841292482e-06
4.12780872812578e-06
5.13454055656456e-06
5.73009918361054e-06
6.04525421881111e-06
6.19538357012984e-06
6.26024236436977e-06
6.2858589465982e-06
6.29518331493202e-06
6.29833503839673e-06
6.29933088448069e-06
6.29962649875455e-06
6.29970903108499e-06
6.29973047679314e-06
6.29973531395526e-06
6.29973589204817e-06
6.29973550279671e-06
6.2997349540775e-06
6.29973440947731e-06
6.29973390671936e-06
6.29973345215801e-06
6.29973304584633e-06
6.2997326868241e-06
6.29973237465911e-06
6.2997321095938e-06
6.29973189330752e-06
6.29973172763734e-06
6.29973161063406e-06
6.29973152978192e-06
6.29973143810927e-06
6.29973113628511e-06
6.29972976486794e-06
6.29972394803065e-06
6.29970101925377e-06
6.29961567932673e-06
6.29931455058926e-06
6.29830913455675e-06
6.29514700282727e-06
6.28583401892614e-06
6.26032640699851e-06
6.19585291872132e-06
6.04668660206347e-06
5.73337368308635e-06
5.14047000472434e-06
4.13630539803205e-06
2.62262916378017e-06
8.22787716097771e-09
3.18569750441924e-11
3.19070667829003e-11
8.30987050966826e-09
2.65975357618941e-06
4.19924204674672e-06
5.22239881303169e-06
5.82782399104343e-06
6.14839026630043e-06
6.30123047616051e-06
6.36733382141574e-06
6.39347674666559e-06
6.40300746012665e-06
6.4062346864629e-06
6.40725652127539e-06
6.40756064575985e-06
6.4076458866506e-06
6.40766820615863e-06
6.40767337763734e-06
6.40767411844713e-06
6.40767382357334e-06
6.4076733440686e-06
6.40767285457044e-06
6.40767239619768e-06
6.40767197677783e-06
6.4076715971562e-06
6.40767125679885e-06
6.40767095541819e-06
6.40767069299883e-06
6.40767047036876e-06
6.40767028828425e-06
6.40767014506737e-06
6.40767002915895e-06
6.40766989221022e-06
6.40766952734501e-06
6.40766806768029e-06
6.40766209817758e-06
6.40763878797793e-06
6.40755222470825e-06
6.40724686558985e-06
6.40622702772181e-06
6.40301815875974e-06
6.3935635810588e-06
6.36765916126637e-06
6.30216595010685e-06
6.15061534828566e-06
5.83226257903634e-06
5.2297662990713e-06
4.20916640439821e-06
2.67003069712459e-06
8.37623982080996e-09
3.23940707450054e-11
3.22550570154162e-11
8.4065327759465e-09
2.69091044886293e-06
4.24734188055857e-06
5.28168617290604e-06
5.89388177758646e-06
6.21819194205957e-06
6.37292466268812e-06
6.43990529920677e-06
6.46642307196733e-06
6.47610233029806e-06
6.47938452583893e-06
6.48042550773747e-06
6.48073598423745e-06
6.48082327857718e-06
6.48084627276503e-06
6.48085170810259e-06
6.48085258500533e-06
6.48085237247738e-06
6.4808519526227e-06
6.48085151102025e-06
6.48085109168801e-06
6.48085070367274e-06
6.48085034846192e-06
6.48085002587903e-06
6.48084973577801e-06
6.48084947802873e-06
6.48084925298888e-06
6.48084906073692e-06
6.48084889942181e-06
6.48084875773833e-06
6.48084858640118e-06
6.48084817434799e-06
6.48084664825504e-06
6.48084056704111e-06
6.48081699179373e-06
6.48072960329988e-06
6.48042141378244e-06
6.47939192442365e-06
6.47615169965079e-06
6.46660187345412e-06
6.44042993249915e-06
6.37424813014179e-06
6.22108581891904e-06
5.89932426849997e-06
5.29033752076332e-06
4.25861147148459e-06
2.70221811440736e-06
8.47632757505756e-09
3.27528653605112e-11
3.2477912210377e-11
8.46908421389362e-09
2.71128275359818e-06
4.27889655678117e-06
5.32067973295823e-06
5.93741351580901e-06
6.26425510468178e-06
6.42027945971382e-06
6.48786483043587e-06
6.51464371290237e-06
6.52442758125334e-06
6.52774893054225e-06
6.52880371411101e-06
6.52911882877808e-06
6.52920764556258e-06
6.52923115118334e-06
6.52923679065024e-06
6.52923777520225e-06
6.52923763033133e-06
6.52923725995587e-06
6.52923685855644e-06
6.52923647244284e-06
6.52923611162253e-06
6.52923577808345e-06
6.52923547192954e-06
6.52923519313765e-06
6.52923494153241e-06
6.52923471720759e-06
6.52923451982495e-06
6.52923434725556e-06
6.52923418810983e-06
6.52923399247045e-06
6.52923354690383e-06
6.52923197338859e-06
6.52922581379698e-06
6.52920205981363e-06
6.52911412922647e-06
6.52880409478887e-06
6.52776831298285e-06
6.52450759560531e-06
6.51489535581868e-06
6.48854772499701e-06
6.42191293802372e-06
6.26768911598526e-06
5.9436806177262e-06
5.33041269007269e-06
4.29134130241515e-06
2.72353649908881e-06
8.54216759316164e-09
3.2986630343078e-11
3.26169571872242e-11
8.50852049801704e-09
2.7242688670456e-06
4.2990875817653e-06
5.34570314040308e-06
5.96541040816642e-06
6.29392580810268e-06
6.45081250808772e-06
6.51880576234178e-06
6.54576264852376e-06
6.55561862642051e-06
6.55896727665369e-06
6.56003179968188e-06
6.56035022980884e-06
6.56044015138725e-06
6.56046403680684e-06
6.56046983101521e-06
6.56047089881115e-06
6.56047080774182e-06
6.56047047748444e-06
6.56047010911775e-06
6.56046975073597e-06
6.56046941308534e-06
6.56046909852634e-06
6.56046880736996e-06
6.56046853968896e-06
6.56046829529607e-06
6.56046807413741e-06
6.5604678756124e-06
6.56046769734285e-06
6.56046752774966e-06
6.56046731646716e-06
6.56046684869223e-06
6.56046524326248e-06
6.56045903117109e-06
6.56043516055877e-06
6.56034688343975e-06
6.56003567714691e-06
6.55899589648726e-06
6.55572212370704e-06
6.54607001601396e-06
6.51960990389536e-06
6.4526845828044e-06
6.29777899927659e-06
5.97232582390386e-06
5.35630252366901e-06
4.31249774541219e-06
2.73732497774409e-06
8.58445843089864e-09
3.31353825554627e-11
3.27016026037404e-11
8.53277804995809e-09
2.73234885503271e-06
4.31170378531066e-06
5.36138886751627e-06
5.98300211807045e-06
6.31260064839181e-06
6.4700509648274e-06
6.5383136021017e-06
6.56538933218527e-06
6.57529399737033e-06
6.57866129562823e-06
6.57973255195242e-06
6.58005330414815e-06
6.58014401137841e-06
6.58016817293444e-06
6.58017408212342e-06
6.58017521380794e-06
6.58017516585004e-06
6.58017486789175e-06
6.58017452647303e-06
6.58017419114424e-06
6.58017387320757e-06
6.5801735752918e-06
6.58017329785269e-06
6.58017304103399e-06
6.58017280464932e-06
6.58017258856221e-06
6.58017239200541e-06
6.58017221240795e-06
6.58017203800234e-06
6.58017181810664e-06
6.58017133710822e-06
6.58016971185625e-06
6.58016346659353e-06
6.58013952278224e-06
6.5800510304742e-06
6.5797390988313e-06
6.57869683959252e-06
6.57541495265473e-06
6.56573799801449e-06
6.53920761737067e-06
6.47210044472016e-06
6.31676746214876e-06
5.99040738573226e-06
5.37265205155491e-06
4.32586697414343e-06
2.74604427189445e-06
8.61101745392773e-09
3.32279525683611e-11
3.27519471656966e-11
8.54735474148624e-09
2.73726189387449e-06
4.3194103845951e-06
5.37100371538407e-06
5.99381321403643e-06
6.32409826796778e-06
6.48190949961648e-06
6.55034648436569e-06
6.57749998372989e-06
6.58743687285828e-06
6.59081665869015e-06
6.59189247928877e-06
6.59221482658785e-06
6.59230608226888e-06
6.5923304410978e-06
6.59233643479097e-06
6.59233761569564e-06
6.59233760236357e-06
6.59233733047209e-06
6.59233701116158e-06
6.59233669516023e-06
6.59233639418256e-06
6.59233611104125e-06
6.59233584628285e-06
6.59233560010421e-06
6.59233537232532e-06
6.59233516276103e-06
6.59233497053822e-06
6.59233479294501e-06
6.59233461806088e-06
6.59233439498443e-06
6.59233390761916e-06
6.59233227160584e-06
6.59232600711241e-06
6.59230201964805e-06
6.59221339802638e-06
6.59190102911176e-06
6.59085727077281e-06
6.58757045987382e-06
6.57787838203276e-06
6.55130512379612e-06
6.48408675276295e-06
6.32849195877739e-06
6.00157543869056e-06
5.38275559765783e-06
4.33413514162674e-06
2.75144106813133e-06
8.62734455631195e-09
3.32843587646042e-11
3.27812362080812e-11
8.55592171080219e-09
2.74018442797156e-06
4.32401727039355e-06
5.37677271961141e-06
6.00031802421552e-06
6.33102967415399e-06
6.48906754071615e-06
6.55761520004836e-06
6.58481862144655e-06
6.59477643476768e-06
6.59816442573732e-06
6.59924328285096e-06
6.59956670619189e-06
6.59965833860692e-06
6.5996828368429e-06
6.5996888925929e-06
6.59969011164388e-06
6.59969012627984e-06
6.59968987571572e-06
6.59968957489238e-06
6.59968927544935e-06
6.59968898939235e-06
6.59968871965352e-06
6.59968846683018e-06
6.59968823115262e-06
6.5996880124529e-06
6.59968781051932e-06
6.59968762440972e-06
6.59968745131029e-06
6.59968727918818e-06
6.59968705699135e-06
6.59968656833638e-06
6.59968492815411e-06
6.59967865423155e-06
6.59965464277578e-06
6.59956594668247e-06
6.59925332166993e-06
6.5982086787619e-06
6.59491894876124e-06
6.58521787370757e-06
6.55861903446792e-06
6.49133416738134e-06
6.33558249545512e-06
6.0083319201204e-06
5.38887173727421e-06
4.33914462535449e-06
2.75471392313182e-06
8.63718024263439e-09
3.33180487248145e-11
3.27979165095127e-11
8.56085004060879e-09
2.74188649573252e-06
4.32671440874973e-06
5.38016371310568e-06
6.00415294514819e-06
6.33512469665262e-06
6.49330224290848e-06
6.56191887119947e-06
6.58915375677091e-06
6.5991249118977e-06
6.6025181977497e-06
6.60359903952981e-06
6.60392317675542e-06
6.60401506453926e-06
6.60403966087699e-06
6.60404576257627e-06
6.60404701155899e-06
6.60404704913097e-06
6.60404681642463e-06
6.60404653150403e-06
6.60404624666981e-06
6.60404597411609e-06
6.60404571684522e-06
6.60404547546497e-06
6.60404525023202e-06
6.60404504099651e-06
6.60404484753386e-06
6.6040446688524e-06
6.60404450206633e-06
6.60404433506224e-06
6.60404411668845e-06
6.60404363039869e-06
6.60404199071989e-06
6.60403571411027e-06
6.60401169152613e-06
6.60392295532286e-06
6.60361018565475e-06
6.60256503464891e-06
6.59927361479979e-06
6.58956730640672e-06
6.56295353630176e-06
6.4956297512965e-06
6.33978604862519e-06
6.01233907164941e-06
5.39250154409922e-06
4.3421205503013e-06
2.75666026203531e-06
8.64299159283506e-09
3.33377896652694e-11
3.2807214471907e-11
8.56362490573642e-09
2.74285699338238e-06
4.32826102582085e-06
5.3821166461583e-06
6.00636872779393e-06
6.33749619219648e-06
6.49575829591582e-06
6.56441715078348e-06
6.59167152374918e-06
6.6016510400988e-06
6.60504768489554e-06
6.60612980248038e-06
6.60645440626053e-06
6.60654646546508e-06
6.60657113106804e-06
6.60657726738193e-06
6.60657854036307e-06
6.6065785972255e-06
6.60657837992247e-06
6.60657810915074e-06
6.60657783764086e-06
6.60657757768491e-06
6.60657733232308e-06
6.60657710212578e-06
6.60657688737387e-06
6.60657668794699e-06
6.60657650361856e-06
6.60657633336218e-06
6.60657617423776e-06
6.60657601407569e-06
6.60657580166141e-06
6.60657532036212e-06
6.60657368450136e-06
6.60656740985666e-06
6.606543384587e-06
6.60645462968943e-06
6.60614178299256e-06
6.60509635040471e-06
6.60180397929567e-06
6.5920947009515e-06
6.56547241368218e-06
6.49812634475257e-06
6.34222978604377e-06
6.01466970303842e-06
5.39461427566824e-06
4.34385455230275e-06
2.75779571554781e-06
8.64636062909205e-09
3.33491427588406e-11
3.28122723944698e-11
8.56514981048965e-09
2.74339739849914e-06
4.32912778358815e-06
5.38321652528305e-06
6.00762125887641e-06
6.33884023531371e-06
6.49715262295924e-06
6.56583688714548e-06
6.59310312735346e-06
6.60308779759201e-06
6.60648653878987e-06
6.60756946369593e-06
6.60789436823981e-06
6.60798654174003e-06
6.60801125668439e-06
6.60801741963025e-06
6.60801871235848e-06
6.60801878585149e-06
6.60801858213673e-06
6.60801832429426e-06
6.60801806525431e-06
6.60801781732392e-06
6.6080175835673e-06
6.60801736444563e-06
6.60801716026821e-06
6.60801697096664e-06
6.60801679631953e-06
6.60801663527724e-06
6.60801648485968e-06
6.60801633285287e-06
6.60801612800973e-06
6.60801565365892e-06
6.60801402405189e-06
6.60800775471149e-06
6.60798373250937e-06
6.60789497256234e-06
6.60758209010928e-06
6.60653651164816e-06
6.60324362861406e-06
6.59353272303151e-06
6.56690572028953e-06
6.49954722791265e-06
6.34362104995713e-06
6.01599732266921e-06
5.39581882975702e-06
4.34484441110544e-06
2.7584448249992e-06
8.64827536754969e-09
3.33555461821879e-11
3.28149235373519e-11
8.56595780589762e-09
2.74368798746852e-06
4.32959776343775e-06
5.3838167386135e-06
6.00830801936486e-06
6.33957960903738e-06
6.49792129900777e-06
6.56662056636e-06
6.59389390734684e-06
6.60388170191776e-06
6.6072817303435e-06
6.60836515800694e-06
6.60869025369801e-06
6.60878250286059e-06
6.60880725319589e-06
6.60881343693624e-06
6.60881474622747e-06
6.60881483418276e-06
6.60881464248453e-06
6.60881439657113e-06
6.60881414932386e-06
6.60881391298905e-06
6.6088136906611e-06
6.6088134825817e-06
6.60881328910574e-06
6.60881311024375e-06
6.60881294579442e-06
6.60881279469113e-06
6.60881265392033e-06
6.60881251123792e-06
6.60881231538027e-06
6.6088118496743e-06
6.60881022839544e-06
6.60880396711398e-06
6.608779952407e-06
6.60869119692064e-06
6.60837830535072e-06
6.60733266498875e-06
6.60403953592977e-06
6.59432780564179e-06
6.5676983425588e-06
6.5003332486593e-06
6.34439113342632e-06
6.0167328477822e-06
5.39648705425349e-06
4.3453945125879e-06
2.75880632473414e-06
8.64933669171598e-09
3.33590720942789e-11
3.28161954775613e-11
8.56635081308325e-09
2.74383223443728e-06
4.32983457287783e-06
5.38412259270911e-06
6.00866081505795e-06
6.33996153342688e-06
6.49831975633236e-06
6.56702763953393e-06
6.59430513392189e-06
6.60429478410583e-06
6.60769558718052e-06
6.60877932149803e-06
6.60910453605637e-06
6.60919683428691e-06
6.60922160957443e-06
6.60922780923494e-06
6.60922913215721e-06
6.60922923230344e-06
6.60922905090223e-06
6.60922881573315e-06
6.60922857943509e-06
6.60922835412172e-06
6.60922814293191e-06
6.60922794576664e-06
6.60922776305948e-06
6.60922759492418e-06
6.6092274411851e-06
6.60922730076435e-06
6.60922717062438e-06
6.60922703849472e-06
6.60922685310398e-06
6.60922639781109e-06
6.60922478699374e-06
6.60921853650972e-06
6.60919453337664e-06
6.60910579021061e-06
6.60879290939041e-06
6.60774726525216e-06
6.60445406520472e-06
6.59474202063129e-06
6.56811149705436e-06
6.50074335321909e-06
6.3447935444255e-06
6.0171180748741e-06
5.39683810391626e-06
4.34568463267588e-06
2.75899787594662e-06
8.64989862809549e-09
3.33609333853238e-11
3.28166198826137e-11
8.56648634195639e-09
2.74388481762158e-06
4.32992538365837e-06
5.38424429566753e-06
6.00880488251444e-06
6.34012020856552e-06
6.49848708210131e-06
6.56719963938354e-06
6.59447948587045e-06
6.60447021045313e-06
6.60787147189756e-06
6.608955393785e-06
6.60928068538078e-06
6.60937301913139e-06
6.60939781559259e-06
6.60940403061542e-06
6.60940536758288e-06
6.60940548043607e-06
6.60940530977206e-06
6.60940508586717e-06
6.60940486101277e-06
6.60940464711678e-06
6.60940444734536e-06
6.60940426127877e-06
6.60940408948209e-06
6.60940393214777e-06
6.60940378911331e-06
6.60940365928413e-06
6.60940353958674e-06
6.60940341771243e-06
6.60940324236401e-06
6.60940279692914e-06
6.60940119593792e-06
6.60939495571373e-06
6.60937096435024e-06
6.60928223669613e-06
6.60896937991562e-06
6.60792377631838e-06
6.60463063923127e-06
6.59491865782851e-06
6.56828806773559e-06
6.50091930556024e-06
6.34496728397377e-06
6.01728592201917e-06
5.39699292015285e-06
4.34581447141413e-06
2.75908508005572e-06
8.65015872137338e-09
3.33618058099076e-11
3.28163858689636e-11
8.56642209893964e-09
2.7438674641342e-06
4.32990625452453e-06
5.38422854876419e-06
6.00879413921193e-06
6.34011400951833e-06
6.49848416733913e-06
6.56719875467211e-06
6.59447971646592e-06
6.6044709938054e-06
6.60787251325765e-06
6.60895655253394e-06
6.6092819001885e-06
6.60937426579673e-06
6.60939908527834e-06
6.60940531902155e-06
6.609406673692e-06
6.6094068024482e-06
6.60940664499539e-06
6.60940643450353e-06
6.60940622286123e-06
6.60940602165874e-06
6.60940583398677e-06
6.6094056594541e-06
6.60940549871479e-06
6.60940535195609e-06
6.60940521899491e-06
6.60940509870323e-06
6.60940498794537e-06
6.60940487433124e-06
6.60940470649626e-06
6.60940426782817e-06
6.60940267303799e-06
6.6093964390958e-06
6.60937245592626e-06
6.6092837434036e-06
6.60897092164527e-06
6.60792540325571e-06
6.60463246538165e-06
6.59492091603547e-06
6.56829117961023e-06
6.50092393009662e-06
6.34497426702881e-06
6.01729604064301e-06
5.39700633920747e-06
4.34582989337614e-06
2.75909876584565e-06
8.65021207232223e-09
3.3362021373169e-11
3.28154240722218e-11
8.56614204450353e-09
2.74377635038748e-06
4.32977332366882e-06
5.38407242322868e-06
6.00862681477642e-06
6.33994218555794e-06
6.49831099861427e-06
6.56702542901807e-06
6.59430650846948e-06
6.60429794130941e-06
6.60769956816682e-06
6.60878367072303e-06
6.60910905611601e-06
6.60920144770572e-06
6.60922628838944e-06
6.60923254053086e-06
6.60923391334044e-06
6.60923405818537e-06
6.60923391378942e-06
6.60923371672086e-06
6.6092335183519e-06
6.60923332978344e-06
6.60923315395872e-06
6.60923299086975e-06
6.60923284113053e-06
6.60923270486191e-06
6.60923258184762e-06
6.60923247091135e-06
6.60923236883388e-06
6.6092322631199e-06
6.60923210231699e-06
6.60923166982887e-06
6.60923008065386e-06
6.6092238527685e-06
6.60919987920207e-06
6.6091111890377e-06
6.60879842703821e-06
6.60775306698201e-06
6.60446052663253e-06
6.5947499106786e-06
6.5681222117968e-06
6.50075907980745e-06
6.34481709069133e-06
6.01715200589746e-06
5.3968829252164e-06
4.34573602716205e-06
2.75904329742214e-06
8.65007326884482e-09
3.33616227236006e-11
3.28134407424851e-11
8.56555829012245e-09
2.74358144388177e-06
4.32948160487963e-06
5.38372222467143e-06
6.00824465386373e-06
6.33954439752329e-06
6.49790643326464e-06
6.56661828052158e-06
6.59389850148561e-06
6.60388970353557e-06
6.60729129515002e-06
6.60837540968599e-06
6.6087008138443e-06
6.60879322331304e-06
6.60881808071317e-06
6.60882434848511e-06
6.608825737615e-06
6.60882589650378e-06
6.60882576318093e-06
6.60882557801326e-06
6.60882539180127e-06
6.60882521496805e-06
6.60882505032971e-06
6.60882489827131e-06
6.60882475934676e-06
6.60882463361495e-06
6.60882452082895e-06
6.6088244197585e-06
6.60882432709216e-06
6.60882423021607e-06
6.60882407759384e-06
6.60882365270729e-06
6.60882207106242e-06
6.60881585232338e-06
6.60879189478911e-06
6.60870324327291e-06
6.60839058536271e-06
6.60734550393041e-06
6.60405367546888e-06
6.59434477107284e-06
6.56772091663974e-06
6.50036581013274e-06
6.34443931822895e-06
6.0168017945632e-06
5.39657771800242e-06
4.34549815206801e-06
2.75889757658173e-06
8.64968706891525e-09
3.33604646540449e-11
3.28097469943644e-11
8.56447303745517e-09
2.74321789260254e-06