/*--------------------------------*- C++ -*----------------------------------*\
  =========                 |
  \\      /  F ield         | OpenFOAM: The Open Source CFD Toolbox
   \\    /   O peration     | Website:  https://openfoam.org
    \\  /    A nd           | Version:  10
     \\/     M anipulation  |
\*---------------------------------------------------------------------------*/
FoamFile
{
    format      ascii;
    class       volScalarField;
    location    "3.4";
    object      omega;
}
// * * * * * * * * * * * * * * * * * * * * * * * * * * * * * * * * * * * * * //

dimensions      [0 0 -1 0 0 0 0];

internalField   nonuniform List<scalar> 
2500
(
128275.655020295
128292.139097777
128285.678370546
128282.711875793
128281.523032345
128281.066286394
128280.897776807
128280.838176811
128280.817764717
128280.811282409
128280.808575725
128280.807429483
128280.806887799
128280.806308197
128280.805793949
128280.805222112
128280.804938622
128280.804578966
128280.804167827
128280.80388539
128280.803631251
128280.80339691
128280.80319624
128280.803089394
128280.802969722
128280.80284327
128280.802799608
128280.802762464
128280.802745353
128280.802777699
128280.8028314
128280.802932205
128280.803084942
128280.803283921
128280.803492309
128280.803728163
128280.804011
128280.80427675
128280.804920393
128280.805969091
128280.808581739
128280.816072482
128280.838113468
128280.901099996
128281.075118434
128281.533064623
128282.713365758
128285.676706136
128292.225693746
128275.610574524
31877.6806951851
14163.9624354325
14160.9717874529
14159.5018116552
14158.8504053145
14158.5752663545
14158.4650080457
14158.4236254512
14158.4091522422
14158.404439579
14158.4029713174
14158.4025334406
14158.4024081732
14158.4023574838
14158.402327257
14158.4023008115
14158.4022858469
14158.402268586
14158.4022485531
14158.4022325308
14158.4022153673
14158.4021957398
14158.4021776713
14158.4021695981
14158.4021635022
14158.4021543213
14158.4021517109
14158.4021492289
14158.402143072
14158.4021467173
14158.4021488032
14158.4021463463
14158.4021642067
14158.4021885896
14158.4022003031
14158.4022107208
14158.4022322244
14158.4022817862
14158.4024479553
14158.4029813812
14158.4047099724
14158.4100759351
14158.4258039078
14158.4691299096
14158.5812465207
14158.8555691116
14159.5011199077
14160.9711163181
14164.0150121828
31877.7378455232
31730.7091447422
3524.43601618377
50.739449381803
50.7333552302975
50.7306560047578
50.7295150464919
50.7290560983612
50.7288827390052
50.7288216700484
50.7288016280679
50.7287954193525
50.728793612373
50.7287931417418
50.7287930058492
50.7287929565026
50.7287929278611
50.7287929141678
50.7287928967663
50.7287928716606
50.7287928493499
50.7287928188392
50.7287927757918
50.7287927312976
50.7287927098193
50.728792699735
50.7287926789825
50.7287926766432
50.7287926723761
50.7287926520198
50.7287926619716
50.7287926615238
50.7287926429705
50.7287926959677
50.7287927687638
50.7287927708208
50.7287927658298
50.7287928268118
50.7287930069616
50.7287936409241
50.728795809306
50.7288029517727
50.728825225134
50.7288904958903
50.7290700547772
50.7295341888133
50.7306708790632
50.7333524355363
50.7394718670076
3524.45722118782
31731.0593924435
31629.6117284533
3513.39635845121
50.5836539162083
50.5792589512781
50.5773951623495
50.576638071018
50.5763420950782
50.5762322034871
50.5761938421894
50.5761812998325
50.5761774197952
50.5761763030175
50.5761760301561
50.576175963454
50.5761759533143
50.5761759525241
50.5761759545571
50.5761759545568
50.576175949413
50.5761759448339
50.5761759343596
50.5761759133553
50.5761758871872
50.5761758721123
50.5761758682965
50.5761758592809
50.5761758595113
50.5761758634946
50.5761758564057
50.5761758570508
50.5761758557824
50.5761758397502
50.5761758675285
50.5761759041913
50.5761759034302
50.5761759017746
50.5761759141701
50.5761759985025
50.5761763613035
50.5761776315532
50.5761818903812
50.5761953881894
50.5762355582025
50.5763481315185
50.5766463306874
50.5774016812095
50.5792621049045
50.5837020330711
3513.41821987832
31630.129952834
31570.5826693081
3507.17929787314
50.497920904815
50.4954041837769
50.494376543205
50.493973551411
50.4938198312597
50.4937634809073
50.4937438875783
50.4937374717989
50.4937354763081
50.4937349039007
50.4937347737386
50.4937347496901
50.493734751617
50.4937347561548
50.4937347615224
50.4937347650619
50.4937347658702
50.4937347660309
50.4937347637781
50.4937347558623
50.4937347429402
50.4937347338671
50.4937347341298
50.493734734903
50.4937347357574
50.4937347377188
50.4937347357837
50.493734735953
50.4937347337454
50.4937347213409
50.4937347341379
50.4937347497132
50.4937347468588
50.4937347462347
50.4937347483033
50.4937347775885
50.4937349441629
50.4937355586372
50.4937376446577
50.4937443225314
50.4937643873524
50.4938213551191
50.4939752772395
50.4943769211536
50.495405349313
50.4979601659118
3507.19577633549
31571.0614216214
31540.3928077905
3504.11985117425
50.4565902194163
50.4553624936533
50.4548763173578
50.4546912209344
50.454622072862
50.4545969670099
50.4545882446131
50.4545853756488
50.4545844758764
50.4545842171766
50.4545841635861
50.4545841576724
50.454584160236
50.4545841641941
50.4545841683503
50.4545841715873
50.4545841733109
50.4545841740692
50.4545841739737
50.4545841713377
50.4545841659928
50.4545841622387
50.4545841631498
50.4545841646356
50.4545841652664
50.4545841663162
50.4545841656675
50.4545841655461
50.4545841642045
50.4545841574513
50.4545841623968
50.45458416801
50.4545841662731
50.4545841664145
50.4545841653545
50.4545841728187
50.4545842395594
50.4545845018694
50.454585402573
50.454588299793
50.4545970448177
50.454622076424
50.4546907505783
50.454874509178
50.4553609203856
50.4566112103993
3504.12976993018
31540.729271788
31526.5560418531
3502.77179452917
50.4387031185531
50.4381725179788
50.4379674483205
50.4378912527326
50.4378632883785
50.4378532116201
50.4378497073861
50.4378485477755
50.4378481809127
50.4378480754801
50.4378480552666
50.4378480543246
50.4378480562283
50.4378480585546
50.4378480608849
50.4378480627542
50.4378480638941
50.4378480643935
50.4378480646935
50.4378480639079
50.4378480619039
50.4378480607825
50.4378480613821
50.437848062092
50.4378480624058
50.4378480628581
50.4378480625948
50.4378480624388
50.4378480617793
50.437848058639
50.4378480602364
50.4378480618908
50.4378480611294
50.4378480611446
50.4378480602047
50.4378480614728
50.4378480851821
50.4378481873556
50.4378485422786
50.437849684463
50.4378531337391
50.4378630466462
50.4378905506713
50.4379656941814
50.4381702176923
50.4387113740326
3502.77682684648
31526.7517102732
31520.7742012769
3502.2302295234
50.431629156181
50.4314207840819
50.4313417890885
50.4313130124498
50.431302610221
50.4312988852854
50.431297587657
50.4312971553817
50.4312970175685
50.4312969780558
50.4312969708873
50.4312969709879
50.4312969720171
50.4312969731247
50.4312969741822
50.4312969750223
50.4312969755586
50.4312969757678
50.4312969759591
50.431296975716
50.4312969749993
50.4312969747708
50.431296975041
50.4312969752336
50.4312969753149
50.4312969754887
50.4312969753046
50.431296975079
50.4312969748242
50.43129697352
50.4312969738794
50.431296974206
50.4312969738146
50.4312969737169
50.4312969730799
50.4312969730478
50.4312969809207
50.4312970179247
50.4312971481322
50.4312975660406
50.431298824719
50.431302444396
50.4313125656604
50.4313406883088
50.4314190210417
50.4316315109714
3502.23245834088
31520.8728307059
31518.5419548225
3502.02909984094
50.4290385660435
50.4289628724522
50.4289346188938
50.4289244886709
50.4289208739612
50.4289195866639
50.4289191373582
50.4289189866917
50.4289189383478
50.4289189245204
50.4289189220879
50.4289189222284
50.4289189226655
50.4289189230966
50.4289189234824
50.4289189237748
50.4289189239539
50.4289189239917
50.4289189240302
50.4289189239183
50.4289189236567
50.4289189235989
50.4289189236501
50.4289189236421
50.4289189236079
50.4289189236077
50.4289189234759
50.428918923314
50.4289189231562
50.4289189226154
50.428918922627
50.4289189225953
50.4289189223677
50.4289189222651
50.4289189219017
50.4289189216954
50.4289189241331
50.4289189367788
50.4289189818113
50.4289191256849
50.4289195569085
50.4289207945455
50.42892427162
50.42893406211
50.4289618557821
50.4290389183795
3502.0299822669
31518.5863319941
31517.7373604358
3501.9593099148
50.4281512644205
50.4281254918688
50.4281159950581
50.4281126326588
50.4281114460137
50.4281110255235
50.4281108785059
50.4281108288953
50.4281108128781
50.4281108082989
50.4281108074802
50.4281108075066
50.4281108076345
50.4281108077472
50.4281108078328
50.4281108078816
50.4281108078908
50.4281108078482
50.4281108077978
50.4281108076996
50.4281108075686
50.4281108075024
50.4281108074523
50.4281108073793
50.4281108073
50.4281108072304
50.4281108071194
50.4281108069968
50.4281108068775
50.4281108066303
50.4281108065424
50.4281108064558
50.4281108063232
50.42811080621
50.428110806008
50.4281108058521
50.4281108065422
50.4281108106358
50.4281108254243
50.4281108724593
50.4281110125976
50.4281114132487
50.428112541313
50.4281157497188
50.4281250001387
50.4281511578585
3501.95962736499
31517.7555479852
31517.4644871156
3501.9365104506
50.427865056927
50.4278567486737
50.4278537209646
50.4278526595445
50.4278522883878
50.4278521574669
50.4278521116215
50.4278520960493
50.4278520909753
50.4278520894992
50.4278520891971
50.4278520891578
50.4278520891486
50.4278520891286
50.4278520890945
50.427852089046
50.4278520889835
50.4278520889027
50.4278520888166
50.4278520887175
50.4278520886115
50.4278520885226
50.4278520884344
50.4278520883405
50.427852088246
50.4278520881545
50.4278520880517
50.4278520879469
50.4278520878448
50.4278520877098
50.4278520876166
50.4278520875234
50.4278520874186
50.4278520873168
50.4278520871926
50.4278520870885
50.4278520872425
50.427852088478
50.4278520930956
50.4278521077765
50.4278521512841
50.4278522750727
50.4278526236673
50.4278536222925
50.4278565378118
50.427864932302
3501.93661535148
31517.4713775029
31517.3770274622
3501.92947475869
50.4277779292062
50.4277753734694
50.427774451308
50.4277741305018
50.4277740191593
50.4277739800383
50.4277739663096
50.4277739616006
50.4277739600308
50.4277739595391
50.4277739593946
50.4277739593257
50.4277739592627
50.4277739591925
50.4277739591148
50.4277739590306
50.427773958941
50.4277739588446
50.4277739587454
50.4277739586427
50.4277739585389
50.4277739584395
50.4277739583401
50.4277739582402
50.4277739581416
50.4277739580441
50.4277739579457
50.427773957849
50.4277739577542
50.427773957653
50.4277739575632
50.4277739574755
50.4277739573862
50.4277739572981
50.4277739572066
50.4277739571243
50.4277739571197
50.4277739574466
50.4277739588012
50.4277739631762
50.4277739761304
50.4277740128368
50.4277741160966
50.4277744133442
50.4277752899706
50.427777856961
3501.92950676861
31517.3794672281
31517.3506261871
3501.92744040408
50.4277531777186
50.427752422896
50.4277521530362
50.4277520597067
50.4277520274976
50.4277520162071
50.4277520122215
50.4277520108218
50.4277520103216
50.4277520101279
50.4277520100296
50.4277520099492
50.427752009867
50.4277520097796
50.4277520096875
50.4277520095915
50.4277520094927
50.4277520093911
50.427752009288
50.4277520091838
50.4277520090797
50.4277520089772
50.4277520088753
50.4277520087746
50.4277520086756
50.4277520085782
50.4277520084826
50.4277520083891
50.4277520082979
50.4277520082073
50.4277520081214
50.4277520080382
50.4277520079563
50.4277520078766
50.4277520077983
50.4277520077248
50.4277520076755
50.4277520077251
50.4277520080763
50.4277520093032
50.4277520129953
50.4277520234669
50.4277520529115
50.4277521379587
50.4277523908634
50.4277531434283
3501.92744937871
31517.3514400992
31517.3433458225
3501.92691711022
50.4277470348534
50.4277468197717
50.4277467435442
50.4277467172948
50.4277467082638
50.4277467050895
50.4277467039451
50.4277467035133
50.4277467033262
50.4277467032193
50.427746703134
50.4277467030499
50.4277467029617
50.4277467028692
50.427746702773
50.4277467026739
50.4277467025727
50.42774670247
50.4277467023663
50.4277467022624
50.4277467021588
50.4277467020562
50.4277467019547
50.4277467018547
50.4277467017567
50.4277467016607
50.4277467015669
50.4277467014756
50.4277467013869
50.4277467013005
50.4277467012174
50.4277467011372
50.4277467010594
50.4277467009842
50.4277467009115
50.4277467008421
50.4277467007814
50.4277467007503
50.4277467008054
50.4277467011069
50.4277467020949
50.4277467049566
50.4277467130479
50.4277467365146
50.4277468068281
50.4277470193616
3501.92691933193
31517.3436027868
31517.3417921178
3501.92683102975
50.4277462059357
50.4277461465786
50.4277461257138
50.4277461185457
50.4277461160725
50.4277461151852
50.4277461148405
50.4277461146816
50.4277461145829
50.4277461145004
50.427746114419
50.427746114334
50.4277461142445
50.4277461141509
50.4277461140541
50.4277461139548
50.4277461138537
50.4277461137514
50.4277461136485
50.4277461135456
50.4277461134431
50.4277461133415
50.4277461132413
50.4277461131427
50.4277461130461
50.4277461129516
50.4277461128597
50.4277461127702
50.4277461126836
50.4277461125997
50.4277461125188
50.4277461124408
50.4277461123657
50.4277461122934
50.4277461122238
50.4277461121571
50.4277461120946
50.4277461120417
50.4277461120135
50.4277461120534
50.4277461122794
50.4277461130086
50.4277461151361
50.4277461213804
50.4277461402715
50.4277461983007
3501.9268314105
31517.3418686403
31517.3418864945
3501.92686666627
50.4277468360548
50.4277468201382
50.4277468145823
50.4277468126687
50.4277468119933
50.4277468117303
50.4277468116034
50.4277468115187
50.4277468114439
50.4277468113682
50.4277468112882
50.4277468112033
50.4277468111139
50.4277468110207
50.4277468109245
50.4277468108259
50.4277468107257
50.4277468106244
50.4277468105228
50.4277468104211
50.4277468103201
50.42774681022
50.4277468101212
50.4277468100243
50.4277468099293
50.4277468098366
50.4277468097464
50.4277468096588
50.4277468095741
50.4277468094922
50.4277468094133
50.4277468093375
50.4277468092645
50.4277468091945
50.4277468091273
50.4277468090628
50.4277468090012
50.4277468089438
50.4277468088942
50.4277468088638
50.4277468088831
50.4277468090345
50.4277468095499
50.4277468111366
50.427746816039
50.4277468313914
3501.92686658218
31517.3419073584
31517.3424384552
3501.92693503401
50.4277478528204
50.4277478486593
50.4277478472102
50.4277478467003
50.4277478465031
50.427747846405
50.4277478463351
50.4277478462698
50.4277478462013
50.4277478461274
50.4277478460481
50.4277478459636
50.4277478458748
50.4277478457823
50.4277478456871
50.4277478455895
50.4277478454905
50.4277478453906
50.4277478452903
50.4277478451901
50.4277478450906
50.4277478449921
50.4277478448951
50.4277478447998
50.4277478447066
50.4277478446157
50.4277478445273
50.4277478444417
50.4277478443589
50.427747844279
50.4277478442021
50.4277478441283
50.4277478440574
50.4277478439896
50.4277478439245
50.4277478438622
50.4277478438025
50.4277478437455
50.427747843692
50.4277478436446
50.4277478436109
50.4277478436119
50.427747843706
50.4277478440726
50.4277478452884
50.4277478492219
3501.92693484375
31517.342442897
31517.3431133996
3501.92701193215
50.4277489688009
50.427748967733
50.4277489673544
50.4277489672082
50.4277489671337
50.4277489670773
50.4277489670214
50.4277489669606
50.4277489668936
50.4277489668203
50.4277489667414
50.4277489666575
50.4277489665694
50.4277489664778
50.4277489663836
50.4277489662873
50.4277489661896
50.4277489660911
50.4277489659922
50.4277489658937
50.4277489657958
50.427748965699
50.4277489656037
50.4277489655102
50.4277489654188
50.4277489653299
50.4277489652434
50.4277489651596
50.4277489650788
50.4277489650009
50.4277489649261
50.4277489648543
50.4277489647856
50.4277489647198
50.427748964657
50.4277489645969
50.4277489645393
50.4277489644843
50.4277489644316
50.4277489643818
50.4277489643366
50.4277489643013
50.4277489642901
50.427748964348
50.4277489646215
50.4277489655887
3501.92701172237
31517.3431132013
31517.3438204325
3501.92709099092
50.4277501095012
50.4277501092252
50.4277501091173
50.4277501090615
50.4277501090167
50.4277501089696
50.4277501089166
50.4277501088565
50.4277501087896
50.4277501087166
50.427750108638
50.4277501085547
50.4277501084674
50.4277501083769
50.4277501082837
50.4277501081886
50.4277501080923
50.4277501079952
50.427750107898
50.427750107801
50.4277501077048
50.4277501076098
50.4277501075163
50.4277501074247
50.4277501073352
50.4277501072481
50.4277501071636
50.4277501070819
50.427750107003
50.4277501069272
50.4277501068545
50.4277501067848
50.4277501067182
50.4277501066547
50.4277501065941
50.4277501065363
50.4277501064811
50.4277501064284
50.4277501063779
50.4277501063296
50.4277501062837
50.4277501062417
50.4277501062069
50.4277501061909
50.4277501062319
50.4277501064507
3501.92709078087
31517.3438189852
31517.344535612
3501.92717058266
50.427751256194
50.4277512561143
50.4277512560718
50.4277512560367
50.4277512559976
50.4277512559518
50.4277512558987
50.4277512558383
50.4277512557713
50.4277512556983
50.4277512556201
50.4277512555375
50.427751255451
50.4277512553614
50.4277512552694
50.4277512551756
50.4277512550807
50.4277512549851
50.4277512548894
50.4277512547942
50.4277512546997
50.4277512546064
50.4277512545148
50.4277512544251
50.4277512543375
50.4277512542524
50.4277512541699
50.4277512540903
50.4277512540136
50.4277512539398
50.4277512538692
50.4277512538018
50.4277512537374
50.4277512536761
50.4277512536178
50.4277512535624
50.4277512535096
50.4277512534594
50.4277512534115
50.4277512533657
50.427751253322
50.4277512532808
50.4277512532429
50.4277512532118
50.4277512531988
50.4277512532355
3501.92717037637
31517.3445338631
31517.3452528067
3501.92725030254
50.4277524043005
50.4277524042669
50.4277524042384
50.4277524042065
50.4277524041675
50.4277524041209
50.4277524040669
50.427752404006
50.4277524039388
50.427752403866
50.4277524037881
50.4277524037061
50.4277524036204
50.4277524035319
50.427752403441
50.4277524033486
50.427752403255
50.427752403161
50.4277524030669
50.4277524029733
50.4277524028807
50.4277524027892
50.4277524026995
50.4277524026117
50.4277524025261
50.427752402443
50.4277524023626
50.4277524022851
50.4277524022104
50.4277524021389
50.4277524020705
50.4277524020052
50.4277524019431
50.4277524018841
50.4277524018282
50.4277524017752
50.427752401725
50.4277524016774
50.4277524016322
50.4277524015892
50.4277524015484
50.42775240151
50.427752401474
50.427752401442
50.4277524014189
50.4277524014143
3501.92725010062
31517.3452510086
31517.3459704868
3501.92733005234
50.4277535527301
50.4277535527055
50.4277535526785
50.4277535526458
50.4277535526054
50.4277535525575
50.4277535525026
50.4277535524411
50.4277535523737
50.4277535523009
50.4277535522235
50.427753552142
50.4277535520572
50.4277535519696
50.42775355188
50.4277535517888
50.4277535516967
50.4277535516042
50.4277535515118
50.42775355142
50.4277535513291
50.4277535512395
50.4277535511517
50.4277535510659
50.4277535509824
50.4277535509013
50.427753550823
50.4277535507475
50.4277535506751
50.4277535506057
50.4277535505395
50.4277535504766
50.4277535504168
50.4277535503602
50.4277535503066
50.4277535502561
50.4277535502085
50.4277535501635
50.4277535501212
50.4277535500811
50.4277535500435
50.4277535500082
50.4277535499753
50.4277535499459
50.427753549923
50.4277535499113
3501.92732985503
31517.3459687096
31517.3466882797
3501.92740980882
50.4277547012293
50.4277547012049
50.4277547011767
50.4277547011421
50.4277547011001
50.4277547010509
50.427754700995
50.4277547009329
50.4277547008652
50.4277547007925
50.4277547007155
50.4277547006346
50.4277547005506
50.4277547004641
50.4277547003756
50.4277547002858
50.4277547001952
50.4277547001042
50.4277547000135
50.4277546999234
50.4277546998343
50.4277546997467
50.4277546996608
50.427754699577
50.4277546994955
50.4277546994165
50.4277546993403
50.427754699267
50.4277546991967
50.4277546991296
50.4277546990657
50.427754699005
50.4277546989476
50.4277546988934
50.4277546988423
50.4277546987943
50.4277546987493
50.4277546987071
50.4277546986676
50.4277546986306
50.427754698596
50.427754698564
50.4277546985345
50.4277546985084
50.4277546984881
50.4277546984774
3501.9274096161
31517.3466865377
31517.3474060971
3501.92748956661
50.4277558497413
50.4277558497152
50.427755849685
50.4277558496485
50.4277558496048
50.4277558495543
50.4277558494975
50.4277558494348
50.4277558493668
50.4277558492943
50.4277558492175
50.4277558491373
50.4277558490541
50.4277558489686
50.4277558488814
50.4277558487929
50.4277558487037
50.4277558486144
50.4277558485253
50.4277558484369
50.4277558483497
50.427755848264
50.42775584818
50.4277558480982
50.4277558480188
50.4277558479419
50.4277558478679
50.4277558477967
50.4277558477287
50.4277558476638
50.4277558476022
50.4277558475438
50.4277558474888
50.427755847437
50.4277558473884
50.427755847343
50.4277558473006
50.4277558472612
50.4277558472245
50.4277558471906
50.4277558471592
50.4277558471305
50.4277558471044
50.4277558470817
50.4277558470646
50.4277558470565
3501.92748937858
31517.3474043961
31517.3481239188
3501.92756932456
50.4277569982542
50.4277569982259
50.4277569981937
50.4277569981553
50.42775699811
50.4277569980582
50.4277569980005
50.4277569979372
50.4277569978691
50.4277569977965
50.4277569977202
50.4277569976405
50.4277569975582
50.4277569974737
50.4277569973877
50.4277569973005
50.4277569972128
50.427756997125
50.4277569970377
50.4277569969511
50.4277569968657
50.4277569967819
50.4277569966999
50.4277569966201
50.4277569965427
50.427756996468
50.4277569963961
50.4277569963271
50.4277569962613
50.4277569961987
50.4277569961394
50.4277569960834
50.4277569960307
50.4277569959814
50.4277569959353
50.4277569958925
50.4277569958528
50.4277569958161
50.4277569957824
50.4277569957514
50.4277569957233
50.4277569956978
50.4277569956752
50.4277569956559
50.427756995642
50.4277569956369
3501.92756914125
31517.3481222613
31517.3488417408
3501.92764908247
50.4277581467661
50.4277581467357
50.4277581467015
50.4277581466614
50.4277581466144
50.4277581465614
50.4277581465027
50.4277581464388
50.4277581463705
50.427758146298
50.427758146222
50.427758146143
50.4277581460615
50.427758145978
50.4277581458931
50.4277581458073
50.4277581457211
50.4277581456349
50.4277581455492
50.4277581454644
50.4277581453809
50.427758145299
50.427758145219
50.4277581451412
50.4277581450659
50.4277581449932
50.4277581449235
50.4277581448568
50.4277581447931
50.4277581447328
50.4277581446758
50.4277581446222
50.4277581445719
50.427758144525
50.4277581444815
50.4277581444412
50.4277581444042
50.4277581443704
50.4277581443395
50.4277581443117
50.4277581442866
50.4277581442645
50.4277581442452
50.4277581442293
50.4277581442186
50.4277581442166
3501.9276489039
31517.3488401238
31517.3495595626
3501.92772884035
50.4277592952776
50.427759295245
50.4277592952089
50.427759295167
50.4277592951185
50.4277592950642
50.4277592950046
50.4277592949403
50.4277592948717
50.4277592947993
50.4277592947236
50.4277592946452
50.4277592945645
50.427759294482
50.4277592943983
50.4277592943138
50.4277592942291
50.4277592941445
50.4277592940605
50.4277592939774
50.4277592938957
50.4277592938157
50.4277592937377
50.4277592936619
50.4277592935887
50.4277592935181
50.4277592934505
50.427759293386
50.4277592933246
50.4277592932665
50.4277592932118
50.4277592931605
50.4277592931127
50.4277592930683
50.4277592930273
50.4277592929896
50.4277592929553
50.4277592929242
50.4277592928963
50.4277592928714
50.4277592928496
50.4277592928307
50.4277592928147
50.4277592928022
50.4277592927947
50.4277592927957
3501.92772866648
31517.3495579896
31517.3502773847
3501.92780859826
50.4277604437894
50.4277604437547
50.4277604437168
50.4277604436731
50.4277604436231
50.4277604435677
50.4277604435072
50.4277604434423
50.4277604433734
50.4277604433011
50.4277604432258
50.4277604431479
50.427760443068
50.4277604429866
50.4277604429041
50.4277604428209
50.4277604427376
50.4277604426545
50.4277604425722
50.4277604424909
50.427760442411
50.4277604423328
50.4277604422568
50.427760442183
50.4277604421118
50.4277604420434
50.4277604419779
50.4277604419155
50.4277604418564
50.4277604418006
50.4277604417482
50.4277604416993
50.4277604416538
50.4277604416118
50.4277604415733
50.4277604415383
50.4277604415067
50.4277604414783
50.4277604414533
50.4277604414315
50.4277604414128
50.4277604413971
50.4277604413845
50.4277604413752
50.4277604413708
50.4277604413749
3501.92780842914
31517.3502758543
31517.3509952077
3501.92788835626
50.4277615923026
50.4277615922658
50.4277615922261
50.4277615921806
50.4277615921292
50.4277615920726
50.4277615920113
50.4277615919458
50.4277615918767
50.4277615918045
50.4277615917294
50.4277615916522
50.427761591573
50.4277615914926
50.4277615914112
50.4277615913293
50.4277615912475
50.4277615911659
50.4277615910852
50.4277615910056
50.4277615909276
50.4277615908513
50.4277615907771
50.4277615907054
50.4277615906362
50.4277615905698
50.4277615905065
50.4277615904462
50.4277615903893
50.4277615903357
50.4277615902856
50.427761590239
50.4277615901959
50.4277615901564
50.4277615901204
50.427761590088
50.427761590059
50.4277615900334
50.4277615900113
50.4277615899925
50.4277615899769
50.4277615899644
50.427761589955
50.427761589949
50.4277615899477
50.4277615899549
3501.92788819182
31517.3509937207
31517.3517130323
3501.92796811443
50.4277627408183
50.4277627407793
50.4277627407377
50.4277627406905
50.4277627406377
50.4277627405799
50.4277627405177
50.4277627404517
50.4277627403824
50.4277627403102
50.4277627402355
50.4277627401588
50.4277627400804
50.4277627400009
50.4277627399207
50.42776273984
50.4277627397596
50.4277627396796
50.4277627396005
50.4277627395226
50.4277627394463
50.4277627393718
50.4277627392996
50.4277627392298
50.4277627391626
50.4277627390983
50.427762739037
50.4277627389789
50.4277627389242
50.4277627388728
50.4277627388249
50.4277627387806
50.4277627387399
50.4277627387028
50.4277627386693
50.4277627386394
50.4277627386131
50.4277627385903
50.427762738571
50.4277627385551
50.4277627385427
50.4277627385333
50.4277627385272
50.4277627385244
50.4277627385262
50.4277627385365
3501.92796795465
31517.351711587
31517.352430859
3501.92804787283
50.4277638893372
50.427763889296
50.4277638892526
50.4277638892038
50.4277638891494
50.4277638890906
50.4277638890275
50.427763888961
50.4277638888914
50.4277638888193
50.4277638887449
50.4277638886687
50.4277638885911
50.4277638885125
50.4277638884333
50.427763888354
50.4277638882748
50.4277638881963
50.4277638881188
50.4277638880426
50.427763887968
50.4277638878954
50.427763887825
50.4277638877571
50.4277638876919
50.4277638876296
50.4277638875704
50.4277638875144
50.4277638874618
50.4277638874126
50.427763887367
50.4277638873249
50.4277638872865
50.4277638872518
50.4277638872207
50.4277638871933
50.4277638871696
50.4277638871495
50.427763887133
50.4277638871201
50.4277638871107
50.4277638871045
50.4277638871015
50.427763887102
50.4277638871069
50.4277638871202
3501.92804771756
31517.3524294547
31517.3531486883
3501.92812763154
50.4277650378604
50.4277650378169
50.4277650377717
50.4277650377211
50.4277650376654
50.4277650376054
50.4277650375415
50.4277650374744
50.4277650374047
50.4277650373325
50.4277650372584
50.4277650371827
50.4277650371058
50.4277650370282
50.42776503695
50.4277650368719
50.4277650367941
50.427765036717
50.4277650366411
50.4277650365665
50.4277650364936
50.4277650364228
50.4277650363542
50.4277650362882
50.4277650362249
50.4277650361646
50.4277650361074
50.4277650360535
50.4277650360029
50.4277650359558
50.4277650359124
50.4277650358726
50.4277650358364
50.427765035804
50.4277650357754
50.4277650357505
50.4277650357293
50.4277650357119
50.4277650356981
50.4277650356881
50.4277650356817
50.4277650356786
50.4277650356788
50.4277650356824
50.4277650356904
50.4277650357069
3501.92812748067
31517.3531473221
31517.3538665211
3501.92820739061
50.4277661863888
50.427766186343
50.4277661862959
50.4277661862436
50.4277661861864
50.4277661861253
50.4277661860605
50.427766185993
50.4277661859229
50.4277661858508
50.427766185777
50.4277661857018
50.4277661856256
50.4277661855488
50.4277661854717
50.4277661853947
50.4277661853183
50.4277661852426
50.4277661851681
50.4277661850951
50.4277661850239
50.4277661849547
50.427766184888
50.4277661848237
50.4277661847623
50.4277661847039
50.4277661846487
50.4277661845968
50.4277661845482
50.4277661845033
50.427766184462
50.4277661844243
50.4277661843904
50.4277661843603
50.427766184334
50.4277661843115
50.4277661842928
50.427766184278
50.427766184267
50.4277661842598
50.4277661842563
50.4277661842563
50.4277661842596
50.4277661842664
50.4277661842774
50.4277661842972
3501.92820724412
31517.3538651951
31517.3545843578
3501.92828715011
50.4277673349232
50.4277673348749
50.427767334826
50.4277673347719
50.4277673347133
50.4277673346511
50.4277673345855
50.4277673345174
50.4277673344471
50.427767334375
50.4277673343014
50.4277673342267
50.4277673341511
50.4277673340751
50.4277673339991
50.4277673339232
50.427767333848
50.4277673337737
50.4277673337006
50.4277673336291
50.4277673335595
50.4277673334921
50.427767333427
50.4277673333646
50.427767333305
50.4277673332484
50.4277673331951
50.4277673331451
50.4277673330986
50.4277673330557
50.4277673330164
50.4277673329809
50.4277673329491
50.4277673329212
50.4277673328972
50.4277673328771
50.4277673328609
50.4277673328486
50.4277673328403
50.4277673328358
50.4277673328352
50.4277673328381
50.4277673328445
50.4277673328546
50.4277673328686
50.4277673328917
3501.92828700787
31517.3545830709
31517.355302199
3501.92836691011
50.4277684834645
50.4277684834136
50.4277684833627
50.4277684833068
50.4277684832468
50.4277684831835
50.4277684831171
50.4277684830485
50.4277684829779
50.4277684829058
50.4277684828324
50.4277684827582
50.4277684826833
50.4277684826081
50.427768482533
50.4277684824582
50.4277684823842
50.4277684823111
50.4277684822395
50.4277684821695
50.4277684821014
50.4277684820356
50.4277684819722
50.4277684819114
50.4277684818536
50.4277684817989
50.4277684817474
50.4277684816993
50.4277684816547
50.4277684816137
50.4277684815764
50.4277684815429
50.4277684815133
50.4277684814875
50.4277684814657