/*--------------------------------*- C++ -*----------------------------------*\
  =========                 |
  \\      /  F ield         | OpenFOAM: The Open Source CFD Toolbox
   \\    /   O peration     | Website:  https://openfoam.org
    \\  /    A nd           | Version:  10
     \\/     M anipulation  |
\*---------------------------------------------------------------------------*/
FoamFile
{
    format      ascii;
    class       volScalarField;
    location    "3.4";
    object      p;
}
// * * * * * * * * * * * * * * * * * * * * * * * * * * * * * * * * * * * * * //

dimensions      [1 -1 -2 0 0 0 0];

internalField   nonuniform List<scalar> 
2500
(
100076.765726324
100076.765728017
100076.765728964
100076.76572972
100076.765730147
100076.765730411
100076.765730601
100076.765730752
100076.765730894
100076.765731039
100076.765731192
100076.765731356
100076.765731533
100076.765731721
100076.765731921
100076.76573213
100076.765732348
100076.765732574
100076.765732806
100076.765733044
100076.765733285
100076.76573353
100076.765733775
100076.765734022
100076.765734268
100076.765734512
100076.765734754
100076.765734992
100076.765735227
100076.765735456
100076.765735681
100076.765735899
100076.76573611
100076.765736314
100076.765736511
100076.765736699
100076.765736879
100076.76573705
100076.76573721
100076.765737359
100076.765737495
100076.765737612
100076.765737705
100076.76573776
100076.765737745
100076.765737626
100076.765737311
100076.765736629
100076.765735706
100076.765734015
100076.763481677
100076.763483078
100076.763483803
100076.763484455
100076.763484833
100076.763485069
100076.763485244
100076.763485387
100076.763485525
100076.763485668
100076.763485821
100076.763485986
100076.763486163
100076.763486351
100076.763486551
100076.76348676
100076.763486978
100076.763487204
100076.763487437
100076.763487674
100076.763487916
100076.76348816
100076.763488406
100076.763488652
100076.763488898
100076.763489142
100076.763489384
100076.763489622
100076.763489856
100076.763490086
100076.76349031
100076.763490528
100076.763490739
100076.763490943
100076.763491139
100076.763491328
100076.763491507
100076.763491677
100076.763491837
100076.763491986
100076.763492122
100076.763492241
100076.763492338
100076.763492401
100076.763492401
100076.763492309
100076.763492043
100076.763491466
100076.763490765
100076.76348937
100076.761222427
100076.761223137
100076.761223333
100076.761223677
100076.761223898
100076.761224055
100076.761224194
100076.761224321
100076.761224452
100076.761224593
100076.761224745
100076.761224909
100076.761225086
100076.761225275
100076.761225475
100076.761225684
100076.761225903
100076.761226129
100076.761226361
100076.761226598
100076.76122684
100076.761227084
100076.76122733
100076.761227576
100076.761227821
100076.761228065
100076.761228307
100076.761228545
100076.761228779
100076.761229008
100076.761229232
100076.76122945
100076.76122966
100076.761229864
100076.76123006
100076.761230248
100076.761230427
100076.761230597
100076.761230756
100076.761230905
100076.761231042
100076.761231163
100076.761231267
100076.761231347
100076.761231384
100076.76123137
100076.76123126
100076.761230991
100076.761230827
100076.761230103
100076.75895423
100076.758954302
100076.758954144
100076.758954208
100076.758954289
100076.758954377
100076.758954485
100076.758954598
100076.758954724
100076.758954863
100076.758955014
100076.758955178
100076.758955355
100076.758955543
100076.758955743
100076.758955952
100076.758956171
100076.758956397
100076.758956629
100076.758956866
100076.758957107
100076.758957351
100076.758957597
100076.758957842
100076.758958088
100076.758958331
100076.758958572
100076.75895881
100076.758959044
100076.758959272
100076.758959496
100076.758959713
100076.758959923
100076.758960126
100076.758960321
100076.758960509
100076.758960687
100076.758960857
100076.758961016
100076.758961165
100076.758961302
100076.758961426
100076.758961535
100076.758961629
100076.758961697
100076.758961753
100076.758961783
100076.758961793
100076.758961994
100076.758961913
100076.756680178
100076.756679924
100076.75667965
100076.756679561
100076.756679562
100076.756679604
100076.756679689
100076.756679792
100076.756679912
100076.756680047
100076.756680197
100076.756680361
100076.756680537
100076.756680726
100076.756680925
100076.756681134
100076.756681352
100076.756681578
100076.75668181
100076.756682047
100076.756682288
100076.756682531
100076.756682776
100076.756683021
100076.756683266
100076.756683509
100076.756683749
100076.756683986
100076.756684219
100076.756684447
100076.75668467
100076.756684886
100076.756685096
100076.756685298
100076.756685493
100076.756685679
100076.756685857
100076.756686026
100076.756686185
100076.756686334
100076.756686472
100076.756686599
100076.756686713
100076.756686818
100076.756686909
100076.756687012
100076.756687123
100076.75668729
100076.75668761
100076.756687868
100076.754402883
100076.754402545
100076.754402272
100076.754402116
100076.75440208
100076.754402097
100076.754402166
100076.75440226
100076.754402375
100076.754402508
100076.754402656
100076.754402819
100076.754402995
100076.754403183
100076.754403382
100076.754403591
100076.754403808
100076.754404034
100076.754404265
100076.754404501
100076.754404742
100076.754404984
100076.754405229
100076.754405473
100076.754405717
100076.754405959
100076.754406199
100076.754406435
100076.754406667
100076.754406894
100076.754407116
100076.754407331
100076.75440754
100076.754407741
100076.754407935
100076.754408121
100076.754408298
100076.754408466
100076.754408625
100076.754408774
100076.754408913
100076.754409042
100076.754409161
100076.754409274
100076.754409381
100076.754409511
100076.75440966
100076.754409894
100076.754410216
100076.754410569
100076.752124061
100076.752123757
100076.752123526
100076.752123359
100076.75212331
100076.752123314
100076.752123373
100076.75212346
100076.752123571
100076.752123702
100076.752123848
100076.75212401
100076.752124185
100076.752124372
100076.752124571
100076.752124779
100076.752124996
100076.752125221
100076.752125452
100076.752125687
100076.752125927
100076.752126169
100076.752126412
100076.752126656
100076.752126899
100076.75212714
100076.752127379
100076.752127614
100076.752127845
100076.752128071
100076.752128292
100076.752128506
100076.752128713
100076.752128914
100076.752129106
100076.752129291
100076.752129467
100076.752129635
100076.752129793
100076.752129942
100076.752130082
100076.752130213
100076.752130336
100076.752130456
100076.752130573
100076.752130716
100076.752130877
100076.752131124
100076.752131403
100076.752131729
100076.749844617
100076.749844378
100076.749844197
100076.749844044
100076.749843997
100076.749843996
100076.74984405
100076.749844132
100076.749844239
100076.749844367
100076.749844512
100076.749844672
100076.749844847
100076.749845033
100076.749845231
100076.749845439
100076.749845655
100076.749845879
100076.749846109
100076.749846344
100076.749846583
100076.749846824
100076.749847066
100076.749847309
100076.749847551
100076.749847791
100076.749848028
100076.749848262
100076.749848492
100076.749848717
100076.749848936
100076.749849149
100076.749849355
100076.749849554
100076.749849746
100076.749849929
100076.749850104
100076.749850271
100076.749850429
100076.749850578
100076.749850718
100076.749850851
100076.749850977
100076.749851101
100076.749851225
100076.749851372
100076.749851532
100076.749851766
100076.749851993
100076.749852254
100076.747564958
100076.747564782
100076.747564644
100076.747564515
100076.747564475
100076.747564475
100076.747564525
100076.747564604
100076.747564709
100076.747564834
100076.747564978
100076.747565137
100076.747565311
100076.747565497
100076.747565694
100076.747565901
100076.747566116
100076.747566339
100076.747566568
100076.747566802
100076.74756704
100076.74756728
100076.747567521
100076.747567762
100076.747568003
100076.747568242
100076.747568478
100076.747568711
100076.747568939
100076.747569162
100076.74756938
100076.747569591
100076.747569796
100076.747569994
100076.747570184
100076.747570366
100076.74757054
100076.747570706
100076.747570863
100076.747571011
100076.747571152
100076.747571285
100076.747571414
100076.747571541
100076.747571667
100076.747571814
100076.747571967
100076.747572177
100076.747572359
100076.747572558
100076.745285245
100076.745285116
100076.745285013
100076.745284909
100076.74528488
100076.745284883
100076.745284932
100076.745285009
100076.745285112
100076.745285236
100076.745285379
100076.745285537
100076.745285709
100076.745285894
100076.745286091
100076.745286297
100076.745286512
100076.745286734
100076.745286962
100076.745287195
100076.745287431
100076.74528767
100076.745287909
100076.745288149
100076.745288389
100076.745288626
100076.74528886
100076.745289092
100076.745289318
100076.74528954
100076.745289756
100076.745289966
100076.745290169
100076.745290365
100076.745290554
100076.745290734
100076.745290907
100076.745291071
100076.745291227
100076.745291375
100076.745291516
100076.74529165
100076.745291779
100076.745291907
100076.745292034
100076.745292178
100076.745292321
100076.745292505
100076.745292651
100076.7452928
100076.74300553
100076.743005436
100076.743005359
100076.743005279
100076.743005259
100076.743005268
100076.743005318
100076.743005395
100076.743005497
100076.74300562
100076.743005761
100076.743005919
100076.74300609
100076.743006274
100076.74300647
100076.743006675
100076.743006889
100076.74300711
100076.743007337
100076.743007568
100076.743007803
100076.74300804
100076.743008279
100076.743008517
100076.743008755
100076.743008991
100076.743009223
100076.743009453
100076.743009678
100076.743009898
100076.743010112
100076.74301032
100076.743010521
100076.743010716
100076.743010903
100076.743011082
100076.743011253
100076.743011416
100076.74301157
100076.743011718
100076.743011857
100076.743011991
100076.74301212
100076.743012247
100076.743012374
100076.743012511
100076.743012645
100076.743012805
100076.743012924
100076.743013037
100076.740725827
100076.740725758
100076.740725702
100076.740725642
100076.740725633
100076.740725648
100076.740725699
100076.740725777
100076.740725878
100076.740726001
100076.740726142
100076.740726298
100076.740726469
100076.740726652
100076.740726847
100076.740727051
100076.740727264
100076.740727484
100076.740727709
100076.740727939
100076.740728173
100076.740728409
100076.740728645
100076.740728882
100076.740729118
100076.740729352
100076.740729583
100076.74072981
100076.740730034
100076.740730252
100076.740730464
100076.74073067
100076.740730869
100076.740731062
100076.740731247
100076.740731424
100076.740731593
100076.740731755
100076.740731908
100076.740732054
100076.740732193
100076.740732325
100076.740732454
100076.740732579
100076.740732703
100076.740732834
100076.740732958
100076.740733097
100076.740733196
100076.740733284
100076.738446141
100076.73844609
100076.738446049
100076.738446007
100076.738446006
100076.738446028
100076.738446082
100076.738446161
100076.738446263
100076.738446385
100076.738446525
100076.738446681
100076.738446851
100076.738447034
100076.738447227
100076.73844743
100076.738447642
100076.738447861
100076.738448085
100076.738448313
100076.738448545
100076.738448779
100076.738449014
100076.738449249
100076.738449483
100076.738449715
100076.738449944
100076.73845017
100076.738450391
100076.738450607
100076.738450817
100076.738451021
100076.738451219
100076.738451409
100076.738451592
100076.738451767
100076.738451934
100076.738452094
100076.738452246
100076.73845239
100076.738452527
100076.738452658
100076.738452785
100076.738452908
100076.738453029
100076.738453153
100076.738453267
100076.738453389
100076.738453472
100076.738453542
100076.736166469
100076.736166431
100076.736166402
100076.736166375
100076.736166383
100076.736166411
100076.736166468
100076.736166549
100076.736166651
100076.736166774
100076.736166914
100076.736167069
100076.736167238
100076.73616742
100076.736167613
100076.736167815
100076.736168025
100076.736168242
100076.736168465
100076.736168692
100076.736168922
100076.736169155
100076.736169388
100076.736169621
100076.736169853
100076.736170083
100076.73617031
100076.736170533
100076.736170752
100076.736170966
100076.736171174
100076.736171376
100076.736171571
100076.736171759
100076.73617194
100076.736172113
100076.736172278
100076.736172435
100076.736172585
100076.736172727
100076.736172863
100076.736172992
100076.736173117
100076.736173237
100076.736173353
100076.73617347
100076.736173576
100076.736173683
100076.736173754
100076.736173812
100076.733886811
100076.733886782
100076.733886763
100076.733886748
100076.733886764
100076.733886798
100076.733886859
100076.733886942
100076.733887045
100076.733887168
100076.733887308
100076.733887463
100076.733887631
100076.733887812
100076.733888004
100076.733888205
100076.733888414
100076.73388863
100076.733888851
100076.733889076
100076.733889305
100076.733889535
100076.733889767
100076.733889998
100076.733890227
100076.733890455
100076.73389068
100076.733890901
100076.733891118
100076.733891329
100076.733891535
100076.733891734
100076.733891927
100076.733892113
100076.733892291
100076.733892462
100076.733892625
100076.73389278
100076.733892928
100076.733893068
100076.733893201
100076.733893328
100076.73389345
100076.733893566
100076.733893678
100076.733893788
100076.733893886
100076.73389398
100076.733894043
100076.733894091
100076.731607165
100076.731607144
100076.731607133
100076.731607128
100076.73160715
100076.731607191
100076.731607255
100076.73160734
100076.731607444
100076.731607568
100076.731607708
100076.731607862
100076.73160803
100076.731608211
100076.731608401
100076.731608601
100076.731608809
100076.731609023
100076.731609243
100076.731609466
100076.731609693
100076.731609921
100076.731610151
100076.73161038
100076.731610607
100076.731610833
100076.731611055
100076.731611274
100076.731611488
100076.731611697
100076.7316119
100076.731612097
100076.731612288
100076.731612471
100076.731612647
100076.731612815
100076.731612976
100076.731613128
100076.731613274
100076.731613411
100076.731613542
100076.731613666
100076.731613785
100076.731613898
100076.731614005
100076.731614108
100076.731614199
100076.731614283
100076.731614338
100076.731614379
100076.729327531
100076.729327516
100076.72932751
100076.729327514
100076.729327543
100076.729327588
100076.729327656
100076.729327743
100076.72932785
100076.729327974
100076.729328114
100076.729328268
100076.729328436
100076.729328615
100076.729328805
100076.729329003
100076.72932921
100076.729329423
100076.72932964
100076.729329862
100076.729330087
100076.729330314
100076.729330541
100076.729330767
100076.729330993
100076.729331216
100076.729331436
100076.729331652
100076.729331864
100076.72933207
100076.729332271
100076.729332465
100076.729332653
100076.729332834
100076.729333007
100076.729333173
100076.729333331
100076.729333481
100076.729333623
100076.729333758
100076.729333886
100076.729334008
100076.729334123
100076.729334232
100076.729334334
100076.729334431
100076.729334515
100076.72933459
100076.729334639
100076.729334674
100076.727047907
100076.727047896
100076.727047897
100076.727047908
100076.727047941
100076.727047992
100076.727048063
100076.727048153
100076.727048261
100076.727048385
100076.727048526
100076.72704868
100076.727048847
100076.727049026
100076.727049214
100076.727049412
100076.727049617
100076.727049828
100076.727050044
100076.727050264
100076.727050487
100076.727050711
100076.727050936
100076.727051161
100076.727051384
100076.727051604
100076.727051822
100076.727052036
100076.727052245
100076.727052448
100076.727052646
100076.727052838
100076.727053023
100076.727053201
100076.727053372
100076.727053535
100076.72705369
100076.727053837
100076.727053977
100076.727054109
100076.727054234
100076.727054352
100076.727054464
100076.727054568
100076.727054666
100076.727054757
100076.727054835
100076.727054902
100076.727054946
100076.727054977
100076.724768292
100076.724768286
100076.72476829
100076.724768308
100076.724768346
100076.724768401
100076.724768476
100076.724768568
100076.724768677
100076.724768803
100076.724768944
100076.724769098
100076.724769265
100076.724769442
100076.72476963
100076.724769826
100076.72477003
100076.724770239
100076.724770454
100076.724770672
100076.724770893
100076.724771115
100076.724771337
100076.724771559
100076.72477178
100076.724771998
100076.724772213
100076.724772424
100076.72477263
100076.724772832
100076.724773027
100076.724773216
100076.724773398
100076.724773573
100076.724773741
100076.724773901
100076.724774053
100076.724774198
100076.724774335
100076.724774464
100076.724774586
100076.7247747
100076.724774808
100076.724774908
100076.724775002
100076.724775086
100076.724775159
100076.724775219
100076.724775259
100076.724775286
100076.722488686
100076.722488683
100076.722488692
100076.722488714
100076.722488757
100076.722488816
100076.722488894
100076.722488988
100076.722489099
100076.722489226
100076.722489367
100076.722489521
100076.722489687
100076.722489864
100076.722490051
100076.722490246
100076.722490448
100076.722490656
100076.722490869
100076.722491085
100076.722491304
100076.722491523
100076.722491744
100076.722491963
100076.722492181
100076.722492397
100076.722492609
100076.722492818
100076.722493021
100076.722493219
100076.722493412
100076.722493598
100076.722493777
100076.722493949
100076.722494114
100076.722494271
100076.722494421
100076.722494563
100076.722494696
100076.722494822
100076.722494941
100076.722495052
100076.722495156
100076.722495252
100076.72249534
100076.722495419
100076.722495486
100076.722495541
100076.722495577
100076.722495601
100076.720209087
100076.720209087
100076.720209099
100076.720209127
100076.720209173
100076.720209236
100076.720209317
100076.720209413
100076.720209526
100076.720209653
100076.720209795
100076.720209949
100076.720210115
100076.720210292
100076.720210477
100076.720210671
100076.720210872
100076.720211078
100076.720211289
100076.720211503
100076.720211719
100076.720211937
100076.720212155
100076.720212372
100076.720212587
100076.7202128
100076.72021301
100076.720213215
100076.720213416
100076.720213612
100076.720213801
100076.720213984
100076.720214161
100076.72021433
100076.720214492
100076.720214646
100076.720214792
100076.720214931
100076.720215061
100076.720215184
100076.720215299
100076.720215407
100076.720215506
100076.720215598
100076.720215682
100076.720215756
100076.720215818
100076.720215868
100076.720215899
100076.72021592
100076.717929494
100076.717929497
100076.717929513
100076.717929544
100076.717929594
100076.717929661
100076.717929744
100076.717929843
100076.717929957
100076.717930085
100076.717930227
100076.717930382
100076.717930547
100076.717930723
100076.717930908
100076.7179311
100076.717931299
100076.717931504
100076.717931713
100076.717931925
100076.717932139
100076.717932355
100076.71793257
100076.717932785
100076.717932997
100076.717933208
100076.717933414
100076.717933617
100076.717933815
100076.717934008
100076.717934194
100076.717934374
100076.717934548
100076.717934714
100076.717934873
100076.717935024
100076.717935167
100076.717935302
100076.71793543
100076.717935549
100076.717935661
100076.717935764
100076.71793586
100076.717935947
100076.717936026
100076.717936095
100076.717936153
100076.717936198
100076.717936226
100076.717936244
100076.715649907
100076.715649912
100076.715649931
100076.715649966
100076.71565002
100076.715650089
100076.715650175
100076.715650276
100076.715650392
100076.715650521
100076.715650663
100076.715650818
100076.715650983
100076.715651158
100076.715651342
100076.715651533
100076.715651731
100076.715651933
100076.715652141
100076.715652351
100076.715652563
100076.715652776
100076.715652989
100076.715653201
100076.715653411
100076.715653618
100076.715653823
100076.715654022
100076.715654217
100076.715654407
100076.715654591
100076.715654768
100076.715654938
100076.715655101
100076.715655257
100076.715655405
100076.715655545
100076.715655677
100076.715655801
100076.715655917
100076.715656024
100076.715656124
100076.715656216
100076.715656299
100076.715656373
100076.715656438
100076.715656491
100076.715656531
100076.715656556
100076.715656572
100076.713370324
100076.713370332
100076.713370353
100076.713370392
100076.713370448
100076.713370521
100076.713370609
100076.713370712
100076.713370829
100076.71337096
100076.713371102
100076.713371257
100076.713371422
100076.713371596
100076.713371779
100076.713371969
100076.713372165
100076.713372366
100076.713372571
100076.713372779
100076.713372989
100076.7133732
100076.71337341
100076.71337362
100076.713373827
100076.713374032
100076.713374233
100076.71337443
100076.713374622
100076.713374809
100076.713374989
100076.713375164
100076.713375331
100076.713375491
100076.713375643
100076.713375788
100076.713375925
100076.713376053
100076.713376174
100076.713376286
100076.71337639
100076.713376486
100076.713376574
100076.713376653
100076.713376723
100076.713376783
100076.713376831
100076.713376868
100076.713376889
100076.713376902
100076.711090744
100076.711090754
100076.711090779
100076.71109082
100076.71109088
100076.711090955
100076.711091045
100076.71109115
100076.711091269
100076.7110914
100076.711091543
100076.711091698
100076.711091862
100076.711092036
100076.711092218
100076.711092407
100076.711092601
100076.711092801
100076.711093004
100076.71109321
100076.711093418
100076.711093626
100076.711093834
100076.711094041
100076.711094246
100076.711094448
100076.711094646
100076.71109484
100076.711095029
100076.711095213
100076.71109539
100076.711095561
100076.711095725
100076.711095882
100076.711096031
100076.711096173
100076.711096306
100076.711096432
100076.711096549
100076.711096657
100076.711096758
100076.71109685
100076.711096933
100076.711097008
100076.711097074
100076.71109713
100076.711097174
100076.711097206
100076.711097225
100076.711097236
100076.708811166
100076.708811179
100076.708811206
100076.708811251
100076.708811313
100076.70881139
100076.708811483
100076.70881159
100076.70881171
100076.708811842
100076.708811986
100076.70881214
100076.708812304
100076.708812477
100076.708812658
100076.708812846
100076.708813039
100076.708813237
100076.708813438
100076.708813642
100076.708813847
100076.708814053
100076.708814259
100076.708814463
100076.708814665
100076.708814865
100076.70881506
100076.708815251
100076.708815437
100076.708815618
100076.708815792
100076.70881596
100076.708816121
100076.708816275
100076.708816421
100076.708816559
100076.708816689
100076.708816811
100076.708816924
100076.70881703
100076.708817126
100076.708817215
100076.708817294
100076.708817365
100076.708817426
100076.708817477
100076.708817518
100076.708817547
100076.708817562
100076.70881757
100076.70653159
100076.706531605
100076.706531635
100076.706531682
100076.706531746
100076.706531827
100076.706531922
100076.70653203
100076.706532151
100076.706532284
100076.706532428
100076.706532583
100076.706532747
100076.706532919
100076.706533099
100076.706533285
100076.706533477
100076.706533673
100076.706533873
100076.706534074
100076.706534278
100076.706534481
100076.706534684
100076.706534886
100076.706535086
100076.706535282
100076.706535475
100076.706535663
100076.706535846
100076.706536024
100076.706536195
100076.70653636
100076.706536518
100076.706536668
100076.706536811
100076.706536946
100076.706537072
100076.706537191
100076.706537301
100076.706537402
100076.706537495
100076.70653758
100076.706537655
100076.706537722
100076.706537779
100076.706537826
100076.706537863
100076.706537888
100076.7065379
100076.706537906
100076.704252014
100076.704252031
100076.704252063
100076.704252113
100076.70425218
100076.704252263
100076.70425236
100076.70425247
100076.704252592
100076.704252726
100076.704252871
100076.704253025
100076.704253189
100076.704253361
100076.70425354
100076.704253725
100076.704253915
100076.704254109
100076.704254307
100076.704254507
100076.704254708
100076.704254909
100076.70425511
100076.704255309
100076.704255505
100076.704255699
100076.704255889
100076.704256074
100076.704256255
100076.704256429
100076.704256597
100076.704256759
100076.704256914
100076.704257061
100076.7042572
100076.704257332
100076.704257455
100076.70425757
100076.704257677
100076.704257775
100076.704257864
100076.704257945
100076.704258016
100076.704258079
100076.704258132
100076.704258175
100076.704258208
100076.704258229
100076.704258239
100076.704258242
100076.701972437
100076.701972456
100076.701972491
100076.701972543
100076.701972613
100076.701972698
100076.701972797
100076.701972908
100076.701973032
100076.701973167
100076.701973312
100076.701973466
100076.70197363
100076.701973801
100076.701973979
100076.701974163
100076.701974351
100076.701974544
100076.70197474
100076.701974938
100076.701975137
100076.701975336
100076.701975534
100076.70197573
100076.701975924
100076.701976115
100076.701976302
100076.701976485
100076.701976662
100076.701976834
100076.701976999
100076.701977158
100076.701977309
100076.701977453
100076.701977589
100076.701977718
100076.701977838
100076.701977949
100076.701978053
100076.701978147
100076.701978233
100076.701978309
100076.701978377
100076.701978435
100076.701978485
100076.701978524
100076.701978553
100076.70197857
100076.701978577
100076.701978578
100076.699692858
100076.699692879
100076.699692917
100076.699692972
100076.699693043
100076.69969313
100076.699693231
100076.699693345
100076.69969347
100076.699693605
100076.699693751
100076.699693905
100076.699694068
100076.699694239
100076.699694416
100076.699694599
100076.699694786
100076.699694977
100076.699695171
100076.699695367
100076.699695564
100076.69969576
100076.699695956
100076.69969615
100076.699696342
100076.69969653
100076.699696714
100076.699696894
100076.699697068
100076.699697237
100076.699697399
100076.699697555
100076.699697703
100076.699697844
100076.699697977
100076.699698102
100076.699698219
100076.699698327
100076.699698427
100076.699698518
100076.6996986
100076.699698673
100076.699698736
100076.699698791
100076.699698836
100076.699698871
100076.699698897
100076.699698911
100076.699698915
100076.699698913
100076.697413276
100076.6974133
100076.697413339
100076.697413398
100076.697413471
100076.697413561
100076.697413663
100076.697413778
100076.697413904
100076.697414041
100076.697414187
100076.697414341
100076.697414504
100076.697414674
100076.69741485
100076.697415032
100076.697415218
100076.697415407
100076.6974156
100076.697415793
100076.697415988
100076.697416182
100076.697416376
100076.697416567
100076.697416756
100076.697416942
100076.697417123
100076.6974173
100076.697417472
100076.697417638
100076.697417797
100076.697417949
100076.697418095
100076.697418233
100076.697418363
100076.697418484
100076.697418598
100076.697418703
100076.697418799
100076.697418886
100076.697418965
100076.697419034
100076.697419094
100076.697419145
100076.697419186
100076.697419217
100076.697419239
100076.69741925
100076.69741925
100076.697419246
100076.69513369
100076.695133717
100076.695133759
100076.69513382
100076.695133896
100076.695133987
100076.695134092
100076.695134208
100076.695134335
100076.695134473
100076.695134619
100076.695134774
100076.695134936
100076.695135105
100076.695135281
100076.695135461
100076.695135646
100076.695135834
100076.695136024
100076.695136216
100076.695136409
100076.695136601
100076.695136792
100076.695136981
100076.695137168
100076.695137351
100076.69513753
100076.695137704
100076.695137873
100076.695138035
100076.695138192
100076.695138341
100076.695138484
100076.695138619
100076.695138745
100076.695138864
100076.695138974
100076.695139076
100076.695139169
100076.695139253
100076.695139328
100076.695139393
100076.695139449
100076.695139496
100076.695139534
100076.695139561
100076.69513958
100076.695139586
100076.695139584
100076.695139578
100076.6928541
100076.692854129
100076.692854174
100076.692854238
100076.692854316
100076.69285441
100076.692854516
100076.692854634
100076.692854762
100076.6928549
100076.692855047
100076.692855202
100076.692855364
100076.692855533
100076.692855707
100076.692855886
100076.69285607
100076.692856256
100076.692856445
100076.692856635
100076.692856826
100076.692857016
100076.692857205
100076.692857391
100076.692857575
100076.692857756
100076.692857932
100076.692858104
100076.69285827
100076.69285843
100076.692858583
100076.69285873
100076.692858869
100076.692859001
100076.692859125
100076.692859241
100076.692859348
100076.692859446
100076.692859536
100076.692859616
100076.692859688
100076.69285975
100076.692859802
100076.692859845
100076.692859879
100076.692859903
100076.692859918
100076.692859921
100076.692859915
100076.692859906
100076.690574504
100076.690574536
100076.690574583
100076.69057465
100076.690574731
100076.690574827
100076.690574935
100076.690575054
100076.690575184
100076.690575322
100076.690575469
100076.690575624
100076.690575786
100076.690575954
100076.690576128
100076.690576307
100076.690576489
100076.690576674
100076.690576861
100076.690577049
100076.690577238
100076.690577426
100076.690577612
100076.690577797
100076.690577978
100076.690578156
100076.69057833
100076.690578499
100076.690578662
100076.69057882
100076.690578971
100076.690579115
100076.690579251
100076.69057938
100076.690579501
100076.690579613
100076.690579717
100076.690579813
100076.690579899
100076.690579976
100076.690580044
100076.690580103
100076.690580152
100076.690580191
100076.690580222
100076.690580242
100076.690580253
100076.690580252
100076.690580243
100076.690580231
100076.688294902
100076.688294937
100076.688294987
100076.688295057
100076.68829514
100076.688295238
100076.688295348
100076.688295469
100076.688295599
100076.688295739
100076.688295886
100076.688296041
100076.688296203
100076.688296371
100076.688296544
100076.688296721
100076.688296902
100076.688297086
100076.688297271
100076.688297458
100076.688297644
100076.68829783
100076.688298015
100076.688298197
100076.688298376
100076.688298552
100076.688298723
100076.68829889
100076.68829905
100076.688299205
100076.688299353
100076.688299495
100076.688299628
100076.688299754
100076.688299872
100076.688299982