/*--------------------------------*- C++ -*----------------------------------*\
  =========                 |
  \\      /  F ield         | OpenFOAM: The Open Source CFD Toolbox
   \\    /   O peration     | Website:  https://openfoam.org
    \\  /    A nd           | Version:  10
     \\/     M anipulation  |
\*---------------------------------------------------------------------------*/
FoamFile
{
    format      ascii;
    class       volScalarField;
    location    "3.4";
    object      p_rgh;
}
// * * * * * * * * * * * * * * * * * * * * * * * * * * * * * * * * * * * * * //

dimensions      [1 -1 -2 0 0 0 0];

internalField   nonuniform List<scalar> 
2500
(
76.8789321497607
76.8789438588137
76.8789533640229
76.8789580497833
76.8789600503806
76.8789609185478
76.8789613318368
76.8789615610731
76.8789617289731
76.8789618818992
76.8789620381431
76.8789622038894
76.8789623809425
76.8789625697391
76.8789627694787
76.8789629792736
76.8789631977124
76.8789634238783
76.8789636565052
76.878963894269
76.8789641359472
76.8789643803902
76.8789646264486
76.8789648728998
76.8789651188272
76.8789653632266
76.8789656051085
76.8789658436872
76.8789660781331
76.8789663077332
76.8789665318327
76.8789667498349
76.8789669611142
76.8789671651903
76.8789673616411
76.8789675499429
76.8789677295426
76.8789678998291
76.8789680596383
76.8789682074566
76.878968339719
76.8789684478397
76.8789685120719
76.8789684838994
76.8789682390343
76.8789675137086
76.878965635231
76.8789610282256
76.8789514298551
76.87893989039
76.8795564537722
76.8795897797245
76.8796150249109
76.879627733666
76.8796334544895
76.8796359478729
76.879637027334
76.8796375096281
76.8796377663093
76.8796379483392
76.8796381133143
76.8796382816217
76.8796384594461
76.8796386484173
76.8796388481715
76.87963905785
76.8796392763034
76.8796395023965
76.8796397349215
76.8796399725834
76.8796402142034
76.8796404585883
76.8796407045447
76.8796409509087
76.8796411967196
76.8796414409881
76.8796416827681
76.8796419211867
76.8796421555307
76.8796423849708
76.8796426089102
76.8796428268106
76.879643037857
76.8796432416857
76.8796434379474
76.8796436260454
76.8796438053687
76.8796439751604
76.8796441338927
76.8796442783205
76.8796443998435
76.8796444749023
76.8796444425825
76.8796441501618
76.8796432305971
76.8796408883354
76.8796353268262
76.8796226937848
76.8795970359206
76.8795639379387
76.8800991617609
76.8801402909885
76.8801696172741
76.8801842492394
76.8801907993184
76.880193632649
76.8801948475884
76.8801953806978
76.8801956551761
76.8801958429976
76.8801960097044
76.8801961785211
76.8801963565056
76.8801965455204
76.8801967452891
76.8801969549531
76.8801971733628
76.8801973993977
76.8801976318209
76.8801978693809
76.8801981108554
76.8801983550802
76.8801986008912
76.880198847095
76.8801990927022
76.880199336767
76.8801995782851
76.8801998164708
76.880200050553
76.8802002797165
76.8802005033795
76.8802007209597
76.880200931686
76.88020113518
76.880201331136
76.8802015189285
76.8802016978734
76.8802018672577
76.880202025568
76.8802021692827
76.8802022890013
76.8802023584722
76.8802023090539
76.8802019676223
76.8802009160427
76.8801982371369
76.8801918390673
76.8801772220904
76.880147265183
76.8801055258955
76.8804824857361
76.8805173183355
76.8805393987423
76.8805500275776
76.8805545893993
76.880556498043
76.8805573176505
76.8805576952145
76.8805579131586
76.8805580818007
76.8805582423083
76.8805584091897
76.8805585866066
76.8805587754032
76.8805589750409
76.880559184603
76.8805594029109
76.8805596287857
76.8805598610052
76.8805600983178
76.8805603395303
76.8805605834204
76.8805608288822
76.8805610747513
76.8805613199802
76.8805615636229
76.8805618047336
76.8805620424537
76.880562276041
76.8805625047389
76.8805627279216
76.8805629449635
76.8805631552241
76.8805633582379
76.880563553641
76.8805637408659
76.8805639193888
76.8805640885257
76.8805642471416
76.8805643928936
76.8805645198299
76.8805646113178
76.8805646240507
76.8805644466629
76.880563797793
76.8805620382482
76.8805575953156
76.8805469328363
76.8805242538801
76.8804881772376
76.8807114640658
76.8807346650574
76.8807478072413
76.8807539009722
76.8807564271992
76.8807574601815
76.8807579229178
76.8807581635047
76.8807583318412
76.8807584833849
76.8807586381154
76.8807588030177
76.880758979707
76.8807591681543
76.8807593675447
76.880759576874
76.8807597949344
76.8807600205182
76.8807602523884
76.8807604893227
76.8807607300987
76.8807609735377
76.8807612184755
76.8807614637917
76.8807617084531
76.8807619514846
76.8807621919696
76.8807624290639
76.8807626619819
76.8807628899958
76.8807631124509
76.8807633287652
76.8807635383273
76.8807637406571
76.8807639353327
76.8807641218591
76.8807642997708
76.8807644685294
76.8807646273053
76.8807647747308
76.8807649076916
76.8807650176168
76.8807650830422
76.8807650476811
76.8807647608046
76.8807638766011
76.880761460372
76.880755350081
76.8807417686767
76.8807172736997
76.8808308712032
76.8808438197011
76.8808504014451
76.8808533231058
76.8808545052743
76.8808549858222
76.8808552286937
76.8808553850977
76.8808555222349
76.8808556624572
76.8808558129822
76.880855976211
76.8808561521146
76.8808563400962
76.8808565391373
76.8808567480737
76.8808569657413
76.880857190903
76.880857422293
76.8808576586889
76.8808578988828
76.880858141667
76.8808583859209
76.880858630524
76.8808588744432
76.880859116689
76.880859356359
76.8808595926239
76.8808598246687
76.880860051795
76.8808602733334
76.8808604887308
76.8808606973762
76.8808608988184
76.8808610926208
76.8808612782886
76.8808614554437
76.8808616236201
76.8808617823088
76.8808619307092
76.8808620674536
76.8808621888165
76.8808622862853
76.8808623367659
76.8808622716315
76.8808619404444
76.880860870413
76.880857971264
76.8808511325333
76.8808372092899
76.8808865192404
76.8808927905629
76.880895650509
76.8808968380617
76.8808973134001
76.8808975116262
76.8808976424189
76.8808977550361
76.8808978749585
76.8808980082831
76.8808981558541
76.8808983176277
76.8808984927164
76.8808986801159
76.8808988786332
76.8808990870602
76.8808993042039
76.8808995287836
76.8808997595188
76.8808999952307
76.8809002346825
76.8809004766663
76.8809007200762
76.8809009637771
76.880901206765
76.8809014480357
76.8809016867162
76.8809019219334
76.8809021529305
76.8809023789654
76.8809025994269
76.8809028137039
76.8809030212724
76.8809032216232
76.8809034143342
76.8809035990125
76.8809037752653
76.8809039427433
76.8809041010973
76.8809042499488
76.8809043888468
76.8809045166126
76.8809046311071
76.8809047254763
76.8809047724644
76.8809047233372
76.8809043625661
76.8809032282297
76.8809002515918
76.8808933883265
76.880910093445
76.8809127747954
76.8809138568904
76.8809142455866
76.8809144040715
76.8809144779079
76.8809145580599
76.8809146498534
76.8809147606225
76.8809148896835
76.8809150350571
76.8809151955502
76.8809153697948
76.8809155564813
76.8809157543728
76.8809159621742
76.8809161786485
76.8809164025006
76.8809166324645
76.8809168673324
76.8809171058674
76.8809173469053
76.8809175892966
76.8809178319352
76.8809180738026
76.8809183139238
76.880918551411
76.8809187854204
76.880919015166
76.8809192399494
76.8809194591158
76.8809196721122
76.8809198783856
76.8809200774704
76.880920268959
76.8809204524732
76.8809206276783
76.8809207942977
76.8809209521132
76.880921101023
76.8809212410706
76.8809213722852
76.8809214953653
76.8809216100926
76.8809217072703
76.8809217817761
76.8809217384114
76.8809214196226
76.8809203056589
76.8809173211775
76.8809192783956
76.8809202868288
76.8809206261358
76.8809206974256
76.8809207327868
76.8809207591694
76.8809208185558
76.8809209009778
76.8809210068284
76.8809211331536
76.8809212768247
76.8809214361681
76.8809216095106
76.8809217954258
76.8809219925752
76.8809221996344
76.8809224153083
76.8809226383019
76.8809228673636
76.8809231012419
76.8809233387292
76.8809235786321
76.8809238198446
76.8809240612463
76.8809243018331
76.8809245406446
76.880924776764
76.8809250093764
76.8809252376959
76.8809254610387
76.8809256787499
76.8809258902766
76.8809260950802
76.8809262927389
76.8809264828305
76.880926665006
76.8809268390178
76.8809270046186
76.8809271616774
76.8809273102961
76.8809274508239
76.8809275837993
76.8809277110122
76.8809278344852
76.8809279519337
76.8809280731948
76.880928152561
76.8809281583235
76.8809278301633
76.8809266900644
76.8809225884906
76.8809229056351
76.8809229711478
76.8809229370527
76.8809229329636
76.8809229453182
76.8809229972976
76.8809230758634
76.8809231790947
76.8809233035572
76.880923445904
76.8809236041998
76.8809237766691
76.8809239617694
76.8809241581039
76.8809243643191
76.8809245790908
76.8809248011094
76.8809250291379
76.8809252618812
76.8809254981752
76.8809257368121
76.8809259766858
76.8809262167051
76.8809264558513
76.8809266931785
76.8809269277699
76.8809271588107
76.8809273855441
76.880927607257
76.880927823353
76.8809280332353
76.8809282364236
76.880928432467
76.8809286210017
76.8809288016928
76.8809289742931
76.8809291386569
76.8809292947699
76.880929442792
76.8809295832179
76.8809297168482
76.8809298457927
76.8809299724089
76.8809300967987
76.8809302315494
76.8809303499002
76.8809304634924
76.8809304281021
76.8809300659341
76.8809236866655
76.8809237498499
76.8809237295791
76.8809236724483
76.8809236613015
76.8809236729576
76.8809237234382
76.8809238008689
76.8809239028051
76.8809240260744
76.8809241674026
76.8809243247815
76.8809244963923
76.8809246806632
76.8809248761245
76.8809250814083
76.880925295176
76.8809255161177
76.8809257429821
76.8809259744885
76.8809262094437
76.8809264466836
76.8809266850876
76.8809269235644
76.8809271611244
76.8809273967927
76.8809276297106
76.8809278590197
76.8809280840069
76.8809283039445
76.880928518236
76.8809287263284
76.8809289277415
76.8809291220095
76.8809293088125
76.8809294878447
76.8809296588734
76.8809298218257
76.8809299767308
76.880930123807
76.880930263651
76.8809303971211
76.8809305262985
76.8809306532057
76.880930778585
76.8809309135686
76.8809310386714
76.8809311759396
76.8809312338999
76.8809311644436
76.8809240126429
76.8809239957773
76.8809239572438
76.8809239050606
76.8809238980466
76.8809239140537
76.8809239656548
76.8809240434493
76.8809241449781
76.8809242675634
76.880924408164
76.8809245647572
76.8809247355675
76.8809249189799
76.8809251135244
76.8809253178042
76.8809255304805
76.8809257502435
76.8809259758273
76.8809262059658
76.8809264394804
76.8809266751923
76.8809269119811
76.8809271487844
76.8809273845982
76.8809276184911
76.880927849561
76.8809280770074
76.8809283000883
76.8809285181051
76.8809287304612
76.8809289366036
76.8809291360521
76.8809293284139
76.8809295133251
76.8809296905092
76.8809298598062
76.8809300211433
76.8809301745787
76.8809303204034
76.880930459185
76.8809305918112
76.8809307201591
76.8809308457421
76.8809309694043
76.8809310995857
76.8809312203957
76.8809313527599
76.8809314318205
76.8809314582759
76.8809240907722
76.8809240559203
76.8809240203991
76.8809239807306
76.8809239810653
76.8809240030823
76.8809240571136
76.8809241361159
76.8809242378775
76.8809243602154
76.8809245002922
76.8809246562596
76.8809248263133
76.8809250088671
76.8809252024657
76.8809254056978
76.8809256172244
76.8809258357214
76.8809260599373
76.8809262886061
76.8809265205491
76.8809267546021
76.8809269896592
76.8809272246581
76.8809274586092
76.8809276905813
76.8809279196867
76.8809281451249
76.880928366154
76.8809285821044
76.880928792365
76.8809289964265
76.8809291937941
76.8809293840604
76.8809295669344
76.8809297421249
76.880929909501
76.88093006899
76.8809302207228
76.8809303649614
76.8809305022733
76.8809306334733
76.8809307601769
76.880930883417
76.880931003936
76.8809311275836
76.8809312408848
76.8809313606325
76.8809314378595
76.880931488442
76.8809240997216
76.880924066325
76.880924039011
76.8809240124974
76.8809240206319
76.8809240490227
76.8809241061099
76.880924186873
76.8809242893476
76.8809244117292
76.880924551544
76.8809247069876
76.8809248763573
76.8809250580816
76.8809252507199
76.880925452846
76.8809256631503
76.8809258803085
76.8809261030547
76.8809263301664
76.8809265604359
76.8809267927281
76.8809270259371
76.8809272590152
76.8809274909872
76.8809277209075
76.8809279479174
76.8809281712165
76.8809283900628
76.8809286038158
76.8809288118646
76.8809290136851
76.8809292088263
76.8809293968807
76.8809295775427
76.8809297505941
76.8809299158747
76.880930073341
76.8809302231093
76.8809303654562
76.8809305009054
76.88093063017
76.880930754618
76.8809308748314
76.8809309914213
76.8809311080258
76.8809312133671
76.8809313197999
76.8809313894453
76.8809314410028
76.8809240965638
76.8809240693372
76.8809240504634
76.8809240357659
76.8809240512637
76.8809240858536
76.8809241463314
76.8809242291754
76.8809243326978
76.8809244554286
76.8809245951416
76.8809247501922
76.8809249189362
76.8809250998456
76.8809252914943
76.8809254924854
76.8809257015091
76.8809259172558
76.8809261384595
76.8809263639123
76.880926592421
76.8809268228651
76.8809270541242
76.8809272851795
76.8809275150415
76.8809277427936
76.8809279675916
76.8809281886352
76.8809284051822
76.880928616607
76.8809288223129
76.880929021776
76.8809292145597
76.8809294002567
76.8809295785904
76.8809297493281
76.8809299123241
76.8809300675639
76.8809302151349
76.8809303553135
76.8809304885654
76.8809306155017
76.8809307371848
76.8809308538766
76.8809309660865
76.8809310757351
76.8809311734076
76.8809312678204
76.880931329506
76.8809313760285
76.8809240981936
76.8809240774135
76.880924065932
76.8809240613627
76.8809240835399
76.8809241239796
76.8809241879499
76.880924273064
76.8809243778815
76.8809245011507
76.8809246409364
76.880924795696
76.880924963858
76.8809251439816
76.8809253346408
76.8809255344677
76.8809257421672
76.8809259564296
76.8809261760325
76.8809263997537
76.8809266264143
76.8809268548939
76.8809270841157
76.8809273130319
76.8809275406966
76.8809277661931
76.8809279886627
76.8809282073198
76.8809284214803
76.880928630475
76.880928833707
76.8809290306963
76.8809292209917
76.8809294042148
76.8809295800747
76.8809297483531
76.8809299089189
76.8809300617431
76.880930206913
76.880930344676
76.880930475425
76.8809305996401
76.8809307181946
76.8809308310592
76.8809309385979
76.8809310415381
76.8809311320947
76.8809312161466
76.8809312708181
76.8809313115489
76.8809241088893
76.8809240937844
76.8809240885748
76.8809240925621
76.8809241207637
76.8809241665731
76.8809242340358
76.8809243215219
76.88092442778
76.8809245517623
76.8809246917372
76.8809248462785
76.8809250139311
76.8809251932689
76.8809253829386
76.8809255815868
76.8809257879038
76.8809260006528
76.8809262185823
76.880926440499
76.8809266652388
76.8809268916812
76.8809271187638
76.8809273454681
76.8809275708481
76.8809277939727
76.8809280140267
76.8809282302245
76.8809284418676
76.8809286483156
76.8809288489865
76.8809290433855
76.8809292310907
76.8809294117091
76.8809295849787
76.8809297506668
76.8809299086424
76.8809300588764
76.8809302014561
76.8809303365706
76.8809304645401
76.8809305857721
76.8809307008923
76.880930809697
76.8809309124481
76.8809310089855
76.8809310929792
76.8809311681543
76.8809312168887
76.8809312524245
76.8809241292329
76.8809241188865
76.8809241190174
76.880924130237
76.8809241638373
76.8809242145362
76.8809242854331
76.8809243753058
76.8809244831064
76.880924607889
76.8809247481549
76.8809249025653
76.8809250697377
76.8809252483188
76.8809254369844
76.8809256344248
76.8809258393594
76.8809260505368
76.8809262667346
76.8809264867887
76.8809267095348
76.8809269338672
76.8809271587525
76.8809273831575
76.8809276061511
76.8809278268309
76.8809280443675
76.8809282580041
76.8809284670569
76.8809286708711
76.880928868879
76.8809290606005
76.880929245599
76.8809294235107
76.8809295940591
76.880929757026
76.880929912295
76.8809300597932
76.8809301995934
76.8809303318558
76.8809304568422
76.8809305748437
76.8809306863113
76.8809307909396
76.8809308888449
76.8809309793287
76.8809310572396
76.8809311247751
76.8809311684308
76.8809311995428
76.8809241586569
76.8809241523995
76.8809241571144
76.8809241745039
76.8809242129355
76.8809242681164
76.8809243422875
76.8809244345321
76.8809245439188
76.8809246696037
76.8809248102189
76.8809249645419
76.8809251312778
76.8809253091313
76.8809254967928
76.8809256930108
76.8809258965048
76.8809261060815
76.8809263205185
76.8809265386371
76.8809267593315
76.8809269815101
76.8809272041108
76.8809274261439
76.8809276466782
76.8809278648405
76.8809280798014
76.8809282908041
76.8809284971649
76.8809286982578
76.8809288935154
76.8809290824574
76.880929264662
76.8809294397797
76.8809296075051
76.8809297676344
76.8809299200366
76.8809300646535
76.8809302015288
76.8809303307644
76.8809304525639
76.8809305671457
76.8809306748153
76.8809307751799
76.8809308682539
76.8809309530043
76.8809310252836
76.8809310861834
76.8809311253717
76.8809311527148
76.8809241963172
76.8809241935523
76.8809242023272
76.8809242250281
76.8809242677962
76.8809243270662
76.8809244043659
76.8809244989097
76.8809246098972
76.8809247365134
76.880924877536
76.88092503183
76.8809251981584
76.8809253752843
76.8809255619562
76.8809257569374
76.8809259589907
76.880926166923
76.8809263795411
76.8809265957098
76.8809268142941
76.8809270342463
76.8809272545186
76.8809274741216
76.8809276921384
76.8809279077104
76.8809281200229
76.8809283283044
76.8809285319148
76.8809287302138
76.8809289226483
76.8809291087382
76.8809292880615
76.8809294602688
76.8809296250838
76.8809297822881
76.8809299317218
76.880930073341
76.8809302071459
76.8809303332091
76.8809304516762
76.8809305627074
76.880930666448
76.8809307625197
76.8809308507916
76.8809309301287
76.8809309971402
76.880931052161
76.8809310873621
76.8809311113582
76.8809242412826
76.8809242416464
76.8809242540301
76.8809242813586
76.8809243280411
76.8809243910364
76.8809244713048
76.880924568075
76.8809246806486
76.8809248082252
76.8809249496844
76.8809251039784
76.8809252699284
76.8809254463267
76.8809256320092
76.8809258257388
76.8809260263224
76.8809262325958
76.8809264433658
76.8809266575408
76.880926873986
76.8809270916681
76.880927309554
76.8809275266685
76.8809277421242
76.8809279550478
76.880928164639
76.8809283701703
76.8809285709576
76.8809287663898
76.8809289559285
76.880929139108
76.8809293154773
76.880929484716
76.8809296465333
76.8809298006963
76.880929947074
76.8809300855792
76.8809302161972
76.8809303389717
76.88093045399
76.8809305613395
76.8809306610929
76.8809307528427
76.8809308364143
76.8809309106146
76.8809309726494
76.8809310223878
76.8809310539364
76.8809310749348
76.8809242924908
76.8809242956777
76.8809243113647
76.8809243427822
76.88092439303
76.8809244594449
76.8809245425073
76.8809246414312
76.8809247555473
76.8809248840844
76.8809250260092
76.8809251803177
76.880925345904
76.8809255216038
76.8809257062967
76.8809258987749
76.8809260978742
76.8809263024596
76.8809265113814
76.8809267235192
76.8809269377816
76.88092715315
76.8809273686202
76.8809275832173
76.8809277960681
76.8809280062997
76.880928213126
76.8809284158342
76.8809286137548
76.8809288062766
76.8809289928759
76.8809291730577
76.8809293464146
76.8809295126121
76.8809296713589
76.8809298224223
76.8809299656714
76.8809301009751
76.8809302283044
76.8809303476883
76.8809304591559
76.880930562751
76.8809306584735
76.880930745916
76.8809308248601
76.8809308941418
76.8809309515054
76.8809309964272
76.8809310245415
76.8809310427459
76.8809243489668
76.880924354773
76.8809243735304
76.8809244086151
76.8809244621225
76.8809245316806
76.8809246173769
76.8809247183526
76.8809248339967
76.8809249634942
76.8809251058847
76.8809252602223
76.8809254254447
76.8809256004752
76.880925784164
76.8809259753907
76.8809261730203
76.8809263759031
76.8809265829332
76.8809267930192
76.8809270050988
76.8809272181388
76.8809274311498
76.8809276431857
76.8809278533881
76.8809280608839
76.8809282649308
76.8809284647723
76.8809286597825
76.8809288493503
76.8809290329518
76.8809292101068
76.8809293804079
76.8809295435058
76.880929699124
76.8809298470151
76.8809299870336
76.8809301190486
76.8809302430309
76.8809303589369
76.8809304667957
76.8809305665782
76.8809306582407
76.8809307414194
76.8809308158379
76.8809308804048
76.8809309333155
76.8809309737699
76.8809309986245
76.8809310142096
76.8809244096337
76.8809244179138
76.8809244395234
76.8809244779695
76.8809245344746
76.8809246069577
76.8809246951569
76.8809247980971
76.8809249151964
76.8809250456397
76.8809251884959
76.8809253428772
76.8809255077649
76.8809256821114
76.8809258648253
76.8809260548005
76.8809262509312
76.8809264521115
76.8809266572498
76.8809268652694
76.8809270751372
76.8809272858198
76.8809274963569
76.8809277058172
76.880927913342
76.880928118102
76.8809283193114
76.8809285162715
76.8809287083423
76.8809288949269
76.8809290754871
76.8809292495862
76.8809294167731
76.8809295767423
76.8809297291737
76.8809298738488
76.8809300105931
76.8809301392903
76.8809302598384
76.8809303722082
76.8809304763854
76.8809305723116
76.8809306599287
76.8809307388583
76.8809308088385
76.8809308688797
76.8809309175267
76.8809309537901
76.8809309755015
76.8809309885546
76.880924473473
76.8809244840959
76.8809245084558
76.8809245500015
76.8809246093151
76.880924684534
76.880924775076
76.880924879908
76.8809249984479
76.8809251297935
76.8809252731153
76.8809254275402
76.8809255921078
76.8809257657849
76.8809259475238
76.8809261362476
76.880926330894
76.8809265303862
76.8809267336183
76.8809269395715
76.8809271471982
76.8809273555235
76.8809275635867
76.8809277704568
76.8809279752895
76.8809281772847
76.8809283756564
76.8809285697062
76.8809287588083
76.8809289423953
76.8809291198995
76.8809292908991
76.8809294549719
76.8809296117543
76.8809297609841
76.8809299024142
76.8809300358407
76.8809301611473
76.880930278232
76.8809303870221
76.8809304874885
76.8809305795585
76.8809306631156
76.8809307378542
76.8809308034979
76.880930859159
76.8809309037024
76.8809309359931
76.8809309546341
76.8809309652279
76.8809245394223
76.8809245523153
76.8809245793091
76.8809246237506
76.8809246856981
76.8809247635072
76.8809248563048
76.8809249629267
76.8809250828199
76.8809252150677
76.8809253588552
76.8809255133237
76.8809256775567
76.8809258505644
76.8809260313428
76.8809262188443
76.8809264120209
76.880926609796
76.8809268111363
76.8809270150232
76.8809272204235
76.8809274263913
76.8809276319662
76.880927836246
76.8809280383866
76.8809282376023
76.8809284331219
76.8809286242758
76.8809288104094
76.8809289909696
76.8809291654179
76.8809293333034
76.880929494233
76.880929647843
76.8809297938424
76.8809299319837
76.8809300620778
76.8809301839792
76.8809302975715
76.8809304027673
76.8809304994938
76.8809305877076
76.8809306672338
76.8809307378251
76.8809307992051
76.8809308506025
76.8809308912023
76.8809309196513
76.8809309352946
76.8809309434728
76.8809246064193
76.8809246215533
76.8809246511082
76.8809246983583
76.8809247627942
76.8809248430625
76.8809249379992
76.8809250463673
76.8809251675702
76.8809253007057
76.8809254449443
76.8809255994565
76.8809257633693
76.8809259357367
76.8809261155693
76.8809263018484
76.8809264935553
76.8809266896424
76.8809268891055
76.880927090926
76.8809272941144
76.8809274977248
76.8809277008113
76.8809279025008
76.8809281019639
76.8809282984002
76.8809284910822
76.8809286793257
76.8809288625052
76.8809290400386
76.8809292114311
76.8809293762024
76.8809295339743
76.8809296843829
76.8809298271372
76.8809299619898
76.8809300887369
76.8809302072041
76.8809303172893
76.8809304188762
76.8809305118921
76.8809305962495
76.880930671774
76.8809307382762
76.8809307954798
76.8809308427299
76.8809308794735
76.8809309042117
76.8809309168573
76.880930922649
76.8809246734309
76.8809246907767
76.8809247228492
76.8809247728204
76.8809248396719
76.8809249222977
76.8809250192862
76.8809251293278
76.8809252518113
76.8809253857762
76.8809255304513
76.8809256850218
76.880925848629
76.8809260203561
76.8809261992428
76.8809263843141
76.8809265745658
76.8809267689794
76.8809269665799
76.8809271663631
76.8809273673542
76.8809275686071
76.8809277692344
76.8809279683628
76.8809281651484
76.8809283588344
76.8809285486932
76.8809287340409
76.8809289142519
76.8809290887875
76.8809292571241
76.8809294188104
76.8809295734245
76.8809297206608
76.88092986017
76.8809299917339
76.8809301151196
76.880930230167
76.8809303367452
76.8809304347378
76.8809305240284
76.8809306045587
76.880930676125
76.8809307385964
76.8809307917109
76.8809308349009
76.8809308678901
76.8809308889468
76.8809308986529
76.8809309020435
76.8809247394674
76.8809247590398
76.8809247936151
76.880924846264
76.8809249154292
76.8809250003687
76.8809250993509
76.8809252109932
76.8809253347135
76.8809254695079
76.8809256146051
76.8809257692192
76.8809259325353
76.8809261036367
76.8809262816067
76.8809264654847
76.8809266543103
76.8809268470795
76.8809270428319
76.8809272405924
76.8809274394007
76.8809276383545
76.880927836537
76.8809280331188
76.8809282272559
76.8809284182062
76.8809286052565
76.8809287877375
76.8809289650235
76.880929136576
76.8809293018858
76.8809294604871
76.8809296119871
76.8809297560365
76.8809298923297
76.8809300206194
76.8809301406727
76.880930252315
76.8809303554008
76.8809304498136
76.8809305354225
76.8809306121402
76.8809306797921
76.8809307383053
76.8809307873889
76.8809308265918
76.8809308558994
76.8809308733325
76.8809308800701
76.8809308810451
76.8809248034959
76.8809248253237
76.8809248623875
76.880924917743
76.8809249891638
76.8809250763588
76.8809251772618
76.8809252904757
76.8809254154185
76.8809255509987
76.8809256965178
76.8809258511901
76.8809260142007
76.8809261846909
76.8809263617732
76.880926544487
76.8809267319011
76.8809269230551
76.880927117003
76.8809273127699
76.8809275094391
76.8809277060936
76.8809279018751
76.8809280959395
76.8809282874718
76.8809284757299
76.8809286600008
76.8809288396442
76.8809290140489
76.8809291826474
76.8809293449449
76.8809295005049
76.8809296489198
76.880929789826
76.8809299229324
76.8809300479625
76.8809301647125
76.8809302729787
76.8809303726011
76.8809304634487
76.8809305454051
76.8809306183975
76.8809306821786
76.8809307367774
76.8809307819029
76.8809308171767
76.8809308428754
76.8809308566852
76.8809308604395
76.8809308589698
76.8809248645848
76.8809248887264
76.8809249283222
76.8809249864134
76.8809250600898
76.8809251495113
76.880925252306
76.8809253670333
76.8809254931548
76.8809256295208
76.8809257754474
76.8809259301634
76.8809260928974
76.8809262628056
76.8809264389856
76.8809266205644
76.8809268066107
76.8809269961785
76.8809271883365
76.8809273821535
76.8809275767271
76.8809277711407
76.8809279645648
76.8809281561407
76.8809283451119
76.8809285307216
76.8809287122713
76.8809288891207
76.8809290606587
76.8809292263613
76.8809293857048
76.8809295382525
76.8809296836262
76.8809298214328
76.8809299513814
76.88093007321
76.8809301866859
76.8809302916052
76.8809303878079
76.880930475163
76.8809305535251
76.8809306228068
76.8809306827898
76.8809307335468
76.880930774787
76.88093080619
76.8809308283235
76.8809308384807
76.8809308392083
76.8809308352356
76.8809249217884
76.880924948302
76.8809249905025
76.8809250514023
76.8809251273196
76.8809252189531
76.8809253235959
76.880925439822
76.8809255670931
76.8809257042158
76.8809258505353
76.880926005324
76.8809261677816
76.8809263371077
76.8809265124437
76.8809266929165
76.880926877624
76.8809270656493
76.8809272560611
76.8809274479718
76.8809276404791
76.8809278327099
76.8809280238056
76.880928212966
76.8809283994196
76.8809285824391
76.8809287613112
76.8809289354249
76.8809291041689
76.8809292670194
76.880929423467
76.8809295730607
76.8809297154221
76.8809298501874
76.880929977051
76.8809300957219
76.8809302059672
76.8809303075977
76.8809304004535
76.8809304843453
76.8809305591712
76.8809306248295
76.8809306810581
76.8809307280462
76.8809307654883
76.8809307930496
76.8809308116615
76.880930818108
76.8809308157652
76.8809308092168
76.8809249742771
76.88092500325
76.8809250481572
76.8809251119965
76.8809251901112
76.8809252840001
76.8809253904183
76.8809255081142
76.8809256365203
76.8809257743851
76.8809259210975
76.8809260759444
76.8809262381401
76.8809264069132
76.8809265814343
76.8809267608303
76.8809269442427
76.8809271307546
76.8809273194784
76.8809275095409
76.88092770004
76.8809278901172
76.8809280789719
76.8809282657603
76.8809284497693
76.8809286302421
76.8809288065095
76.8809289779601
76.8809291439829
76.8809293040395
76.8809294576495
76.8809296043619
76.8809297437983
76.8809298755805
76.8809299993882
76.880930114974
76.8809302220761
76.8809303204907
76.8809304100287
76.8809304905444
76.880930561907
76.880930624
76.8809306765761
76.880930719868
76.8809307535703
76.880930777319
76.880930792453
76.880930795116
76.8809307896154
76.8809307803895
76.8809250211634
76.8809250527556
76.8809251005005
76.8809251674102
76.8809252477658
76.8809253438958
76.8809254520602
76.8809255711967
76.8809257007088
76.8809258393012
76.8809259864065
76.8809261412971
76.8809263032599
76.8809264715092
76.8809266452299
76.8809268235927
76.8809270057536
76.8809271907958
76.8809273779043
76.8809275661479
76.880927754697
76.8809279427223
76.8809281293652
76.8809283138689
76.8809284954914
76.8809286734904
76.8809288472257
76.8809290160571
76.8809291794314
76.8809293367667
76.8809294876264
76.8809296315303
76.8809297681
76.8809298969718
76.88093001784
76.8809301303991
76.8809302344162
76.8809303296875
76.8809304160095
76.8809304932365
76.8809305612085
76.8809306198236
76.8809306688199
76.8809307084884
76.8809307385673
76.8809307585325
76.8809307702177
76.8809307689953
76.8809307602205
76.8809307481715
76.8809250617051
76.8809250961058
76.880925146892
76.8809252170031
76.8809252996289
76.8809253980289
76.8809255078959
76.8809256284439
76.8809257590328
76.8809258983238
76.8809260458074
76.8809262007853
76.8809263625153
76.8809265302552
76.8809267032193
76.8809268805926
76.8809270615311
76.8809272451908
76.8809274306986
76.8809276172251
76.8809278038971
76.8809279898996
76.8809281744325
76.8809283567243
76.880928536033
76.8809287116455
76.8809288829361
76.88092904925
76.8809292100341
76.88092936475
76.8809295129322
76.8809296541149
76.8809297879197
76.8809299139684
76.8809300319554
76.8809301415895
76.8809302426234