/*--------------------------------*- C++ -*----------------------------------*\
  =========                 |
  \\      /  F ield         | OpenFOAM: The Open Source CFD Toolbox
   \\    /   O peration     | Website:  https://openfoam.org
    \\  /    A nd           | Version:  10
     \\/     M anipulation  |
\*---------------------------------------------------------------------------*/
FoamFile
{
    format      ascii;
    class       surfaceScalarField;
    location    "3.4";
    object      phi;
}
// * * * * * * * * * * * * * * * * * * * * * * * * * * * * * * * * * * * * * //

dimensions      [1 0 -1 0 0 0 0];

internalField   nonuniform List<scalar> 
4900
(
-6.39473361898368e-12
6.66389962137137e-12
-7.39067556291786e-12
1.39857863348842e-12
-5.50825506446413e-12
-1.44873138579901e-12
-3.61821594526399e-12
-1.45630190429568e-12
-2.32000253279358e-12
-8.70453027415236e-13
-1.53502744178879e-12
-3.62679976912699e-13
-1.06231277098297e-12
-5.46477941856347e-14
-7.69646218175429e-13
1.22228121116731e-13
-5.77000806234089e-13
2.20045903088826e-13
-4.41207316182814e-13
2.75607954322798e-13
-3.39569797454731e-13
3.09261736986212e-13
-2.59673697586846e-13
3.3110679638524e-13
-1.94567109604234e-13
3.46399378638875e-13
-1.40089994697608e-13
3.57750412078937e-13
-9.36462560630651e-14
3.66571300172302e-13
-5.35077928123409e-14
3.73629377596539e-13
-1.84716938429121e-14
3.79378701794707e-13
1.23338294706503e-14
3.84117302997158e-13
3.95850255751364e-14
3.88022905019129e-13
6.38032649982793e-14
3.91252340828718e-13
8.54288638252944e-14
3.93893398410744e-13
1.04840866777604e-13
3.96021931863954e-13
1.22372431983789e-13
3.97701314490712e-13
1.38340162963892e-13
3.98965383317936e-13
1.53042771522416e-13
3.99854680379473e-13
1.66795225594463e-13
4.00369171497463e-13
1.79916332206371e-13
4.00529182167978e-13
1.92754051922188e-13
4.00319647333921e-13
2.05676628038893e-13
3.99743131387953e-13
2.19089816699128e-13
3.98773004538174e-13
2.33476655993159e-13
3.97352498014004e-13
2.49389012066749e-13
3.95419605499768e-13
2.6747455629499e-13
3.92897503819474e-13
2.8852622849448e-13
3.89646839440205e-13
3.13605056438176e-13
3.85422031360891e-13
3.44077007800078e-13
3.79935136913873e-13
3.81851808866613e-13
3.72685740398548e-13
4.29711622348554e-13
3.62852447910603e-13
4.91983226937432e-13
3.48977186738377e-13
5.75872172735867e-13
3.28279423773503e-13
6.94093580691306e-13
2.95365083262367e-13
8.69702171170797e-13
2.39995289957069e-13
1.14628596367589e-12
1.41745076673625e-13
1.60503180084289e-12
-3.67898186728097e-14
2.37918183479552e-12
-3.47178590831812e-13
3.67630674842669e-12
-8.62888583437677e-13
5.59183874243997e-12
-1.47138236664639e-12
7.5419000383441e-12
-1.49459395033888e-12
6.54242569417922e-12
1.44630363456905e-12
6.8433885854661e-12
-7.05095263034558e-12
1.40792430890993e-11
-1.14093932395863e-11
6.25665498090332e-12
-9.45768843981472e-12
-2.87940098815917e-12
-6.77956316192442e-12
-3.61845373322033e-12
-4.72579574369876e-12
-2.41816709728881e-12
-3.36730824306413e-12
-1.223349309726e-12
-2.48320214999083e-12
-4.46750152293599e-13
-1.88596496847594e-12
1.30654811786012e-14
-1.45856234642896e-12
2.7823329858752e-13
-1.13533530188545e-12
4.36651845537365e-13
-8.79799236217132e-13
5.37597045548811e-13
-6.71058300815886e-13
6.06510800725334e-13
-4.9644013750192e-13
6.56628076457615e-13
-3.4781578932544e-13
6.94895971313436e-13
-2.19722348463264e-13
7.25222400982369e-13
-1.08284779117129e-13
7.49849383995265e-13
-1.06623384944209e-14
7.70186843062718e-13
7.53282230887431e-14
7.87154908189773e-13
1.51413929894514e-13
8.01369337689656e-13
2.19020564722035e-13
8.13291660674365e-13
2.79372004147821e-13
8.23220797465262e-13
3.33552521269308e-13
8.3139140615087e-13
3.82537258684349e-13
8.37997406289941e-13
4.2725021653677e-13
8.43146195094852e-13
4.68585612639277e-13
8.469349176506e-13
5.07458838199493e-13
8.49364514920626e-13
5.44786459666768e-13
8.5048150995588e-13
5.815315204107e-13
8.50243075813087e-13
6.18729188141741e-13
8.48606986522158e-13
6.57487556643237e-13
8.4548740114164e-13
6.99078183076133e-13
8.4068813503791e-13
7.44927093033159e-13
8.34002370876155e-13
7.96689129642205e-13
8.25146502769283e-13
8.56344699185571e-13
8.13665053924949e-13
9.26388221262924e-13
7.98825503839304e-13
1.00997868472488e-12
7.7970081875162e-13
1.11130379806472e-12
7.54817244178294e-13
1.23615314084495e-12
7.21821066140492e-13
1.39298117767357e-12
6.76699371153128e-13
1.59487724130846e-12
6.12160682397708e-13
1.8632954796295e-12
5.14591202474945e-13
2.23548320206449e-12
3.5809287664358e-13
2.77823815132869e-12
9.28726633605943e-14
3.61042814150822e-12
-3.7015232146183e-13
4.92256721108617e-12
-1.15328438089025e-12
6.94740407459202e-12
-2.37075822032209e-12
9.65124289789543e-12
-3.64323410679242e-12
1.170851829788e-11
-3.00720053388544e-12
7.32373449762181e-12
6.34679976605006e-12
1.44882022633133e-11
-4.01346799022786e-12
1.84557568218961e-11
-8.98717167563209e-12
1.1696801442809e-11
-8.5204023280323e-12
-2.88008629262456e-12
-6.86157447790091e-12
-4.82344560361306e-12
-5.29494326952515e-12
-3.54421280438765e-12
-4.08915173985706e-12
-1.99850694017327e-12
-3.20631762498712e-12
-9.05342441437716e-13
-2.5502799033827e-12
-2.22586534892834e-13
-2.04667709251322e-12
1.92840291872759e-13
-1.64747735731334e-12
4.54651476279338e-13
-1.32221175194541e-12
6.29351167224664e-13
-1.05146056669842e-12
7.53175655809264e-13
-8.22239730273965e-13
8.45571388990897e-13
-6.2559091606663e-13
9.17332324973432e-13
-4.55118742174183e-13
9.74780892678057e-13
-3.06095224322228e-13
1.02172994108459e-12
-1.74937881682616e-13
1.06066633670149e-12
-5.88162274638531e-14
1.09323167172763e-12
4.4547046244934e-14
1.12057932092958e-12
1.37075792207365e-13
1.14352799232147e-12
2.20419247376668e-13
1.16266255315943e-12
2.96055625103292e-13
1.17840495133409e-12
3.65327163723306e-13
1.1911079318833e-12
4.29504768818321e-13
1.20097041079768e-12
4.89822227225251e-13
1.20815297917501e-12
5.47511019555222e-13
1.21267961603536e-12
6.03817551453409e-13
1.21460917094489e-12
6.60033658183704e-13
1.21387067969215e-12
7.17538510409172e-13
1.21036071679356e-12
7.77821475595998e-13
1.20389638058433e-12
8.42547669246697e-13
1.19412915922102e-12
9.13583519785246e-13
1.18065929125535e-12
9.93086097160627e-13
1.16293351147439e-12
1.08361032606426e-12
1.14010769539058e-12
1.18827254693624e-12
1.11091470443705e-12
1.31097581756196e-12
1.07366473028904e-12
1.45675608623273e-12
1.02580519434254e-12
1.63229557637193e-12
9.6340265016448e-13
1.8468432719873e-12
8.79983686026013e-13
2.11370293939125e-12
7.6432206106951e-13
2.45269898986484e-12
5.96427965584229e-13
2.89485118128483e-12
3.39363026172922e-13
3.48913447206423e-12
-7.43685835295167e-14
4.3114492457463e-12
-7.60207050662928e-13
5.46213151692099e-12
-1.86361546039995e-12
6.99258015782592e-12
-3.44781646745678e-12
8.67366678947825e-12
-4.85202475576113e-12
9.25860692130665e-12
-3.10486478897524e-12
4.27239555962583e-12
1.1790620899462e-11
1.90344912684401e-11
-3.15886569681351e-12
2.19438592013533e-11
-5.83931676228137e-12
1.47768481860209e-11
-6.34630439549922e-12
-1.98951653960203e-12
-5.81115384575734e-12
-4.99110376422594e-12
-4.95891543661736e-12
-4.04318904839288e-12
-4.11211406086419e-12
-2.50219476793665e-12
-3.3897811295293e-12
-1.29074330977368e-12
-2.79788310404519e-12
-4.80992902547454e-13
-2.31533029542672e-12
4.20365684196402e-14
-1.91894605938548e-12
3.8934714033657e-13
-1.58917566429676e-12
6.30699051559303e-13
-1.31121432706662e-12
8.06839897718193e-13
-1.07399598991626e-12
9.40761222448324e-13
-8.69327330451695e-13
1.04598034586364e-12
-6.91054293167788e-13
1.13073461744142e-12
-5.34495196670812e-13
1.20022824435645e-12
-3.9599801587623e-13
1.25791950397649e-12
-2.72646401806363e-13
1.30615880132526e-12
-1.62051160304882e-13
1.34661365959406e-12
-6.21884831905296e-14
1.38047291769812e-12
2.86888626670354e-14
1.40860758684109e-12
1.12145418968529e-13
1.43163950145342e-12
1.89612917693307e-13
1.45007412499868e-12
2.62438773977294e-13
1.46421493848917e-12
3.31937947126658e-13
1.47427985495226e-12
3.99396930724594e-13
1.48034074764176e-12
4.66134734598163e-13
1.4824496230865e-12
5.33507076170346e-13
1.4805155718039e-12
6.0295950677676e-13
1.47436942170544e-12
6.7606668086417e-13
1.46371211145844e-12
7.54551870399937e-13
1.44806770694855e-12
8.40363900329157e-13
1.42681952725135e-12
9.35740110654349e-13
1.39914503967968e-12
1.04332301844617e-12
1.36380374277209e-12
1.16627446452604e-12
1.31903313988286e-12
1.3084997802425e-12
1.26242257134913e-12
1.47494479923659e-12
1.19042728191855e-12
1.67196060041137e-12
1.09776918401313e-12
1.9079353270138e-12
9.76033466505939e-13
2.19409021514361e-12
8.11269981957528e-13
2.545348595496e-12
5.79921361623937e-13
2.98133439905598e-12
2.40502366285123e-13
3.52540292594362e-12
-2.77947747582116e-13
4.19908186562227e-12
-1.08843209855068e-12
5.00014024893256e-12
-2.31126610306511e-12
5.82269902273525e-12
-3.90361227587238e-12
6.38057286115029e-12
-5.02289099945928e-12
5.97995557445242e-12
-2.3006346514076e-12
3.29925556580085e-12
1.4848834654105e-11
2.25524115321832e-11
-2.70039986068477e-12
2.49117033779204e-11
-3.83937324122581e-12
1.62185008994553e-11
-4.73778904536945e-12
-8.14119367639106e-13
-4.81055191450174e-12
-4.65666897713101e-12
-4.42067188424355e-12
-4.18370116358517e-12
-3.85665161894016e-12
-2.82560038506211e-12
-3.29561368139685e-12
-1.61636670512673e-12
-2.79515816347386e-12
-7.48736726910003e-13
-2.36639814834848e-12
-1.55207675177446e-13
-2.00352255304704e-12
2.57692863124912e-13
-1.69603997600786e-12
5.54703557877845e-13
-1.43378049230286e-12
7.76689360589708e-13
-1.20815506554396e-12
9.48066323758895e-13
-1.0123140377839e-12
1.08397245052232e-12
-8.40872342853245e-13
1.19400864160953e-12
-6.89596767002588e-13
1.2844641361009e-12
-5.55107064354214e-13
1.35960059313892e-12
-4.34663729234481e-13
1.42238753871279e-12
-3.25987384045574e-13
1.47494126225919e-12
-2.27139266088783e-13
1.51879621641119e-12
-1.36429092183593e-13
1.55508153180826e-12
-5.23530254292322e-14
1.5846208397911e-12
2.64798983236871e-14
1.60805232957279e-12
1.01376899324618e-13
1.62578207380036e-12
1.73608927518468e-13
1.63808785961048e-12
2.44418414081901e-13
1.64508825656066e-12
3.15078569174186e-13
1.64682897532746e-12
3.8689832919715e-13
1.64319920314279e-12
4.61274817369959e-13
1.6339644514586e-12
5.39721546525281e-13
1.61872178027055e-12
6.23893914673272e-13
1.59687255335465e-12
7.15659161756256e-13
1.56759699072746e-12
8.17151018072222e-13
1.52982403021287e-12
9.30867028110812e-13
1.48195664336386e-12
1.05975620642604e-12
1.42180327944091e-12
1.20740371466353e-12
1.34633560460721e-12
1.37824929701684e-12
1.25119715558027e-12
1.57781758248135e-12
1.13007629329782e-12
1.81305870677559e-12
9.73214822369993e-13
2.09259449800912e-12
7.65082883488844e-13
2.4264792504112e-12
4.80805511790759e-13
2.82486680461816e-12
7.89290140341629e-14
3.29297223954854e-12
-5.06338818939592e-13
3.81879469730151e-12
-1.37025155197099e-12
4.34718920108065e-12
-2.58870905841383e-12
4.71326544125453e-12
-4.0067104882387e-12
4.66563721152578e-12
-4.6933632991838e-12
3.85501512357295e-12
-1.19267351177128e-12
2.73419458205184e-12
1.6245646172831e-11
2.54372331742886e-11
-2.03612097834679e-12
2.71388486776963e-11
-2.85460229424769e-12
1.72307964687089e-11
-3.83540276918137e-12
3.3305045451096e-13
-4.10965062764771e-12
-4.22776620756948e-12
-3.93710008493263e-12
-4.21055062538845e-12
-3.54774799583165e-12
-3.07581660125253e-12
-3.10946892039867e-12
-1.9193841221308e-12
-2.6916104532985e-12
-1.03320323787273e-12
-2.3185361934236e-12
-3.95541975154718e-13
-1.9940536121531e-12
6.60036393875615e-14
-1.7139625873985e-12
4.07877505903053e-13
-1.47194009460087e-12
6.68658569202286e-13
-1.26177232104068e-12
8.72750348150074e-13
-1.07804551126602e-12
1.03599921853492e-12
-9.16292989594172e-13
1.16887232443164e-12
-7.72848639170183e-13
1.27840522990952e-12
-6.44719611859875e-13
1.36949162899402e-12
-5.29414923199899e-13
1.44558399727828e-12
-4.24841517918513e-13
1.50918793550018e-12
-3.29197298313339e-13
1.56213330674946e-12
-2.40894746798751e-13
1.60577324341717e-12
-1.58522164741261e-13
1.64112217728595e-12
-8.07575047053463e-14
1.66892664470456e-12
-6.36253251632954e-15
1.68969433489747e-12
6.5861709395735e-14
1.70376499575439e-12
1.37095048298482e-13
1.71129359209826e-12
2.08542953067499e-13
1.71232364237607e-12
2.81448046491757e-13
1.70672193512246e-12
3.57132504967379e-13
1.69419670730993e-12
4.3701874994583e-13
1.67425562346214e-12
5.22670515132426e-13
1.64617850209873e-12
6.15822908202648e-13
1.6089810498715e-12
7.1846535169233e-13
1.5613557838658e-12
8.32884161054505e-13
1.50141439785826e-12
9.61747109296097e-13
1.42660421100581e-12
1.10822761823477e-12
1.33340652253454e-12
1.27614331550386e-12
1.21685727696159e-12
1.4700750394428e-12
1.06992238393877e-12
1.69546007959073e-12
8.82054537163604e-13
1.9584728943852e-12
6.37058800237665e-13
2.26518558049938e-12
3.10254182265501e-13
2.61922111225557e-12
-1.37265909247712e-13
3.01571448114858e-12
-7.62635786898838e-13
3.42864099042378e-12
-1.63954995861444e-12
3.79022873494038e-12
-2.80113125833493e-12
3.94403785553876e-12
-4.00152944192167e-12
3.6982126303578e-12
-4.27256961008303e-12
2.7931982383135e-12
-9.94937668304615e-14
2.01415972291387e-12
1.71952577394073e-11
2.75358775842588e-11
-1.36578794913246e-12
2.86084421469092e-11
-2.36796513036632e-12
1.83097581889644e-11
-3.29771551161083e-12
1.31569768888946e-12
-3.60259317497779e-12
-3.87555015342344e-12
-3.52740063999816e-12
-4.24277784265415e-12
-3.24928486095325e-12
-3.31477040904336e-12
-2.90371527684567e-12
-2.22810898982735e-12
-2.55524749304225e-12
-1.34580326808285e-12
-2.2320529671867e-12
-6.82985839201862e-13
-1.94316557676362e-12
-1.86753879883063e-13
-1.68880563164601e-12
1.90308940649034e-13
-1.46579321418753e-12
4.83263295505929e-13
-1.2700283040689e-12
7.1550209611641e-13
-1.09749062286962e-12
9.02884692813344e-13
-9.44614269967789e-13
1.05626818292259e-12
-8.08329304160503e-13
1.18314169584828e-12
-6.86038774458381e-13
1.28883682829805e-12
-5.75525192099497e-13
1.37717107511064e-12
-4.74887770237376e-13
1.45095871107064e-12
-3.82464708757976e-13
1.51227375828389e-12
-2.96777936509824e-13
1.56266254059611e-12
-2.16502851256628e-13
1.60330698043034e-12
-1.4039031313092e-13
1.63504715083935e-12
-6.72725422740948e-14
1.65848906200588e-12
3.99412864634878e-15
1.67401831217293e-12
7.45266455926647e-14
1.68183321559967e-12
1.45470754988211e-13
1.68197112080148e-12
2.18004784743098e-13
1.67427998235441e-12
2.93380858097527e-13
1.65841577831977e-12
3.72939936946792e-13
1.63380764836543e-12
4.58152543954745e-13
1.59962469558203e-12
5.50628375061243e-13
1.55474993995563e-12
6.52206740315048e-13
1.49766310603431e-12
7.64957750776812e-13
1.42624994396775e-12
8.91262822109874e-13
1.33766501319054e-12
1.03387674093926e-12
1.22802780338887e-12
1.19599475238053e-12
1.09196381581036e-12
1.38126519401575e-12
9.22016349733859e-13
1.59371002641913e-12
7.07315596477314e-13
1.83733402873793e-12
4.3173443014087e-13
2.11501596718766e-12
7.17809445307093e-14
2.42588753206317e-12
-4.07645831701781e-13
2.75974854901079e-12
-1.05425013262011e-12
3.08670092811188e-12
-1.92178803342702e-12
3.34345427909797e-12
-3.00926361623805e-12
3.40511333376823e-12
-4.00744228168119e-12
3.13067010854095e-12
-3.93037460478075e-12
2.27177315048364e-12
8.36231092379294e-13
1.32260353926325e-12
1.82073860030077e-11
2.88757068166961e-11
-8.84650155688695e-13
2.95115361086605e-11
-2.04389130850238e-12
1.94373252473083e-11
-2.87796057509619e-12
2.10221340693761e-12
-3.17896696554904e-12
-3.6209565368545e-12
-3.16192201211373e-12
-4.30603603364296e-12
-2.96567282387236e-12
-3.55830451420898e-12
-2.69452698472695e-12
-2.54736090392377e-12
-2.4051966202495e-12
-1.68340566671248e-12
-2.12619195186798e-12
-1.00992155926959e-12
-1.86957825479616e-12
-4.90650875737126e-13
-1.63880118569096e-12
-8.69346819266539e-14
-1.43324398908781e-12
2.32147404787619e-13
-1.25064880594569e-12
4.88283208404188e-13
-1.08827473887569e-12
6.96799874371869e-13
-9.43402925845547e-13
8.68526733656323e-13
-8.13552644268302e-13
1.01115730717363e-12
-6.96512088460764e-13
1.13026246523821e-12
-5.90341065947246e-13
1.22991995804177e-12
-4.9332924428046e-13
1.31316750535578e-12
-4.03957377885235e-13
1.38227504760589e-12
-3.20861520463957e-13
1.43895331238422e-12
-2.42791279770058e-13
1.48451217543361e-12
-1.6857418828207e-13
1.51988605706372e-12
-9.71006564435009e-14
1.54576110265943e-12
-2.72846098917948e-14
1.56256685214765e-12
4.19367230841424e-14
1.57054091983695e-12
1.11654281566783e-13
1.56971473050436e-12
1.82989031095747e-13
1.55991895366694e-12
2.5713128923935e-13
1.54076121004341e-12
3.35343227148463e-13
1.51160905599289e-12
4.19003259212271e-13
1.47153263822748e-12
5.09607509961616e-13
1.41930447535184e-12
6.08842194589575e-13
1.35322980553225e-12
7.18570515963898e-13
1.27102150253969e-12
8.40893363453804e-13
1.16961284146822e-12
9.78155292622581e-13
1.04488895566855e-12
1.13296024566045e-12
8.91239723178219e-13
1.3080814892399e-12
7.010595430946e-13
1.50626024881527e-12
4.63546669147442e-13
1.72963733132259e-12
1.63203070061445e-13
1.97853300611177e-12
-2.21606734426773e-13
2.24889663655659e-12
-7.21592783353126e-13
2.52761977277383e-12
-1.37537173404548e-12
2.78485022831555e-12
-2.21986004983464e-12
2.96511846981443e-12
-3.22801997218678e-12
2.97366135362863e-12
-4.0500599335898e-12
2.70251715759766e-12
-3.68562398516427e-12
1.93603902884202e-12
1.58137595715926e-12
8.33833010748461e-13
1.92767787029354e-11
2.96698213193422e-11
-6.04396557357252e-13
3.00547157024748e-11
-1.76283520224759e-12
2.04671641451885e-11
-2.49623658857162e-12
2.70099058293526e-12
-2.79621823267372e-12
-3.44754319429794e-12
-2.82460761803341e-12
-4.39958966596148e-12
-2.69401838305647e-12
-3.80933398662186e-12
-2.48482323676647e-12
-2.8764365911424e-12
-2.24672324133482e-12
-2.04082913652245e-12
-2.00732172722336e-12
-1.3679142718218e-12
-1.78042772170117e-12
-8.35265281534098e-13
-1.57180978812102e-12
-4.12327424680549e-13
-1.38287960760782e-12
-7.25804534359414e-14
-1.21294191568402e-12
2.03513726282658e-13
-1.06038583894314e-12
4.30332148020242e-13
-9.23283016418649e-13
6.18347550237901e-13
-7.99699260795208e-13
7.75221217630513e-13
-6.87809307983808e-13
9.06608401992659e-13
-5.85942994111938e-13
1.01673318700251e-12
-4.92583951458731e-13
1.10878123959012e-12
-4.06357204612359e-13
1.18516988638467e-12
-3.26008137716226e-13
1.2477391628298e-12
-2.50367949247714e-13
1.29789720046559e-12
-1.7834111337564e-13
1.3366698845295e-12
-1.08874806110531e-13
1.36480092537926e-12
-4.09448797672747e-14
1.38276948993564e-12
2.64649191440865e-14
1.39083618737565e-12
9.43895874868382e-14
1.38903490496126e-12
1.63892606818333e-13
1.37718065582219e-12
2.36100213461245e-13
1.35483866582701e-12
3.12200408239876e-13
1.32132371726723e-12
3.93478169897969e-13
1.27562687880545e-12
4.81318308184649e-13
1.2164264539131e-12
5.77251115380827e-13
1.14189826076473e-12
6.82942179302757e-13
1.04962259450414e-12
8.00210375426648e-13
9.36395463923618e-13
9.31009665404639e-13
7.97972549781843e-13
1.07738914442763e-12
6.28667357433203e-13
1.24132923944405e-12
4.20954445909051e-13
1.42444309493574e-12
1.64420805328921e-13
1.62731093220904e-12
-1.55389809368509e-13
1.84826159636688e-12
-5.57853508949463e-13
2.08102727347176e-12
-1.06910083583704e-12
2.31097970910424e-12
-1.71941940048883e-12
2.50968362139572e-12
-2.53195088598079e-12
2.62868634193783e-12
-3.45950092873864e-12
2.59598650487786e-12
-4.12801855026981e-12
2.32304796546801e-12
-3.52001374469054e-12
1.65223262860665e-12
2.14505046917364e-12
5.49817120079991e-13
2.02629538518395e-11
3.01304221698535e-11
-4.56648955563933e-13
3.03848557986516e-11
-1.50788804856527e-12
2.13145471168006e-11
-2.1491497519498e-12
3.14240320682498e-12
-2.44868408948038e-12
-3.33403844854446e-12
-2.51297349917524e-12
-4.5131350431439e-12
-2.43508416306621e-12
-4.06146077060815e-12
-2.27748509884205e-12
-3.20659510797556e-12
-2.08375605825728e-12
-2.40599092742707e-12
-1.87993606835707e-12
-1.74213834489648e-12
-1.68062593615122e-12
-1.20394462962335e-12
-1.49314799601267e-12
-7.68135181405996e-13
-1.32043960264198e-12
-4.12590200160334e-13
-1.16308125900597e-12
-1.20156511855818e-13
-1.02042088323679e-12
1.22286048222362e-13
-8.91245136762746e-13
3.24617954465995e-13
-7.74126225954832e-13
4.94265069751919e-13
-6.67606094448508e-13
6.36831338156653e-13
-5.70278486739345e-13
7.5658542445181e-13
-4.80820390663616e-13
8.56792527916603e-13
-3.98003880957707e-13
9.39969916083555e-13
-3.20685061440088e-13
1.00805094103678e-12
-2.47786752555618e-13
1.06252343167091e-12
-1.78286274004392e-13
1.10448399065195e-12
-1.11194570386953e-13
1.1347255945723e-12
-4.55470388009014e-14
1.15377143618505e-12
1.96181875213703e-14
1.16189955669645e-12
8.5277516230539e-14
1.15915082139734e-12
1.52437798747535e-13
1.14532151348822e-12
2.22156411211849e-13
1.11994582889796e-12
2.95547359904953e-13
1.08229115836083e-12
3.73796321149372e-13
1.03129484292937e-12
4.58178329057525e-13
9.65550245121442e-13
5.50065986014635e-13
8.83151497558555e-13
6.50929673192521e-13
7.81583665629216e-13
7.62316748789214e-13
6.57580684716799e-13
8.85811636980717e-13
5.06864022548853e-13
1.0229526932157e-12
3.23808433174143e-13
1.17501736933021e-12
1.0115341737793e-13
1.34266267336824e-12
-1.7088395894356e-13
1.52521798620456e-12
-5.05441158268484e-13
1.71953647612068e-12
-9.19433433390847e-13
1.91791348369356e-12
-1.43448259968147e-12
2.10516741702327e-12
-2.07347749065989e-12
2.25487572091299e-12
-2.84845017325637e-12
2.32463693435689e-12
-3.69632959702853e-12
2.25907848499801e-12
-4.22997455707421e-12
1.9824568653817e-12
-3.4116441158549e-12
1.39667781993106e-12
2.55868867953596e-12
3.98900119658019e-13
2.10807712643021e-11
3.04041913142685e-11
-3.77013393911114e-13
3.05854141694224e-11
-1.28442291494433e-12
2.19636407189171e-11
-1.84479880985391e-12
3.45734051682828e-12
-2.13830469131457e-12
-3.26754125722119e-12
-2.22817419731901e-12
-4.63932213827549e-12
-2.19110017897015e-12
-4.30937753180825e-12
-2.07578225765319e-12
-3.5302127466775e-12
-1.92009034917571e-12
-2.76842121003453e-12
-1.74803040014448e-12
-2.11968743801328e-12
-1.57423424357821e-12
-1.58207499041281e-12
-1.40691687213945e-12
-1.13867905351698e-12
-1.25009005244926e-12
-7.71577322477156e-13
-1.10532144986231e-12
-4.66079195467157e-13
-9.72754320504249e-13
-2.10505221560178e-13
-8.51788867636734e-13
4.25550195976339e-15
-7.41454426401379e-13
1.85242321116336e-13
-6.40632555051238e-13
3.37892810538523e-13
-5.48171623805574e-13
4.66437115624814e-13
-4.6293948771573e-13
5.74156953289652e-13
-3.83853848544776e-13
6.63624416423804e-13
-3.09884121960133e-13
7.36834437883912e-13
-2.40047033506041e-13
7.95333858453936e-13
-1.73396747047476e-13
8.40273250850661e-13
-1.09013716664867e-13
8.72486378136523e-13
-4.59945332607084e-14
8.92532642674188e-13
1.65634537935824e-14
9.00704725661428e-13
7.95771454529929e-14
8.97050017869157e-13
1.4399001817473e-13
8.81349028607346e-13
2.10787875642425e-13
8.53114353662012e-13
2.81007481629908e-13
8.11569688565627e-13
3.5573661685565e-13
7.55618948359664e-13
4.36129989809753e-13
6.83793679983739e-13
5.23414120379088e-13
5.94131115580288e-13
6.18863333307789e-13
4.84070846609937e-13
7.23770203665929e-13
3.50342000577238e-13
8.39373198235902e-13
1.88722697192384e-13
9.66754862604046e-13
-6.24542203039462e-15
1.1065928218468e-12
-2.41419816316012e-13
1.25876206870802e-12
-5.25779595923847e-13
1.42163526731924e-12
-8.70983454446906e-13
1.59104546091602e-12
-1.29144134396294e-12
1.75851141994724e-12
-1.80453505938424e-12
1.90902107763678e-12
-2.42673941195374e-12
2.0184979851363e-12
-3.16122964124037e-12
2.05009227074916e-12
-3.9324797520811e-12
1.9609242203344e-12
-4.34775071574279e-12
1.68593904905354e-12
-3.34797684439424e-12
1.17274551153574e-12
2.85240888479403e-12
3.16255707199004e-13
2.17111874784037e-11
3.05696332620704e-11
-3.27486392416903e-13
3.07042928860693e-11
-1.09449883220836e-12
2.24407191438148e-11
-1.58432302137667e-12
3.67685859337456e-12
-1.86464546885641e-12
-3.23613222207015e-12
-1.97031681151821e-12
-4.76986222183982e-12
-1.96352134149775e-12
-4.54610534474085e-12
-1.88216895419812e-12
-3.83837315439866e-12
-1.75865387549033e-12
-3.11689343270861e-12
-1.61464294511786e-12
-2.4872645734688e-12
-1.46423241611196e-12
-1.95482294191305e-12
-1.31599111008833e-12
-1.50810828001484e-12
-1.17461577159808e-12
-1.13305137968221e-12
-1.04237851403542e-12
-8.17398762066637e-13
-9.20053766242676e-13
-5.50981011981868e-13
-8.07554951115024e-13
-3.25570381940414e-13
-7.04312473839818e-13
-1.34624969276454e-13
-6.09515968992428e-13
2.70373797685098e-14
-5.22249404121195e-13
1.63535841590922e-13
-4.41564657127441e-13
2.78118050540297e-13
-3.66520413414744e-13
3.73368442638633e-13
-2.9620249118417e-13
4.51317810787999e-13
-2.29723076812064e-13
5.1355224441226e-13
-1.66216103942334e-13
5.61258570364469e-13
-1.04833684540167e-13
5.95304286910861e-13
-4.47368520883536e-14
6.16276371195891e-13
1.49113429606971e-14
6.24483469717392e-13
7.49674756837445e-14
6.19973509944371e-13
1.36307563543553e-13
6.02518439602059e-13
1.99845793894758e-13
5.71611988219455e-13
2.66531231215848e-13
5.26450752644783e-13
3.37359123298655e-13
4.65909925257471e-13
4.13361846992893e-13
3.88487943510161e-13
4.95624921800725e-13
2.92184466088269e-13
5.8523175496404e-13
1.74442552911383e-13
6.83238742920832e-13
3.20321705381131e-14
7.90577412777693e-13
-1.39143938874631e-13
9.07928460778936e-13
-3.44282249089927e-13
1.035475833165e-12
-5.89750831805507e-13
1.17248133205539e-12
-8.8361110374755e-13
1.31663536179848e-12
-1.23598306293633e-12
1.46314416880079e-12
-1.65884010104483e-12
1.60326838363681e-12
-2.16571057027764e-12
1.7226941267462e-12
-2.76763681231984e-12
1.79987221465564e-12
-3.46082230813869e-12
1.80321980677519e-12
-4.16020111076111e-12
1.6994230306293e-12
-4.47226178483474e-12
1.43356337596169e-12
-3.31787755879852e-12
9.82614140214533e-13
3.05621701655014e-12
2.64007535471331e-13
2.21764134971314e-11
3.06689913182702e-11
-2.90108205227872e-13
3.07691020209085e-11
-9.34923738381717e-13
2.2782656207258e-11
-1.36302834029182e-12
3.82635313210992e-12
-1.62454695840762e-12
-3.23023117689352e-12
-1.73792501774595e-12
-4.89849100485891e-12
-1.75258268827986e-12
-4.76657859359938e-12
-1.69797487475162e-12
-4.12464391397197e-12
-1.60132444308893e-12
-3.44318313532267e-12
-1.48182630686808e-12
-2.83492833241956e-12
-1.35263904588931e-12
-2.31090525519326e-12
-1.22226929411558e-12
-1.86420040541876e-12
-1.09576844716789e-12
-1.48417339844489e-12
-9.75879373913656e-13
-1.16088906305929e-12
-8.63849570237353e-13
-8.8568329775335e-13
-7.59999417155459e-13
-6.51275856762664e-13
-6.64096553356667e-13
-4.51688777364683e-13
-5.75605042647217e-13
-2.82057576051441e-13
-4.93820755627652e-13
-1.38434837490216e-13
-4.17971193198236e-13
-1.76428168986944e-14
-3.47251540200035e-13
8.28758530355389e-14
-2.80859797017909e-13
1.65164121982641e-13
-2.18002684480409e-13
2.30827924858708e-13
-1.57896891130279e-13
2.81080604907729e-13
-9.97713372851329e-14
3.16814766922789e-13
-4.28517354656271e-14
3.38634191807096e-13
1.36301812817232e-14
3.4686589027555e-13
7.04672718130437e-14
3.41553423182332e-13
1.28462452131771e-13
3.22468851820334e-13
1.88458840910348e-13
2.89085118032806e-13
2.51319471818309e-13
2.40586029064522e-13
3.17941695461045e-13
1.75829322559138e-13
3.89240489241903e-13
9.330016837963e-14
4.66162088211963e-13
-9.01849227219724e-15
5.49617343528178e-13
-1.33646241493356e-13
6.40443919094324e-13
-2.83727164532983e-13
7.39304257670725e-13
-4.63183417172949e-13
8.46539875338531e-13
-6.76881808219836e-13
9.61944148382187e-13
-9.30650660403909e-13
1.08432729715241e-12
-1.231576995954e-12
1.21093139922861e-12
-1.58825011381592e-12
1.33666574018167e-12
-2.01036562494805e-12
1.45292550250283e-12
-2.50803950747168e-12
1.54645033515023e-12
-3.08781644303504e-12
1.59826750807312e-12
-3.74049219957704e-12
1.58175645171162e-12
-4.37399668560461e-12
1.47093689901937e-12
-4.59685664545063e-12
1.22053857827833e-12
-3.3127858645383e-12
8.23735346384488e-13
3.19335990444911e-12
2.24788731240993e-13
2.2509764371957e-11
3.07238602063561e-11
-2.57799856329607e-13
3.07984450917306e-11
-8.00519649583119e-13
2.30253112175701e-11
-1.17426675152379e-12
3.92663428459662e-12
-1.41361621939205e-12
-3.24103538623975e-12
-1.5285518292763e-12
-5.0199182304879e-12
-1.55759711131751e-12
-4.96682467586552e-12
-1.52363332663906e-12
-4.3842917361071e-12
-1.44914936266391e-12
-3.7412540520834e-12
-1.35086530313583e-12
-3.1552938460873e-12
-1.24076111465325e-12
-2.6418064262336e-12
-1.12698683478372e-12
-2.1975930056519e-12
-1.01467649952976e-12
-1.81499877551182e-12
-9.06840400534601e-13
-1.48622154788015e-12
-8.05052086822368e-13
-1.20404355609782e-12
-7.09944996031417e-13
-9.62143717288275e-13
-6.21561162332014e-13
-7.55145878843364e-13
-5.3959640564707e-13
-5.78544160240602e-13
-4.63538989513912e-13
-4.28602109479081e-13
-3.92772015697336e-13
-3.02248547544291e-13
-3.2662224343013e-13
-1.9697643487968e-13
-2.64397473952169e-13
-1.10752780785871e-13
-2.05398386245862e-13
-4.19679236605081e-14
-1.48924861140509e-13
1.06063658982863e-14
-9.42794826585532e-14
4.78785956558875e-14
-4.07618034688977e-14
7.04687460946218e-14
1.23303551420242e-14
7.87143346153202e-14
6.57200400191817e-14
7.26577999095749e-14
1.20141237034316e-13
5.20697324820716e-14
1.76357214865601e-13
1.6413490055514e-14
2.35147674856542e-13
-3.51373809993823e-14
2.97311592500708e-13
-1.03727746809033e-13
3.63655884172489e-13
-1.90875662493165e-13
4.34990115244771e-13
-2.98587458385208e-13
5.1206635558347e-13
-4.2932231941371e-13
5.95530721863317e-13
-5.86106578589822e-13
6.85815068779191e-13
-7.72647771530237e-13
7.82989867829259e-13
-9.93443655117538e-13
8.86543750693969e-13
-1.25374934534297e-12
9.94985245407844e-13
-1.55968184185418e-12
1.10531194319801e-12
-1.91835761628275e-12
1.21239264333368e-12
-2.337399387887e-12
1.30804297850608e-12
-2.82397447557037e-12
1.38026633208659e-12
-3.38097895650621e-12
1.41261029648628e-12
-3.99508440974018e-12
1.3830048621392e-12