/*--------------------------------*- C++ -*----------------------------------*\
  =========                 |
  \\      /  F ield         | OpenFOAM: The Open Source CFD Toolbox
   \\    /   O peration     | Website:  https://openfoam.org
    \\  /    A nd           | Version:  10
     \\/     M anipulation  |
\*---------------------------------------------------------------------------*/
FoamFile
{
    format      ascii;
    class       volScalarField;
    location    "3.4";
    object      rho;
}
// * * * * * * * * * * * * * * * * * * * * * * * * * * * * * * * * * * * * * //

dimensions      [1 -3 0 0 0 0 0];

internalField   nonuniform List<scalar> 
2500
(
1.14255836715814
1.1426594628964
1.14274583931708
1.14278549444655
1.14280138002863
1.14280747786389
1.14280972570232
1.14281051557495
1.1428107809368
1.14281086439079
1.14281089496758
1.14281090667437
1.14281091173621
1.14281091652009
1.14281092075063
1.14281092530345
1.14281092771262
1.14281093063987
1.14281093395411
1.14281093631813
1.14281093848449
1.14281094055807
1.14281094234666
1.14281094326772
1.14281094423781
1.14281094532942
1.14281094571502
1.14281094604224
1.14281094625532
1.14281094596294
1.14281094554451
1.14281094485344
1.14281094350583
1.14281094172375
1.1428109400124
1.14281093814615
1.14281093588473
1.14281093348771
1.14281092758011
1.14281091597463
1.14281088386214
1.14281078702825
1.14281049629433
1.14280965710029
1.14280733756841
1.14280121768607
1.14278544120727
1.14274582827004
1.14265826738615
1.14255887275832
1.14876613358924
1.14908208982824
1.14932476385385
1.14944408158193
1.14949696406475
1.14951930186306
1.14952825368477
1.14953161355468
1.14953278864511
1.14953317127021
1.14953329047965
1.14953332603127
1.14953333620185
1.14953334031733
1.14953334277152
1.14953334491863
1.14953334613363
1.14953334753507
1.14953334916154
1.14953335046242
1.14953335185594
1.14953335344952
1.14953335491649
1.14953335557199
1.14953335606691
1.14953335681229
1.14953335702426
1.14953335722579
1.14953335772564
1.14953335742971
1.14953335726034
1.14953335745981
1.14953335600971
1.14953335403006
1.14953335307903
1.14953335223318
1.1495333504873
1.14953334646334
1.14953333297193
1.1495332896626
1.14953314931677
1.14953271364974
1.14953143668442
1.14952791903003
1.14951881634009
1.14949654483812
1.14944413773683
1.14932481832413
1.14907782444152
1.14876407408386
1.15408703388742
1.15447943166086
1.15476223557548
1.15490094700083
1.15496239580472
1.15498837208087
1.15499882131441
1.1550027683726
1.15500415880139
1.15500461512147
1.1550047564829
1.15500479762462
1.15500480834006
1.15500481143409
1.15500481255763
1.15500481320974
1.15500481352152
1.15500481391772
1.15500481448933
1.15500481499731
1.15500481569198
1.15500481667209
1.15500481768515
1.15500481817417
1.15500481840377
1.15500481887627
1.15500481892953
1.15500481902669
1.15500481949016
1.15500481926358
1.15500481927377
1.1550048196962
1.15500481848955
1.15500481683211
1.15500481678527
1.15500481689891
1.15500481551046
1.15500481140877
1.15500479697456
1.15500474760435
1.15500458498307
1.15500407785848
1.15500259176271
1.15499850355491
1.15498793625668
1.15496205716809
1.15490101062115
1.15476172384243
1.15447248570025
1.15407429506502
1.15777583090144
1.15810699214209
1.15831885330106
1.15841950267481
1.15846219070643
1.15847953194768
1.15848631144287
1.15848882859171
1.15848970728841
1.15848999458158
1.15849008345711
1.15849010903784
1.15849011528797
1.15849011681583
1.15849011704809
1.15849011706619
1.15849011701963
1.15849011701963
1.15849011713746
1.15849011724234
1.15849011748227
1.15849011796339
1.15849011856279
1.15849011890809
1.1584901189955
1.15849011920201
1.15849011919673
1.15849011910549
1.15849011926787
1.15849011925309
1.15849011928214
1.15849011964937
1.15849011901309
1.1584901181733
1.15849011819073
1.15849011822865
1.15849011794472
1.15849011601302
1.15849010770275
1.15849007860661
1.15848998105457
1.158489671876
1.15848875174929
1.15848617317402
1.15847934275645
1.15846204139364
1.15841943044714
1.15831775147049
1.15809978609088
1.15775686203648
1.15994058087502
1.16015993004874
1.16028539294601
1.16034322226149
1.16036683708465
1.16037609795838
1.16037963053306
1.16038092550093
1.16038137576909
1.16038152320818
1.16038156906596
1.16038158222029
1.1603815852115
1.16038158576416
1.16038158571987
1.16038158561559
1.16038158549224
1.1603815854109
1.16038158539232
1.16038158538863
1.1603815854404
1.16038158562231
1.16038158591927
1.16038158612778
1.16038158612174
1.16038158610397
1.16038158608434
1.16038158603926
1.16038158608373
1.16038158607984
1.16038158613058
1.16038158641564
1.16038158612156
1.16038158576363
1.16038158582922
1.16038158584356
1.16038158579603
1.16038158512303
1.16038158129503
1.16038156717398
1.16038151923576
1.16038136577356
1.1603809046702
1.16037959551382
1.160376058298
1.16036682839934
1.16034319547842
1.16028449084864
1.1601544790694
1.15992299121503
1.16105085384209
1.16117286557005
1.16123582162817
1.16126407787418
1.1612752676562
1.16127952787251
1.1612811194064
1.16128169725171
1.16128189800966
1.16128196404283
1.16128198475233
1.16128199070667
1.16128199194013
1.16128199207624
1.16128199201723
1.16128199192613
1.16128199183047
1.16128199175597
1.1612819917163
1.16128199169884
1.16128199170104
1.16128199176171
1.16128199188473
1.16128199197114
1.16128199195017
1.16128199191597
1.16128199190145
1.16128199187729
1.16128199189222
1.16128199189501
1.16128199192589
1.16128199208133
1.1612819919675
1.1612819918383
1.16128199187828
1.16128199187503
1.16128199189942
1.16128199172763
1.1612819901915
1.16128198415407
1.16128196342313
1.16128189673961
1.16128169546085
1.16128111932441
1.16127953869836
1.16127530927347
1.161264114084
1.16123533853031
1.16116957876533
1.16103846821178
1.16156043024125
1.16161974789334
1.16164763123039
1.16165985155618
1.16166457460908
1.16166632951423
1.16166697357896
1.16166720566333
1.16166728637164
1.1616673130794
1.16166732152886
1.16166732395714
1.16166732442269
1.16166732444439
1.16166732440054
1.16166732434697
1.1616673242933
1.16166732425025
1.16166732422399
1.16166732421249
1.16166732420558
1.16166732422367
1.16166732426983
1.16166732429565
1.16166732428184
1.1616673242655
1.16166732425827
1.16166732424785
1.16166732425392
1.16166732425751
1.1616673242727
1.16166732434502
1.16166732430823
1.16166732427013
1.16166732428767
1.16166732428731
1.16166732430896
1.16166732427976
1.16166732373369
1.16166732138047
1.161667313206
1.1616672868996
1.16166720745706
1.16166697914645
1.16166634568384
1.16166461500963
1.16165990453491
1.16164744109948
1.16161807903476
1.16155322110354
1.16177349471691
1.16179937417838
1.16181057364907
1.16181537400774
1.16181719386013
1.16181785680527
1.161818096448
1.16181818226172
1.16181821215602
1.16181822211463
1.16181822528952
1.1618182261998
1.16181822636494
1.16181822636263
1.16181822633892
1.1618182263134
1.16181822628904
1.16181822626968
1.16181822625733
1.16181822625251
1.1618182262481
1.1618182262537
1.16181822627021
1.16181822627548
1.16181822626925
1.16181822626482
1.16181822626294
1.16181822625894
1.16181822626318
1.16181822626837
1.16181822627425
1.16181822630429
1.16181822629601
1.16181822628849
1.1618182262975
1.16181822629976
1.16181822631443
1.16181822631517
1.1618182261338
1.16181822528131
1.16181822228164
1.16181821265402
1.16181818365703
1.16181810026822
1.16181786709823
1.16181721921946
1.16181541462384
1.16181051940097
1.16179863481034
1.16176985950488
1.16185577532392
1.16186609902062
1.16187025701999
1.16187200098075
1.16187265193677
1.16187288533514
1.16187296861738
1.16187299827647
1.16187300862839
1.16187301209971
1.16187301321355
1.16187301353213
1.16187301358817
1.16187301358494
1.16187301357487
1.16187301356493
1.16187301355604
1.16187301354931
1.16187301354518
1.16187301354431
1.16187301354342
1.161873013546
1.16187301355203
1.16187301355336
1.16187301355218
1.16187301355237
1.16187301355315
1.16187301355316
1.1618730135562
1.16187301355993
1.16187301356356
1.16187301357602
1.16187301357575
1.16187301357648
1.16187301358173
1.16187301358409
1.16187301359246
1.16187301359722
1.16187301354105
1.1618730132497
1.16187301221216
1.16187300889734
1.16187299896202
1.1618729704471
1.16187289033595
1.16187266476496
1.1618720244046
1.16187024890227
1.16186580625875
1.16185413946776
1.16188543553158
1.16188925364409
1.16189070054883
1.16189129436206
1.16189151317376
1.1618915906453
1.16189161798625
1.16189162767458
1.16189163106195
1.161891632205
1.16189163257405
1.16189163267956
1.16189163269842
1.16189163269781
1.16189163269487
1.16189163269227
1.1618916326903
1.16189163268917
1.16189163268896
1.16189163268994
1.1618916326911
1.16189163269336
1.16189163269638
1.16189163269791
1.16189163269906
1.16189163270074
1.16189163270257
1.16189163270418
1.16189163270673
1.16189163270956
1.16189163271231
1.161891632718
1.16189163272003
1.16189163272202
1.16189163272508
1.16189163272769
1.16189163273234
1.16189163273593
1.16189163272003
1.16189163262571
1.16189163228498
1.16189163120127
1.1618916279724
1.16189161874118
1.16189159274995
1.16189151882651
1.16189130569179
1.16189070300408
1.16188914831965
1.16188476505714
1.16189549495551
1.16189681815943
1.16189729495501
1.16189748638368
1.16189755614448
1.16189758060044
1.16189758915218
1.1618975921687
1.16189759322501
1.16189759358381
1.16189759370072
1.16189759373473
1.16189759374169
1.1618975937426
1.16189759374281
1.16189759374327
1.16189759374405
1.16189759374517
1.16189759374661
1.16189759374847
1.16189759375046
1.16189759375274
1.16189759375518
1.16189759375723
1.16189759375926
1.16189759376143
1.16189759376361
1.16189759376571
1.16189759376808
1.1618975937705
1.16189759377285
1.16189759377596
1.16189759377811
1.16189759378025
1.16189759378267
1.16189759378502
1.16189759378788
1.16189759379028
1.16189759378673
1.16189759375826
1.16189759365187
1.16189759331361
1.16189759231116
1.16189758945897
1.16189758142707
1.16189755841796
1.1618974912421
1.16189729782647
1.16189678335469
1.1618952409405
1.16189871917615
1.16189915251485
1.16189930244905
1.16189936133542
1.16189938258281
1.16189938997446
1.16189939253989
1.16189939344127
1.16189939375759
1.16189939386609
1.16189939390226
1.16189939391359
1.16189939391692
1.16189939391851
1.16189939391996
1.16189939392158
1.16189939392337
1.16189939392531
1.16189939392737
1.16189939392959
1.16189939393188
1.16189939393424
1.16189939393663
1.16189939393893
1.16189939394122
1.16189939394352
1.16189939394579
1.16189939394804
1.1618993939503
1.16189939395253
1.16189939395472
1.16189939395705
1.16189939395912
1.16189939396114
1.1618993939632
1.16189939396523
1.16189939396733
1.16189939396923
1.16189939396933
1.1618993939618
1.16189939393059
1.16189939382979
1.16189939353131
1.16189939268557
1.16189939030637
1.16189938345753
1.1618993632593
1.16189930411364
1.16189914189433
1.16189862923334
1.16189969246886
1.16189982749025
1.16189987274485
1.16189989013663
1.16189989635444
1.16189989850483
1.16189989924696
1.1618998995071
1.16189989959893
1.16189989963118
1.16189989964271
1.16189989964717
1.16189989964944
1.16189989965129
1.16189989965318
1.1618998996552
1.16189989965732
1.16189989965953
1.16189989966181
1.16189989966415
1.16189989966652
1.16189989966892
1.16189989967132
1.16189989967368
1.16189989967603
1.16189989967835
1.16189989968063
1.16189989968288
1.16189989968508
1.16189989968723
1.16189989968933
1.16189989969142
1.1618998996934
1.16189989969532
1.1618998996972
1.16189989969904
1.16189989970085
1.16189989970254
1.16189989970368
1.16189989970253
1.16189989969444
1.16189989966617
1.1618998995811
1.16189989933983
1.1618998986614
1.16189989670184
1.16189989087469
1.16189987353493
1.16189982451257
1.16189966246364
1.16189996086246
1.16190000111325
1.1619000142819
1.16190001923757
1.16190002099392
1.16190002159873
1.16190002180681
1.16190002187995
1.16190002190632
1.16190002191627
1.16190002192058
1.16190002192304
1.161900021925
1.16190002192694
1.16190002192897
1.16190002193111
1.16190002193332
1.16190002193561
1.16190002193794
1.1619000219403
1.16190002194269
1.16190002194509
1.16190002194747
1.16190002194984
1.16190002195218
1.16190002195448
1.16190002195674
1.16190002195895
1.16190002196111
1.16190002196322
1.16190002196526
1.16190002196725
1.16190002196917
1.16190002197101
1.16190002197281
1.16190002197454
1.16190002197621
1.16190002197781
1.16190002197921
1.16190002197993
1.16190002197866
1.16190002197171
1.16190002194895
1.16190002188301
1.16190002169658
1.16190002115589
1.1619000195358
1.16190001463884
1.16190000037611
1.16189995138934
1.16190001814044
1.16190002967378
1.1619000333809
1.16190003474854
1.16190003522928
1.16190003539444
1.16190003545142
1.16190003547187
1.16190003547981
1.16190003548347
1.16190003548575
1.16190003548765
1.16190003548952
1.16190003549148
1.16190003549354
1.1619000354957
1.16190003549793
1.16190003550022
1.16190003550255
1.1619000355049
1.16190003550727
1.16190003550965
1.16190003551201
1.16190003551435
1.16190003551666
1.16190003551893
1.16190003552116
1.16190003552333
1.16190003552545
1.16190003552751
1.16190003552951
1.16190003553144
1.1619000355333
1.1619000355351
1.16190003553683
1.1619000355385
1.1619000355401
1.16190003554164
1.16190003554308
1.1619000355443
1.16190003554495
1.16190003554403
1.16190003553882
1.16190003552202
1.161900035473
1.16190003532912
1.16190003489386
1.16190003355681
1.16190002954746
1.16190001531938
1.1619000146612
1.16190001784999
1.16190001886239
1.16190001922913
1.16190001935714
1.16190001940123
1.16190001941679
1.16190001942285
1.16190001942577
1.16190001942773
1.16190001942945
1.16190001943119
1.16190001943304
1.16190001943499
1.16190001943705
1.1619000194392
1.16190001944142
1.16190001944369
1.161900019446
1.16190001944833
1.16190001945067
1.16190001945302
1.16190001945534
1.16190001945765
1.16190001945992
1.16190001946216
1.16190001946435
1.16190001946648
1.16190001946856
1.16190001947058
1.16190001947253
1.16190001947442
1.16190001947623
1.16190001947798
1.16190001947966
1.16190001948128
1.16190001948283
1.16190001948431
1.16190001948573
1.16190001948705
1.16190001948819
1.1619000194889
1.16190001948845
1.16190001948496
1.16190001947309
1.16190001943653
1.16190001932357
1.16190001896984
1.16190001787787
1.16190001389198
1.16189999431294
1.16189999516634
1.16189999543521
1.16189999553109
1.16189999556448
1.16189999557622
1.16189999558077
1.16189999558303
1.16189999558464
1.16189999558614
1.16189999558772
1.16189999558942
1.16189999559125
1.1618999955932
1.16189999559524
1.16189999559737
1.16189999559957
1.16189999560182
1.1618999956041
1.1618999956064
1.16189999560871
1.16189999561102
1.16189999561331
1.16189999561558
1.16189999561782
1.16189999562001
1.16189999562216
1.16189999562425
1.16189999562629
1.16189999562826
1.16189999563017
1.16189999563201
1.16189999563378
1.16189999563549
1.16189999563712
1.16189999563868
1.16189999564018
1.16189999564162
1.16189999564299
1.16189999564431
1.16189999564554
1.16189999564663
1.16189999564741
1.16189999564738
1.16189999564521
1.16189999563677
1.16189999560876
1.16189999551812
1.16189999522946
1.16189999414912
1.16189996943083
1.1618999696524
1.16189996972203
1.16189996974664
1.16189996975536
1.16189996975873
1.16189996976045
1.16189996976175
1.16189996976303
1.16189996976443
1.16189996976598
1.16189996976767
1.16189996976949
1.16189996977142
1.16189996977345
1.16189996977556
1.16189996977773
1.16189996977995
1.1618999697822
1.16189996978447
1.16189996978675
1.16189996978902
1.16189996979127
1.1618999697935
1.1618999697957
1.16189996979785
1.16189996979996
1.16189996980201
1.161899969804
1.16189996980593
1.16189996980779
1.16189996980959
1.16189996981131
1.16189996981297
1.16189996981455
1.16189996981606
1.16189996981751
1.1618999698189
1.16189996982022
1.16189996982149
1.16189996982271
1.16189996982385
1.16189996982489
1.16189996982571
1.16189996982597
1.16189996982463
1.16189996981833
1.16189996979604
1.161899969722
1.16189996943815
1.16189994336577
1.16189994342159
1.16189994343929
1.16189994344565
1.16189994344813
1.16189994344942
1.16189994345045
1.16189994345154
1.16189994345276
1.16189994345414
1.16189994345568
1.16189994345737
1.16189994345918
1.1618999434611
1.16189994346311
1.16189994346519
1.16189994346734
1.16189994346953
1.16189994347175
1.16189994347399
1.16189994347623
1.16189994347846
1.16189994348068
1.16189994348287
1.16189994348502
1.16189994348713
1.1618999434892
1.1618999434912
1.16189994349315
1.16189994349503
1.16189994349685
1.16189994349859
1.16189994350027
1.16189994350188
1.16189994350341
1.16189994350487
1.16189994350627
1.1618999435076
1.16189994350887
1.16189994351009
1.16189994351125
1.16189994351237
1.16189994351342
1.16189994351439
1.16189994351519
1.16189994351556
1.16189994351462
1.16189994350957
1.16189994349127
1.16189994341906
1.16189991700038
1.16189991701395
1.16189991701847
1.16189991702031
1.16189991702129
1.1618999170221
1.161899917023
1.16189991702405
1.16189991702528
1.16189991702667
1.16189991702821
1.16189991702989
1.16189991703169
1.1618999170336
1.16189991703559
1.16189991703766
1.16189991703978
1.16189991704194
1.16189991704412
1.16189991704633
1.16189991704853
1.16189991705073
1.1618999170529
1.16189991705505
1.16189991705716
1.16189991705923
1.16189991706125
1.16189991706321
1.16189991706511
1.16189991706694
1.16189991706871
1.16189991707041
1.16189991707204
1.16189991707359
1.16189991707508
1.16189991707649
1.16189991707783
1.16189991707911
1.16189991708032
1.16189991708148
1.16189991708258
1.16189991708364
1.16189991708465
1.16189991708559
1.16189991708647
1.16189991708719
1.16189991708748
1.16189991708664
1.16189991708241
1.16189991706483
1.1618998905607
1.16189989056379
1.16189989056509
1.16189989056586
1.16189989056652
1.16189989056725
1.16189989056815
1.16189989056922
1.16189989057047
1.16189989057187
1.16189989057342
1.1618998905751
1.16189989057689
1.16189989057878
1.16189989058076
1.1618998905828
1.16189989058489
1.16189989058702
1.16189989058917
1.16189989059134
1.16189989059351
1.16189989059567
1.1618998905978
1.16189989059991
1.16189989060197
1.161899890604
1.16189989060597
1.16189989060788
1.16189989060974
1.16189989061152
1.16189989061324
1.16189989061489
1.16189989061647
1.16189989061797
1.1618998906194
1.16189989062076
1.16189989062205
1.16189989062327
1.16189989062443
1.16189989062553
1.16189989062657
1.16189989062756
1.1618998906285
1.16189989062938
1.16189989063021
1.16189989063095
1.16189989063148
1.16189989063159
1.16189989063079
1.16189989062692
1.16189986410313
1.16189986410371
1.16189986410426
1.16189986410482
1.16189986410544
1.1618998641062
1.16189986410713
1.16189986410823
1.1618998641095
1.16189986411091
1.16189986411247
1.16189986411414
1.16189986411593
1.16189986411781
1.16189986411976
1.16189986412178
1.16189986412384
1.16189986412594
1.16189986412807
1.1618998641302
1.16189986413233
1.16189986413444
1.16189986413654
1.1618998641386
1.16189986414062
1.1618998641426
1.16189986414453
1.16189986414639
1.1618998641482
1.16189986414994
1.16189986415161
1.1618998641532
1.16189986415473
1.16189986415618
1.16189986415756
1.16189986415886
1.16189986416009
1.16189986416126
1.16189986416236
1.16189986416339
1.16189986416437
1.16189986416529
1.16189986416616
1.16189986416697
1.16189986416773
1.16189986416841
1.16189986416893
1.1618998641692
1.16189986416919
1.16189986416866
1.1618998376414
1.16189983764142
1.16189983764182
1.16189983764238
1.16189983764304
1.16189983764383
1.1618998376448
1.16189983764593
1.16189983764722
1.16189983764865
1.16189983765021
1.16189983765189
1.16189983765366
1.16189983765553
1.16189983765746
1.16189983765945
1.16189983766149
1.16189983766356
1.16189983766565
1.16189983766775
1.16189983766984
1.16189983767191
1.16189983767396
1.16189983767598
1.16189983767796
1.16189983767989
1.16189983768177
1.16189983768359
1.16189983768535
1.16189983768704
1.16189983768866
1.1618998376902
1.16189983769167
1.16189983769307
1.1618998376944
1.16189983769564
1.16189983769682
1.16189983769793
1.16189983769896
1.16189983769994
1.16189983770085
1.1618998377017
1.1618998377025
1.16189983770323
1.16189983770391
1.16189983770451
1.16189983770498
1.16189983770523
1.16189983770536
1.1618998377056
1.16189981117877
1.16189981117868
1.1618998111791
1.1618998111797
1.16189981118039
1.16189981118123
1.16189981118224
1.16189981118341
1.16189981118471
1.16189981118616
1.16189981118772
1.1618998111894
1.16189981119116
1.16189981119301
1.16189981119493
1.1618998111969
1.16189981119891
1.16189981120095
1.161899811203
1.16189981120506
1.16189981120711
1.16189981120915
1.16189981121116
1.16189981121313
1.16189981121507
1.16189981121695
1.16189981121878
1.16189981122056
1.16189981122226
1.1618998112239
1.16189981122547
1.16189981122696
1.16189981122838
1.16189981122973
1.161899811231
1.16189981123219
1.16189981123331
1.16189981123436
1.16189981123533
1.16189981123624
1.16189981123709
1.16189981123787
1.16189981123859
1.16189981123925
1.16189981123985
1.16189981124038
1.16189981124077
1.16189981124096
1.16189981124107
1.16189981124146
1.16189978471598
1.1618997847159
1.16189978471635
1.161899784717
1.16189978471774
1.16189978471863
1.16189978471967
1.16189978472087
1.1618997847222
1.16189978472365
1.16189978472522
1.1618997847269
1.16189978472866
1.16189978473049
1.16189978473239
1.16189978473433
1.16189978473632
1.16189978473833
1.16189978474035
1.16189978474237
1.16189978474438
1.16189978474638
1.16189978474834
1.16189978475027
1.16189978475216
1.161899784754
1.16189978475578
1.16189978475751
1.16189978475916
1.16189978476075
1.16189978476227
1.16189978476371
1.16189978476508
1.16189978476637
1.16189978476758
1.16189978476872
1.16189978476978
1.16189978477077
1.16189978477168
1.16189978477253
1.1618997847733
1.16189978477402
1.16189978477467
1.16189978477525
1.16189978477577
1.16189978477622
1.16189978477654
1.16189978477666
1.16189978477672
1.1618997847771
1.16189975825319
1.16189975825313
1.16189975825363
1.16189975825433
1.16189975825512
1.16189975825604
1.16189975825712
1.16189975825835
1.1618997582597
1.16189975826117
1.16189975826274
1.16189975826441
1.16189975826617
1.16189975826799
1.16189975826986
1.16189975827179
1.16189975827374
1.16189975827572
1.16189975827771
1.16189975827969
1.16189975828167
1.16189975828362
1.16189975828555
1.16189975828743
1.16189975828928
1.16189975829107
1.1618997582928
1.16189975829448
1.16189975829608
1.16189975829762
1.16189975829909
1.16189975830048
1.16189975830179
1.16189975830303
1.16189975830419
1.16189975830527
1.16189975830627
1.1618997583072
1.16189975830805
1.16189975830883
1.16189975830954
1.16189975831018
1.16189975831076
1.16189975831127
1.16189975831171
1.16189975831208
1.16189975831233
1.16189975831237
1.16189975831238
1.16189975831273
1.1618997317904
1.16189973179038
1.16189973179092
1.16189973179167
1.1618997317925
1.16189973179347
1.16189973179458
1.16189973179583
1.16189973179721
1.16189973179869
1.16189973180027
1.16189973180194
1.16189973180368
1.16189973180549
1.16189973180735
1.16189973180925
1.16189973181118
1.16189973181312
1.16189973181508
1.16189973181703
1.16189973181896
1.16189973182088
1.16189973182276
1.1618997318246
1.1618997318264
1.16189973182814
1.16189973182983
1.16189973183146
1.16189973183302
1.1618997318345
1.16189973183592
1.16189973183725
1.16189973183851
1.1618997318397
1.1618997318408
1.16189973184182
1.16189973184277
1.16189973184363
1.16189973184443
1.16189973184514
1.16189973184579
1.16189973184636
1.16189973184686
1.1618997318473
1.16189973184766
1.16189973184795
1.16189973184813
1.1618997318481
1.16189973184805
1.16189973184836
1.1618997053276
1.16189970532761
1.1618997053282
1.161899705329
1.16189970532987
1.16189970533088
1.16189970533203
1.16189970533331
1.1618997053347
1.1618997053362
1.16189970533779
1.16189970533945
1.16189970534119
1.16189970534298
1.16189970534482
1.1618997053467
1.1618997053486
1.16189970535052
1.16189970535244
1.16189970535435
1.16189970535625
1.16189970535812
1.16189970535996
1.16189970536176
1.16189970536351
1.16189970536521
1.16189970536685
1.16189970536843
1.16189970536994
1.16189970537138
1.16189970537274
1.16189970537403
1.16189970537523
1.16189970537636
1.16189970537741
1.16189970537837
1.16189970537926
1.16189970538007
1.1618997053808
1.16189970538145
1.16189970538203
1.16189970538253
1.16189970538296
1.16189970538332
1.16189970538361
1.16189970538383
1.16189970538393
1.16189970538383
1.16189970538372
1.16189970538399
1.16189967886477
1.16189967886482
1.16189967886545
1.1618996788663
1.16189967886722
1.16189967886826
1.16189967886945
1.16189967887075
1.16189967887217
1.16189967887367
1.16189967887527
1.16189967887693
1.16189967887866
1.16189967888044
1.16189967888226
1.16189967888412
1.16189967888599
1.16189967888788
1.16189967888976
1.16189967889164
1.1618996788935
1.16189967889534
1.16189967889714
1.16189967889889
1.1618996789006
1.16189967890225
1.16189967890385
1.16189967890538
1.16189967890684
1.16189967890822
1.16189967890954
1.16189967891077
1.16189967891193
1.161899678913
1.16189967891399
1.1618996789149
1.16189967891573
1.16189967891648
1.16189967891715
1.16189967891774
1.16189967891825
1.16189967891868
1.16189967891904
1.16189967891933
1.16189967891954
1.16189967891968
1.16189967891971
1.16189967891955
1.16189967891938
1.1618996789196
1.16189965240188
1.16189965240197
1.16189965240265
1.16189965240355
1.16189965240451
1.16189965240559
1.16189965240681
1.16189965240814
1.16189965240957
1.16189965241109
1.16189965241269
1.16189965241436
1.16189965241608
1.16189965241784
1.16189965241965
1.16189965242148
1.16189965242333
1.16189965242519
1.16189965242704
1.16189965242889
1.16189965243071
1.1618996524325
1.16189965243426
1.16189965243598
1.16189965243764
1.16189965243925
1.1618996524408
1.16189965244228
1.16189965244369
1.16189965244503
1.16189965244629
1.16189965244747
1.16189965244858
1.1618996524496
1.16189965245054
1.16189965245139
1.16189965245216
1.16189965245285
1.16189965245346
1.16189965245398
1.16189965245443
1.16189965245479
1.16189965245508
1.1618996524553
1.16189965245544
1.1618996524555
1.16189965245546
1.16189965245522
1.161899652455
1.16189965245518
1.16189962593892
1.16189962593904
1.16189962593977
1.16189962594072
1.16189962594172
1.16189962594285
1.1618996259441
1.16189962594545
1.16189962594691
1.16189962594844
1.16189962595004
1.16189962595171
1.16189962595342
1.16189962595517
1.16189962595696
1.16189962595877
1.1618996259606
1.16189962596243
1.16189962596425
1.16189962596606
1.16189962596784
1.1618996259696
1.16189962597132
1.16189962597299
1.16189962597461
1.16189962597618
1.16189962597768
1.16189962597912
1.16189962598048
1.16189962598177
1.16189962598298
1.16189962598412
1.16189962598517
1.16189962598614
1.16189962598702
1.16189962598782
1.16189962598854
1.16189962598917
1.16189962598971
1.16189962599018
1.16189962599056
1.16189962599086
1.16189962599107
1.16189962599122
1.16189962599128
1.16189962599127
1.16189962599116
1.16189962599085
1.16189962599056
1.1618996259907
1.16189959947585
1.16189959947602
1.1618995994768
1.1618995994778
1.16189959947884
1.16189959948
1.16189959948129
1.16189959948267
1.16189959948414
1.16189959948569
1.1618995994873
1.16189959948896
1.16189959949067
1.16189959949241
1.16189959949418
1.16189959949597
1.16189959949777
1.16189959949957
1.16189959950136
1.16189959950314
1.16189959950489
1.16189959950661
1.16189959950829
1.16189959950992
1.1618995995115
1.16189959951302
1.16189959951448
1.16189959951587
1.16189959951719
1.16189959951843
1.16189959951959
1.16189959952068
1.16189959952168
1.1618995995226
1.16189959952343
1.16189959952418
1.16189959952484
1.16189959952541
1.1618995995259
1.1618995995263
1.16189959952662
1.16189959952685
1.161899599527
1.16189959952707
1.16189959952706
1.16189959952698
1.1618995995268
1.16189959952641
1.16189959952606
1.16189959952615
1.16189957301267
1.16189957301287
1.1618995730137
1.16189957301476
1.16189957301584
1.16189957301705
1.16189957301837
1.16189957301978
1.16189957302127
1.16189957302282
1.16189957302444
1.1618995730261
1.1618995730278
1.16189957302953
1.16189957303129
1.16189957303306
1.16189957303483
1.16189957303661
1.16189957303837
1.16189957304011
1.16189957304183
1.16189957304351
1.16189957304515
1.16189957304675
1.16189957304828
1.16189957304976
1.16189957305118
1.16189957305252
1.1618995730538
1.16189957305499
1.16189957305611
1.16189957305715
1.1618995730581
1.16189957305897
1.16189957305975
1.16189957306044
1.16189957306105
1.16189957306157
1.161899573062
1.16189957306234
1.16189957306259
1.16189957306276
1.16189957306284
1.16189957306284
1.16189957306276
1.1618995730626
1.16189957306235
1.1618995730619
1.16189957306148
1.16189957306152
1.16189954654934
1.16189954654959
1.16189954655047
1.16189954655159
1.16189954655271
1.16189954655396
1.16189954655531
1.16189954655674
1.16189954655825
1.16189954655982
1.16189954656144
1.1618995465631
1.1618995465648
1.16189954656652
1.16189954656826
1.16189954657001
1.16189954657177
1.16189954657351
1.16189954657525
1.16189954657696
1.16189954657864
1.16189954658029
1.16189954658189
1.16189954658345
1.16189954658495
1.16189954658638
1.16189954658776
1.16189954658906
1.16189954659029
1.16189954659144
1.16189954659251
1.1618995465935
1.16189954659441
1.16189954659523
1.16189954659596
1.1618995465966
1.16189954659715
1.16189954659762
1.16189954659799
1.16189954659827
1.16189954659847
1.16189954659857
1.16189954659858
1.16189954659851
1.16189954659837
1.16189954659814
1.16189954659781
1.16189954659728
1.1618995465968
1.16189954659679
1.16189952008584
1.16189952008614
1.16189952008708
1.16189952008826
1.16189952008943
1.16189952009072
1.1618995200921
1.16189952009356
1.16189952009509
1.16189952009667
1.1618995200983
1.16189952009996
1.16189952010165
1.16189952010336
1.16189952010508
1.16189952010682
1.16189952010855
1.16189952011027
1.16189952011198
1.16189952011366
1.16189952011531
1.16189952011692
1.16189952011849
1.16189952012001
1.16189952012147
1.16189952012287
1.1618995201242
1.16189952012546
1.16189952012665
1.16189952012776
1.16189952012878
1.16189952012973
1.16189952013059
1.16189952013136
1.16189952013204
1.16189952013264
1.16189952013314
1.16189952013355