/*--------------------------------*- C++ -*----------------------------------*\
  =========                 |
  \\      /  F ield         | OpenFOAM: The Open Source CFD Toolbox
   \\    /   O peration     | Website:  https://openfoam.org
    \\  /    A nd           | Version:  10
     \\/     M anipulation  |
\*---------------------------------------------------------------------------*/
FoamFile
{
    format      ascii;
    class       volScalarField;
    location    "3.4";
    object      T;
}
// * * * * * * * * * * * * * * * * * * * * * * * * * * * * * * * * * * * * * //

dimensions      [0 0 0 1 0 0 0];

internalField   nonuniform List<scalar> 
2500
(
305.07861630835
305.051624765486
305.028566913581
305.01798229825
305.013742377886
305.012114874735
305.011514934623
305.011304121191
305.011233297616
305.011211024497
305.01120286411
305.011199740081
305.011198389602
305.011197113348
305.011195984814
305.01119477029
305.011194127924
305.011193347303
305.011192463413
305.011191833142
305.011191255632
305.01119070289
305.01119022621
305.011189981067
305.011189722831
305.011189432158
305.011189329901
305.011189243217
305.011189186985
305.011189265642
305.011189377923
305.011189562958
305.011189923203
305.011190399391
305.011190856684
305.011191355302
305.011191959371
305.011192599616
305.011194176799
305.011197274701
305.011205845806
305.011231690738
305.011309286708
305.011533264459
305.012152339956
305.013785728308
305.01799652972
305.028569884053
305.051943948628
305.078481328097
303.43000868127
303.346576348536
303.282526277794
303.25104412004
303.237093089765
303.231200497678
303.228839119317
303.227952837436
303.22764286815
303.227541938423
303.227510493399
303.227501115942
303.227498433617
303.227497348563
303.227496701764
303.227496135993
303.227495816125
303.227495447094
303.227495018719
303.227494676241
303.227494309334
303.227493889657
303.227493503377
303.227493331148
303.227493201268
303.227493005315
303.227492950058
303.227492897543
303.227492766323
303.227492845001
303.227492890282
303.227492838249
303.227493221332
303.227493744084
303.227493995487
303.227494219128
303.227494680164
303.227495742101
303.227499301375
303.227510726091
303.227547747385
303.227662669465
303.227999512449
303.228927416487
303.231328594236
303.237203702755
303.251029326397
303.282511925831
303.347702395292
303.43055269258
302.03104253139
301.928384742134
301.854441790029
301.818187028097
301.802129045583
301.795341362498
301.792611031035
301.79157969789
301.791216392434
301.791097160911
301.791060225012
301.791049475556
301.791046676221
301.79104586832
301.791045575322
301.791045405531
301.791045324691
301.791045221811
301.791045073113
301.791044941052
301.791044760216
301.791044504801
301.791044240779
301.791044113678
301.791044054355
301.791043931558
301.791043918294
301.791043893548
301.791043773074
301.791043832892
301.791043830826
301.791043721033
301.791044036885
301.791044470505
301.791044483275
301.791044454099
301.791044817385
301.791045889597
301.791049661571
301.791062561952
301.791105053676
301.79123756069
301.791625863795
301.792694079226
301.795455262719
301.802217555346
301.818170423008
301.854575578393
301.930201335939
302.034376410912
301.068732660995
300.982641914932
300.927590983232
300.901444864766
300.890356984363
300.885852966873
300.884092174463
300.88343841786
300.883210202701
300.883135587241
300.883112504896
300.883105861524
300.883104238741
300.883103842459
300.883103782706
300.883103778603
300.883103791319
300.883103791958
300.883103762012
300.883103735436
300.883103673795
300.883103549513
300.883103394512
300.883103305502
300.883103283468
300.883103230491
300.88310323251
300.883103256844
300.883103215295
300.883103219742
300.88310321279
300.883103117991
300.883103283809
300.883103502465
300.883103498465
300.883103489127
300.883103563363
300.883104065543
300.883106224344
300.883113781636
300.883139118281
300.883219418588
300.883458394679
300.88412810576
300.88590212492
300.890395786577
300.901463647168
300.927877256975
300.984514742512
301.073665438492
300.506853489053
300.450037243864
300.417549259911
300.402577016038
300.39646347195
300.394066030581
300.393151533099
300.392816299056
300.392699736547
300.392661568749
300.392649697771
300.392646292913
300.392645519062
300.39264537653
300.392645388561
300.392645416153
300.392645448705
300.3926454704
300.392645475861
300.39264547748
300.392645464747
300.392645418327
300.392645342124
300.392645288815
300.392645291041
300.392645296295
300.392645302023
300.392645314324
300.392645303432
300.392645305044
300.392645292501
300.39264521928
300.392645295968
300.392645389167
300.392645372711
300.392645369504
300.3926453823
300.392645556994
300.392646548419
300.392650204431
300.39266261481
300.392702342597
300.392821710749
300.393160618464
300.394076318002
300.396465741118
300.402583970975
300.417782849651
300.451448928097
300.511410548691
300.219482296466
300.187936348277
300.171661746818
300.164357874129
300.161465559081
300.160364400607
300.159953031465
300.159803674287
300.15975178411
300.159734716689
300.159729364253
300.159727825674
300.159727507354
300.159727472706
300.159727488523
300.159727512664
300.159727538007
300.1597275579
300.159727568804
300.159727573974
300.159727574072
300.159727559059
300.15972752793
300.159727506261
300.159727512341
300.15972752183
300.159727526223
300.159727533098
300.159727529854
300.159727529732
300.159727522336
300.15972748273
300.159727512705
300.159727546634
300.159727536821
300.159727538164
300.159727532343
300.159727577217
300.159727974717
300.159729535663
300.159734894465
300.15975213074
300.159804156217
300.159953072305
300.160361622576
300.161454822624
300.164348535518
300.171786645583
300.188786081068
300.222684974446
300.08776921792
300.072445353962
300.065242634508
300.06208603432
300.060866052777
300.060412757021
300.06024639421
300.060186446706
300.060165599928
300.06015870163
300.060156519526
300.060155892747
300.060155772989
300.060155767915
300.060155779805
300.060155794236
300.060155808714
300.060155820467
300.060155827896
300.060155831523
300.06015583397
300.060155829961
300.060155818703
300.060155812693
300.060155816914
300.060155821783
300.060155824287
300.060155827601
300.060155826645
300.060155826313
300.06015582297
300.060155804853
300.060155814903
300.060155825277
300.06015582126
300.060155821848
300.060155816736
300.060155824745
300.060155966241
300.060156574516
300.060158686409
300.060165481791
300.0601860023
300.06024497564
300.060408600423
300.060855637687
300.062072370471
300.065291768274
300.07287647938
300.089631722986
300.03272752284
300.026044194859
300.02315204217
300.021912413748
300.021442463897
300.021271268539
300.021209384677
300.021187224836
300.021179505382
300.021176934074
300.021176114607
300.02117587999
300.021175837835
300.021175838962
300.021175845646
300.021175852825
300.021175859727
300.021175865355
300.021175869188
300.021175871085
300.021175872882
300.021175872096
300.021175868491
300.021175867788
300.021175870045
300.021175871832
300.021175872946
300.021175874599
300.021175874108
300.021175873357
300.021175872415
300.021175865216
300.021175867895
300.021175870363
300.021175868542
300.021175868452
300.021175865137
300.021175865404
300.021175912684
300.021176133254
300.021176908289
300.021179394876
300.02118688329
300.021208417539
300.021268630432
300.021435935562
300.021901945887
300.023166071959
300.026235152307
300.03366635518
300.011472892734
300.008807156903
300.007733511237
300.007283201527
300.007115117924
300.007054852093
300.0070333479
300.007025689823
300.007023017127
300.007022121135
300.007021833927
300.007021752112
300.007021738129
300.007021739492
300.007021742651
300.007021745801
300.007021748705
300.007021751069
300.007021752774
300.007021753646
300.007021754529
300.007021754519
300.007021753617
300.007021753923
300.007021754872
300.007021755459
300.00702175588
300.007021756491
300.007021756306
300.007021755927
300.007021755556
300.007021752891
300.007021753495
300.007021753825
300.007021752972
300.007021752845
300.007021751152
300.007021750376
300.007021765316
300.007021840971
300.007022109288
300.007022965612
300.00702553141
300.007032894651
300.007053580554
300.007111825708
300.007277173731
300.007735628041
300.00888277267
300.011895320934
300.003807470494
300.002821620282
300.00244802583
300.002294701798
300.00223820412
300.002218200808
300.002211141431
300.00220864008
300.002207765724
300.002207470922
300.002207376027
300.002207349227
300.002207344843
300.002207345524
300.002207346839
300.002207348092
300.002207349206
300.002207350117
300.002207350806
300.002207351195
300.002207351544
300.002207351609
300.002207351478
300.002207351729
300.002207352068
300.002207352263
300.002207352408
300.002207352599
300.002207352531
300.002207352379
300.00220735223
300.002207351304
300.002207351308
300.002207351304
300.002207351009
300.002207350812
300.002207350071
300.002207349588
300.002207354125
300.002207378896
300.002207467283
300.002207747501
300.0022085816
300.00221096552
300.002217676909
300.002236764527
300.002291796732
300.002447412408
300.002848835994
300.003980610718
300.001203273046
300.00086162212
300.00073851364
300.000689086656
300.000671074385
300.000664759864
300.000662551918
300.000661773247
300.000661500775
300.000661408469
300.000661378674
300.000661370333
300.000661369019
300.000661369306
300.000661369803
300.000661370262
300.000661370659
300.000661370986
300.000661371244
300.0006613714
300.00066137153
300.000661371584
300.000661371595
300.000661371703
300.000661371809
300.000661371872
300.00066137192
300.000661371974
300.000661371946
300.000661371892
300.000661371837
300.000661371571
300.000661371536
300.000661371484
300.000661371346
300.000661371208
300.000661370922
300.00066137074
300.00066137208
300.000661379841
300.000661407713
300.000661495448
300.000661754674
300.000662491505
300.000664565738
300.000670507114
300.000687852289
300.000737792542
300.000870629124
300.001268880217
300.000363948799
300.000252061258
300.000213348308
300.000198143724
300.000192657612
300.000190749104
300.000190086828
300.000189854288
300.000189772883
300.000189745203
300.000189736253
300.000189733766
300.000189733388
300.000189733496
300.000189733669
300.000189733825
300.000189733957
300.000189734068
300.000189734157
300.000189734215
300.000189734261
300.000189734286
300.000189734303
300.000189734342
300.000189734373
300.000189734392
300.000189734408
300.000189734418
300.000189734408
300.000189734394
300.000189734374
300.0001897343
300.000189734276
300.000189734248
300.000189734193
300.000189734128
300.000189734028
300.000189733967
300.000189734354
300.000189736702
300.000189745154
300.000189771569
300.000189849023
300.000190067782
300.000190682481
300.000192451263
300.000197666816
300.000212938587
300.000254823666
300.000387192179
300.000105813127
300.000070950705
300.000059265896
300.000054775198
300.000053169727
300.000052614525
300.000052423032
300.000052356066
300.000052332626
300.000052324634
300.000052322047
300.000052321331
300.000052321225
300.000052321261
300.000052321316
300.000052321365
300.000052321407
300.000052321441
300.00005232147
300.00005232149
300.000052321505
300.000052321514
300.000052321522
300.000052321534
300.000052321542
300.000052321548
300.000052321553
300.000052321555
300.000052321553
300.000052321548
300.000052321541
300.00005232152
300.00005232151
300.000052321499
300.000052321479
300.000052321455
300.000052321423
300.000052321404
300.000052321516
300.000052322205
300.000052324679
300.000052332356
300.000052354697
300.000052417371
300.00005259292
300.000053099275
300.000054604209
300.000059081714
300.000071739489
300.000113580446
300.00002968127
300.000019288467
300.000015888222
300.000014608548
300.000014155044
300.000013998932
300.00001394534
300.000013926666
300.000013920132
300.000013917899
300.000013917175
300.000013916974
300.000013916943
300.000013916953
300.000013916969
300.000013916983
300.000013916994
300.000013917004
300.000013917012
300.000013917018
300.000013917022
300.000013917025
300.000013917028
300.000013917031
300.000013917033
300.000013917034
300.000013917036
300.000013917036
300.000013917035
300.000013917034
300.000013917032
300.000013917026
300.000013917023
300.00001391702
300.000013917013
300.000013917006
300.000013916997
300.000013916992
300.000013917026
300.000013917223
300.000013917925
300.000013920086
300.000013926328
300.000013943715
300.000013992214
300.000014132193
300.000014550845
300.000015815597
300.000019498471
300.000032146968
300.000008059108
300.000005081116
300.000004123851
300.00000377064
300.00000364652
300.000003603946
300.000003589381
300.00000358432
300.00000358255
300.000003581942
300.000003581744
300.000003581688
300.000003581677
300.000003581679
300.000003581682
300.000003581684
300.000003581687
300.000003581688
300.00000358169
300.000003581691
300.000003581692
300.000003581692
300.000003581692
300.000003581693
300.000003581693
300.000003581693
300.000003581693
300.000003581694
300.000003581693
300.000003581693
300.000003581693
300.000003581692
300.000003581691
300.00000358169
300.000003581689
300.000003581688
300.000003581686
300.000003581686
300.000003581698
300.000003581754
300.000003581948
300.00000358254
300.000003584234
300.000003588919
300.00000360192
300.000003639416
300.000003752122
300.00000409767
300.000005133116
300.000008806963
300.000002124398
300.000001300979
300.000001039508
300.000000944763
300.000000911742
300.000000900448
300.000000896591
300.000000895253
300.000000894784
300.000000894621
300.000000894566
300.000000894549
300.000000894544
300.000000894543
300.000000894542
300.000000894541
300.000000894541
300.00000089454
300.00000089454
300.000000894539
300.000000894539
300.000000894538
300.000000894538
300.000000894538
300.000000894537
300.000000894537
300.000000894537
300.000000894537
300.000000894537
300.000000894537
300.000000894537
300.000000894537
300.000000894538
300.000000894538
300.000000894539
300.000000894539
300.00000089454
300.000000894542
300.000000894546
300.000000894563
300.000000894617
300.000000894776
300.000000895226
300.000000896456
300.000000899847
300.000000909608
300.000000939068
300.000001030691
300.000001312847
300.000002342162
300.000000545302
300.000000324894
300.000000255425
300.000000230645
300.000000222077
300.000000219153
300.000000218155
300.000000217807
300.000000217683
300.000000217638
300.000000217622
300.000000217615
300.000000217611
300.000000217609
300.000000217607
300.000000217606
300.000000217604
300.000000217603
300.000000217602
300.000000217601
300.0000002176
300.000000217599
300.000000217599
300.000000217598
300.000000217598
300.000000217598
300.000000217597
300.000000217597
300.000000217597
300.000000217598
300.000000217598
300.000000217598
300.000000217599
300.0000002176
300.000000217601
300.000000217602
300.000000217603
300.000000217605
300.000000217608
300.000000217615
300.000000217631
300.000000217674
300.000000217793
300.00000021811
300.000000218974
300.000000221452
300.000000228955
300.000000252613
300.000000327334
300.000000606421
300.000000136896
300.000000079643
300.000000061638
300.000000055287
300.000000053107
300.000000052364
300.000000052109
300.000000052018
300.000000051984
300.000000051969
300.000000051963
300.000000051959
300.000000051956
300.000000051953
300.000000051951
300.000000051949
300.000000051947
300.000000051946
300.000000051945
300.000000051943
300.000000051942
300.000000051942
300.000000051941
300.00000005194
300.00000005194
300.00000005194
300.000000051939
300.000000051939
300.000000051939
300.00000005194
300.00000005194
300.000000051941
300.000000051941
300.000000051942
300.000000051944
300.000000051945
300.000000051947
300.000000051949
300.000000051951
300.000000051955
300.000000051961
300.000000051974
300.000000052007
300.000000052089
300.000000052306
300.000000052923
300.000000054797
300.00000006078
300.000000080066
300.000000153483
300.000000033983
300.000000019541
300.000000014964
300.000000013346
300.000000012795
300.000000012607
300.00000001254
300.000000012515
300.000000012503
300.000000012497
300.000000012492
300.000000012489
300.000000012486
300.000000012484
300.000000012481
300.000000012479
300.000000012478
300.000000012476
300.000000012475
300.000000012473
300.000000012472
300.000000012472
300.000000012471
300.00000001247
300.00000001247
300.000000012469
300.000000012469
300.000000012469
300.000000012469
300.00000001247
300.00000001247
300.000000012471
300.000000012471
300.000000012472
300.000000012474
300.000000012475
300.000000012477
300.000000012479
300.000000012481
300.000000012484
300.000000012488
300.000000012494
300.000000012504
300.000000012527
300.000000012583
300.000000012737
300.000000013205
300.000000014709
300.000000019586
300.000000038344
300.000000008664
300.000000005146
300.000000003985
300.000000003556
300.000000003411
300.000000003361
300.000000003341
300.000000003332
300.000000003326
300.000000003322
300.000000003318
300.000000003315
300.000000003312
300.000000003309
300.000000003307
300.000000003305
300.000000003303
300.000000003302
300.0000000033
300.000000003299
300.000000003298
300.000000003297
300.000000003296
300.000000003295
300.000000003295
300.000000003295
300.000000003295
300.000000003295
300.000000003295
300.000000003295
300.000000003295
300.000000003296
300.000000003297
300.000000003298
300.000000003299
300.0000000033
300.000000003302
300.000000003304
300.000000003307
300.000000003309
300.000000003312
300.000000003316
300.000000003322
300.00000000333
300.000000003346
300.000000003388
300.000000003512
300.00000000391
300.000000005135
300.000000009772
300.00000000257
300.000000001769
300.000000001459
300.000000001322
300.000000001275
300.000000001259
300.000000001251
300.000000001246
300.000000001242
300.000000001238
300.000000001234
300.000000001231
300.000000001228
300.000000001225
300.000000001223
300.000000001221
300.000000001219
300.000000001218
300.000000001216
300.000000001215
300.000000001214
300.000000001213
300.000000001212
300.000000001211
300.000000001211
300.000000001211
300.00000000121
300.00000000121
300.000000001211
300.000000001211
300.000000001211
300.000000001212
300.000000001213
300.000000001214
300.000000001215
300.000000001217
300.000000001218
300.00000000122
300.000000001223
300.000000001225
300.000000001228
300.000000001232
300.000000001236
300.00000000124
300.000000001247
300.000000001262
300.000000001304
300.000000001434
300.000000001755
300.000000002838
300.000000001134
300.000000000992
300.000000000889
300.000000000822
300.0000000008
300.000000000792
300.000000000787
300.000000000782
300.000000000778
300.000000000775
300.000000000771
300.000000000768
300.000000000765
300.000000000762
300.00000000076
300.000000000758
300.000000000756
300.000000000754
300.000000000753
300.000000000752
300.000000000751
300.00000000075
300.000000000749
300.000000000748
300.000000000748
300.000000000747
300.000000000747
300.000000000747
300.000000000747
300.000000000748
300.000000000748
300.000000000749
300.00000000075
300.000000000751
300.000000000752
300.000000000753
300.000000000755
300.000000000757
300.00000000076
300.000000000762
300.000000000765
300.000000000768
300.000000000772
300.000000000776
300.00000000078
300.000000000788
300.000000000812
300.000000000878
300.00000000098
300.00000000119
300.000000000801
300.000000000816
300.000000000762
300.000000000713
300.000000000696
300.00000000069
300.000000000686
300.000000000681
300.000000000678
300.000000000674
300.000000000671
300.000000000667
300.000000000664
300.000000000662
300.000000000659
300.000000000657
300.000000000656
300.000000000654
300.000000000652
300.000000000651
300.00000000065
300.000000000649
300.000000000648
300.000000000648
300.000000000647
300.000000000647
300.000000000647
300.000000000647
300.000000000647
300.000000000647
300.000000000648
300.000000000648
300.000000000649
300.00000000065
300.000000000651
300.000000000653
300.000000000655
300.000000000657
300.000000000659
300.000000000662
300.000000000664
300.000000000668
300.000000000671
300.000000000675
300.000000000679
300.000000000685
300.000000000704
300.000000000755
300.000000000805
300.000000000805
300.000000000725
300.000000000777
300.000000000735
300.000000000689
300.000000000673
300.000000000668
300.000000000664
300.00000000066
300.000000000656
300.000000000653
300.000000000649
300.000000000646
300.000000000643
300.000000000641
300.000000000638
300.000000000636
300.000000000634
300.000000000632
300.000000000631
300.00000000063
300.000000000629
300.000000000628
300.000000000627
300.000000000626
300.000000000626
300.000000000625
300.000000000625
300.000000000625
300.000000000625
300.000000000626
300.000000000626
300.000000000627
300.000000000628
300.000000000629
300.00000000063
300.000000000632
300.000000000633
300.000000000635
300.000000000638
300.00000000064
300.000000000643
300.000000000646
300.00000000065
300.000000000653
300.000000000657
300.000000000663
300.000000000681
300.000000000728
300.000000000767
300.000000000717
300.000000000708
300.000000000769
300.000000000729
300.000000000684
300.000000000669
300.000000000663
300.00000000066
300.000000000656
300.000000000652
300.000000000648
300.000000000645
300.000000000642
300.000000000639
300.000000000636
300.000000000634
300.000000000632
300.00000000063
300.000000000628
300.000000000627
300.000000000625
300.000000000624
300.000000000623
300.000000000622
300.000000000622
300.000000000621
300.000000000621
300.000000000621
300.000000000621
300.000000000621
300.000000000621
300.000000000622
300.000000000622
300.000000000623
300.000000000624
300.000000000626
300.000000000627
300.000000000629
300.000000000631
300.000000000633
300.000000000636
300.000000000639
300.000000000642
300.000000000645
300.000000000649
300.000000000653
300.000000000658
300.000000000676
300.000000000723
300.000000000758
300.000000000697
300.000000000704
300.000000000767
300.000000000728
300.000000000683
300.000000000668
300.000000000663
300.000000000659
300.000000000655
300.000000000651
300.000000000647
300.000000000644
300.000000000641
300.000000000638
300.000000000635
300.000000000633
300.000000000631
300.000000000629
300.000000000627
300.000000000626
300.000000000624
300.000000000623
300.000000000622
300.000000000622
300.000000000621
300.000000000621
300.00000000062
300.00000000062
300.00000000062
300.00000000062
300.00000000062
300.000000000621
300.000000000622
300.000000000622
300.000000000623
300.000000000625
300.000000000626
300.000000000628
300.00000000063
300.000000000632
300.000000000635
300.000000000638
300.000000000641
300.000000000644
300.000000000648
300.000000000652
300.000000000658
300.000000000675
300.000000000722
300.000000000757
300.000000000693
300.000000000704
300.000000000767
300.000000000727
300.000000000683
300.000000000668
300.000000000662
300.000000000658
300.000000000654
300.000000000651
300.000000000647
300.000000000644
300.00000000064
300.000000000637
300.000000000635
300.000000000633
300.00000000063
300.000000000629
300.000000000627
300.000000000625
300.000000000624
300.000000000623
300.000000000622
300.000000000621
300.000000000621
300.00000000062
300.00000000062
300.00000000062
300.00000000062
300.00000000062
300.00000000062
300.000000000621
300.000000000621
300.000000000622
300.000000000623
300.000000000625
300.000000000626
300.000000000628
300.00000000063
300.000000000632
300.000000000635
300.000000000638
300.000000000641
300.000000000644
300.000000000648
300.000000000651
300.000000000657
300.000000000675
300.000000000722
300.000000000757
300.000000000692
300.000000000704
300.000000000767
300.000000000728
300.000000000683
300.000000000667
300.000000000662
300.000000000658
300.000000000654
300.00000000065
300.000000000647
300.000000000643
300.00000000064
300.000000000637
300.000000000635
300.000000000632
300.00000000063
300.000000000628
300.000000000627
300.000000000625
300.000000000624
300.000000000623
300.000000000622
300.000000000621
300.00000000062
300.00000000062
300.00000000062
300.00000000062
300.00000000062
300.00000000062
300.00000000062
300.00000000062
300.000000000621
300.000000000622
300.000000000623
300.000000000624
300.000000000626
300.000000000628
300.00000000063
300.000000000632
300.000000000635
300.000000000637
300.000000000641
300.000000000644
300.000000000648
300.000000000651
300.000000000657
300.000000000675
300.000000000722
300.000000000757
300.000000000693
300.000000000705
300.000000000768
300.000000000728
300.000000000683
300.000000000667
300.000000000662
300.000000000658
300.000000000654
300.00000000065
300.000000000646
300.000000000643
300.000000000639
300.000000000637
300.000000000634
300.000000000632
300.00000000063
300.000000000628
300.000000000626
300.000000000625
300.000000000623
300.000000000622
300.000000000621
300.000000000621
300.00000000062
300.00000000062
300.000000000619
300.000000000619
300.000000000619
300.000000000619
300.00000000062
300.00000000062
300.000000000621
300.000000000622
300.000000000623
300.000000000624
300.000000000625
300.000000000627
300.000000000629
300.000000000632
300.000000000634
300.000000000637
300.00000000064
300.000000000644
300.000000000647
300.000000000651
300.000000000658
300.000000000675
300.000000000723
300.000000000758
300.000000000694
300.000000000706
300.000000000769
300.000000000728
300.000000000683
300.000000000667
300.000000000661
300.000000000657
300.000000000653
300.000000000649
300.000000000645
300.000000000642
300.000000000639
300.000000000636
300.000000000633
300.000000000631
300.000000000629
300.000000000627
300.000000000626
300.000000000624
300.000000000623
300.000000000622
300.000000000621
300.00000000062
300.00000000062
300.000000000619
300.000000000619
300.000000000619
300.000000000619
300.000000000619
300.000000000619
300.00000000062
300.00000000062
300.000000000621
300.000000000622
300.000000000623
300.000000000625
300.000000000627
300.000000000629
300.000000000631
300.000000000634
300.000000000637
300.00000000064
300.000000000643
300.000000000647
300.000000000651
300.000000000658
300.000000000676
300.000000000723
300.000000000759
300.000000000695
300.000000000707
300.00000000077
300.000000000729
300.000000000683
300.000000000667
300.000000000661
300.000000000657
300.000000000652
300.000000000648
300.000000000645
300.000000000641
300.000000000638
300.000000000635
300.000000000633
300.00000000063
300.000000000628
300.000000000627
300.000000000625
300.000000000624
300.000000000622
300.000000000621
300.00000000062
300.00000000062
300.000000000619
300.000000000619
300.000000000618
300.000000000618
300.000000000618
300.000000000618
300.000000000619
300.000000000619
300.00000000062
300.000000000621
300.000000000622
300.000000000623
300.000000000624
300.000000000626
300.000000000628
300.00000000063
300.000000000633
300.000000000636
300.000000000639
300.000000000643
300.000000000647
300.000000000651
300.000000000658
300.000000000676
300.000000000724
300.000000000761
300.000000000696
300.000000000709
300.000000000771
300.00000000073
300.000000000683
300.000000000667
300.000000000661
300.000000000656
300.000000000651
300.000000000647
300.000000000644
300.00000000064
300.000000000637
300.000000000634
300.000000000632
300.000000000629
300.000000000627
300.000000000626
300.000000000624
300.000000000623
300.000000000622
300.000000000621
300.00000000062
300.000000000619
300.000000000618
300.000000000618
300.000000000618
300.000000000618
300.000000000618
300.000000000618
300.000000000618
300.000000000619
300.000000000619
300.00000000062
300.000000000621
300.000000000622
300.000000000624
300.000000000625
300.000000000627
300.00000000063
300.000000000632
300.000000000635
300.000000000639
300.000000000642
300.000000000646
300.000000000651
300.000000000658
300.000000000677
300.000000000725
300.000000000762
300.000000000698
300.00000000071
300.000000000773
300.000000000731
300.000000000684
300.000000000667
300.00000000066
300.000000000655
300.00000000065
300.000000000646
300.000000000642
300.000000000639
300.000000000636
300.000000000633
300.000000000631
300.000000000628
300.000000000626
300.000000000625
300.000000000623
300.000000000622
300.000000000621
300.00000000062
300.000000000619
300.000000000618
300.000000000618
300.000000000617
300.000000000617
300.000000000617
300.000000000617
300.000000000617
300.000000000617
300.000000000618
300.000000000618
300.000000000619
300.00000000062
300.000000000621
300.000000000623
300.000000000624
300.000000000626
300.000000000629
300.000000000631
300.000000000634
300.000000000638
300.000000000642
300.000000000646
300.000000000651
300.000000000658
300.000000000677
300.000000000726
300.000000000765
300.000000000701
300.000000000713
300.000000000775
300.000000000732
300.000000000684
300.000000000666
300.000000000659
300.000000000654
300.000000000649
300.000000000645
300.000000000641
300.000000000637
300.000000000634
300.000000000632
300.000000000629
300.000000000627
300.000000000625
300.000000000624
300.000000000622
300.000000000621
300.00000000062
300.000000000619
300.000000000618
300.000000000617
300.000000000617
300.000000000616
300.000000000616
300.000000000616
300.000000000616
300.000000000616
300.000000000616
300.000000000617
300.000000000617
300.000000000618
300.000000000619
300.00000000062
300.000000000622
300.000000000623
300.000000000625
300.000000000628
300.00000000063
300.000000000633
300.000000000637
300.000000000641
300.000000000645
300.00000000065
300.000000000658
300.000000000678
300.000000000728
300.000000000767
300.000000000703
300.000000000716
300.000000000778
300.000000000733
300.000000000684
300.000000000666
300.000000000658
300.000000000653
300.000000000648
300.000000000643
300.000000000639
300.000000000636
300.000000000633
300.00000000063
300.000000000628
300.000000000626
300.000000000624
300.000000000622
300.000000000621
300.00000000062
300.000000000619
300.000000000618
300.000000000617
300.000000000616
300.000000000616
300.000000000615
300.000000000615
300.000000000615
300.000000000615
300.000000000615
300.000000000615
300.000000000616
300.000000000616
300.000000000617
300.000000000618
300.000000000619
300.000000000621
300.000000000622