/*--------------------------------*- C++ -*----------------------------------*\
  =========                 |
  \\      /  F ield         | OpenFOAM: The Open Source CFD Toolbox
   \\    /   O peration     | Website:  https://openfoam.org
    \\  /    A nd           | Version:  10
     \\/     M anipulation  |
\*---------------------------------------------------------------------------*/
FoamFile
{
    format      ascii;
    class       volVectorField;
    location    "3.4";
    object      U;
}
// * * * * * * * * * * * * * * * * * * * * * * * * * * * * * * * * * * * * * //

dimensions      [0 1 -1 0 0 0 0];

internalField   nonuniform List<vector> 
2500
(
(-1.63558870763255e-06 -1.00033218967454e-05 1.09276107663809e-24)
(-3.89714621942539e-06 -1.22172781630891e-05 1.12977517716697e-23)
(-2.81286882550185e-06 -1.26355204453568e-05 1.28949477430469e-24)
(-1.92788345346063e-06 -1.2654015842878e-05 5.48175499311256e-25)
(-1.22181329018875e-06 -1.25673334589618e-05 3.17240814414398e-24)
(-7.8741189196301e-07 -1.24912839067386e-05 7.51110935848799e-25)
(-5.38314633395233e-07 -1.24464089299518e-05 2.98096347971825e-25)
(-3.82474307959384e-07 -1.24224494518451e-05 3.90398379769361e-25)
(-2.8309442132692e-07 -1.24113152648544e-05 1.28099548313394e-24)
(-2.15290675994321e-07 -1.24064455587634e-05 1.12145231892679e-23)
(-1.65342279238805e-07 -1.24042888587464e-05 1.8736087158557e-24)
(-1.26854804779461e-07 -1.24033199012666e-05 1.22173199534677e-23)
(-9.58386990033708e-08 -1.24028350173729e-05 8.65561363844086e-24)
(-7.00623434071582e-08 -1.24025722766603e-05 1.5306898290412e-24)
(-4.81545965341222e-08 -1.24024194609927e-05 1.05908216503111e-23)
(-2.92270856382692e-08 -1.24023260173367e-05 1.61395009234534e-24)
(-1.26773109297025e-08 -1.24022811519699e-05 1.15872060115162e-23)
(1.91060301394875e-09 -1.24022647732212e-05 1.33367136016379e-23)
(1.4850582845937e-08 -1.24022752217612e-05 2.21074797723986e-24)
(2.6379448092625e-08 -1.24023043929013e-05 1.13181438530727e-23)
(3.66919099292913e-08 -1.2402349123167e-05 1.42813460494203e-24)
(4.5951050859366e-08 -1.24024077101435e-05 1.00397904661649e-24)
(5.42964715535533e-08 -1.24024786727257e-05 1.11711005500677e-23)
(6.18580554525681e-08 -1.24025472332189e-05 9.55943755940646e-25)
(6.87573246983158e-08 -1.240262282999e-05 9.7909510386795e-25)
(7.51237462884735e-08 -1.24026988780428e-05 1.05763433557343e-23)
(8.10893733163019e-08 -1.24027816902638e-05 8.13473011665741e-25)
(8.67884068239804e-08 -1.24028605976316e-05 1.97456290864235e-25)
(9.23764182000173e-08 -1.24029414657147e-05 6.58617088107387e-24)
(9.80177688557626e-08 -1.24030164499906e-05 4.2706277480669e-25)
(1.03896506778575e-07 -1.24030911839041e-05 -2.8260298581504e-25)
(1.1024083309506e-07 -1.24031700777057e-05 -6.45471287681345e-25)
(1.17303283554467e-07 -1.24032528665552e-05 -2.3007240756323e-25)
(1.25384766676692e-07 -1.24033361338141e-05 -1.39555846529926e-25)
(1.34881506445521e-07 -1.24034441234446e-05 4.36094358955186e-25)
(1.46304335865295e-07 -1.24035784974324e-05 9.58946921778118e-24)
(1.60340819402476e-07 -1.2403771068759e-05 -9.61667009735343e-24)
(1.77967317041218e-07 -1.24040753357211e-05 -8.31876087483297e-25)
(2.00653732109457e-07 -1.24046083972627e-05 -2.42332791943619e-25)
(2.307219994093e-07 -1.2405677513667e-05 -4.07166262028267e-24)
(2.72288591094228e-07 -1.24080042004511e-05 -1.11735011018526e-23)
(3.31990723169551e-07 -1.24131338607729e-05 -1.05533622603836e-23)
(4.23501067055165e-07 -1.24245102811256e-05 -3.12419696328758e-24)
(5.72687749650339e-07 -1.24484968732497e-05 -1.06799288630018e-23)
(8.15708211629558e-07 -1.24925621351969e-05 -8.34957070109203e-24)
(1.24774998803397e-06 -1.25675166351041e-05 -3.73091945956927e-24)
(1.95528705701426e-06 -1.26548236290525e-05 -1.01839409581698e-23)
(2.86198264188617e-06 -1.26403426750862e-05 -1.22893291897751e-23)
(3.9771747437284e-06 -1.22065557299827e-05 -3.39854882013678e-24)
(1.67693621897987e-06 -9.96079126982568e-06 -1.00682629944958e-23)
(-8.13787944577955e-07 -1.14204217351321e-05 1.54716270244521e-24)
(-5.94634385097661e-06 -1.45872209010748e-05 4.31723583994837e-24)
(-4.68210407263649e-06 -1.57635092218082e-05 2.03483742350366e-24)
(-3.43281309723379e-06 -1.56084694292795e-05 1.64511245144507e-24)
(-2.36454442450582e-06 -1.52245816043321e-05 1.02577669372889e-23)
(-1.65112012125919e-06 -1.49203219046829e-05 1.40683138117022e-24)
(-1.21165833230299e-06 -1.47397446014097e-05 7.59983310446561e-25)
(-9.14097169976832e-07 -1.4641857681457e-05 8.57280179968474e-25)
(-7.0543126737954e-07 -1.45910526644938e-05 1.53912978591091e-25)
(-5.50311330469248e-07 -1.4564160629955e-05 2.98221924049359e-24)
(-4.28368353510528e-07 -1.45488771544895e-05 4.03695951538196e-24)
(-3.29719821425394e-07 -1.45393184388178e-05 5.8208679544296e-24)
(-2.47689429623838e-07 -1.4532734773793e-05 2.73797202788565e-24)
(-1.78171889073343e-07 -1.45278550653535e-05 2.28642284938857e-24)
(-1.18404411776949e-07 -1.45240457979441e-05 2.33535508223431e-24)
(-6.64710306369411e-08 -1.4520961760727e-05 1.61413015997768e-24)
(-2.0975410348521e-08 -1.45184250482515e-05 5.73651562060672e-24)
(1.91194824693434e-08 -1.45162973445335e-05 4.49643987463003e-24)
(5.46168262116358e-08 -1.45145151454103e-05 2.48720808377054e-24)
(8.61689335978047e-08 -1.45130077476615e-05 3.79708987920396e-24)
(1.14326026996625e-07 -1.45117406221391e-05 1.87185706405298e-24)
(1.39561687760153e-07 -1.45106813205612e-05 -1.18421512073178e-24)
(1.6230864320157e-07 -1.45098193539107e-05 4.78910543619439e-24)
(1.82958665501432e-07 -1.45091196008221e-05 1.10720157002407e-24)
(2.01883552102932e-07 -1.450858362792e-05 -6.00526359641049e-25)
(2.19468452641524e-07 -1.45082105912811e-05 5.0323648641246e-24)
(2.36106980917308e-07 -1.45079906299659e-05 -2.34334696718959e-25)
(2.52192700975196e-07 -1.4507925694429e-05 2.1250225062516e-25)
(2.68152650630184e-07 -1.45080238848526e-05 3.08578986061061e-24)
(2.84448532733587e-07 -1.45082915965623e-05 -1.56547264910988e-24)
(3.01576076952416e-07 -1.45087594476224e-05 9.83904807182521e-25)
(3.20124454546911e-07 -1.45094551724601e-05 -3.67544368443872e-24)
(3.40755195408999e-07 -1.45104079194852e-05 1.57584745095683e-24)
(3.64226287301754e-07 -1.451166888416e-05 1.8216650150641e-24)
(3.91493085449697e-07 -1.45133499939306e-05 -1.89506846260897e-24)
(4.23751580893924e-07 -1.45155674526865e-05 3.43309858588698e-24)
(4.62541572118766e-07 -1.45185439267808e-05 -3.82944296418619e-24)
(5.09944101914629e-07 -1.45226289644054e-05 -8.443583246111e-25)
(5.6886966133911e-07 -1.45284917487864e-05 6.47035671838872e-25)
(6.43581890497946e-07 -1.4537500735008e-05 -1.4924908349239e-23)
(7.40979716649729e-07 -1.45525157539112e-05 -5.91888907675449e-24)
(8.71401888787221e-07 -1.45794898193435e-05 -4.60356427723879e-24)
(1.05535732827696e-06 -1.4630752048484e-05 -1.0806824978616e-23)
(1.33008774447005e-06 -1.47293239538333e-05 -4.77915887573062e-24)
(1.74743620329276e-06 -1.49101764105618e-05 -5.67962252002935e-24)
(2.44442149124466e-06 -1.52159482268534e-05 -1.48090940939257e-23)
(3.50163507620275e-06 -1.5608484501611e-05 -4.24393019484678e-24)
(4.78207269165009e-06 -1.57781430548154e-05 -5.65037460207311e-24)
(6.11186414869014e-06 -1.45638166880836e-05 -1.19454530889396e-23)
(9.08032110036742e-07 -1.13005862260076e-05 -4.3351426013962e-24)
(4.97828348429861e-07 1.82006488867454e-06 1.3471112823255e-24)
(-4.31651169717132e-06 1.04569183164575e-06 -6.3912448452485e-24)
(-3.85549661576832e-06 -9.73663618773649e-07 1.85002030533632e-24)
(-3.22625214005265e-06 -1.01073550152891e-06 8.23690549304342e-25)
(-2.51201373499119e-06 -6.32071528198997e-07 -3.49609015485937e-24)
(-1.93080306809047e-06 -2.93017926136597e-07 -2.74756777199493e-24)
(-1.52202163009878e-06 -7.67776027929214e-08 7.43370469980461e-25)
(-1.21083735060224e-06 5.07724035850692e-08 7.13667372678488e-25)
(-9.72824935780082e-07 1.25300483309941e-07 -7.73526710125682e-24)
(-7.85177468095682e-07 1.70815962820786e-07 -4.49734132597642e-24)
(-6.32215813911395e-07 2.00479920785998e-07 9.76824542138249e-24)
(-5.05577582345535e-07 2.21145951711436e-07 3.90062786619195e-24)
(-3.98787812695625e-07 2.36402597972487e-07 -7.00242156845994e-24)
(-3.0749189683987e-07 2.48172967122427e-07 5.72512993474934e-24)
(-2.285399541081e-07 2.57561321863531e-07 -6.64856259436421e-24)
(-1.59637500475459e-07 2.65236216905663e-07 1.4707247122512e-24)
(-9.90513066253903e-08 2.71604214585831e-07 3.82546673702731e-24)
(-4.54483681353149e-08 2.769447062982e-07 -3.50160968486883e-24)
(2.22872913897083e-09 2.81443394391341e-07 1.79113739462337e-24)
(4.48591497473152e-08 2.85243862300747e-07 -5.74904101333174e-24)
(8.31869656529236e-08 2.88429061359692e-07 1.11144299907421e-24)
(1.17859164281712e-07 2.9107768114036e-07 -8.11157682558546e-24)
(1.49469677770124e-07 2.93238719251768e-07 2.76238274603925e-24)
(1.78569568962178e-07 2.94940794254332e-07 8.99062055675196e-25)
(2.05673508345103e-07 2.96222122805351e-07 -8.84284731633088e-24)
(2.31310376018163e-07 2.97072512404466e-07 3.04422900408836e-24)
(2.56009116294829e-07 2.97521557224672e-07 -4.30749708749379e-24)
(2.80302304285344e-07 2.97543934078399e-07 3.29481135939214e-24)
(3.04760353859872e-07 2.9712646782645e-07 1.56036923031832e-24)
(3.29995792895066e-07 2.96237295836826e-07 -6.82276423628326e-24)
(3.56678122330464e-07 2.94820894522425e-07 6.76058718909395e-24)
(3.85567829120852e-07 2.92822356954616e-07 -9.20802467743293e-24)
(4.1752609516911e-07 2.90144135584674e-07 7.40787224287989e-24)
(4.53542519987444e-07 2.86647398140846e-07 7.71620954342222e-24)
(4.94823016720373e-07 2.82122902382274e-07 -8.15982207265988e-24)
(5.4284737034936e-07 2.76284828441871e-07 1.52833760880607e-24)
(5.99498338908249e-07 2.68701837389648e-07 -2.17385263832112e-24)
(6.6722543861855e-07 2.58688670008497e-07 -4.70991458464302e-25)
(7.49299688130702e-07 2.45117651968465e-07 7.58827173726428e-24)
(8.50207740696472e-07 2.25968636093033e-07 -1.42855793064772e-23)
(9.76597125159178e-07 1.97550529519684e-07 -4.14483804993929e-24)
(1.13720334581865e-06 1.52865253526121e-07 -2.86211340973507e-24)
(1.34769413329369e-06 7.84764086961411e-08 -1.12246814149279e-23)
(1.63274345790754e-06 -5.01940639033585e-08 -2.83676322069418e-24)
(2.01536109616344e-06 -2.69318846259175e-07 -3.57565738699129e-24)
(2.57657559015768e-06 -6.16504676715486e-07 -1.55238950051325e-23)
(3.27745515767953e-06 -1.01707465313369e-06 -2.72886054751954e-24)
(3.93401329866411e-06 -1.0113007057626e-06 -3.30702971228941e-24)
(4.48628666501035e-06 1.05443615229027e-06 -1.5254379952409e-23)
(-3.84778656411455e-07 1.94440213504691e-06 -2.40865781676335e-24)
(-2.05901750584864e-07 8.51524901645616e-06 1.92296905344257e-24)
(-2.30763575947033e-06 8.29823194028141e-06 2.29918097947243e-24)
(-2.54020132932441e-06 4.86331707780553e-06 2.40694780605938e-24)
(-2.52650820126367e-06 4.18281258365245e-06 6.53531033195964e-25)
(-2.25774227996514e-06 4.28830419950235e-06 -6.75059252256882e-25)
(-1.89399647463095e-06 4.53206059332657e-06 6.75949549367426e-25)
(-1.58211951171452e-06 4.73170019617111e-06 8.30368539672044e-25)
(-1.3099510174803e-06 4.86942971856827e-06 1.0304551949657e-24)
(-1.08567071488813e-06 4.96095116746626e-06 7.83954972064447e-25)
(-9.01238932787569e-07 5.02307642851796e-06 1.03404508511133e-24)
(-7.47328242885769e-07 5.06679814616409e-06 3.99005790566377e-24)
(-6.18108687741165e-07 5.09884725685198e-06 3.39023496971208e-24)
(-5.08182391115271e-07 5.12322123628244e-06 6.42278917830085e-25)
(-4.13643779444345e-07 5.14234739977697e-06 2.40912696877906e-24)
(-3.31498493534805e-07 5.15775684893759e-06 8.63555723188163e-25)
(-2.59497777316798e-07 5.17039867981774e-06 2.16293349264489e-24)
(-1.95904745554762e-07 5.18091787844757e-06 3.61466519170383e-24)
(-1.39345376699065e-07 5.1897335418302e-06 1.95457008910262e-24)
(-8.87176984769643e-08 5.19716306692144e-06 2.75541071586489e-24)
(-4.31040871342174e-08 5.203410296216e-06 1.68422805780655e-24)
(-1.71590794203052e-09 5.20863102761411e-06 2.1114850254576e-24)
(3.61370262435124e-08 5.21294313518456e-06 -4.27870164555291e-25)
(7.10773499730378e-08 5.21643897775325e-06 2.81808691543249e-24)
(1.03697220621552e-07 5.21916659093873e-06 1.47310748161562e-24)
(1.34546927487982e-07 5.2211693577903e-06 -2.58448728307757e-26)
(1.64177938329712e-07 5.22245646293405e-06 2.84150137128693e-24)
(1.9314870249735e-07 5.22303769710896e-06 1.88051057940332e-25)
(2.22016040398541e-07 5.22289761706378e-06 2.48366853248227e-25)
(2.51378730264449e-07 5.22200541506592e-06 1.52742489544935e-24)
(2.81881882251248e-07 5.22031568019259e-06 -9.73317454796919e-25)
(3.14231757518187e-07 5.21773521567008e-06 7.40314516602146e-25)
(3.49205520765711e-07 5.21416086302713e-06 -3.39468805785139e-24)
(3.87693978433009e-07 5.20943724678511e-06 1.12481238736427e-24)
(4.30735180810358e-07 5.20334049137192e-06 1.41394148492867e-24)
(4.79554457242995e-07 5.19554791371847e-06 -1.42931988783977e-24)
(5.35644907777449e-07 5.18560861455384e-06 1.48530645137255e-24)
(6.0087252916188e-07 5.17288192094682e-06 -1.10439781451615e-24)
(6.77615236572021e-07 5.15638325154118e-06 -7.87002023540624e-25)
(7.68943495377769e-07 5.13456146852505e-06 1.60727859015332e-24)
(8.78852403487049e-07 5.10492150743622e-06 -2.8400471924509e-24)
(1.01281621227338e-06 5.06338774745514e-06 -2.37537916497009e-24)
(1.17685857861859e-06 5.00308592529769e-06 -1.82565821056841e-24)
(1.37997442410621e-06 4.91271742696305e-06 -5.16340057273849e-25)
(1.63155745050884e-06 4.77472140426198e-06 -1.56036821491817e-24)
(1.92148997957405e-06 4.57195720658866e-06 -1.81152057660946e-24)
(2.26861849260489e-06 4.3163051370721e-06 -2.10747596361547e-24)
(2.52736556452233e-06 4.17609946415926e-06 -1.46170004560017e-24)
(2.56401534040384e-06 4.80242418861032e-06 -1.03133808386804e-24)
(2.40854521979349e-06 8.30253635902242e-06 -1.46819937574705e-24)
(2.73786529293225e-07 8.60039164557764e-06 5.54576347019737e-26)
(-7.05025770577957e-07 1.02145611743758e-05 1.65153275150754e-24)
(-1.13075059575952e-06 9.21810286184514e-06 5.82737420206112e-24)
(-1.74412036829586e-06 5.06068742571993e-06 2.00566470890923e-24)
(-1.99078897073912e-06 3.97121885790281e-06 3.91489058884694e-25)
(-1.97023383751186e-06 3.90479129086154e-06 -8.41678438812551e-25)
(-1.75101000688156e-06 4.09746943068441e-06 1.39689374154933e-24)
(-1.5212700522798e-06 4.30022706711827e-06 6.63105200238024e-25)
(-1.29560622736751e-06 4.45547039999608e-06 8.40201436724102e-25)
(-1.09861484801036e-06 4.56570488252192e-06 2.33700627154582e-24)
(-9.31152856932351e-07 4.64408346783373e-06 2.99470042396201e-24)
(-7.88546744320939e-07 4.70103765552739e-06 1.01617103820938e-24)
(-6.67254245881128e-07 4.74372893700894e-06 2.87588804486125e-24)
(-5.63156419879893e-07 4.77666396750241e-06 3.00101980644403e-24)
(-4.73042446919847e-07 4.80276167185174e-06 7.80625484158711e-25)
(-3.94335074932816e-07 4.82388497084514e-06 3.04726716482663e-24)
(-3.25024573312458e-07 4.84126182265842e-06 1.80708529136808e-24)
(-2.63518691517371e-07 4.85572412679916e-06 3.22755962994017e-24)
(-2.08535788592898e-07 4.86784233175123e-06 3.75220475878365e-24)
(-1.59033490701768e-07 4.87801984242482e-06 2.32560246469587e-24)
(-1.14134543398834e-07 4.88655334074792e-06 3.61962996166656e-24)
(-7.30770786438835e-08 4.89366420410162e-06 1.86864494906672e-24)
(-3.51978958561604e-08 4.89949503239564e-06 1.95955085644154e-24)
(1.05949186399753e-10 4.90417498603455e-06 2.67397463248037e-24)
(3.34037380782496e-08 4.90778173314426e-06 1.21707669032336e-24)
(6.52317505553098e-08 4.91036126562522e-06 1.88273660784684e-24)
(9.61216673545959e-08 4.91194677971126e-06 2.83584771851814e-24)
(1.26609080671059e-07 4.9125331847282e-06 1.41190806199818e-24)
(1.5723684579255e-07 4.9121026706076e-06 -5.81256236672914e-25)
(1.88582493397768e-07 4.91062211741199e-06 1.69515623373885e-24)
(2.21261456033707e-07 4.90801134892265e-06 9.9062644633792e-25)
(2.55952236276405e-07 4.90415495321728e-06 -9.37748159868614e-25)
(2.93401862929497e-07 4.89889231526629e-06 -5.03257131991523e-25)
(3.344613835384e-07 4.89202641373198e-06 -1.18679175006825e-24)
(3.8011671931349e-07 4.88324538216001e-06 -1.0310839676941e-24)
(4.31514422744632e-07 4.87212637370848e-06 8.31714607223884e-25)
(4.90039276294428e-07 4.85808215301483e-06 1.67608032652799e-24)
(5.57394400310414e-07 4.84026296564174e-06 -1.2639352152933e-24)
(6.35676188999269e-07 4.81743700959477e-06 -7.42155664316564e-25)
(7.27526455421412e-07 4.78768741036886e-06 -1.22247283022384e-25)
(8.36204517487182e-07 4.74804973282911e-06 2.31265613272846e-24)
(9.65823291096261e-07 4.69392298767918e-06 -1.67644684538894e-24)
(1.11999365591464e-06 4.61803530693047e-06 -1.43149605765967e-24)
(1.30281356498018e-06 4.50969959757875e-06 3.29656097109904e-24)
(1.5142407365964e-06 4.35520006196583e-06 -1.23620690491013e-24)
(1.72701478271745e-06 4.15017665325807e-06 -1.35661465740484e-24)
(1.93292645520674e-06 3.94448832311977e-06 2.90854365019777e-24)
(1.94523712765097e-06 3.96759483200429e-06 -1.29391025839178e-24)
(1.72202965896014e-06 4.98759806588904e-06 -1.28276574756717e-24)
(1.15756963494229e-06 9.2297542763077e-06 4.1152416810664e-24)
(7.18827920890616e-07 1.02982598759411e-05 -6.02879642454042e-25)
(-6.32495685255568e-07 9.4816500805655e-06 1.10760042482494e-24)
(-6.64001893294492e-07 7.66112850026137e-06 6.08620549756103e-24)
(-1.40912962192041e-06 3.4733828639957e-06 1.31855812016661e-24)
(-1.67597289185191e-06 2.25837490618747e-06 3.34020484222652e-25)
(-1.74158240801609e-06 2.13599141992212e-06 1.28152929382111e-24)
(-1.59730005422067e-06 2.3140034294352e-06 2.31132228391394e-24)
(-1.42390440161994e-06 2.52658640073595e-06 4.75424999319692e-25)
(-1.23810977981043e-06 2.69740952714857e-06 5.56531362281037e-25)
(-1.06845228822828e-06 2.82301318834519e-06 2.39768394839864e-24)
(-9.19958830450698e-07 2.91479963379111e-06 3.20874844602715e-24)
(-7.9090829447737e-07 2.98293337341922e-06 -5.87857043183586e-25)
(-6.79561610709661e-07 3.03482966610339e-06 1.60063858304906e-24)
(-5.82995160775675e-07 3.07534196010539e-06 3.22196442273015e-24)
(-4.98747377314236e-07 3.107691276309e-06 -8.26134725195205e-25)
(-4.24711780714563e-07 3.13399614035538e-06 2.85435108463198e-24)
(-3.59172190713101e-07 3.1556881895572e-06 1.09592061335137e-24)
(-3.00737449515627e-07 3.17374871434879e-06 1.9801979370293e-24)
(-2.48257646803443e-07 3.1888746074646e-06 3.43708691402445e-24)
(-2.00776464878033e-07 3.20155651308143e-06 1.44471870476261e-24)
(-1.57476421501076e-07 3.2121593227878e-06 3.3543709271024e-24)
(-1.17659955744048e-07 3.22095402464383e-06 1.20368147626032e-24)
(-8.07006134581713e-08 3.22812734400347e-06 2.59920034656979e-24)
(-4.60237886325086e-08 3.23383698094962e-06 1.6502493331211e-24)
(-1.30940810006096e-08 3.23817366420024e-06 7.66329483234592e-25)
(1.86010213800977e-08 3.24120481394265e-06 2.53020220230512e-24)
(4.95601728871951e-08 3.24296823747066e-06 1.93178511332784e-24)
(8.02863421859284e-08 3.24346482807659e-06 1.69517798080095e-24)
(1.11301645231104e-07 3.24267049240558e-06 -1.58592789225157e-24)
(1.43149412835859e-07 3.24053153059011e-06 1.05411898056225e-24)
(1.76410083409987e-07 3.23694632299487e-06 1.93496048868478e-24)
(2.1172445481354e-07 3.23177820480154e-06 -1.71108802917328e-24)
(2.49790590543419e-07 3.22483127392468e-06 1.01009148051017e-24)
(2.91399664807609e-07 3.21585002989023e-06 -1.77581919800102e-24)
(3.37463182478462e-07 3.20446093427187e-06 -2.11503837940484e-24)
(3.89031143416725e-07 3.19014750474509e-06 1.85034087477546e-24)
(4.47339919714005e-07 3.17220822621236e-06 1.13694684237098e-24)
(5.13876960985118e-07 3.14963324188822e-06 -8.06687475082268e-25)
(5.90424728208051e-07 3.1209949682076e-06 -5.20123699622979e-25)
(6.79130403839334e-07 3.08414556592424e-06 -1.47792573698833e-24)
(7.82482867261721e-07 3.03578894487339e-06 2.79830730410056e-24)
(9.03351036169776e-07 2.97100431994934e-06 -8.37397854835374e-25)
(1.04347274200513e-06 2.88228662441451e-06 -7.89222769715554e-25)
(1.20387321612943e-06 2.75929938322926e-06 3.11260590419014e-24)
(1.37999815223061e-06 2.59024405723265e-06 -7.18190913424421e-25)
(1.54029612986266e-06 2.37628616076547e-06 -7.34430222971017e-25)
(1.67411789393994e-06 2.1845087387127e-06 3.21779048657048e-24)
(1.60177568143279e-06 2.25613284261578e-06 -7.31959157355938e-25)
(1.36139513081437e-06 3.3929401584114e-06 -7.47119092394244e-25)
(6.44715894536975e-07 7.67314119597931e-06 4.50794706658783e-24)
(6.17930860141311e-07 9.57216467977887e-06 -4.32911453223032e-25)
(-3.50298765003904e-07 8.26056139523304e-06 5.49357971380171e-25)
(-5.30819930015793e-07 6.03837509485922e-06 3.83133825457545e-24)
(-1.25840685998254e-06 2.02653832928775e-06 6.4937278057198e-25)
(-1.47221605760156e-06 7.8185162933364e-07 1.58888730979397e-25)
(-1.55556137700762e-06 6.41167318900899e-07 4.66954617635184e-25)
(-1.45359539462841e-06 8.11600053142789e-07 8.95990481103179e-25)
(-1.32056027076591e-06 1.02963145554661e-06 2.14657042021082e-25)
(-1.16787155571292e-06 1.21016925952479e-06 2.42287990329312e-25)
(-1.02256751195994e-06 1.34644956912471e-06 1.11484470575563e-24)
(-8.91627274762307e-07 1.44836366178653e-06 1.80251662059466e-24)
(-7.75304055543423e-07 1.52547829837671e-06 -2.86605742396298e-25)
(-6.7328510520892e-07 1.58510993637874e-06 1.26993639415824e-24)
(-5.83730615052232e-07 1.63219674810423e-06 1.90235920096747e-24)
(-5.04879003445519e-07 1.67008588490007e-06 -1.44843099682728e-25)
(-4.35096478425653e-07 1.70105853245517e-06 1.92565311541207e-24)
(-3.72975009243434e-07 1.72667322616839e-06 5.60861604474971e-25)
(-3.17320272821683e-07 1.74802963260628e-06 1.48622308169841e-24)
(-2.67120596271992e-07 1.76591120375999e-06 2.06028452864401e-24)
(-2.2152018789032e-07 1.78089507018478e-06 7.16339930353234e-25)
(-1.79770988351262e-07 1.79339224018548e-06 1.96700659052108e-24)
(-1.41220947330432e-07 1.80371474017804e-06 5.62367466042665e-25)
(-1.05284745352086e-07 1.81210452163218e-06 1.03054065629752e-24)
(-7.14260456160605e-08 1.81872656226335e-06 1.47693049219755e-24)
(-3.91389841045099e-08 1.82370075277715e-06 3.76806149467458e-25)
(-7.93411241679096e-09 1.82710445733059e-06 1.0318375237785e-24)
(2.26609467567014e-08 1.82897304426469e-06 1.51009706499831e-24)
(5.31233925952953e-08 1.82932417450233e-06 8.22882250445397e-25)
(8.39470578706345e-08 1.82811843688607e-06 -5.0011581264117e-25)
(1.15648184026719e-07 1.82529021666313e-06 1.04305742613824e-24)
(1.48776056820666e-07 1.82072763869795e-06 7.44631554906248e-25)
(1.83933218852696e-07 1.81426253717792e-06 -5.71386508530328e-25)
(2.21772528449298e-07 1.80566884137727e-06 3.74134137591775e-25)
(2.63029640638609e-07 1.79464420589468e-06 -8.06821176860934e-25)
(3.08535711044541e-07 1.78075696070414e-06 -7.99271028962585e-25)
(3.5923442809712e-07 1.76342526268479e-06 7.07507804152167e-25)
(4.16219286276112e-07 1.74184915749271e-06 1.05856620672937e-24)
(4.80764129511982e-07 1.71491511775514e-06 -8.64533202979078e-25)
(5.54333985288054e-07 1.68106325085995e-06 -2.65123579457432e-25)
(6.38594198384817e-07 1.63800361779366e-06 -5.28858724939674e-25)
(7.35308336794405e-07 1.5823115406139e-06 1.07907021809491e-24)
(8.46242300191605e-07 1.50902063742838e-06 -1.01073250114415e-24)
(9.71680047478503e-07 1.41077554293649e-06 -1.02816861771206e-24)
(1.11066957582335e-06 1.27790104344651e-06 1.0608164237801e-24)
(1.25654983907344e-06 1.10027615078134e-06 -1.02482450760897e-24)
(1.37940071372485e-06 8.8182475353562e-07 -1.01647638912742e-24)
(1.47358809920937e-06 6.96840636437848e-07 1.17897922109135e-24)
(1.38543678955014e-06 7.78989447983884e-07 -1.3048420549484e-24)
(1.20013952314316e-06 1.93766519886071e-06 -1.32561116726146e-24)
(4.92681898513379e-07 6.03992380204273e-06 1.77603686208178e-24)
(3.28380621732657e-07 8.34410315891573e-06 -1.18698008653767e-24)
(-1.26516532452853e-07 7.35778667348716e-06 2.02709634193498e-25)
(-4.90005821456196e-07 5.08045884067308e-06 1.23596510269056e-24)
(-1.13199894730589e-06 1.18894031849919e-06 2.42796442301902e-25)
(-1.30256539967783e-06 -8.65179741400357e-08 4.83736429308008e-26)
(-1.38878925631522e-06 -2.49738215238483e-07 -7.47391774900153e-26)
(-1.31843846283836e-06 -9.39194586983373e-08 3.22630687729273e-25)
(-1.21742744095684e-06 1.2103126376459e-07 8.47297685618194e-26)
(-1.0930023651478e-06 3.04554270811653e-07 9.51052999761923e-26)
(-9.69231098087953e-07 4.46785484247257e-07 4.13482642097409e-25)
(-8.54178467416791e-07 5.55648106204678e-07 5.98305549140858e-25)
(-7.49508657082741e-07 6.39655196881295e-07 -1.108539797942e-25)
(-6.560488772139e-07 7.05624623428932e-07 4.0189562847146e-25)
(-5.72902511361534e-07 7.58331931572862e-07 6.53891081806993e-25)
(-4.98952250243814e-07 8.01100097400745e-07 -4.69291250976192e-26)
(-4.33001228470922e-07 8.36260513216088e-07 6.50312959454551e-25)
(-3.73935274858145e-07 8.65444190643415e-07 2.119225005465e-25)
(-3.20763455897108e-07 8.89834589092439e-07 4.96140509643602e-25)
(-2.72609028833273e-07 9.10269382704122e-07 7.18300359747695e-25)
(-2.28711350497364e-07 9.2738132443914e-07 2.69341687920591e-25)
(-1.88394956269659e-07 9.41639111490189e-07 6.7862202312049e-25)
(-1.5105661076994e-07 9.5338893085251e-07 2.08169275739944e-25)
(-1.16153645543241e-07 9.62899073659877e-07 3.74611987272399e-25)
(-8.31811767276722e-08 9.7035358500589e-07 4.13897657268796e-25)
(-5.1656263045854e-08 9.75902297166289e-07 1.4226769511042e-25)
(-2.11203742949411e-08 9.79623249460066e-07 3.7914495112018e-25)
(8.88050352910013e-09 9.81567048065797e-07 4.94466581028431e-25)
(3.87983439502662e-08 9.81738311026903e-07 2.95347849376714e-25)
(6.91019764381067e-08 9.80105795738334e-07 -1.63951761369131e-25)
(1.00287059776966e-07 9.76590564902028e-07 3.35361314045102e-25)
(1.32870533835293e-07 9.71063214954286e-07 2.66751889717077e-25)
(1.67417661263609e-07 9.63334254927977e-07 -1.9146972658886e-25)
(2.04540078006803e-07 9.53154651368827e-07 1.50685986052016e-25)
(2.44915049050911e-07 9.4017854856044e-07 -2.79488153036025e-25)
(2.89300738845505e-07 9.23924260476799e-07 -2.80769758258798e-25)
(3.38541910525592e-07 9.03763445119424e-07 2.48693999116243e-25)
(3.93587270443685e-07 8.78834555237208e-07 3.23999763299043e-25)
(4.55500180518872e-07 8.47945915829483e-07 -2.52931671184041e-25)
(5.25444366133795e-07 8.09478086262503e-07 -9.58414822259651e-26)
(6.04639981067835e-07 7.61101280359634e-07 -1.70831247389314e-25)
(6.94203711850172e-07 6.99427514546376e-07 6.56829529235121e-25)
(7.94956649088812e-07 6.19688211735814e-07 -2.98795666623682e-25)
(9.06027496848081e-07 5.15077888629091e-07 -3.13825622534949e-25)
(1.02513088528741e-06 3.77051908207374e-07 7.33030419555708e-25)
(1.1444865807245e-06 1.97544868648252e-07 -3.21625951345103e-25)
(1.23759245937943e-06 -1.69261609468727e-08 -3.09412286115631e-25)
(1.30255763444129e-06 -1.8810599223482e-07 7.0520396589368e-25)
(1.21354777099344e-06 -9.06167219033625e-08 -3.12884948889942e-25)
(1.07081006509141e-06 1.09130549858546e-06 -3.82971437245539e-25)
(4.47518835179604e-07 5.06776140223166e-06 1.18452436237464e-24)
(1.05399852128445e-07 7.42233663451986e-06 -2.81486275497663e-25)
(-1.5210223267222e-08 6.86402885933726e-06 8.71841008647058e-26)
(-4.53042491634885e-07 4.68884648944941e-06 6.63299095615044e-25)
(-9.93334502933944e-07 8.21188463232625e-07 1.05774813489746e-25)
(-1.14401024621617e-06 -5.01574797474522e-07 3.96132271462565e-26)
(-1.23312714313772e-06 -6.98560153516311e-07 2.34447205327445e-25)
(-1.18995027477732e-06 -5.64648274966482e-07 2.78025205303419e-25)
(-1.1155509133326e-06 -3.59698619869952e-07 5.08684820480824e-26)
(-1.01558517094333e-06 -1.78448577755213e-07 5.55076757662209e-26)
(-9.10986931705011e-07 -3.40825159917284e-08 3.00923052375557e-25)
(-8.10457347510969e-07 7.90533893267141e-08 3.28897979392882e-25)
(-7.16665698842932e-07 1.6810440819712e-07 -1.72847906271636e-25)
(-6.31318048636147e-07 2.39143592200337e-07 1.08467785399519e-25)
(-5.54305986610504e-07 2.96578921607039e-07 3.83503472375424e-25)
(-4.85072750469412e-07 3.43594632370552e-07 -1.42125325523734e-25)
(-4.22823898237518e-07 3.82493557689357e-07 3.62648698930752e-25)
(-3.66720196774054e-07 4.14922277068176e-07 8.29968920151531e-26)
(-3.15963938797638e-07 4.42092342780489e-07 1.59173732880014e-25)
(-2.69820080098735e-07 4.648954596043e-07 3.62611075893825e-25)
(-2.27617370108298e-07 4.83994903552395e-07 1.1653923178127e-25)
(-1.88752325931493e-07 4.99896480836634e-07 3.5483315849022e-25)
(-1.52675168274317e-07 5.12981140831489e-07 9.65984619141571e-26)
(-1.18883268324241e-07 5.23534943997538e-07 2.72123613846946e-25)
(-8.69007576563083e-08 5.31774520723032e-07 1.30800425308898e-25)
(-5.62765942265226e-08 5.3784914373225e-07 6.01508747180379e-26)
(-2.65753798284133e-08 5.41857405099387e-07 2.67676529314868e-25)
(2.63202050654307e-09 5.43854981158874e-07 1.58296218428918e-25)
(3.1778096629218e-08 5.43841902425199e-07 2.25521029487394e-25)
(6.13108824151659e-08 5.41789215707871e-07 -2.12013718479261e-25)
(9.16935743381726e-08 5.37602104367191e-07 9.20014112503253e-26)
(1.23417642391758e-07 5.31142045159149e-07 2.13022467626544e-25)
(1.5701526251327e-07 5.22200425080164e-07 -1.74843774571584e-25)
(1.93052705249013e-07 5.10505997621956e-07 1.47627767253588e-25)
(2.32150462685712e-07 4.95678286072973e-07 -2.1681949209911e-25)
(2.74993846454676e-07 4.77212205151022e-07 -2.08440532698896e-25)
(3.22328644444071e-07 4.54428909266831e-07 2.03389795131861e-25)
(3.74961443086412e-07 4.2643574603727e-07 9.11114089449837e-26)
(4.33759782226125e-07 3.92007690179667e-07 -6.38378737207423e-26)
(4.99611085249747e-07 3.49515365276913e-07 -3.82834132219775e-26)
(5.73331404925426e-07 2.966699264736e-07 -1.83132448315957e-25)
(6.5547060770818e-07 2.30252703561365e-07 3.08370906085123e-25)
(7.46070788966657e-07 1.45872643480858e-07 -5.59845426414084e-26)
(8.433963145217e-07 3.75160142772712e-08 -6.00908862404479e-26)
(9.44265222644263e-07 -1.01915492435258e-07 3.34446025691369e-25)
(1.04025786963306e-06 -2.78225047420334e-07 -6.44422934963466e-26)
(1.10857617563946e-06 -4.81989282880845e-07 -5.80174154207673e-26)
(1.14827406771058e-06 -6.32057845489157e-07 3.5955764254348e-25)