/*--------------------------------*- C++ -*----------------------------------*\
  =========                 |
  \\      /  F ield         | OpenFOAM: The Open Source CFD Toolbox
   \\    /   O peration     | Website:  https://openfoam.org
    \\  /    A nd           | Version:  10
     \\/     M anipulation  |
\*---------------------------------------------------------------------------*/
FoamFile
{
    format      ascii;
    class       volScalarField;
    location    "3.4";
    object      wallHeatFlux;
}
// * * * * * * * * * * * * * * * * * * * * * * * * * * * * * * * * * * * * * //

dimensions      [1 0 -3 0 0 0 0];

internalField   uniform 0;

boundaryField
{
    back
    {
        type            calculated;
        value           uniform 0;
    }
    bottom
    {
        type            calculated;
        value           nonuniform List<scalar> 
50
(
179.122296163866
186.162460451864
192.175493619356
194.934405878
196.038542819316
196.461613053845
196.617305168533
196.67129289831
196.688705589698
196.694064612779
196.695410558699
196.695721114126
196.695769592478
196.695689434006
196.695615374218
196.695501418205
196.695476673172
196.695418306357
196.695344902016
196.695312690225
196.69529189122
196.695288598257
196.695288484214
196.695281871998
196.695261650011
196.695254162914
196.695253386202
196.695252559775
196.695265199372
196.695264368614
196.695276979505
196.695320370986
196.695323326952
196.695321661332
196.695352288192
196.695401720143
196.695456091741
196.695450329565
196.69541505714
196.6949440061
196.693102210743
196.68682653717
196.667147866315
196.609165105137
196.448757386708
196.023317001182
194.926060179386
192.170086478334
186.073955800741
179.152803100446
)
;
    }
    left
    {
        type            calculated;
        value           uniform 0;
    }
    front
    {
        type            calculated;
        value           uniform 0;
    }
    right
    {
        type            calculated;
        value           uniform 0;
    }
    top
    {
        type            calculated;
        value           uniform 0;
    }
}


// ************************************************************************* //
