/*--------------------------------*- C++ -*----------------------------------*\
  =========                 |
  \\      /  F ield         | OpenFOAM: The Open Source CFD Toolbox
   \\    /   O peration     | Website:  https://openfoam.org
    \\  /    A nd           | Version:  10
     \\/     M anipulation  |
\*---------------------------------------------------------------------------*/
FoamFile
{
    format      ascii;
    class       volScalarField;
    location    "9.6";
    object      alphat;
}
// * * * * * * * * * * * * * * * * * * * * * * * * * * * * * * * * * * * * * //

dimensions      [1 -1 -1 0 0 0 0];

internalField   nonuniform List<scalar> 
2500
(
4.74421738940549e-15
9.35860559184971e-14
4.02303943737296e-13
7.05417580639228e-13
9.78247558793074e-13
1.21151645536265e-12
1.40140231225553e-12
1.54865908128429e-12
1.65752525156293e-12
1.73431282242576e-12
1.78603397092785e-12
1.81933567536182e-12
1.83985488275176e-12
1.85196776360469e-12
1.85882636044932e-12
1.86255571957214e-12
1.86450530115911e-12
1.865486213662e-12
1.86596167435974e-12
1.86618385314247e-12
1.86628396482648e-12
1.86632741936348e-12
1.86634550526452e-12
1.86635255982025e-12
1.86635476207043e-12
1.86635427643793e-12
1.86635086104306e-12
1.86634178003764e-12
1.86631989510654e-12
1.86626919511994e-12
1.86615556749616e-12
1.8659091466848e-12
1.86539233078335e-12
1.86434489685039e-12
1.86229551910511e-12
1.85842869134958e-12
1.85140081248571e-12
1.8391120539936e-12
1.81846430081142e-12
1.78516906959316e-12
1.7337046819762e-12
1.65754326636134e-12
1.54975193661571e-12
1.40400010830687e-12
1.21587493997689e-12
9.8425119199634e-13
7.12358679231739e-13
4.08586648210895e-13
9.60129482079866e-14
4.93434223406862e-15
4.71718048909002e-13
2.44057485939331e-11
1.07086655878576e-10
1.87872134128953e-10
2.60639891535845e-10
3.22942987500667e-10
3.73749166036968e-10
4.13233527610985e-10
4.42496306427806e-10
4.63194046053281e-10
4.77178138346168e-10
4.86212120528571e-10
4.91798363633516e-10
4.95108458731755e-10
4.96990103922983e-10
4.98017435340041e-10
4.98556756791334e-10
4.9882928620307e-10
4.98961970066316e-10
4.99024252627774e-10
4.99052447018583e-10
4.99064744836601e-10
4.99069890134178e-10
4.99071909109551e-10
4.99072544533787e-10
4.99072409824141e-10
4.99071438014977e-10
4.9906885758933e-10
4.99062662108185e-10
4.9904836898275e-10
4.99016469456139e-10
4.98947575510502e-10
4.98803671863773e-10
4.98513197248362e-10
4.97947117995013e-10
4.96883176489836e-10
4.94956820727311e-10
4.91600832682864e-10
4.85981996610692e-10
4.76951959259981e-10
4.63038567443825e-10
4.42509116238722e-10
4.13532178878927e-10
3.74445250192792e-10
3.24101333047103e-10
2.62227306172299e-10
1.89700199423385e-10
1.08735458289945e-10
2.50274989614907e-11
4.89976658219355e-13
1.67914689603259e-12
4.40082058615042e-10
1.5197643439461e-07
2.66372427355128e-07
3.68902523424348e-07
4.56449703817483e-07
5.27716666058776e-07
5.83054582992598e-07
6.2406552451603e-07
6.53093255777406e-07
6.72731428855667e-07
6.85441381930181e-07
6.93318346366156e-07
6.97997772128716e-07
7.00665317581884e-07
7.02126125529511e-07
7.0289544966336e-07
7.03285493691788e-07
7.0347604478007e-07
7.03565810809276e-07
7.03606598736868e-07
7.03624460490205e-07
7.03631966507594e-07
7.03634927170999e-07
7.03635867070537e-07
7.03635679128085e-07
7.03634271110268e-07
7.03630531630182e-07
7.03621574055743e-07
7.03600964914506e-07
7.03555095035081e-07
7.03456296304947e-07
7.03250476965898e-07
7.0283611148303e-07
7.02030673377106e-07
7.00520671500221e-07
6.97793343930143e-07
6.93052947644497e-07
6.85133248964663e-07
6.72429721532645e-07
6.52887118205504e-07
6.24084712649211e-07
5.83455011864099e-07
5.28646178568763e-07
4.57994024638335e-07
3.7101661113715e-07
2.68802774548863e-07
1.54158675647445e-07
4.50372079319756e-10
1.73487885532954e-12
2.98196997715427e-12
7.87055835249278e-10
2.7306613882709e-07
4.7740315643328e-07
6.59702770926496e-07
8.14793341557603e-07
9.40679218449047e-07
1.0382171447483e-06
1.11039452391097e-06
1.1614351000396e-06
1.1959504384525e-06
1.21828766634327e-06
1.23213440714447e-06
1.24036410975604e-06
1.24505854950212e-06
1.24763135741225e-06
1.24898753901389e-06
1.24967581443352e-06
1.25001243752875e-06
1.25017120974653e-06
1.25024344975413e-06
1.25027513286249e-06
1.25028847117407e-06
1.25029374623989e-06
1.2502954336043e-06
1.25029512354466e-06
1.25029266967655e-06
1.25028612936622e-06
1.25027044680729e-06
1.25023434276801e-06
1.25015394343474e-06
1.24998069003932e-06
1.24961961351482e-06
1.24889241154607e-06
1.24747844694136e-06
1.24482690600502e-06
1.24003665254579e-06
1.23170880822525e-06
1.21779211796975e-06
1.19546170287902e-06
1.16109270759506e-06
1.1104017397266e-06
1.03881827252933e-06
9.42105690178911e-07
8.17177982759486e-07
6.62969675035945e-07
4.81142580314259e-07
2.76380504558253e-07
8.02275156600779e-10
3.06274164860091e-12
4.27807736453639e-12
1.12976942699593e-09
3.91466592930272e-07
6.82742858659198e-07
9.4157612203661e-07
1.16107209802245e-06
1.33878898280352e-06
1.47622987639563e-06
1.57780427281938e-06
1.64957594987535e-06
1.69809138068537e-06
1.72948690255275e-06
1.74895245910709e-06
1.76052611058688e-06
1.76713160761034e-06
1.7707542118466e-06
1.77266526132057e-06
1.77363599840027e-06
1.77411123809817e-06
1.77433563697633e-06
1.77443786243416e-06
1.77448276023986e-06
1.77450169478801e-06
1.77450920244319e-06
1.77451162133276e-06
1.77451121507093e-06
1.77450779983408e-06
1.77449866189239e-06
1.77447672658459e-06
1.77442619213995e-06
1.77431358826285e-06
1.77407079725668e-06
1.77356452999802e-06
1.77254443036829e-06
1.77056011959244e-06
1.7668376473812e-06
1.76011041357515e-06
1.7484114681942e-06
1.72885500131491e-06
1.69746330506207e-06
1.64912434364675e-06
1.57778075042659e-06
1.47693665899992e-06
1.34051164752006e-06
1.16397237708146e-06
9.4555380691716e-07
6.87280664752647e-07
3.95454718056547e-07
1.14799677227379e-09
4.3754556040141e-12
5.53601322614494e-12
1.46209405436933e-09
5.05571581438229e-07
8.79735360552112e-07
1.21103779275461e-06
1.49118466953033e-06
1.7175066338739e-06
1.89225354387113e-06
2.02125594459564e-06
2.11234708565891e-06
2.17390265819087e-06
2.21373567909482e-06
2.23843743278205e-06
2.25312986374826e-06
2.26151969091125e-06
2.26612378891707e-06
2.26855441214043e-06
2.26979011079441e-06
2.27039563681167e-06
2.2706818561579e-06
2.27081240013688e-06
2.27086981579255e-06
2.27089407181166e-06
2.27090371449954e-06
2.27090684258597e-06
2.27090636401813e-06
2.27090207141508e-06
2.27089054109276e-06
2.27086283500166e-06
2.27079896642425e-06
2.27065657172131e-06
2.27034938580965e-06
2.26970852819746e-06
2.26841665990734e-06
2.26590269914001e-06
2.26118496644314e-06
2.25265642446198e-06
2.23782060555119e-06
2.21301310981965e-06
2.17317924137489e-06
2.1118143613168e-06
2.02119301435946e-06
1.89299517697136e-06
1.71936810618465e-06
1.49434218619188e-06
1.21537498390411e-06
8.84674161557091e-07
5.09896193643707e-07
1.48200611083048e-09
5.64418500139368e-12
6.73661605492925e-12
1.77927669695904e-09
6.1397694132398e-07
1.06610819724227e-06
1.46515541887865e-06
1.80172449101702e-06
2.07309889133999e-06
2.28233662566923e-06
2.43665527844168e-06
2.54556220132694e-06
2.61913928814978e-06
2.66675209106129e-06
2.69628458620908e-06
2.71385681267934e-06
2.72389610674151e-06
2.72940874659543e-06
2.73232107744349e-06
2.73380286224392e-06
2.73452963412829e-06
2.73487351400629e-06
2.73503053984736e-06
2.73509969825819e-06
2.73512896650567e-06
2.73514063235264e-06
2.73514444173362e-06
2.73514391268105e-06
2.7351388259904e-06
2.73512511070863e-06
2.73509212470965e-06
2.73501604515936e-06
2.73484634534498e-06
2.73448008503676e-06
2.73371564963864e-06
2.73217404609344e-06
2.72917301868667e-06
2.72353945245622e-06
2.71335242210178e-06
2.69562699108904e-06
2.66598005440522e-06
2.61836171979959e-06
2.54497812461565e-06
2.43655436723972e-06
2.2830655168161e-06
2.07498263068203e-06
1.80494228949143e-06
1.46958250329083e-06
1.07114573433735e-06
6.1838788284178e-07
1.79991065795832e-09
6.85124293667742e-12
7.8656078420848e-12
2.07763872141145e-09
7.15564514502931e-07
1.24010079762322e-06
1.70171023958741e-06
2.09016415655534e-06
2.40283947785048e-06
2.64362852436313e-06
2.82107508542734e-06
2.94624692882935e-06
3.03079759087364e-06
3.08551408707171e-06
3.11946033429504e-06
3.13966619553604e-06
3.15121571141718e-06
3.15756133606738e-06
3.16091600784419e-06
3.16262416842677e-06
3.16346269769582e-06
3.16385984652599e-06
3.16404140224832e-06
3.16412147308799e-06
3.16415541893537e-06
3.16416898515142e-06
3.16417344353279e-06
3.16417288317955e-06
3.16416708346178e-06
3.16415138928931e-06
3.16411361420967e-06
3.16402645174416e-06
3.16383195281649e-06
3.16341199991478e-06
3.16253515973411e-06
3.16076623598943e-06
3.15732156840362e-06
3.15085334545468e-06
3.13915408482906e-06
3.11879273885295e-06
3.08472949470924e-06
3.03000438383159e-06
2.94564288259875e-06
2.82094730689469e-06
2.64431931456942e-06
2.40466795818016e-06
2.09330350706081e-06
1.70603341605965e-06
1.24501912510535e-06
7.19882218699535e-07
2.09829266707665e-09
7.98338213114134e-12
8.91270950529131e-12
2.35450998954659e-09
8.09534413271814e-07
1.40050405558231e-06
1.91923444301178e-06
2.35488677055351e-06
2.70503391617196e-06
2.9743988577959e-06
3.17277053526397e-06
3.31265148469196e-06
3.40712622445892e-06
3.46826958448221e-06
3.50621187350894e-06
3.52880442658559e-06
3.54172418106352e-06
3.5488266279964e-06
3.55258383020461e-06
3.55449835898692e-06
3.55543897244116e-06
3.55588489092414e-06
3.55608896509492e-06
3.55617908676368e-06
3.55621735977505e-06
3.55623269584751e-06
3.55623776729954e-06
3.55623719246323e-06
3.55623075725692e-06
3.55621328518102e-06
3.55617120240041e-06
3.55607406698384e-06
3.5558572417459e-06
3.55538892048856e-06
3.55441075481094e-06
3.55243678476068e-06
3.54859171132821e-06
3.54136978493544e-06
3.5283043695027e-06
3.50556084653734e-06
3.46750510136781e-06
3.40635308166941e-06
3.31205997328656e-06
3.17263557060145e-06
2.97504635846729e-06
2.70676525356461e-06
2.35786204737613e-06
1.92332826623118e-06
1.40515929920646e-06
8.13638724001743e-07
2.37469155520139e-09
9.03115367009789e-12
9.87127176445416e-12
2.60815793530256e-09
8.95392761550104e-07
1.54662590191846e-06
2.11695098865153e-06
2.59510171850437e-06
2.97891526346249e-06
3.27391777312848e-06
3.49104830258446e-06
3.64411212556828e-06
3.74748257646485e-06
3.81438966508312e-06
3.85591844240422e-06
3.88065523234223e-06
3.89480752089789e-06
3.90259168647642e-06
3.90671204950993e-06
3.90881309473467e-06
3.90984615785875e-06
3.91033634493384e-06
3.91056091487941e-06
3.91066021539893e-06
3.91070245774323e-06
3.9107194281374e-06
3.91072507413154e-06
3.91072449947895e-06
3.91071750188595e-06
3.91069844491657e-06
3.91065251870943e-06
3.91054648355215e-06
3.91030972801836e-06
3.90979820765109e-06
3.9087294931861e-06
3.90657217910531e-06
3.90236888847311e-06
3.89447235977964e-06
3.88018369254339e-06
3.85530648996057e-06
3.81367374318157e-06
3.74676215180091e-06
3.64356599100084e-06
3.49093269625474e-06
3.27453389066981e-06
2.9805383107369e-06
2.59787330072481e-06
2.12074899306599e-06
1.55093732356948e-06
8.99213344205804e-07
2.62754996168655e-09
9.98862010550258e-12
1.07378663440644e-11
2.83768124434848e-09
9.72915605757296e-07
1.67822034421382e-06
2.29466886944798e-06
2.81071079166513e-06
3.22448695052155e-06
3.54228122219026e-06
3.77607921237621e-06
3.94085509029032e-06
4.05213094534179e-06
4.12416309211819e-06
4.16888359870893e-06
4.19553061333696e-06
4.21078228513758e-06
4.21917538707375e-06
4.22362065781138e-06
4.22588887209396e-06
4.22700496236158e-06
4.22753499816255e-06
4.22777806808928e-06
4.22788568182975e-06
4.22793153533557e-06
4.2279500022613e-06
4.22795618216963e-06
4.22795561958705e-06
4.2279481284548e-06
4.22792766974164e-06
4.22787834187649e-06
4.22776442996855e-06
4.22751003165612e-06
4.22696025503832e-06
4.22581131189805e-06
4.22349146528708e-06
4.2189704647253e-06
4.21047536535074e-06
4.19510093510573e-06
4.16832933953742e-06
4.12352001763948e-06
4.05149255399547e-06
3.94038655665595e-06
3.77601429985277e-06
3.54289123971027e-06
3.22601543058977e-06
2.81327676163112e-06
2.29815307904677e-06
1.68215899477937e-06
9.76422966798982e-07
2.85611303330524e-09
1.08529675986176e-11
1.15118219897843e-11
3.04288884984553e-09
1.04210616798889e-06
1.79540941395816e-06
2.45267327933798e-06
3.00217201352139e-06
3.44236605737545e-06
3.78023895794902e-06
4.02871533877427e-06
4.20380621898129e-06
4.32204721505158e-06
4.39859783784129e-06
4.44613481972865e-06
4.47446930985521e-06
4.4906934006598e-06
4.49962589133633e-06
4.50435942630098e-06
4.50677622361501e-06
4.50796625968144e-06
4.50853186815219e-06
4.50879149836978e-06
4.50890657918523e-06
4.50895569089625e-06
4.50897551669716e-06
4.50898218833232e-06
4.50898164725116e-06
4.50897372678076e-06
4.50895203832215e-06
4.50889972452657e-06
4.50877889962086e-06
4.50850901598219e-06
4.50792565048689e-06
4.50670623527812e-06
4.50424355359555e-06
4.49944322133213e-06
4.49042165132525e-06
4.47409193790128e-06
4.4456531898092e-06
4.39804779715824e-06
4.32151653430499e-06
4.20344587323475e-06
4.02873502569221e-06
3.78087755648728e-06
3.44383232365367e-06
3.00455943684479e-06
2.45586343191353e-06
1.79898687344498e-06
1.04530308665761e-06
3.06030916805968e-09
1.1624045533256e-11
1.21947612432539e-11
3.22418190170247e-09
1.10315409704546e-06
1.89861180395648e-06
2.59162803025537e-06
3.17038099465835e-06
3.63364858341463e-06
3.9890480244268e-06
4.25033518074654e-06
4.43443046266079e-06
4.55875463594222e-06
4.6392544971351e-06
4.6892554678448e-06
4.71906791476236e-06
4.73614479691397e-06
4.74555101373109e-06
4.75053813458979e-06
4.75308587800524e-06
4.75434121546619e-06
4.75493831151596e-06
4.75521264086147e-06
4.75533437232033e-06
4.75538639904118e-06
4.75540744825572e-06
4.75541456868712e-06
4.75541405626976e-06
4.75540576571681e-06
4.75538300759291e-06
4.75532809532135e-06
4.75520125613417e-06
4.75491790044259e-06
4.7543053053479e-06
4.75302453931111e-06
4.7504374543333e-06
4.74539373286491e-06
4.73591326587318e-06
4.71875063325228e-06
4.68885794938581e-06
4.63881367213018e-06
4.55835343999236e-06
4.43420627471307e-06
4.2504737705324e-06
3.989755373229e-06
3.63509749607802e-06
3.17263741234643e-06
2.59457117554408e-06
1.90186946518057e-06
1.10606754032421e-06
3.24063289432729e-09
1.2303902665607e-11
1.27901641224553e-11
3.38244397800114e-09
1.15639870847728e-06
1.98848045003983e-06
2.71249202844066e-06
3.31657093067532e-06
3.79979712214703e-06
4.17035154814185e-06
4.44271625841126e-06
4.63460029450506e-06
4.76418949868642e-06
4.84811023043066e-06
4.90024767684065e-06
4.931343138228e-06
4.94916131853599e-06
4.95897994234817e-06
4.96418819081762e-06
4.9668503295681e-06
4.96816283221171e-06
4.9687875575496e-06
4.96907482079757e-06
4.96920242440111e-06
4.96925703648746e-06
4.96927917758303e-06
4.9692867039008e-06
4.96928622525344e-06
4.9692776188357e-06
4.9692539387733e-06
4.96919678589064e-06
4.96906476254706e-06
4.96876979506524e-06
4.96813200079636e-06
4.96679832328061e-06
4.96410390152492e-06
4.95885009384712e-06
4.948973378129e-06
4.93109132638761e-06
4.89994255539665e-06
4.84779094171826e-06
4.76393547439158e-06
4.63453677151174e-06
4.44300649589853e-06
4.17116972918938e-06
3.80128041744747e-06
3.31875653512205e-06
2.71525299056103e-06
1.99147972150475e-06
1.15907239522922e-06
3.39803631959411e-09
1.289635137705e-11
1.33029575828968e-11
3.5189376331616e-09
1.20229520903275e-06
2.06584648884736e-06
2.81644548434977e-06
3.44222527112388e-06
3.94254357469952e-06
4.32607436512556e-06
4.60792584349561e-06
4.80648315404117e-06
4.94058643829476e-06
5.02744271766342e-06
5.08141548258766e-06
5.11361445391681e-06
5.13207109672115e-06
5.14224546015304e-06
5.14764477397615e-06
5.15040594060436e-06
5.15176803227888e-06
5.15241678219683e-06
5.15271532348541e-06
5.1528480652164e-06
5.15290494970165e-06
5.15292805653593e-06
5.15293594653656e-06
5.15293550497e-06
5.15292663188049e-06
5.15290216508185e-06
5.15284309921284e-06
5.15270665141556e-06
5.15240177465795e-06
5.15174247123525e-06
5.15036361296012e-06
5.14757749693415e-06
5.14214414374782e-06
5.13192865773013e-06
5.11343135887938e-06
5.08120813906497e-06
5.02725363498655e-06
4.94049312364823e-06
4.80660070690714e-06
4.60839730502371e-06
4.32704433013273e-06
3.94411499984356e-06
3.44440609867824e-06
2.81909853531447e-06
2.06866020667205e-06
1.20478300784878e-06
3.53382764933466e-09
1.34065610488488e-11
1.37391225417841e-11
3.63520436625929e-09
1.24138256891509e-06
2.13166677998489e-06
2.90482154446056e-06
3.54899739653174e-06
4.06380011563925e-06
4.45832781784806e-06
4.74822150459963e-06
4.95243914122427e-06
5.09037427058508e-06
5.17972482136992e-06
5.23525876910333e-06
5.2683976218843e-06
5.28739883127057e-06
5.29787709490296e-06
5.30343991401289e-06
5.30628598600588e-06
5.3076906851079e-06
5.3083601271242e-06
5.30866840971438e-06
5.30880560502038e-06
5.3088644681121e-06
5.30888842115217e-06
5.30889663394154e-06
5.3088962312444e-06
5.30888713575512e-06
5.30886200495949e-06
5.30880132344037e-06
5.30866114016903e-06
5.30834789778519e-06
5.30767043140666e-06
5.30625340523178e-06
5.30338979083905e-06
5.29780461952627e-06
5.28730256439363e-06
5.26828465000355e-06
5.23515201235011e-06
5.17967125585281e-06
5.09045114626088e-06
4.95275371819893e-06
4.74889942394517e-06
4.45948700995042e-06
4.06551150661369e-06
3.55123974949917e-06
2.90744351252018e-06
2.1343720318346e-06
1.24374288863356e-06
3.64957389546908e-09
1.38406727931885e-11
1.41053157542629e-11
3.73296722602778e-09
1.27425253226079e-06
2.18697378611878e-06
2.9790413965646e-06
3.63863466948759e-06
4.16557519898711e-06
4.56932005425067e-06
4.86595745940937e-06
5.07492471073541e-06
5.21607794706597e-06
5.30752543796209e-06
5.36437344240397e-06
5.39830446083375e-06
5.41776533313922e-06
5.42850053504085e-06
5.43420184041062e-06
5.4371199673741e-06
5.43856090434699e-06
5.43924798878355e-06
5.4395646011646e-06
5.43970561835277e-06
5.43976618726344e-06
5.43979087455473e-06
5.43979937107756e-06
5.43979900780663e-06
5.43978972948083e-06
5.43976404521622e-06
5.43970201564383e-06
5.43955871634501e-06
5.4392384955123e-06
5.43854587299839e-06
5.43709698158544e-06
5.43416863031068e-06
5.42845657285214e-06
5.41771489661751e-06
5.39826148666065e-06
5.3643678836114e-06
5.30760972190215e-06
5.21633069492918e-06
5.07544772491598e-06
4.86686203431026e-06
4.57070076069714e-06
4.16747358907814e-06
3.64100087111353e-06
2.98170631878125e-06
2.18964625484028e-06
1.27654380975168e-06
3.74700683219468e-09
1.42054323348033e-11
1.44085113529225e-11
3.81403755271647e-09
1.30152009042216e-06
2.23282811722683e-06
3.04055303664457e-06
3.71290689689685e-06
4.24989449778174e-06
4.66127160322249e-06
4.96349641773231e-06
5.1764019857055e-06
5.32022620350915e-06
5.41341608389414e-06
5.47135736109315e-06
5.50594838802925e-06
5.52579283974824e-06
5.53674282046737e-06
5.54256010636949e-06
5.54553870284489e-06
5.5470101205913e-06
5.54771208296976e-06
5.5480357411659e-06
5.54818000310563e-06
5.54824202717626e-06
5.54826734501426e-06
5.54827608847394e-06
5.5482757642553e-06
5.54826633820471e-06
5.54824019928055e-06
5.54817706067328e-06
5.54803119794248e-06
5.54770523524912e-06
5.54700013624672e-06
5.54552499626819e-06
5.54254328143107e-06
5.53672655972705e-06
5.52578710962579e-06
5.50597407628689e-06
5.47145182429127e-06
5.41363803182364e-06
5.32065712609802e-06
5.17714053180795e-06
4.96464259452722e-06
4.66290003860524e-06
4.25202025675306e-06
3.71545237743855e-06
3.04332835279078e-06
2.23553795026252e-06
1.30379740622182e-06
3.82793341736745e-09
1.45078447152463e-11
1.46556713231747e-11
3.88022858084549e-09
1.32379619412191e-06
2.27027485434893e-06
3.09077502330762e-06
3.77354066441838e-06
4.3187283296496e-06
4.73633784389543e-06
5.04312857956193e-06
5.25925538839082e-06
5.405266622711e-06
5.4998849524999e-06
5.558723769217e-06
5.5938574784375e-06
5.61401785816827e-06
5.62514506534602e-06
5.63105824688086e-06
5.63408695158443e-06
5.63558368904246e-06
5.63629804431162e-06
5.63662759037508e-06
5.63677457447701e-06
5.63683782553237e-06
5.63686367882621e-06
5.63687263498218e-06
5.63687234876627e-06
5.63686280599152e-06
5.63683630022209e-06
5.63677226478546e-06
5.63662432851784e-06
5.63629371919429e-06
5.6355785158212e-06
5.63408209804029e-06
5.63105708360412e-06
5.62515535913093e-06
5.61405515632494e-06
5.59394961145499e-06
5.55891572655835e-06
5.50024238707405e-06
5.40587520038623e-06
5.26021271643471e-06
5.04452627174923e-06
4.73823390469417e-06
4.32111425652938e-06
3.77631228362499e-06
3.09371920679983e-06
2.27308396660516e-06
1.32610896965393e-06
3.89415309061636e-09
1.47548587377893e-11
1.48534541866317e-11
3.93327857136845e-09
1.34166349011391e-06
2.30030482398114e-06
3.13104666401192e-06
3.82216118809714e-06
4.37392736519933e-06
4.79654028070334e-06
5.10699978585206e-06
5.32571764728782e-06
5.47349021377293e-06
5.56926057233129e-06
5.62882438039703e-06
5.66439720322361e-06
5.68481370288942e-06
5.69608488342922e-06
5.70207614325271e-06
5.70514574656783e-06
5.7066632062847e-06
5.70738773525141e-06
5.70772213207601e-06
5.70787136858687e-06
5.70793564055846e-06
5.7079619428753e-06
5.7079710802164e-06
5.70797083051841e-06
5.70796119832367e-06
5.7079344034897e-06
5.70786965895808e-06
5.70772008185528e-06
5.70738579212638e-06
5.7066625754448e-06
5.70514925934935e-06
5.70208980856544e-06
5.69612039095098e-06
5.68489201718067e-06
5.66455300422928e-06
5.62911039657449e-06
5.56974989036406e-06
5.47427376190809e-06
5.32689383757167e-06
5.10865444716978e-06
4.79871786219114e-06
4.37659859239336e-06
3.82519662040617e-06
3.13420809819555e-06
2.30326545549223e-06
1.34405414820913e-06
3.94738431035874e-09
1.49530890360796e-11
1.50079683879887e-11
3.97478535227552e-09
1.3556556416058e-06
2.32382165378031e-06
3.16258566105972e-06
3.8602428633649e-06
4.41716791964705e-06
4.84370801908586e-06
5.15705028902836e-06
5.37780670071166e-06
5.52696706515556e-06
5.62364664929859e-06
5.68378371163562e-06
5.71970445594202e-06
5.74032434241099e-06
5.75171013344336e-06
5.75776371346185e-06
5.76086605601387e-06
5.76240015701282e-06
5.76313288553176e-06
5.76347120820063e-06
5.76362227688484e-06
5.76368738468974e-06
5.76371405797939e-06
5.76372334776711e-06
5.76372313287512e-06
5.76371343534029e-06
5.76368642035023e-06
5.7636211328391e-06
5.76347029711414e-06
5.76313317926254e-06
5.7624037917558e-06
5.76087743289841e-06
5.75779134300637e-06
5.75176945005681e-06
5.74044153205402e-06
5.71992089652479e-06
5.68415987798851e-06
5.62426339656233e-06
5.52792144243678e-06
5.37919946642813e-06
5.15896373454898e-06
4.84617574750248e-06
4.42014243611959e-06
3.86357081143039e-06
3.16600250126613e-06
2.32697593438911e-06
1.35815905456102e-06
3.98920195782338e-09
1.51085810883967e-11
1.51245727435018e-11
4.00615301907443e-09
1.3662404511198e-06
2.3416149146563e-06
3.18645358485538e-06
3.88906893251583e-06
4.44990729708243e-06
4.87942995364397e-06
5.19496469034728e-06
5.41727407152889e-06
5.56749366662477e-06
5.66486870213107e-06
5.7254452858937e-06
5.76163349165948e-06
5.78241018365213e-06
5.79388461583209e-06
5.79998656092213e-06
5.80311440677795e-06
5.80466152445203e-06
5.8054006961746e-06
5.80574212020516e-06
5.80589464557355e-06
5.80596042333646e-06
5.8059873973644e-06
5.80599681355062e-06
5.80599663170819e-06
5.80598689021414e-06
5.80595971645222e-06
5.80589403374962e-06
5.80574227884161e-06
5.80540308853635e-06
5.80466916153161e-06
5.80313316940035e-06
5.80002732793746e-06
5.79396638838003e-06
5.78256416352228e-06
5.76190757187876e-06
5.7259076241335e-06
5.6656081233885e-06
5.56861398080019e-06
5.41887960657168e-06
5.19713604475096e-06
4.88219216552906e-06
4.45319687006052e-06
3.89270989972957e-06
3.19015430685915e-06
2.34499514669174e-06
1.36888396306592e-06
4.0209861841103e-09
1.52266206513882e-11
1.52077225813015e-11
4.02855055230309e-09
1.37380670936632e-06
2.3543391986729e-06
3.20352896601518e-06
3.90970002603139e-06
4.47334892362223e-06
4.90501739764964e-06
5.22213277243283e-06
5.44556444408313e-06
5.59655163467753e-06
5.69443222926794e-06
5.75532944423976e-06
5.7917135218002e-06
5.8126055383554e-06
5.82414546586753e-06
5.83028332718162e-06
5.83343021551688e-06
5.83498711038488e-06
5.83573115393338e-06
5.83607494079438e-06
5.83622858602447e-06
5.83629488468183e-06
5.8363220961745e-06
5.836331615198e-06
5.83633146474341e-06
5.8363216985429e-06
5.83629442134724e-06
5.83622847654416e-06
5.83607610761481e-06
5.83573552300631e-06
5.83499851795853e-06
5.83345594206511e-06
5.83033650007641e-06
5.82424848982244e-06
5.81279443568555e-06
5.79204251126935e-06
5.75587425940841e-06
5.69528975915708e-06
5.59783289054165e-06
5.44737823066554e-06
5.22455941982442e-06
4.90807519099925e-06
4.47696018854307e-06
3.91366736659489e-06
3.20753328740098e-06
2.35796855240329e-06
1.37661050427673e-06
4.04388237004302e-09
1.53115857406755e-11
1.52608573688012e-11
4.04288135521261e-09
1.37865446552861e-06
2.36249863210105e-06
3.21448735698278e-06
3.92295082402258e-06
4.48841644473981e-06
4.9214762833825e-06
5.23962032818367e-06
5.46378552768553e-06
5.61527691625688e-06
5.71349147722528e-06
5.77460183502202e-06
5.81111703109278e-06
5.83208683748531e-06
5.8436713090711e-06
5.84983381458171e-06
5.85299389372383e-06
5.85455763102599e-06
5.85530512252472e-06
5.85565060287406e-06
5.85580506263041e-06
5.85587174701248e-06
5.85589913856728e-06
5.85590873904482e-06
5.85590861853502e-06
5.85589884534677e-06
5.85587151560405e-06
5.85580543097781e-06
5.85565272798223e-06
5.85531137005501e-06
5.85457262260762e-06
5.85302624451051e-06
5.84989880204463e-06
5.84379460495388e-06
5.83230911586215e-06
5.81149866124845e-06
5.77522599984644e-06
5.71446314095359e-06
5.61671455536708e-06
5.46580302439098e-06
5.24229874553386e-06
4.92482847521731e-06
4.49235194541763e-06
3.92725180348438e-06
3.21880723331719e-06
2.36639196212097e-06
1.38163205861032e-06
4.05877119885369e-09
1.53668368070466e-11
1.5286324240137e-11
4.04976235958287e-09
1.38098831016474e-06
2.36643616641034e-06
3.21978750718482e-06
3.92937376998041e-06
4.49573558642352e-06
4.92948766129663e-06
5.24814867845079e-06
5.47268688421754e-06
5.62443814469789e-06
5.72282748875967e-06
5.7840512653188e-06
5.82063750968144e-06
5.84165029411396e-06
5.85325988612309e-06
5.85943659189778e-06
5.86260444475604e-06
5.86417231113491e-06
5.86492193664312e-06
5.86526849464799e-06
5.86542348931169e-06
5.86549043651414e-06
5.86551795646379e-06
5.86552761941453e-06
5.86552752778897e-06
5.8655177639661e-06
5.86549042878164e-06
5.86542431829912e-06
5.86527154328964e-06
5.86492999429964e-06
5.86419075675658e-06
5.86264318187955e-06
5.85951297676145e-06
5.85340275612149e-06
5.84190484481675e-06
5.82107011542668e-06
5.78475243045773e-06
5.72391019993512e-06
5.62602845303576e-06
5.47490405052536e-06
5.25107508105153e-06
4.93313154340878e-06
4.49999461102835e-06
3.93401042570154e-06
3.22442793911515e-06
2.37060069200148e-06
1.38414696628741e-06
4.06624756304836e-09
1.5394639804748e-11
1.52853295781515e-11
4.04951059932564e-09
1.38091308966865e-06
2.36632687073735e-06
3.2196628413823e-06
3.92924921396618e-06
4.49562323490934e-06
4.92939593049589e-06
5.24808224633856e-06
5.47264701263023e-06
5.62442336712592e-06
5.72283452338865e-06
5.78407594638643e-06
5.82067558858734e-06
5.84169796733546e-06
5.85331407048856e-06
5.85949498183817e-06
5.86266543136365e-06
5.86423483790176e-06
5.86498534621791e-06
5.86533239691626e-06
5.86548766174549e-06
5.86555475590167e-06
5.86558235581216e-06
5.8655920636145e-06
5.86559200015056e-06
5.86558226163725e-06
5.86555496683332e-06
5.86548894153774e-06
5.86533634998135e-06
5.86499517717385e-06
5.8642566678093e-06
5.86271042624683e-06
5.8595825351556e-06
5.85347612296965e-06
5.84198414957907e-06
5.82115817079221e-06
5.78485263205628e-06
5.72402620185525e-06
5.62616357562645e-06
5.47506044523696e-06
5.25125276534523e-06
4.93332748996966e-06
4.50020208584823e-06
3.93421869205746e-06
3.22462229235664e-06
2.37076262838747e-06
1.38425417117995e-06
4.066607045179e-09
1.53961172070033e-11
1.5257920153991e-11
4.04213803722345e-09
1.37843219603783e-06
2.36217503380291e-06
3.21411751425885e-06
3.92258063219528e-06
4.48808201186327e-06
4.92120293767863e-06
5.2394223107969e-06
5.463666858249e-06
5.61523339388231e-06
5.7135133892327e-06
5.7746767715198e-06
5.81123226523452e-06
5.83223095438833e-06
5.84383504079363e-06
5.85001022237598e-06
5.85317813119926e-06
5.85474651363874e-06
5.85549666792105e-06
5.85584363420479e-06
5.85599890849766e-06
5.85606603568375e-06
5.85609366799847e-06
5.85610340344542e-06
5.85610336772265e-06
5.85609367092766e-06
5.85606646333802e-06
5.85600063640751e-06
5.85584848803683e-06
5.85550826674644e-06
5.85477171841489e-06
5.85322936511409e-06
5.85010890454854e-06
5.84401619220498e-06
5.83254859801038e-06
5.81176449399109e-06
5.7755283718586e-06
5.71481298331077e-06
5.61712174498465e-06
5.46627386221699e-06
5.24283305868873e-06
4.92541690740084e-06
4.49297402831147e-06
3.92787516217322e-06
3.21938781301681e-06
2.36687466558669e-06
1.38195088908658e-06
4.05983828259672e-09
1.53712172902268e-11
1.52029900702825e-11
4.02735318831179e-09
1.37344787544404e-06
2.35381442726122e-06
3.20292658548224e-06
3.90909471552558e-06
4.47280031509856e-06
4.90456798587289e-06
5.2218069884833e-06
5.44536976980218e-06
5.59648173376318e-06
5.69447137484006e-06
5.75545720727495e-06
5.7919087817684e-06
5.8128492610755e-06
5.82442214632941e-06
5.83058132954685e-06
5.83374139843616e-06
5.83530611717633e-06
5.83605464685702e-06
5.8364009370035e-06
5.83655595384905e-06
5.83662299752014e-06
5.83665061361241e-06
5.83666035923485e-06
5.83666035118093e-06
5.83665071371914e-06
5.83662364315778e-06
5.83655813437366e-06
5.83640670310754e-06
5.83606803845274e-06
5.83533474504823e-06
5.83379895670716e-06
5.83069127893361e-06
5.82462260025549e-06
5.81319863008862e-06
5.79249093611987e-06
5.75638389532359e-06
5.69587871314777e-06
5.59851733611896e-06
5.44816815194881e-06
5.22545377536438e-06
4.90905747666927e-06
4.47799541778513e-06
3.91470106347237e-06
3.20849227882416e-06
2.35876247694824e-06
1.37713256758071e-06
4.0456234447206e-09
1.53187218548394e-11
1.51183008319327e-11
4.00456667856941e-09
1.36576317434847e-06