/*--------------------------------*- C++ -*----------------------------------*\
  =========                 |
  \\      /  F ield         | OpenFOAM: The Open Source CFD Toolbox
   \\    /   O peration     | Website:  https://openfoam.org
    \\  /    A nd           | Version:  10
     \\/     M anipulation  |
\*---------------------------------------------------------------------------*/
FoamFile
{
    format      ascii;
    class       volScalarField;
    location    "9.6";
    object      h;
}
// * * * * * * * * * * * * * * * * * * * * * * * * * * * * * * * * * * * * * //

dimensions      [0 2 -2 0 0 0 0];

internalField   nonuniform List<scalar> 
2500
(
6007.99904857009
6007.07809785292
5999.75907008338
5993.34117430094
5988.77768744384
5985.77222294145
5983.86353112356
5982.67911873694
5981.96147872007
5981.53939885538
5981.29747454338
5981.16370452013
5981.09220857834
5981.05475571203
5981.03564192675
5981.02585939983
5981.02121430881
5981.01870688472
5981.01717143155
5981.01631834955
5981.01575208782
5981.01534068904
5981.0150359383
5981.01485371109
5981.01468163453
5981.01455901945
5981.01453047698
5981.01455883918
5981.01466363349
5981.01487620171
5981.01526340364
5981.01603370529
5981.01733257755
5981.01982326126
5981.02476558556
5981.03467593304
5981.05438253287
5981.09267465124
5981.1662026039
5981.30174835515
5981.54481240689
5981.96776975337
5982.68286859433
5983.86081175752
5985.76161035335
5988.75933947632
5993.33112511553
5999.7839079255
6007.12098154122
6007.92630098066
5358.73038651056
5345.51371844668
5323.74250331943
5305.43801949781
5292.35842906006
5283.63355142027
5278.00415956125
5274.45201663731
5272.26109600234
5270.94557188423
5270.17852111568
5269.7456321294
5269.50936223506
5269.38442593897
5269.32042408105
5269.28853568092
5269.27320884942
5269.26587190729
5269.26230719758
5269.26059252097
5269.25971036315
5269.25920656274
5269.25889225578
5269.25870140059
5269.25855187895
5269.25844848834
5269.25841629167
5269.2584467645
5269.2585805701
5269.25892155099
5269.25969754264
5269.26142564992
5269.26509162998
5269.27287418584
5269.28914205308
5269.32243221251
5269.38876902339
5269.51708772838
5269.75808175875
5270.19587032699
5270.96660973353
5272.28260668363
5274.46654192988
5278.00187425737
5283.60830126589
5292.32014487768
5305.43669012157
5323.85744690396
5345.71080092343
5358.33447913687
4664.72965953072
4637.20280237925
4604.08005506272
4577.42091032354
4558.61013011718
4546.13608873146
4538.11618103861
4533.06641470973
4529.95435870222
4528.08474612726
4526.99353849124
4526.37649599964
4526.0388778452
4525.86009588324
4525.76846113075
4525.72294344595
4525.70106974322
4525.69078419955
4525.68599958846
4525.68380072378
4525.68276294839
4525.6822356359
4525.68194149064
4525.68177003721
4525.6816501712
4525.68156992414
4525.68154058406
4525.68156960971
4525.68171467992
4525.68212036206
4525.68310777601
4525.68539275697
4525.69046058464
4525.70142260025
4525.72454073527
4525.77202979319
4525.86676826189
4526.05000601428
4526.39347375797
4527.01675673077
4528.11282751677
4529.98299408397
4533.08676473365
4538.11676249594
4546.11155092376
4558.58289382354
4577.47516582104
4604.35237157859
4637.69713544275
4664.54029851814
3996.38851887491
3958.35571574471
3919.94755145403
3890.31553666569
3869.89189807268
3856.60233365016
3848.20456441901
3842.99946630344
3839.83609025345
3837.95854848062
3836.87438647528
3836.26706144867
3835.93753473574
3835.76441823075
3835.67636567052
3835.63298394786
3835.61229356289
3835.60268418161
3835.59830564391
3835.59634212164
3835.59545128097
3835.59502233203
3835.59479542642
3835.59466657503
3835.59458109366
3835.59452333794
3835.59449642977
3835.59450796256
3835.59461344644
3835.59494737443
3835.59580141316
3835.59784027616
3835.6024809754
3835.61266929155
3835.63439154823
3835.67944437908
3835.7701380974
3835.94711575252
3836.28177837207
3836.89488312045
3837.98408068243
3839.8633982481
3843.02163571088
3848.21296329379
3856.59665086805
3869.90641746146
3890.46040430857
3920.40887382615
3959.21920745979
3996.86117479621
3406.87398938892
3364.51611638757
3326.31561174796
3297.99364730493
3278.96074824807
3266.83339386751
3259.31431348289
3254.73230704421
3251.98815616645
3250.37949123983
3249.4602591861
3248.94984671265
3248.67497412292
3248.53152175794
3248.45899436161
3248.42347273909
3248.40662879412
3248.39887164533
3248.39538581037
3248.39385245576
3248.39317840621
3248.39286817545
3248.39271155277
3248.3926255411
3248.39257073723
3248.39253272949
3248.3925116832
3248.39251058423
3248.39257257915
3248.39280932836
3248.39345170746
3248.39503178865
3248.39870475133
3248.40686256428
3248.42440125818
3248.46105523361
3248.53538863277
3248.68153269886
3248.96006951123
3249.47480633285
3250.39816724144
3252.00907603068
3254.75120440145
3259.32653226302
3266.84402341358
3279.01197057101
3298.20988601525
3326.91855437895
3365.69245324938
3408.10019793639
2925.55791945287
2884.78361042059
2850.89704069583
2826.67874809346
2810.81590963781
2800.92510688165
2794.91118907119
2791.30887606423
2789.1826214842
2787.95098575655
2787.25399880825
2786.87001350653
2786.6645347029
2786.55786027092
2786.50417002895
2786.47798564367
2786.46562280304
2786.45996524181
2786.4574503336
2786.4563630821
2786.45589949934
2786.45569599611
2786.45559846443
2786.4555473208
2786.4555161329
2786.45549343739
2786.45547793621
2786.4554710448
2786.4555002281
2786.45564855662
2786.45608483833
2786.45719285342
2786.45982041992
2786.46571513686
2786.47847283184
2786.50529638623
2786.56001518285
2786.66825416554
2786.87592146041
2787.26260580641
2787.96237052151
2789.19591515663
2791.32193403116
2794.92251162215
2800.94314345587
2810.88476161202
2826.92345319056
2851.5532705392
2886.12039363872
2927.34574078504
2559.08178979118
2523.9827572697
2496.60871958562
2477.69345502444
2465.61388548169
2458.24403556417
2453.84971832499
2451.26215047469
2449.75643281073
2448.89413328088
2448.41049673483
2448.14588462862
2448.00503316144
2447.93220948715
2447.89567743899
2447.87791415179
2447.86955418831
2447.86574772895
2447.864071433
2447.86335882986
2447.86306474818
2447.86294278945
2447.86288815485
2447.86286144271
2447.86284625059
2447.86283418744
2447.86282357218
2447.86281569842
2447.86282456224
2447.86290717393
2447.86317929077
2447.86389601957
2447.8656308031
2447.86955911901
2447.87810797659
2447.89616873203
2447.93318263815
2448.00675715648
2448.14869418471
2448.41470552794
2448.89987288958
2449.76336930533
2451.26937959161
2453.85744425433
2458.2614203104
2465.68128202865
2477.92430693487
2497.22899584933
2525.30196353276
2561.10812972942
2297.3557434209
2269.79689708391
2249.3911302651
2235.72156840707
2227.2044378209
2222.11862861679
2219.14444146346
2217.4224488005
2216.43425192543
2215.87446287968
2215.56307697899
2215.39374384336
2215.30400484587
2215.25775366248
2215.2346058148
2215.22337327845
2215.21809948176
2215.21570839864
2215.21466445253
2215.2142281633
2215.21405468195
2215.21398792667
2215.21396069215
2215.21394889052
2215.21394330442
2215.21393791253
2215.21393114796
2215.21392460767
2215.21392473152
2215.21396533225
2215.21412128285
2215.21455377072
2215.21562363262
2215.21806862517
2215.22341481096
2215.23475248046
2215.25807062531
2215.30459753002
2215.39475614117
2215.56465916804
2215.87669584529
2216.43699582047
2217.42533118236
2219.14817164344
2222.1311099979
2227.25861275797
2235.91129403351
2249.91356721328
2270.9569396093
2299.3104205447
2121.19855097042
2101.20310716894
2087.03333208111
2077.80903017358
2072.19663386149
2068.91527048629
2067.03270397735
2065.96076387775
2065.35393613517
2065.0137681909
2064.82599805997
2064.7244394968
2064.6708143722
2064.64324161157
2064.62946339283
2064.62278607879
2064.61965652215
2064.6182429013
2064.61763080889
2064.61737943528
2064.61728379285
2064.61725068228
2064.61723864422
2064.61723455751
2064.61723425274
2064.61723276054
2064.61722875445
2064.6172235918
2064.6172207952
2064.61723833842
2064.6173212316
2064.61756662007
2064.61818798048
2064.61962135576
2064.62276894914
2064.62946391267
2064.64326931072
2064.67089349977
2064.72461167516
2064.82631094288
2065.01423675382
2065.35445287802
2065.96109908333
2067.03342492207
2068.92214765087
2072.23399042446
2077.94825469726
2087.43226192727
2102.12827033264
2122.87042110458
2009.00115707072
1995.46949835315
1986.23728452156
1980.38435874551
1976.9035562285
1974.90990646794
1973.78745671446
1973.15877152726
1972.8076116496
1972.61275339337
1972.50596920648
1972.44849309736
1972.41823628363
1972.40270568793
1972.39495208588
1972.39119707671
1972.38943942375
1972.38864819443
1972.38830839312
1972.38817132606
1972.38812161066
1972.3881067663
1972.38810355702
1972.38810359881
1972.3881044896
1972.38810437036
1972.38810216529
1972.38809855815
1972.38809546975
1972.38810162978
1972.3881426961
1972.38827442193
1972.38861638448
1972.38941291317
1972.39116895438
1972.39491245998
1972.40264529377
1972.41814876021
1972.44837720042
1972.50582315389
1972.6125496211
1972.80723280015
1973.15799218455
1973.78651650666
1974.91245876852
1976.92600855673
1980.47698167516
1986.51689605665
1996.14733536475
2010.29875426572
1941.13336963236
1932.53112066058
1926.85427257272
1923.34266664247
1921.29934519699
1920.15219473755
1919.51817011316
1919.16879081656
1918.97621131882
1918.87040578481
1918.81282154379
1918.78196314268
1918.76575919004
1918.75745156981
1918.75330560622
1918.75129817956
1918.75035940984
1918.7499381771
1918.74975879148
1918.74968781231
1918.74966365787
1918.74965841809
1918.74965869375
1918.74965978978
1918.74966082757
1918.74966097338
1918.74965987195
1918.74965746555
1918.74965502157
1918.74965640664
1918.74967537736
1918.74974252976
1918.74992177548
1918.75034347539
1918.75127662954
1918.75326908059
1918.75738877736
1918.76565773134
1918.78181036379
1918.81259981543
1918.87007251798
1918.97564796192
1919.16776633185
1919.5166571672
1920.1522068952
1921.31106972064
1923.39908015676
1927.03585311195
1932.99185207898
1942.06099782834
1902.0174825236
1896.85106849539
1893.54074507782
1891.53922531538
1890.39856975799
1889.77048302879
1889.42958409389
1889.24473826797
1889.1441838926
1889.08947660197
1889.05989917487
1889.04411286432
1889.03584046318
1889.03160227436
1889.02948704468
1889.02846269348
1889.02798397136
1889.02776984983
1889.02767948514
1889.02764452042
1889.0276337424
1889.02763247496
1889.02763342661
1889.02763461635
1889.02763546341
1889.02763570636
1889.02763516778
1889.02763364393
1889.02763187759
1889.02763171454
1889.02763998667
1889.02767256944
1889.02776244367
1889.0279760519
1889.02845040068
1889.02946422286
1889.03156092924
1889.03577094952
1889.04400381671
1889.05973311722
1889.08921368995
1889.14372131442
1889.24386670323
1889.42813875624
1889.76941228212
1890.4037265187
1891.57087098279
1893.6507999788
1897.14385548422
1902.63477231523
1880.47324033348
1877.52790957314
1875.68972830523
1874.60163105421
1873.99368415025
1873.66514225899
1873.48996576715
1873.3964868692
1873.34629911122
1873.31925845046
1873.30473294745
1873.29700914459
1873.29296852469
1873.29089903093
1873.28986570621
1873.28936504143
1873.2891311657
1873.28902689808
1873.2889833319
1873.28896700411
1873.28896260098
1873.28896256993
1873.28896339173
1873.2889643041
1873.28896489585
1873.28896511532
1873.28896485568
1873.288963948
1873.28896280034
1873.28896232113
1873.28896569485
1873.28898083028
1873.2890241044
1873.28912801438
1873.2893595244
1873.28985454108
1873.29087782092
1873.29293174842
1873.2969497309
1873.30463860107
1873.31909923456
1873.34599700543
1873.39587549455
1873.48884904293
1873.66387599158
1873.99539033853
1874.61802571836
1875.75234763102
1877.70296676146
1880.8586639786
1869.10306067616
1867.50280219901
1866.52732915782
1865.96117592742
1865.65073957448
1865.48598193399
1865.39964908702
1865.35430448128
1865.33027743596
1865.31745713631
1865.31061390746
1865.30698777307
1865.30509339898
1865.30412310823
1865.3036382488
1865.30340314212
1865.30329334969
1865.30324456696
1865.30322440544
1865.30321713905
1865.30321546409
1865.30321571196
1865.30321630534
1865.3032169005
1865.30321727142
1865.3032174259
1865.30321730198
1865.30321679358
1865.3032161109
1865.30321569043
1865.30321697022
1865.30322374397
1865.30324382213
1865.30329252475
1865.30340136277
1865.30363405737
1865.30411454083
1865.30507795106
1865.30696195934
1865.31057055295
1865.31737666765
1865.33010673169
1865.3539252015
1865.39889200893
1865.48492356067
1865.65092781346
1865.96901337371
1866.5609351134
1867.60179858123
1869.33028013488
1863.33891924734
1862.50741008804
1862.01114361733
1861.7283425364
1861.57600943682
1861.49655616234
1861.45562403618
1861.43446057607
1861.42339332719
1861.41754544084
1861.41444346528
1861.41280519239
1861.41195025533
1861.41151220253
1861.41129306762
1861.41118670126
1861.41113703824
1861.41111504993
1861.41110606718
1861.41110297733
1861.41110239917
1861.41110262816
1861.41110299974
1861.41110334932
1861.41110356297
1861.41110365693
1861.41110359843
1861.41110332922
1861.41110295197
1861.41110267642
1861.41110312433
1861.41110604941
1861.41111505421
1861.41113711354
1861.41118654394
1861.4112921614
1861.41150987334
1861.41194565624
1861.41279697598
1861.41442799296
1861.4175111614
1861.42330715108
1861.43424574941
1861.4551572641
1861.49580940361
1861.57569488607
1861.73177900012
1862.0282200057
1862.56059780716
1863.46604510167
1860.52558929956
1860.11112202747
1859.86840812014
1859.7324263401
1859.66039879251
1859.62345289898
1859.6047318444
1859.59520179089
1859.59028352777
1859.58771015645
1859.58635362781
1859.58563944701
1859.58526706423
1859.58507613947
1859.58498049987
1859.58493401946
1859.58491231898
1859.58490274617
1859.58489888311
1859.58489762541
1859.58489745195
1859.5848976014
1859.58489781168
1859.58489800139
1859.58489811607
1859.58489816784
1859.58489814061
1859.58489800504
1859.58489780904
1859.58489764935
1859.58489779198
1859.58489901948
1859.58490293405
1859.58491261586
1859.58493436061
1859.58498077147
1859.58507622139
1859.58526683224
1859.58563856736
1859.58635047602
1859.58769844964
1859.59024413574
1859.59508864955
1859.60446484234
1859.62298132329
1859.66002491377
1859.73378709464
1859.87664917741
1860.13837588063
1860.59337926868
1859.20083243957
1859.00211500629
1858.8877137351
1858.82462124626
1858.79172655517
1858.77512083191
1858.76684067192
1858.76268988278
1858.76057590562
1858.75948072404
1858.75890700571
1858.75860586861
1858.75844894894
1858.75836842088
1858.7583280166
1858.75830835151
1858.75829916966
1858.75829513403
1858.75829352685
1858.75829303537
1858.75829299405
1858.75829307723
1858.75829318727
1858.75829328365
1858.7582933415
1858.7582933679
1858.75829335547
1858.7582932903
1858.75829319399
1858.75829311139
1858.75829315234
1858.75829365293
1858.7582953067
1858.75829943472
1858.75830872244
1858.75832851424
1858.75836910454
1858.75844992555
1858.7586071781
1858.75890801573
1858.75947824144
1858.7605595541
1858.76263379594
1858.76669713737
1858.77484674707
1858.79143860637
1858.82508978154
1858.89150004907
1859.01547865968
1859.23541288153
1858.59782526238
1858.50595886066
1858.45387674726
1858.42556884966
1858.41102745193
1858.40379766445
1858.40024834037
1858.39849580086
1858.3976149716
1858.39716318149
1858.39692798629
1858.39680489458
1858.39674077843
1858.3967078364
1858.39669127661
1858.39668320284
1858.39667943178
1858.39667777984
1858.39667713145
1858.39667694397
1858.39667693816
1858.39667698183
1858.39667703563
1858.39667708172
1858.39667710922
1858.39667712181
1858.39667711627
1858.39667708634
1858.39667704142
1858.3966770011
1858.3966770115
1858.39667721232
1858.39667789353
1858.39667960763
1858.39668346814
1858.3966916773
1858.39670845743
1858.3967417531
1858.39680634597
1858.39692970957
1858.39716364503
1858.39760885096
1858.3984693896
1858.40017516155
1858.40364865344
1858.41084226004
1858.42569417356
1858.45553576307
1858.51224789006
1858.61475337386
1858.3320234335
1858.29098407952
1858.26803647528
1858.25573062013
1858.24949651573
1858.24644151478
1858.24496407097
1858.24424530212
1858.24388878049
1858.24370774615
1858.24361409241
1858.24356521494
1858.24353976007
1858.24352666236
1858.24352006342
1858.24351683916
1858.24351533175
1858.24351467291
1858.24351441753
1858.2435143469
1858.24351434812
1858.243514369
1858.2435143935
1858.24351441418
1858.24351442643
1858.24351443204
1858.24351442964
1858.24351441655
1858.24351439675
1858.24351437848
1858.24351438105
1858.24351446086
1858.24351473574
1858.24351543091
1858.24351699615
1858.24352031505
1858.24352707285
1858.24354042802
1858.24356624541
1858.24361543926
1858.24370871053
1858.24388676056
1858.24423339804
1858.24492844279
1858.24636492724
1858.24938979746
1858.25574327436
1858.26873043946
1858.29383206478
1858.3399980579
1858.21837491748
1858.20062378601
1858.19082068436
1858.18562851988
1858.18303207491
1858.18177699675
1858.18117871196
1858.18089183644
1858.18075139203
1858.18068079354
1858.18064449952
1858.18062560816
1858.18061576869
1858.18061069626
1858.18060813348
1858.18060687753
1858.18060628893
1858.18060603147
1858.18060593211
1858.180605905
1858.18060590594
1858.1806059147
1858.18060592485
1858.18060593336
1858.18060593835
1858.18060594062
1858.18060593963
1858.18060593426
1858.18060592616
1858.18060591871
1858.18060591989
1858.18060595191
1858.18060606141
1858.18060633796
1858.18060695884
1858.18060826985
1858.18061092677
1858.18061615298
1858.180626214
1858.18064532826
1858.18068153984
1858.18075083861
1858.18088666575
1858.1811620562
1858.18173950116
1858.18297525023
1858.1856142319
1858.19109787681
1858.20186772626
1858.22199909305
1858.17116764679
1858.16372007993
1858.15965302217
1858.1575234054
1858.15647121577
1858.15596912688
1858.15573306222
1858.15562145216
1858.15556751333
1858.15554067085
1858.15552695661
1858.15551983542
1858.15551612424
1858.15551420601
1858.15551323296
1858.15551275369
1858.15551252766
1858.15551242794
1858.15551238879
1858.15551237739
1858.15551237693
1858.15551237973
1858.1555123832
1858.15551238615
1858.15551238785
1858.15551238861
1858.15551238821
1858.15551238626
1858.15551238338
1858.15551238094
1858.15551238221
1858.15551239574
1858.15551243951
1858.15551254835
1858.15551279054
1858.15551329829
1858.15551432078
1858.15551632049
1858.15552015093
1858.15552740119
1858.155541116
1858.15556741138
1858.15561927286
1858.15572555118
1858.15595154089
1858.15644278386
1858.15750872188
1858.15975866667
1858.16424522199
1858.17276009348
1858.15209044084
1858.14905460186
1858.14741350302
1858.14656317847
1858.14614772936
1858.14595187076
1858.14586098383
1858.14581859256
1858.14579836309
1858.14578839501
1858.1457833322
1858.14578070813
1858.1457793384
1858.14577862731
1858.14577826408
1858.14577808331
1858.14577799665
1858.14577795729
1858.14577794085
1858.14577793499
1858.14577793343
1858.14577793345
1858.14577793398
1858.1457779345
1858.14577793478
1858.14577793487
1858.14577793473
1858.14577793422
1858.14577793359
1858.14577793338
1858.1457779349
1858.14577794137
1858.1457779596
1858.14577800282
1858.14577809678
1858.14577829092
1858.14577867783
1858.1457794284
1858.14578085671
1858.1457835471
1858.14578862388
1858.14579836811
1858.14581769411
1858.14585770258
1858.14594393259
1858.14613422075
1858.14655349881
1858.14745183629
1858.14926928017
1858.15276830159
1858.14458010441
1858.14337597997
1858.14273105629
1858.14240012563
1858.14224010785
1858.14216551824
1858.14213133046
1858.14211558967
1858.14210816858
1858.14210454588
1858.14210271519
1858.14210176662
1858.14210126935
1858.14210100889
1858.14210087386
1858.14210080503
1858.14210077066
1858.14210075384
1858.14210074572
1858.14210074176
1858.14210073969
1858.14210073849
1858.14210073773
1858.14210073724
1858.14210073689
1858.14210073671
1858.14210073668
1858.14210073678
1858.14210073708
1858.14210073781
1858.14210073948
1858.1421007433
1858.14210075181
1858.14210076993
1858.14210080718
1858.14210088166
1858.14210102708
1858.14210130521
1858.14210182912
1858.14210280883
1858.14210464991
1858.14210818302
1858.14211522304
1858.14212993538
1858.14216205554
1858.14223396849
1858.1423947637
1858.14274424029
1858.14346110864
1858.14486014246
1858.14169619891
1858.14123083961
1858.14098372095
1858.1408580622
1858.14079788322
1858.14077012447
1858.14075754625
1858.1407518239
1858.14074915564
1858.14074786325
1858.1407472118
1858.14074687289
1858.14074669316
1858.14074659704
1858.14074654546
1858.14074651765
1858.14074650245
1858.14074649387
1858.14074648875
1858.14074648544
1858.14074648312
1858.14074648141
1858.14074648014
1858.14074647923
1858.14074647864
1858.14074647835
1858.14074647838
1858.14074647871
1858.14074647939
1858.14074648049
1858.14074648224
1858.14074648508
1858.14074648996
1858.14074649867
1858.14074651468
1858.1407465445
1858.14074660014
1858.14074670351
1858.14074689443
1858.1407472468
1858.14074790366
1858.14074916068
1858.14075167258
1858.1407569651
1858.14076865852
1858.14079519911
1858.14085538011
1858.14098798363
1858.14126363538
1858.14180866059
1858.14061481111
1858.14043935492
1858.14034694756
1858.14030036911
1858.14027826312
1858.14026816329
1858.14026363287
1858.14026159253
1858.14026064899
1858.14026019353
1858.14025996284
1858.14025984088
1858.14025977419
1858.1402597367
1858.14025971498
1858.1402597019
1858.1402596936
1858.14025968798
1858.14025968392
1858.14025968084
1858.14025967842
1858.14025967652
1858.14025967506
1858.14025967399
1858.1402596733
1858.14025967298
1858.14025967303
1858.14025967345
1858.14025967427
1858.14025967552
1858.1402596773
1858.14025967978
1858.14025968331
1858.14025968857
1858.14025969678
1858.14025971025
1858.14025973321
1858.14025977327
1858.14025984417
1858.14025997137
1858.14026020426
1858.14026064574
1858.14026152663
1858.14026339265
1858.14026755733
1858.14027712843
1858.14029911983
1858.14034822316
1858.14045164753
1858.14065878053
1858.14021841553
1858.14015380855
1858.14012007837
1858.14010323417
1858.14009531048
1858.14009172017
1858.14009012176
1858.14008940593
1858.14008907514
1858.14008891397
1858.14008883025
1858.14008878387
1858.1400887566
1858.14008873961
1858.14008872838
1858.1400887205
1858.14008871464
1858.14008871008
1858.14008870642
1858.14008870343
1858.14008870098
1858.14008869902
1858.14008869749
1858.14008869637
1858.14008869565
1858.14008869532
1858.14008869539
1858.14008869584
1858.14008869671
1858.14008869801
1858.14008869979
1858.14008870213
1858.14008870517
1858.14008870915
1858.14008871455
1858.14008872215
1858.14008873344
1858.14008875101
1858.14008877952
1858.14008882755
1858.1400889118
1858.14008906727
1858.14008937341
1858.14009002054
1858.1400914729
1858.14009484381
1858.14010268323
1858.14012042055
1858.14015829775
1858.14023517452
1858.14007622882
1858.14005297668
1858.1400409755
1858.14003505545
1858.14003229767
1858.14003105547
1858.14003050301
1858.14003025393
1858.14003013642
1858.14003007664
1858.14003004321
1858.14003002265
1858.14003000885
1858.1400299989
1858.1400299913
1858.14002998524
1858.14002998026
1858.1400299761
1858.1400299726
1858.14002996966
1858.14002996723
1858.14002996525
1858.14002996372
1858.14002996259
1858.14002996187
1858.14002996154
1858.14002996161
1858.14002996207
1858.14002996295
1858.14002996426
1858.14002996603
1858.1400299683
1858.14002997115
1858.14002997467
1858.14002997905
1858.14002998457
1858.14002999175
1858.14003000147
1858.1400300153
1858.14003003605
1858.14003006925
1858.14003012649
1858.14003023435
1858.14003045713
1858.14003095348
1858.14003210906
1858.14003482289
1858.14004105166
1858.14005457654
1858.14008246384
1858.14002627433
1858.14001809408
1858.14001395817
1858.14001196359
1858.14001104744
1858.14001063468
1858.14001044776
1858.14001035984
1858.14001031506
1858.14001028948
1858.14001027291
1858.14001026098
1858.14001025171
1858.14001024415
1858.14001023781
1858.1400102324
1858.14001022776
1858.14001022377
1858.14001022036
1858.14001021747
1858.14001021506
1858.14001021311
1858.14001021159
1858.14001021047
1858.14001020976
1858.14001020944
1858.14001020951
1858.14001020997
1858.14001021085
1858.14001021215
1858.1400102139
1858.14001021613
1858.14001021889
1858.14001022222
1858.14001022621
1858.14001023099
1858.14001023674
1858.14001024376
1858.14001025259
1858.14001026413
1858.14001028016
1858.14001030439
1858.14001034531
1858.14001042348
1858.14001059001
1858.14001097099
1858.14001186882
1858.14001396888
1858.14001865181
1858.14002854117
1858.1400090702
1858.14000626214
1858.14000491182
1858.14000429796
1858.14000402465
1858.14000389881
1858.14000383696
1858.14000380347
1858.14000378292
1858.14000376858
1858.14000375752
1858.14000374841
1858.14000374065
1858.14000373391
1858.14000372803
1858.14000372288
1858.1400037184
1858.14000371451
1858.14000371116
1858.14000370833
1858.14000370596
1858.14000370404
1858.14000370255
1858.14000370145
1858.14000370075
1858.14000370044
1858.14000370051
1858.14000370098
1858.14000370185
1858.14000370313
1858.14000370486
1858.14000370705
1858.14000370974
1858.14000371298
1858.14000371681
1858.1400037213
1858.14000372653
1858.14000373263
1858.14000373978
1858.14000374829
1858.1400037587
1858.14000377212
1858.14000379099
1858.14000382103
1858.14000387628
1858.14000399223
1858.14000426035
1858.140004911
1858.14000645333
1858.14000987647
1858.14000325859
1858.14000232525
1858.14000194093
1858.14000180252
1858.14000174876
1858.1400017199
1858.14000169975
1858.14000168409
1858.14000167132
1858.14000166054
1858.14000165119
1858.14000164298
1858.14000163572
1858.14000162929
1858.1400016236
1858.14000161859
1858.14000161421
1858.1400016104
1858.14000160713
1858.14000160436
1858.14000160204
1858.14000160016
1858.1400015987
1858.14000159763
1858.14000159695
1858.14000159665
1858.14000159672
1858.14000159718
1858.14000159804
1858.1400015993
1858.14000160099
1858.14000160315
1858.14000160579
1858.14000160895
1858.14000161269
1858.14000161704
1858.14000162207
1858.14000162784
1858.14000163443
1858.14000164197
1858.14000165062
1858.14000166066
1858.14000167256
1858.14000168711
1858.14000170585
1858.14000173327
1858.14000178785
1858.14000194048
1858.14000239067
1858.1400035395
1858.14000133308
1858.14000104091
1858.14000098463
1858.14000100621
1858.14000102544
1858.14000102828
1858.14000102142
1858.14000101124
1858.14000100075
1858.14000099097
1858.14000098211
1858.14000097417
1858.14000096708
1858.14000096079
1858.14000095522
1858.14000095031
1858.14000094603
1858.14000094231
1858.14000093911
1858.1400009364
1858.14000093415
1858.14000093232
1858.1400009309
1858.14000092986
1858.1400009292
1858.14000092891
1858.14000092898
1858.14000092944
1858.14000093027
1858.14000093151
1858.14000093317
1858.14000093527
1858.14000093786
1858.14000094096
1858.14000094462
1858.14000094888
1858.1400009538
1858.14000095943
1858.14000096583
1858.14000097308
1858.14000098125
1858.14000099036
1858.14000100027
1858.14000101018
1858.14000101753
1858.14000101643
1858.14000100056
1858.14000098596
1858.14000106424
1858.14000142918
1858.14000070881
1858.14000063178
1858.14000068433
1858.14000075803
1858.14000080038
1858.14000081281
1858.14000080969
1858.14000080087
1858.14000079085
1858.14000078122
1858.14000077244
1858.14000076458
1858.14000075757
1858.14000075137
1858.1400007459
1858.1400007411
1858.14000073692
1858.14000073329
1858.14000073018
1858.14000072755
1858.14000072536
1858.14000072358
1858.14000072221
1858.1400007212
1858.14000072057
1858.14000072029
1858.14000072037
1858.14000072081
1858.14000072163
1858.14000072283
1858.14000072445
1858.1400007265
1858.14000072903
1858.14000073206
1858.14000073564
1858.14000073982
1858.14000074465
1858.1400007502
1858.14000075653
1858.14000076371
1858.1400007718
1858.14000078077
1858.14000079032
1858.14000079918
1858.14000080347
1858.14000079393
1858.14000075595
1858.14000068696
1858.14000064143
1858.14000074132
1858.14000051296
1858.14000050682
1858.14000059424
1858.14000068371
1858.14000073239
1858.14000074698
1858.14000074437
1858.14000073553
1858.14000072537
1858.14000071564
1858.14000070682
1858.14000069897
1858.14000069203
1858.14000068592
1858.14000068055
1858.14000067586
1858.14000067179
1858.14000066826
1858.14000066525
1858.1400006627
1858.14000066059
1858.14000065888
1858.14000065755
1858.14000065658
1858.14000065597
1858.14000065571
1858.14000065579
1858.14000065622
1858.14000065702
1858.14000065819
1858.14000065976
1858.14000066175
1858.14000066421
1858.14000066716
1858.14000067065
1858.14000067474
1858.14000067949
1858.14000068497
1858.14000069126
1858.14000069843
1858.14000070656
1858.14000071566
1858.14000072539
1858.14000073437
1858.14000073838
1858.14000072708
1858.14000068315
1858.14000059765
1858.14000051222
1858.14000052411
1858.14000045636
1858.14000047316
1858.14000057077
1858.1400006638
1858.14000071309
1858.14000072728
1858.14000072408
1858.14000071474
1858.14000070424
1858.14000069431
1858.14000068542
1858.14000067759
1858.14000067072
1858.14000066471
1858.14000065946
1858.1400006549
1858.14000065095
1858.14000064754
1858.14000064463
1858.14000064218
1858.14000064015
1858.1400006385
1858.14000063723
1858.1400006363
1858.14000063572
1858.14000063547
1858.14000063555
1858.14000063598
1858.14000063675
1858.14000063788
1858.1400006394
1858.14000064133
1858.1400006437
1858.14000064657
1858.14000064997
1858.14000065396
1858.14000065861
1858.14000066401
1858.14000067024
1858.14000067742
1858.14000068564
1858.14000069493
1858.14000070501
1858.14000071453
1858.1400007192
1858.14000070844
1858.14000066401
1858.14000057469
1858.14000047736
1858.14000046056
1858.14000044504
1858.14000046906
1858.14000056857
1858.14000066088
1858.14000070869
1858.14000072151
1858.14000071729
1858.14000070726
1858.14000069635
1858.14000068623
1858.14000067728
1858.14000066947
1858.14000066269
1858.1400006568
1858.14000065169
1858.14000064727
1858.14000064345
1858.14000064017
1858.14000063738
1858.14000063503
1858.14000063309
1858.14000063152
1858.14000063031
1858.14000062943
1858.14000062888
1858.14000062864
1858.14000062873
1858.14000062914
1858.14000062988
1858.14000063097
1858.14000063243
1858.14000063429
1858.14000063658
1858.14000063934
1858.14000064264
1858.14000064652