/*--------------------------------*- C++ -*----------------------------------*\
  =========                 |
  \\      /  F ield         | OpenFOAM: The Open Source CFD Toolbox
   \\    /   O peration     | Website:  https://openfoam.org
    \\  /    A nd           | Version:  10
     \\/     M anipulation  |
\*---------------------------------------------------------------------------*/
FoamFile
{
    format      ascii;
    class       volScalarField;
    location    "9.6";
    object      k;
}
// * * * * * * * * * * * * * * * * * * * * * * * * * * * * * * * * * * * * * //

dimensions      [0 2 -2 0 0 0 0];

internalField   nonuniform List<scalar> 
2500
(
5.28825818784771e-10
1.04324277061455e-08
4.4844706551655e-08
7.86299441840864e-08
1.09038444218273e-07
1.35037089089746e-07
1.56200369265667e-07
1.7261249977419e-07
1.84745925850205e-07
1.9330413786074e-07
1.99068643099576e-07
2.02780252310307e-07
2.05067210224575e-07
2.06417249600827e-07
2.07181675545356e-07
2.07597332297406e-07
2.07814623990459e-07
2.0792395182942e-07
2.07976943938971e-07
2.08001706519993e-07
2.08012864052495e-07
2.08017706868854e-07
2.08019722278378e-07
2.0802050832417e-07
2.08020753547463e-07
2.08020699252202e-07
2.08020318542455e-07
2.0801930643003e-07
2.08016867317091e-07
2.08011216666061e-07
2.07998552422537e-07
2.07971087757796e-07
2.07913485907134e-07
2.07796743636013e-07
2.07568329189055e-07
2.0713735044029e-07
2.06354057219867e-07
2.04984415603362e-07
2.02683132533848e-07
1.98972246585971e-07
1.93236360323547e-07
1.84747939492769e-07
1.72734311461686e-07
1.5648991646156e-07
1.35522882600232e-07
1.09707615686692e-07
7.94036343924218e-08
4.55450436814161e-08
1.07029659224552e-08
5.50018318330075e-10
1.30869183906114e-08
3.00903232967168e-07
1.3201036596807e-06
2.31570312058843e-06
3.21235934293456e-06
3.9800105710265e-06
4.60598537006128e-06
5.09246142540168e-06
5.45300131538649e-06
5.70801585965586e-06
5.88031450919727e-06
5.99162416332797e-06
6.06045440927776e-06
6.10123986426977e-06
6.12442487501932e-06
6.13708342835842e-06
6.14372888437002e-06
6.14708697594294e-06
6.14872189897435e-06
6.14948933946474e-06
6.14983674409771e-06
6.14998827010506e-06
6.15005166305858e-06
6.15007653524276e-06
6.15008435955739e-06
6.15008269535345e-06
6.15007071842369e-06
6.15003892099943e-06
6.14996257931987e-06
6.1497864585147e-06
6.14939339111013e-06
6.14854447889913e-06
6.14677129825972e-06
6.14319208540902e-06
6.13621693007945e-06
6.12310728555754e-06
6.09937139738777e-06
6.05802053322976e-06
5.9887888203849e-06
5.87752795066769e-06
5.70610065923103e-06
5.45315994400157e-06
5.096142324255e-06
4.61456365695099e-06
3.99428557912672e-06
3.23192324992862e-06
2.33823574733748e-06
1.34043017326397e-06
3.08569313505251e-07
1.35934334025339e-08
4.63728508112893e-08
1.35016746269147e-06
6.71271339253596e-06
1.17634568760459e-05
1.62893434987951e-05
2.0153442749443e-05
2.32988353471407e-05
2.57411643385156e-05
2.75511843840509e-05
2.88323432016191e-05
2.96991034839847e-05
3.02600874866172e-05
3.06077627766488e-05
3.08143080454541e-05
3.09320527632842e-05
3.09965333125726e-05
3.10304919488058e-05
3.10477089919478e-05
3.10561202093631e-05
3.10600826307036e-05
3.10618830695066e-05
3.10626714985366e-05
3.1063002804037e-05
3.10631334724042e-05
3.10631749413344e-05
3.10631666279024e-05
3.10631044626197e-05
3.10629393829883e-05
3.10625439656241e-05
3.10616342237342e-05
3.10596094234331e-05
3.10552482560932e-05
3.10461630541872e-05
3.10278724379035e-05
3.09923197431981e-05
3.09256678440384e-05
3.08052845645565e-05
3.05960485214776e-05
3.02464877610276e-05
2.96857885324702e-05
2.88232480971448e-05
2.75520366905904e-05
2.57588462442416e-05
2.33398736683395e-05
2.02216252698405e-05
1.63826907000118e-05
1.18707893549439e-05
6.80911395414173e-06
1.38174163804542e-06
4.79119357215654e-08
8.19912486468114e-08
2.40391108036798e-06
1.20069649026392e-05
2.0987747786262e-05
2.89981557194493e-05
3.58122399186999e-05
4.13429550559186e-05
4.56281915492747e-05
4.87992684836874e-05
5.10417516948684e-05
5.25582263799603e-05
5.35396622416014e-05
5.41480624581397e-05
5.45096673101766e-05
5.47159397590368e-05
5.48289899237897e-05
5.48885818246079e-05
5.49188256133069e-05
5.49336174199053e-05
5.49405941849291e-05
5.49437685544894e-05
5.49451607593939e-05
5.4945746848699e-05
5.49459786224587e-05
5.4946052745172e-05
5.49460390982237e-05
5.49459312496694e-05
5.49456438303917e-05
5.49449546757329e-05
5.49433681521602e-05
5.493983519583e-05
5.49322220616695e-05
5.49163557084159e-05
5.48844014450689e-05
5.48222705577362e-05
5.47057609535099e-05
5.4495278765766e-05
5.41293622716847e-05
5.35178897441434e-05
5.25367551033054e-05
5.10267131169617e-05
4.87995943895043e-05
4.56546169486257e-05
4.14056509383695e-05
3.59170496194131e-05
2.91417598374264e-05
2.11521617182698e-05
1.21527375179624e-05
2.45040952514718e-06
8.42123818285532e-08
1.17172009492156e-07
3.43717043171832e-06
1.71458441116019e-05
2.98978584770957e-05
4.12271911388824e-05
5.08338149665158e-05
5.86116666604495e-05
6.4626819675392e-05
6.90723207516616e-05
7.22135375676312e-05
7.43369476151763e-05
7.57110866843851e-05
7.6563083864556e-05
7.70696652132714e-05
7.73587936616197e-05
7.75173603148857e-05
7.76010106698368e-05
7.76435021238561e-05
7.76643046459406e-05
7.76741272469129e-05
7.76786019693055e-05
7.76805672769225e-05
7.76813960839587e-05
7.76817246983528e-05
7.76818305606389e-05
7.7681812756429e-05
7.76816632386612e-05
7.76812632113935e-05
7.76803029931692e-05
7.76780908957658e-05
7.76731618267088e-05
7.76625341075275e-05
7.76403734047294e-05
7.75957212382919e-05
7.75088641175596e-05
7.73459261719916e-05
7.70514694230193e-05
7.65394044719191e-05
7.56834292973686e-05
7.43094596381744e-05
7.21937764958283e-05
6.90713005469334e-05
6.46577694818842e-05
5.86870889966714e-05
5.09607979544418e-05
4.14013692667667e-05
3.00966156442914e-05
1.73205889727046e-05
3.49265179490283e-06
1.19840066744196e-07
1.51144006968884e-07
4.43414085308717e-06
2.20740470534129e-05
3.84044697431013e-05
5.2861786918552e-05
6.50859355212189e-05
7.49612573922216e-05
8.25861869328298e-05
8.82151724647908e-05
9.21899793711909e-05
9.48760354187653e-05
9.66142298275962e-05
9.76921574601492e-05
9.8333310027838e-05
9.86994320531677e-05
9.89003514203356e-05
9.90064229147891e-05
9.9060348749665e-05
9.90867740457332e-05
9.90992647907424e-05
9.9104961811655e-05
9.91074674670314e-05
9.91085260073998e-05
9.91089468092439e-05
9.91090833077234e-05
9.91090624067254e-05
9.91088750546827e-05
9.91083718328366e-05
9.91071626763138e-05
9.91043753601908e-05
9.90981611207797e-05
9.9084755346536e-05
9.90567881491021e-05
9.90004110604864e-05
9.88907027267003e-05
9.8684824419366e-05
9.83126491266363e-05
9.76652396640822e-05
9.65826984590812e-05
9.48444686066838e-05
9.21667364203197e-05
8.82124337133916e-05
8.26185621703374e-05
7.5042507710821e-05
6.52237598547927e-05
5.30511294347069e-05
3.86201335087222e-05
2.22629630474098e-05
4.49456854728795e-06
1.54099130519222e-07
1.83477287127115e-07
5.38320039983382e-06
2.67444007568459e-05
4.64331002079344e-05
6.38080311525967e-05
7.8461901463866e-05
9.02771466508007e-05
9.93871094903017e-05
0.000106106043553219
0.000110847846764867
0.000114051434359263
0.000116124548739163
0.000117410440868087
0.000118175571207616
0.000118612706064312
0.000118852741296666
0.000118979552834425
0.000119044074494231
0.000119075720620818
0.000119090694386852
0.000119097531881091
0.00011910054330372
0.000119101817753157
0.000119102325724061
0.000119102491592442
0.00011910246854521
0.000119102247035726
0.000119101649794428
0.000119100213418539
0.000119096900582266
0.000119089511179633
0.000119073562855896
0.000119040276709078
0.000118973150324202
0.000118842476622433
0.000118597175854337
0.000118153608155931
0.000117381807051485
0.000116090932323684
0.000114017578023356
0.00011082241705055
0.000106101654172127
9.94188546981554e-05
9.03591823899985e-05
7.86020399240858e-05
6.40008608004715e-05
4.66525756035601e-05
2.69366489105929e-05
5.44567601225837e-06
1.86601748566117e-07
2.13855189474097e-07
6.27531737762839e-06
3.11184680326119e-05
5.39246141270879e-05
7.39930876178039e-05
9.08806221210132e-05
0.0001044737277008
0.000114941749614994
0.000122656106486615
0.000128097914792547
0.000131773764882154
0.000134152591592628
0.000135628432551776
0.000136506904602831
0.000137009035259763
0.000137284921068731
0.000137430771181808
0.000137505036659168
0.000137541493405578
0.000137558760302562
0.000137566653850542
0.000137570135121308
0.000137571610998973
0.000137572200822129
0.00013757239465919
0.000137572370291154
0.00013757211812401
0.000137571435764527
0.00013756979337422
0.00013756600374886
0.000137557547438327
0.000137539289059134
0.000137501166648938
0.000137424259350976
0.000137274496452423
0.000136993280390635
0.000136484639259144
0.000135599407255232
0.00013411847983086
0.000131739279012693
0.000128071653763345
0.000122650553099128
0.000114971786529136
0.000104553231292488
9.10171290396519e-05
7.41810928989288e-05
5.4138551052203e-05
3.13063447617779e-05
6.33774946007959e-06
2.17060124394791e-07
2.42041632255883e-07
7.10363696572347e-06
3.51671532970852e-05
6.08358667141391e-05
8.33656596884367e-05
0.000102286834800125
0.000117494355073927
0.000129193422923658
0.000137809169294648
0.000143884568443486
0.000147987881652478
0.000150643530425903
0.000152291491277986
0.000153272765496069
0.000153833917843439
0.000154142404050379
0.000154305593992953
0.000154388749626228
0.000154429604310012
0.000154448972410491
0.000154457836223156
0.000154461750601409
0.000154463412967765
0.000154464079082055
0.000154464299358996
0.000154464274389596
0.000154463994873914
0.000154463235973374
0.000154461408115446
0.000154457189080862
0.000154447771415722
0.000154427430250207
0.00015438494450447
0.000154299207074738
0.000154132200485688
0.000153818524735416
0.000153251045665978
0.000152263214153937
0.000150610325441152
0.000147954300649063
0.00014385887667286
0.000137803307581938
0.00012922154749159
0.000117569557048295
0.000102416073561857
8.35435035172724e-05
6.10381401153668e-05
3.5345543035163e-05
7.16456939788639e-06
2.45260928802841e-07
2.67873807081308e-07
7.86338483110597e-06
3.88709463626801e-05
6.71397855147597e-05
9.18957536739962e-05
0.000112650540838577
0.000129310506021722
0.000142115555683925
0.000151540493034145
0.000158184529789606
0.000162671544899868
0.000165575799322109
0.000167378455299573
0.000168452217314842
0.000169066533839292
0.000169404426135048
0.000169583281642661
0.000169674483312925
0.000169719326325843
0.000169740604302833
0.000169750352420626
0.000169754662859246
0.000169756496519134
0.000169757233173193
0.000169757478256556
0.000169757453311796
0.000169757149556502
0.000169756322323986
0.000169754328747206
0.000169749725960405
0.000169739448878604
0.000169717244856105
0.000169670854285613
0.000169577210092369
0.000169394754846273
0.000169051985058314
0.000168431748558475
0.0001673518914521
0.000165544722311898
0.000162640272390602
0.000158160822830018
0.00015153547437833
0.00014214229963004
0.000129380959405446
0.000112770854115617
9.20606368064061e-05
6.73269878081768e-05
3.90368785797973e-05
7.92188584441991e-06
2.71060587993737e-07
2.91259161217243e-07
8.55180738093678e-06
4.22197446261832e-05
7.28247988312417e-05
9.95736545970757e-05
0.000121965578006077
0.000139920037725577
0.000153709715904538
0.000163854670139283
0.000171004637662266
0.000175833138594921
0.00017895877548054
0.000180899301763049
0.000182055578829528
0.000182717385666892
0.000183081582927577
0.000183274474265623
0.000183372897786299
0.000183421327782926
0.000183444327402275
0.000183454874843021
0.000183459544491709
0.000183461534201303
0.000183462335533145
0.000183462603697565
0.000183462579285744
0.00018346225422365
0.0001834613664611
0.000183459225986897
0.000183454283038774
0.000183443244022025
0.000183419387789886
0.000183369532216928
0.000183268868228608
0.000183072690759115
0.00018270406753177
0.000182036933836926
0.000180875250814554
0.000178930870529465
0.000175805436774893
0.000170984306309638
0.000163851852790259
0.000153736185264693
0.000139986361596706
0.000122076923520075
9.97248543158191e-05
7.29957402076149e-05
4.23719978743225e-05
8.60738084759815e-06
2.94383036221514e-07
3.12171285992591e-07
9.16806274179884e-06
4.52122796546583e-05
7.78936702781424e-05
0.00010640819635101
0.00013024742437183
0.000149344639914772
0.000164002817820317
0.000174782661669975
0.000182378776244869
0.000187508530641148
0.000190829597643194
0.000192891940434984
0.000194121203767395
0.000194825069987313
0.000195212597481664
0.000195417957412534
0.000195522807913642
0.00019557443653975
0.000195598974956182
0.000195610238787251
0.000195615231472846
0.000195617362145575
0.000195618222273308
0.000195618511717854
0.000195618488243806
0.000195618144619966
0.000195617203681916
0.000195614934088307
0.00019560969219819
0.000195597983527567
0.00019557267473403
0.000195519771517179
0.000195412930359528
0.00019520467247669
0.000194813280334623
0.00019410483173954
0.000192871045223974
0.000190805734436466
0.000187485507278607
0.000182363142614203
0.00017478351523494
0.000164030521987768
0.000149408251416934
0.000130351000368302
0.000106546603422241
7.80488944170497e-05
4.53510126402236e-05
9.22056715336457e-06
3.15215793923974e-07
3.30643593906458e-07
9.71304381269e-06
4.78552057531589e-05
8.2361841023257e-05
0.000112424453539771
0.000137530374521553
0.000157626629219505
0.000173043647269861
0.000184378140422931
0.000192364098602272
0.00019775722026369
0.000201249266451901
0.000203418285930141
0.000204711536790041
0.000205452324632592
0.000205860362383568
0.000206076701642426
0.00020618722172814
0.000206241677773452
0.000206267579571247
0.000206279479877355
0.000206284760545898
0.000206287017448182
0.000206287930557078
0.00020628823943974
0.000206288217211554
0.00020628785756988
0.000206286870329096
0.000206284488252177
0.000206278986011449
0.000206266694144163
0.000206240120001529
0.000206184560872994
0.000206072334163421
0.00020585353958645
0.000205442280880851
0.00020469777319889
0.000203401041666783
0.000201230143535292
0.000197739816396515
0.000192354373201438
0.00018438415203252
0.000173074331135912
0.000157689481464878
0.000137628256228264
0.000112552128036318
8.25031674491949e-05
4.79816118704751e-05
9.76261476997887e-06
3.33603661600581e-07
3.46760942029104e-07
1.01891404059283e-05
5.01619271100506e-05
8.62554029564646e-05
0.000117661006346049
0.000143864255634705
0.000164825261610603
0.000180898889061011
0.00019271332359293
0.000201036730308452
0.00020665795862026
0.000210298213274207
0.00021255979528173
0.000213908632849153
0.000214681537730396
0.000215107443345806
0.000215333363242125
0.000215448839715261
0.000215505772582106
0.00021553287150569
0.00021554533222374
0.000215550867331154
0.000215553236259966
0.000215554196683023
0.000215554523155327
0.000215554502393092
0.000215554129069262
0.000215553101890017
0.000215550622748051
0.000215544895923752
0.000215532101015837
0.000215504435195865
0.000215446583818917
0.000215329706994227
0.0002151018108585
0.000214673385366305
0.000213897709904864
0.000212546559898009
0.000210284363337412
0.000206646939657773
0.000201033974741295
0.000192725913111947
0.000180934379148942
0.000164889602252962
0.000143959060482701
0.000117780770008896
8.63855084872868e-05
5.02779167315585e-05
1.02361168845839e-05
3.49640368458596e-07
3.60649776607451e-07
1.0599957517326e-05
5.21512512709382e-05
8.96088384037334e-05
0.000122166944380865
0.000149310868543926
0.000171012760384891
0.00018764886192684
0.000199874506048608
0.000208487167889744
0.000214304059749205
0.000218071556138676
0.000220412690430849
0.000221809360049207
0.000222609939465263
0.000223051264921763
0.000223285466771681
0.000223405235760929
0.000223464318160757
0.000223492458487254
0.000223505408084491
0.000223511165921795
0.000223513633357338
0.000223514635645409
0.000223514977884275
0.000223514958730919
0.000223514573849588
0.0002235135125715
0.000223510950515729
0.000223505031923144
0.000223491807516901
0.000223463209418825
0.000223403399746967
0.000223282548546801
0.000223046870197007
0.000222603760996315
0.000221801418071796
0.000220403696642036
0.000218063354431458
0.000214300012088787
0.000208492266843689
0.000199894956163592
0.00018769093509912
0.000171080922386642
0.000149405463952895
0.000122282023622574
8.97308892024654e-05
5.22591689783439e-05
1.0644813885678e-05
3.63458824621782e-07
3.7246748669294e-07
1.09500095639289e-05
5.38459573028244e-05
9.24626603393484e-05
0.0001259987733207
0.000153940337463155
0.000176270257076436
0.000193383168096554
0.000205957508044418
0.000214815590607672
0.000220798623531239
0.000224674266490919
0.000227083090607178
0.000228520511740425
0.000229344702630587
0.000229799204732424
0.000230040495953253
0.00023016394634505
0.000230224876166452
0.000230253913690351
0.000230267285667725
0.000230273236612387
0.000230275789841374
0.000230276828821894
0.000230277185057678
0.000230277167590482
0.000230276773067095
0.000230275683000671
0.00023027305089612
0.000230266970346313
0.0002302533832343
0.000230223997647913
0.000230162533130997
0.000230038321825245
0.000229796061061713
0.000229340526986446
0.000228515611504516
0.000227078459956389
0.000224671943047044
0.000220801958064053
0.000214829235592327
0.000205986913227673
0.00019343344874052
0.000176344489580135
0.000154037600668195
0.000126112502802907
9.25800035224993e-05
5.39483410008218e-05
1.09932956341241e-05
3.75220681911942e-07
3.82391636388135e-07
1.1244409855721e-05
5.52713608730424e-05
9.48610763347767e-05
0.000129217374902756
0.000157827537724575
0.000180683827987443
0.000198196449834182
0.000211063236656054
0.000220127289723129
0.000226249878086141
0.000230216456323009
0.000232682265483712
0.000234154039522556
0.000234998164109437
0.000235463808598755
0.00023571110543326
0.000235837680580496
0.000235900181908761
0.000235929984524242
0.000235943717737726
0.00023594983442588
0.00023595246163154
0.000235953532454767
0.000235953900995602
0.000235953885238594
0.000235953482786755
0.000235952368719384
0.000235949678156847
0.000235943462481054
0.000235929572749255
0.000235899529917035
0.000235836683561201
0.000235709664929716
0.000235461901718383
0.000234995976401971
0.000234152175498319
0.000232682024369961
0.000230220112181282
0.000226260841147255
0.000220149975710087
0.000211102473002988
0.00019825633856502
0.000180766171398618
0.000157930172576647
0.000129332966957712
9.49769962909216e-05
5.5370747607652e-05
1.12867008305958e-05
3.85105860622553e-07
3.90609648806165e-07
1.14885718439527e-05
5.64539452820654e-05
9.68497786532128e-05
0.00013188514507159
0.000161048741901594
0.000184340777984629
0.000202184412857664
0.000215293526852189
0.000224528385390664
0.00023076681463714
0.000234808960592955
0.000237322185203291
0.000238822583966083
0.000239683344503232
0.000240158304025982
0.000240410630985775
0.000240539828726492
0.000240603652024095
0.000240634099906203
0.000240648138702288
0.0002406543961183
0.0002406570864358
0.000240658184606628
0.000240658563857529
0.000240658549794444
0.000240658140935944
0.000240657007150222
0.000240654268489293
0.000240647941638374
0.000240633802883864
0.000240603218949534
0.000240539234198767
0.000240409901198038
0.000240157598710695
0.000239683095957676
0.000238823698204938
0.000237326282581633
0.000234818587670244
0.000230785506069344
0.000224560420106691
0.00021534324269371
0.000202255046820802
0.000184432983492831
0.000161159152924122
0.000132005525303356
9.69673187844014e-05
5.65527253723647e-05
1.15304291861873e-05
3.93302585331873e-07
3.97309385367384e-07
1.16879350632312e-05
5.74201118200625e-05
9.84739387605305e-05
0.000134063405226449
0.000163678591019934
0.000187326286881918
0.000205440238366407
0.000218747388635257
0.000228121960970195
0.000234455246933877
0.000238559348545427
0.000241111501850932
0.000242635438213017
0.000243509901413028
0.000243992547739082
0.000244249033962549
0.000244380405040526
0.000244445326527732
0.000244476311926237
0.000244490606096915
0.000244496981581511
0.000244499725117225
0.000244500846512524
0.000244501234988805
0.000244501222574104
0.000244500808653056
0.000244499658956425
0.000244496881397922
0.000244490464612827
0.000244476124322896
0.000244445102137616
0.000244380194516547
0.000244248983505213
0.000243992994235721
0.000243511519233473
0.000242639434514139
0.000241119828065885
0.00023857485239124
0.000234481644196135
0.000228163485395684
0.000218808013998386
0.000205522480621607
0.000187429777214658
0.000163798810848683
0.000134191110079719
9.85957849619231e-05
5.75204295132233e-05
1.17298783722356e-05
3.99998337661944e-07
4.0267091425196e-07
1.18477244554346e-05
5.81950847083643e-05
9.97764569578848e-05
0.000135810147448431
0.000165787458925352
0.000189720491846224
0.000208051461193291
0.000221517740827687
0.00023100469755829
0.000237414379592693
0.000241568449337411
0.000244152048448219
0.000245695030948453
0.000246580603113271
0.000247069494153325
0.000247329366953469
0.000247462511973512
0.00024752833227139
0.000247559758945808
0.000247574263514477
0.000247580736695637
0.000247583524512874
0.000247584665384252
0.000247585061719339
0.000247585050888614
0.000247584633089102
0.000247583470854644
0.000247580662539971
0.000247574174585532
0.000247559674662179
0.000247528304908557
0.000247462664341596
0.000247329959690857
0.000247071034303534
0.000246584000020819
0.000245701788867048
0.00024416445449157
0.000241589673663773
0.000237448366243703
0.000231055715187282
0.000221589512288094
0.000208145914476233
0.000189836357155153
0.000165919121727296
0.000135947275612974
9.99048752864856e-05
5.82987803781822e-05
1.18902135118062e-05
4.05371982990334e-07
4.06859620507916e-07
1.19727477673333e-05
5.88019892867209e-05
0.000100796492755739
0.000137178143567828
0.000167439242665605
0.000191596041029755
0.000210097351188787
0.000223688670129482
0.000233264048528097
0.000239733925991069
0.000243927433195504
0.000246535897086766
0.000248093970608412
0.000248988364634879
0.000249482226883019
0.00024974480281027
0.000249879367889107
0.000249945909999937
0.000249977692328723
0.00024999236718036
0.000249998919831819
0.00025000174390324
0.000250002900865532
0.000250003303812986
0.000250003294491981
0.000250002873858373
0.000250001702074722
0.000249998870208492
0.000249992327661716
0.000249977705069409
0.000249946067658079
0.000249879861365072
0.000249746001250464
0.000249484799759772
0.000248993447772449
0.000248103358786634
0.000246552213420382
0.000243954184801604
0.00023977532240503
0.000233324460177608
0.000223771666427609
0.000210204389678132
0.000191725061603202
0.000167583593435236
0.000137326350056034
0.000100933310656195
5.89105756513294e-05
1.20161731433152e-05
4.09587192223268e-07
4.10020681603327e-07
1.20672320339325e-05
5.92611066097781e-05
0.000101568278262892
0.000138213419064081
0.000168689578908402
0.000193016117919058
0.000211646797150871
0.000225333214806289
0.000234975953582936
0.000241491775395688
0.000245715447947146
0.00024834297617145
0.000249912650889639
0.00025081384638859
0.000251311553465253
0.000251576227237805
0.00025171189852794
0.000251779005239887
0.000251811067044045
0.000251825876417932
0.000251832492253393
0.000251835345384393
0.000251836515391277
0.000251836923821296
0.000251836915933825
0.00025183649339348
0.000251835314723075
0.000251832465715348
0.000251825883298848
0.000251811170813496
0.000251779336500614
0.000251712712362564
0.000251577995519848
0.000251315100375085
0.000250820525313583
0.000249924539204799
0.000248363030237071
0.00024574752057523
0.00024154036937307
0.000235045594166891
0.000225427397981271
0.000211766608952261
0.000193158804169544
0.000168847506988939
0.000138373939023982
0.00010171489687663
5.93757697818316e-05
1.21119121329152e-05
4.12787158484904e-07
4.12274836282201e-07
1.21346974082272e-05
5.95892962889993e-05
0.000102120199886872
0.000138954071779436
0.000169584462493649
0.000194032909823332
0.000212756664984307
0.000226511643617442
0.000236203062307448
0.000242752178957909
0.00024699778038485
0.000249639216145192
0.000251217386897721
0.000252123584655109
0.000252624132623018
0.000252890364278717
0.000253026861545266
0.000253094392347494
0.000253126665469308
0.000253141577332017
0.000253148241741969
0.000253151117466987
0.000253152297774002
0.000253152710664627
0.000253152704138613
0.000253152280526609
0.000253151097369709
0.000253148236993232
0.000253141627943226
0.000253126854979224
0.000253094887154583
0.000253027977442363
0.000252892670669691
0.000252628601319336
0.000252131778135968
0.00025123165691898
0.000249662847673754
0.000247034976012341
0.000242807753832248
0.000236281735868396
0.000226616900207683
0.000212889297727501
0.000194189549567909
0.000169756547128619
0.000139127760467463
0.000102277624237653
5.9710911776607e-05
1.21808795261651e-05
4.15090522755428e-07
4.13715308509893e-07
1.21778646693122e-05
5.97995712616858e-05
0.000102474121486273
0.000139429400435733
0.000170159226180682
0.000194686475362692
0.00021347058209799
0.000227270180126048
0.000236993416175132
0.00024356440281275
0.000247824490292622
0.000250475171287158
0.000252059029404305
0.000252968601353637
0.000253471081453129
0.000253738382068372
0.000253875451495325
0.000253943279092761
0.000253975701771683
0.000253990687090528
0.000253997386831055
0.000254000279287109
0.000254001467404417
0.000254001883828152
0.000254001878601002
0.000254001454685887
0.000254000269249699
0.000253997402808244
0.00025399077926777
0.000253975972760283
0.00025394392935734
0.000253876854720885
0.000253741200920035
0.00025347642945085
0.000252978242748183
0.000252075582732399
0.000250502244632824
0.000247866636512587
0.000243626760861522
0.000237080925729529
0.000227386357321281
0.000213615984473243
0.000194857178941988
0.000170345782516321
0.000139616776428367
0.000102642995899041
5.99287253002632e-05
1.22257276559401e-05
4.1658836601093e-07
4.14405720392182e-07
1.21985919478067e-05
5.9900804983001e-05
0.000102644917572233
0.000139659301999272
0.000170437830679369
0.000195003953680669
0.000213818087180912
0.000227640109634749
0.000237379525361363
0.000243961784304038
0.000248229453236552
0.000250885053918174
0.0002524719938446
0.000253383430018565
0.000253886999745661
0.000254154916313178
0.000254292322933335
0.000254360329633653
0.000254392844877285
0.000254407876940413
0.000254414599883
0.000254417503739093
0.000254418697425619
0.000254419116559165
0.000254419112584878
0.000254418689075972
0.000254417503403696
0.000254414635840596
0.000254408009176215
0.000254393194380694
0.000254361129718338
0.000254294003168334
0.000254158229530822
0.000253893196777063
0.000253394471235863
0.000252490758255711
0.000250915467177975
0.000248276416176429
0.000244030764431466
0.000237475695651603
0.0002277670432736
0.000213976141720518
0.000195188690220332
0.000170638947087826
0.00013986058220164
0.000102825555186765
6.00378126924306e-05
1.22482482625358e-05
4.173421092022e-07
4.14378773318996e-07
1.21978341345156e-05
5.98975449088426e-05
0.000102640181379686
0.0001396539007735
0.000170432435587909
0.000194999089057499
0.000213814117825101
0.000227637238232439
0.000237377806463358
0.000243961154159564
0.000248229769392941
0.000250886135612491
0.000252473656744947
0.000253385509115911
0.000253889361288329
0.000254157460285902
0.000254294979543432
0.000254363053051671
0.000254395606588822
0.000254410660023355
0.000254417394684756
0.000254420304915143
0.000254421502070048
0.000254421923149067
0.000254421920396299
0.000254421497985184
0.000254420314064373
0.000254417450196157
0.000254410831488818
0.000254396033009673
0.000254363999930868
0.000254296931210824
0.00025416125793893
0.000253896390366299
0.000253397922361851
0.000252494588901734
0.000250919824600706
0.000248281458825836
0.000244036636257317
0.000237482489871049
0.000227774760503747
0.000213984650468921
0.000195197698174607
0.000170647988281963
0.000139869018538013
0.000102832583779598
6.00424653832468e-05
1.22493316197495e-05
4.17382178788136e-07
4.13635733960789e-07
1.2175627234652e-05
5.9789938050322e-05
0.000102460098752431
0.000139413376737263
0.000170143191413542
0.000194671994898973
0.000213458753794369
0.000227261621036113
0.000236988300112402
0.000243562547145676
0.000247825473425311
0.000250478454724041
0.000252064060973482
0.000252974885841898
0.00025347821680679
0.000253746067285984
0.000253883476345955
0.000253951505436662
0.000253984043618953
0.000253999093392655
0.000254005828464849
0.00025400874012805
0.000254009938688553
0.000254010360966684
0.000254010359417198
0.000254009938815609
0.000254008758677694
0.000254005903413496
0.00025399930392918
0.000253984546721726
0.000253952598701908
0.000253885698633431
0.00025375034765684
0.000253486074307295
0.000252988663735764
0.000252087146566296
0.000250515393161537
0.000247881843734751
0.000243644454979638
0.000237101379744612
0.000227409563318474
0.000213641536080898
0.000194884187679402
0.0001703728433472
0.000139641977633931
0.000102663946786311
5.99425624884768e-05
1.2228943471795e-05
4.16707171213924e-07
4.12146621365456e-07
1.21310932319127e-05
5.95737442513832e-05
0.000102097459401364
0.000138927972926644
0.000169558243160007
0.00019400915521969
0.000212737217095155
0.000226497561077274
0.000236194668769708
0.000242749198908862
0.000246999531171968
0.000249644811309158
0.000251225910100916
0.000252134210139847
0.000252636187767607
0.000252903344324735
0.000253040413331285
0.000253108283510943
0.000253140751227094
0.000253155771673808
0.000253162495579447
0.00025316540362029
0.000253166601477195
0.00025316702419671
0.000253167023847369
0.000253166605819358
0.000253165431625035
0.00025316259016041
0.000253156021780435
0.000253141332091881
0.000253109525254122
0.000253042909939849
0.000252908113414832
0.000252644882521267
0.000252149364133402
0.000251251161233548
0.000249685006701946
0.000247060574924653
0.000242837493817118
0.00023631604949723
0.000226655741633586
0.000212931950205385
0.000194234494473058
0.000169801420309057
0.000139169386669081
0.00010231208265121
5.97335689603769e-05
1.21861264444696e-05
4.15284061031262e-07
4.09850750610604e-07
1.20624568219009e-05
5.9240420559992e-05
0.000101537799159798