/*--------------------------------*- C++ -*----------------------------------*\
  =========                 |
  \\      /  F ield         | OpenFOAM: The Open Source CFD Toolbox
   \\    /   O peration     | Website:  https://openfoam.org
    \\  /    A nd           | Version:  10
     \\/     M anipulation  |
\*---------------------------------------------------------------------------*/
FoamFile
{
    format      ascii;
    class       volScalarField;
    location    "9.6";
    object      nut;
}
// * * * * * * * * * * * * * * * * * * * * * * * * * * * * * * * * * * * * * //

dimensions      [0 2 -1 0 0 0 0];

internalField   nonuniform List<scalar> 
2500
(
4.13815654846691e-15
8.1630446241436e-14
3.50901245680819e-13
6.15272882252638e-13
8.53225407720638e-13
1.05667163826861e-12
1.2222804050184e-12
1.35071013695222e-12
1.44565768312863e-12
1.51262805178803e-12
1.55773682299357e-12
1.58678109142671e-12
1.60467707806289e-12
1.61524144269704e-12
1.62122324334936e-12
1.6244758478479e-12
1.62617620081244e-12
1.62703171549656e-12
1.62744639257491e-12
1.62764016695993e-12
1.6277274789181e-12
1.62776537671584e-12
1.62778114917468e-12
1.62778730101544e-12
1.62778922084743e-12
1.62778879663714e-12
1.62778581766071e-12
1.62777789757987e-12
1.62775881063386e-12
1.62771459247174e-12
1.62761549128575e-12
1.62740057315256e-12
1.62694982581241e-12
1.62603629266832e-12
1.62424890150568e-12
1.62087640088476e-12
1.61474695968566e-12
1.60402920317403e-12
1.58602111234244e-12
1.55698249817716e-12
1.51209767237088e-12
1.44567342502208e-12
1.35166332057472e-12
1.22454614976858e-12
1.06047302488505e-12
8.58461712066053e-13
6.21326963459071e-13
3.56381232935375e-13
8.37473150304839e-14
4.30399243742379e-15
4.10582820608956e-13
2.12418130684197e-11
9.31973974666436e-11
1.63495089704127e-10
2.26811250229817e-10
2.81019936388678e-10
3.25224670458617e-10
3.59578518205519e-10
3.8503899514051e-10
4.0304743234434e-10
4.15214618932652e-10
4.23074900832722e-10
4.27935408880963e-10
4.30815491731883e-10
4.32452702558822e-10
4.33346582954126e-10
4.33815848134489e-10
4.34052977340054e-10
4.3416842624009e-10
4.34222618551708e-10
4.34247150455353e-10
4.34257850601539e-10
4.34262327299907e-10
4.34264083825842e-10
4.34264636522911e-10
4.34264519158876e-10
4.34263673499753e-10
4.34261428203067e-10
4.34256037437276e-10
4.34243600855688e-10
4.34215844801671e-10
4.34155899657536e-10
4.34030688082172e-10
4.33777944611342e-10
4.33285397642861e-10
4.3235966319839e-10
4.30683551020278e-10
4.27763539348616e-10
4.22874677001063e-10
4.15017833747597e-10
4.02912170739196e-10
3.85050168801734e-10
3.59838409189446e-10
3.25830378370599e-10
2.82027887197042e-10
2.28192604498507e-10
1.65085956627558e-10
9.46323840594656e-11
2.17829744580594e-11
4.26474538207745e-13
1.45819993044063e-12
3.82140207773582e-10
1.31952619642037e-07
2.3125597111572e-07
3.20249486775379e-07
3.96234171334333e-07
4.58087403634511e-07
5.06115384687835e-07
5.4170902487238e-07
5.66902546253781e-07
5.83946913561753e-07
5.94978248047636e-07
6.01814958638262e-07
6.05876442640048e-07
6.08191743701108e-07
6.09459663447485e-07
6.1012740843757e-07
6.1046595385534e-07
6.10631346421508e-07
6.10709260721591e-07
6.10744663377285e-07
6.10760166678564e-07
6.10766681461448e-07
6.10769251032271e-07
6.10770066643116e-07
6.10769903344062e-07
6.10768681097369e-07
6.10765435211865e-07
6.107576601488e-07
6.10739771815291e-07
6.1069995782219e-07
6.10614203129262e-07
6.10435557983151e-07
6.10075902410008e-07
6.09376812252567e-07
6.08066195099282e-07
6.05699008047984e-07
6.01584608968472e-07
5.94710815047379e-07
5.83685068995832e-07
5.66723665637914e-07
5.41725731820995e-07
5.06463007339237e-07
4.58894273045613e-07
3.9757473093635e-07
3.22084727299679e-07
2.33365961998864e-07
1.33847457277881e-07
3.91076064943061e-10
1.50659758058749e-12
2.58390304358975e-12
6.81905284288022e-10
2.36554592534396e-07
4.13529408311617e-07
5.71399928427156e-07
7.05700324292482e-07
8.14708732191604e-07
8.99169495429759e-07
9.61670181903381e-07
1.00586824391571e-06
1.03575676954919e-06
1.05509988572713e-06
1.06709071727865e-06
1.07421744285113e-06
1.07828274974846e-06
1.08051077506177e-06
1.08168522195373e-06
1.08228126835051e-06
1.08257278502679e-06
1.0827102826348e-06
1.08277284288453e-06
1.08280028049653e-06
1.08281183132587e-06
1.08281639933449e-06
1.08281786037059e-06
1.08281759163736e-06
1.08281546636981e-06
1.08280980217785e-06
1.08279622068057e-06
1.08276495398391e-06
1.08269532722213e-06
1.08254528846495e-06
1.08223259484101e-06
1.08160283818341e-06
1.08037835200692e-06
1.07808214587978e-06
1.07393386875964e-06
1.06672216078533e-06
1.05467076648065e-06
1.03533356848213e-06
1.00557179741534e-06
9.61676517830384e-07
8.99690180375582e-07
8.15944201420275e-07
7.07765671638114e-07
5.74229576852836e-07
4.16768718194317e-07
2.39426160037628e-07
6.95093284540901e-10
2.65389653634422e-12
3.6997901012305e-12
9.76916685458287e-10
3.38460215896111e-07
5.90241120988646e-07
8.13955065570537e-07
1.00366039008183e-06
1.15725466219282e-06
1.2760398171899e-06
1.36382744783719e-06
1.42585809980422e-06
1.46778934130447e-06
1.49492435452625e-06
1.51174851226611e-06
1.5217517510972e-06
1.52746100033954e-06
1.53059210233327e-06
1.53224387661004e-06
1.53308291618345e-06
1.53349368284706e-06
1.53368763938821e-06
1.53377599688829e-06
1.53381480376276e-06
1.53383116947938e-06
1.5338376584572e-06
1.53383974900209e-06
1.53383939764779e-06
1.53383644550299e-06
1.53382854690832e-06
1.53380958693695e-06
1.53376590753228e-06
1.53366857904748e-06
1.53345872508613e-06
1.53302113998721e-06
1.53213943478835e-06
1.53042433892678e-06
1.52720691942667e-06
1.52139245313705e-06
1.51128092669159e-06
1.49437820568437e-06
1.46724651835465e-06
1.42546782900357e-06
1.36380720972667e-06
1.27665083340734e-06
1.1587437873771e-06
1.00616750073963e-06
8.17393754064558e-07
5.94164544654033e-07
3.41909011381692e-07
9.92681808671129e-10
3.78402059927284e-12
4.78007659068217e-12
1.26227645816957e-09
4.36428544372988e-07
7.59360057701698e-07
1.04527510423658e-06
1.28703432487825e-06
1.48234223134514e-06
1.63314298496071e-06
1.7444685232249e-06
1.82307836635056e-06
1.87620007833592e-06
1.91057578511111e-06
1.93189344531905e-06
1.9445731273152e-06
1.95181365593153e-06
1.95578707178058e-06
1.95788475065458e-06
1.95895118853864e-06
1.95947377382017e-06
1.95972078948918e-06
1.95983345297095e-06
1.95988300445575e-06
1.95990393807469e-06
1.95991225990222e-06
1.95991495940712e-06
1.95991454623012e-06
1.9599108413819e-06
1.95990089004783e-06
1.95987697838771e-06
1.95982185732605e-06
1.95969896585405e-06
1.95943385504409e-06
1.95888077742234e-06
1.95776586364968e-06
1.955596262529e-06
1.9515247779071e-06
1.94416453742561e-06
1.93136111358405e-06
1.90995220537345e-06
1.87557578240735e-06
1.82261866291809e-06
1.74441428727382e-06
1.63378313514564e-06
1.48394888277735e-06
1.28975963930318e-06
1.0490188745231e-06
7.63623694473615e-07
4.40162668939661e-07
1.27947288344302e-09
4.87350644040792e-12
5.80968897819483e-12
1.53427816324337e-09
5.29387039766363e-07
9.1916889792567e-07
1.26316579993337e-06
1.55329678748409e-06
1.7872271795097e-06
1.96759503741118e-06
2.10062217342187e-06
2.19450374402406e-06
2.25793019852401e-06
2.29897463955678e-06
2.32443316107103e-06
2.33958139302469e-06
2.3482358564254e-06
2.35298809401483e-06
2.35549871166983e-06
2.35677610949416e-06
2.35740263705208e-06
2.35769908588317e-06
2.35783445353318e-06
2.35789407315215e-06
2.35791930450301e-06
2.35792936127016e-06
2.35793264516959e-06
2.357932188986e-06
2.3579278037329e-06
2.35791597990441e-06
2.35788754317061e-06
2.35782195661959e-06
2.35767566272966e-06
2.35735992005143e-06
2.35670092372187e-06
2.35537195788053e-06
2.35278487753422e-06
2.34792839316671e-06
2.33914657187195e-06
2.32386626982695e-06
2.29830909750574e-06
2.25725989715855e-06
2.19400025903632e-06
2.10053522689483e-06
1.96822345924406e-06
1.78885120481028e-06
1.5560709949126e-06
1.26698283935602e-06
9.23512828676313e-07
5.33191364626907e-07
1.55207769917558e-09
5.90858337548519e-12
6.7774585733309e-12
1.79004911737195e-09
6.16473397855383e-07
1.06832368062969e-06
1.46595020925248e-06
1.80055620390254e-06
2.06988760306878e-06
2.27729847371413e-06
2.43014814027856e-06
2.53796974289995e-06
2.61080107292265e-06
2.65793367119426e-06
2.68717495953905e-06
2.70458033901602e-06
2.71452914811826e-06
2.71999531277107e-06
2.72288505591021e-06
2.72435648275526e-06
2.72507880153374e-06
2.72542091063775e-06
2.72557730530345e-06
2.7256462795447e-06
2.72567552102445e-06
2.72568720716519e-06
2.72569104766595e-06
2.7256905649162e-06
2.72568556884616e-06
2.72567204946959e-06
2.72563950915707e-06
2.72556442579159e-06
2.72539688139578e-06
2.72503512831106e-06
2.72427980787502e-06
2.72275603874431e-06
2.7197887718145e-06
2.714216999126e-06
2.70413919797033e-06
2.68659988273181e-06
2.65725781398326e-06
2.6101177992151e-06
2.53744942136642e-06
2.43003809059846e-06
2.27789356224667e-06
2.07146274379127e-06
1.80326064840688e-06
1.46967470382837e-06
1.07256140240613e-06
6.20194261841263e-07
1.80785106599171e-09
6.87898421066121e-12
7.67521840157208e-12
2.02746204464298e-09
6.97055091290125e-07
1.20587661715071e-06
1.65248851118612e-06
2.02756937813769e-06
2.32903329417277e-06
2.56094731428697e-06
2.73173915717262e-06
2.85217271947413e-06
2.93351306727919e-06
2.98615608868964e-06
3.01882359984382e-06
3.03827535026034e-06
3.04939902703738e-06
3.05551411505953e-06
3.05874900729832e-06
3.06039738839787e-06
3.06120724356716e-06
3.06159117360386e-06
3.06176687901775e-06
3.06184447278649e-06
3.0618774254502e-06
3.06189062965615e-06
3.06189499613658e-06
3.06189450119153e-06
3.06188896048478e-06
3.06187391710141e-06
3.06183768410332e-06
3.0617540513904e-06
3.0615673672705e-06
3.06116414854639e-06
3.06032196127844e-06
3.05862240187706e-06
3.05531185333019e-06
3.04909389452744e-06
3.03784480497091e-06
3.01826307102269e-06
2.98549787572849e-06
2.93284739951207e-06
2.85166343619425e-06
2.73162295797204e-06
2.56150481301372e-06
2.33052398065936e-06
2.0301311527799e-06
1.65601355713011e-06
1.2098854822153e-06
7.00590062686145e-07
2.04484660840207e-09
7.77726022136181e-12
8.49752614155724e-12
2.24509019443886e-09
7.70726311410914e-07
1.33126174714228e-06
1.82214931605547e-06
2.23369911371755e-06
2.56405194413802e-06
2.81796458806231e-06
3.00485220251138e-06
3.13659689558567e-06
3.22556980865476e-06
3.28315810550174e-06
3.31890282041651e-06
3.34019433358944e-06
3.35237553923061e-06
3.35907555795096e-06
3.36262205611113e-06
3.36443047874957e-06
3.36531966279289e-06
3.36574157970511e-06
3.36593487311155e-06
3.36602034382547e-06
3.36605670301861e-06
3.36607130993679e-06
3.36607616962007e-06
3.36607567499835e-06
3.3660696519395e-06
3.36605324900483e-06
3.36601371893222e-06
3.36592245142041e-06
3.36571866942301e-06
3.36527839025875e-06
3.36435852008118e-06
3.36250166524119e-06
3.35888378883709e-06
3.35208705574484e-06
3.3397884647179e-06
3.31837609392169e-06
3.28254188906517e-06
3.22494971613859e-06
3.13612681901984e-06
3.00475269282629e-06
2.81849489263241e-06
2.56544894717945e-06
2.2360847349976e-06
1.82541855517027e-06
1.33497322328264e-06
7.74015668381402e-07
2.26178784606183e-09
8.59858059083313e-12
9.24143948962442e-12
2.44215286462291e-09
8.37290617323982e-07
1.44425864649975e-06
1.97475432721946e-06
2.4188423199787e-06
2.77492409081148e-06
3.04840746937567e-06
3.24960667956631e-06
3.39140780912823e-06
3.48716854363995e-06
3.549157350818e-06
3.58764256966958e-06
3.61057426033858e-06
3.62369943795241e-06
3.63092231837518e-06
3.63474780167049e-06
3.63669976802274e-06
3.63766024667945e-06
3.63811638206554e-06
3.63832556198953e-06
3.6384181717597e-06
3.6384576322029e-06
3.63847352441455e-06
3.63847884270966e-06
3.63847835856621e-06
3.63847191186213e-06
3.63845430554965e-06
3.63841185512903e-06
3.63831382525875e-06
3.63809489633209e-06
3.63762177242094e-06
3.63663302135932e-06
3.63463662145507e-06
3.63074596680056e-06
3.62343530961902e-06
3.61020448867923e-06
3.5871655861356e-06
3.54860393431141e-06
3.486619156504e-06
3.39100459628071e-06
3.24955081127183e-06
3.04893242635559e-06
2.77623945393451e-06
2.42105054326482e-06
1.97775285769346e-06
1.44764847841617e-06
8.40309556512001e-07
2.45801930798624e-09
9.34052900418162e-12
9.90625126692928e-12
2.61844778222512e-09
8.96736865923714e-07
1.54494730684621e-06
2.11051396149717e-06
2.58334968493632e-06
2.96213047415027e-06
3.25286560517126e-06
3.46667640101405e-06
3.6173400061044e-06
3.71908502684726e-06
3.78495599120568e-06
3.82586105438124e-06
3.85024258708539e-06
3.86420325139297e-06
3.87188957003736e-06
3.87596273020575e-06
3.87804236085179e-06
3.87906637553659e-06
3.87955307633356e-06
3.87977648577439e-06
3.87987551181457e-06
3.87991777203371e-06
3.87993483198099e-06
3.87994057287684e-06
3.87994010728427e-06
3.87993329178038e-06
3.87991462902782e-06
3.87986961343186e-06
3.87976564463279e-06
3.87953341217866e-06
3.87903143158344e-06
3.87798213639187e-06
3.87586302263289e-06
3.87173238390436e-06
3.86396941312313e-06
3.84991786121738e-06
3.82544661506521e-06
3.7844826845116e-06
3.71862837851011e-06
3.61702992845534e-06
3.46669333612383e-06
3.25341510473323e-06
2.96339217120054e-06
2.58540403814603e-06
2.11325910912906e-06
1.54802586832654e-06
8.99488156761417e-07
2.63344076461091e-09
1.00028433169323e-11
1.04931900158849e-11
2.77427511623958e-09
9.49212663939057e-07
1.63366103207956e-06
2.22996252950229e-06
2.72794669284193e-06
3.12656235650266e-06
3.43236370720517e-06
3.65718680215372e-06
3.81559063418777e-06
3.92256475785459e-06
3.99183048441839e-06
4.03485359260384e-06
4.06050558119944e-06
4.07519931110378e-06
4.08329285085083e-06
4.08758399846137e-06
4.08977619399783e-06
4.09085634415369e-06
4.09137011314891e-06
4.09160615881922e-06
4.09171090222868e-06
4.09175566845063e-06
4.09177378018637e-06
4.09177990694482e-06
4.09177946604008e-06
4.09177233245915e-06
4.09175275029839e-06
4.09170550120998e-06
4.09159636286655e-06
4.09135255049425e-06
4.09082544538363e-06
4.08972341529429e-06
4.08749736844265e-06
4.08315751900245e-06
4.07500009087458e-06
4.0602325771416e-06
4.03451154873332e-06
3.99145117728106e-06
3.92221954895073e-06
3.81539773041376e-06
3.65730604760872e-06
3.43297233627134e-06
3.12780905759912e-06
2.7298882105371e-06
2.23249496718092e-06
1.63646417658133e-06
9.5171974380756e-07
2.78843213456811e-09
1.05871161528151e-11
1.10050995574804e-11
2.91035632423381e-09
9.94996937550298e-07
1.71093951098846e-06
2.33389521300876e-06
2.85365807723811e-06
3.26943667704879e-06
3.58827006221709e-06
3.82261885834149e-06
3.98772028246283e-06
4.09922182167039e-06
4.17142916266686e-06
4.2162894330769e-06
4.24304469259841e-06
4.25837587103781e-06
4.26682404469015e-06
4.2713053437357e-06
4.27359591041026e-06
4.2747252185507e-06
4.27526274695597e-06
4.27550991504884e-06
4.27561970822147e-06
4.27566669776518e-06
4.27568574849776e-06
4.27569222432548e-06
4.27569181248814e-06
4.2756844073203e-06
4.27566403242538e-06
4.27561485671897e-06
4.27550126069469e-06
4.27524746369057e-06
4.27469869045992e-06
4.27355116295576e-06
4.27123281921616e-06
4.26671231993288e-06
4.25821416259172e-06
4.24282802759324e-06
4.21602689912703e-06
4.17115443872003e-06
4.09900325254311e-06
3.98766562470451e-06
3.82286858342126e-06
3.58897404021184e-06
3.27071293172189e-06
2.85553861428977e-06
2.33627081454702e-06
1.71352020554671e-06
9.97297561660906e-07
2.9237734035048e-09
1.10964751111313e-11
1.14461060904489e-11
3.02774943662364e-09
1.0344720554836e-06
1.77748230375145e-06
2.42330662228998e-06
2.96173497473075e-06
3.39221482869289e-06
3.72220935613485e-06
3.9647178040552e-06
4.13555895062611e-06
4.25094307024005e-06
4.32567528822837e-06
4.37211412527103e-06
4.39981852089634e-06
4.41569884647726e-06
4.42445299582714e-06
4.42909863296205e-06
4.43147437530848e-06
4.43264633607071e-06
4.4332045286552e-06
4.43346139734512e-06
4.43357561001176e-06
4.43362455414739e-06
4.43364443556483e-06
4.43365122422427e-06
4.43365084429621e-06
4.43364320977699e-06
4.43362215823022e-06
4.43357133720437e-06
4.43345393579078e-06
4.43319161598134e-06
4.43262434302555e-06
4.43143795606857e-06
4.429040746946e-06
4.42436582190928e-06
4.41557629015577e-06
4.39966098357775e-06
4.37193572421622e-06
4.32551259898451e-06
4.25086278091976e-06
4.1356600941299e-06
3.96512345439636e-06
3.72304392369856e-06
3.39356689769361e-06
2.96361137951308e-06
2.42558933959334e-06
1.77990328498264e-06
1.03661265204068e-06
3.04056157806808e-09
1.1535253259067e-11
1.18212802340086e-11
3.12776236487872e-09
1.06809580995405e-06
1.83410286678693e-06
2.49933071092098e-06
3.05358417471823e-06
3.49652410663602e-06
3.83597858009202e-06
4.08540520842137e-06
4.26111555022432e-06
4.37979594391211e-06
4.4566738128751e-06
4.50445562953371e-06
4.53296854236452e-06
4.54931732295971e-06
4.55833289830428e-06
4.56311918895642e-06
4.56556797034472e-06
4.56677658385227e-06
4.56735257672838e-06
4.56761782536167e-06
4.56773586922671e-06
4.56778651547229e-06
4.5678071248492e-06
4.56781419119607e-06
4.56781384471325e-06
4.56780601888615e-06
4.56778439616044e-06
4.56773218532662e-06
4.56761157059382e-06
4.56734205451669e-06
4.56675915741915e-06
4.56553993760712e-06
4.56307606260915e-06
4.55827053995594e-06
4.54923449422636e-06
4.53287134051862e-06
4.50436377522508e-06
4.45662772469252e-06
4.37986208827075e-06
4.26138621443277e-06
4.08598849475028e-06
3.83697595620132e-06
3.49799659717018e-06
3.05551350737195e-06
2.50158666922279e-06
1.8364304950533e-06
1.07012667779204e-06
3.14012632040776e-09
1.19086577783305e-11
1.21363035033937e-11
3.21186665615181e-09
1.09637385441825e-06
1.88168382376411e-06
2.56318270930671e-06
3.13070001883626e-06
3.58408226715705e-06
3.93146635734661e-06
4.18669466936209e-06
4.36649114462434e-06
4.48794010165159e-06
4.5666219852336e-06
4.61553429609865e-06
4.64472871633961e-06
4.66147294959375e-06
4.67070957180699e-06
4.67561500390884e-06
4.67812577518204e-06
4.67936556468425e-06
4.67995673563327e-06
4.68022915054154e-06
4.68035048245142e-06
4.68040259625307e-06
4.68042383732603e-06
4.68043114777856e-06
4.68043083521881e-06
4.68042285209976e-06
4.68040075322636e-06
4.68034738266415e-06
4.68022408721465e-06
4.67994856757618e-06
4.6793526316373e-06
4.67810599809499e-06
4.67558642977363e-06
4.67067174652138e-06
4.66142955376094e-06
4.64469174115249e-06
4.61552951330039e-06
4.5666945035861e-06
4.4881575672191e-06
4.36694114866127e-06
4.18747297000342e-06
3.93265432350694e-06
3.58571565002074e-06
3.13273590805847e-06
2.56547561978867e-06
1.88398323293016e-06
1.09834529591615e-06
3.22394655772428e-09
1.22224458495563e-11
1.23971504003875e-11
3.28161470674734e-09
1.11983342391951e-06
1.92113463252448e-06
2.61610439861694e-06
3.19460036200904e-06
3.65662665889715e-06
4.01057718455641e-06
4.27061264068737e-06
4.45379745642937e-06
4.57754439855336e-06
4.65772535111457e-06
4.70757826211997e-06
4.73734052272368e-06
4.7544147699227e-06
4.76383617801142e-06
4.76884139454526e-06
4.77140419111443e-06
4.77267020495397e-06
4.77327417625375e-06
4.77355265308999e-06
4.77367677665394e-06
4.77373014241898e-06
4.77375192599113e-06
4.77375944890007e-06
4.77375916994123e-06
4.77375105972866e-06
4.77372856969089e-06
4.77367424497414e-06
4.77354874408308e-06
4.77326828444809e-06
4.77266161438447e-06
4.77139239792173e-06
4.76882691830238e-06
4.76382218720833e-06
4.75440983970847e-06
4.73736262501569e-06
4.70765953865768e-06
4.65791631604408e-06
4.57791516613886e-06
4.45443290452607e-06
4.27159881580822e-06
4.01197829668002e-06
3.65845566974767e-06
3.19679050235377e-06
2.61849229048971e-06
1.92346618498011e-06
1.12179284230024e-06
3.29357083863029e-09
1.24826179901068e-11
1.26097971559183e-11
3.33856345301989e-09
1.1389992017942e-06
1.95335290495214e-06
2.65931423847633e-06
3.24676828334142e-06
3.71584973988564e-06
4.07516249226567e-06
4.33912636390186e-06
4.52508266179008e-06
4.65071126288619e-06
4.73212122072805e-06
4.7827463544126e-06
4.81297552670227e-06
4.83032159138785e-06
4.83989548127398e-06
4.84498320436777e-06
4.84758911301182e-06
4.84887691141575e-06
4.84949154531283e-06
4.84977508795665e-06
4.84990155361835e-06
4.84995597505919e-06
4.84997821932855e-06
4.84998592523826e-06
4.84998567897714e-06
4.84997746833866e-06
4.84995466267705e-06
4.84989956635178e-06
4.8497722814433e-06
4.84948782396667e-06
4.84887246035803e-06
4.8475849370058e-06
4.84498220348199e-06
4.83990433808708e-06
4.83035368286316e-06
4.81305479829583e-06
4.78291151522524e-06
4.73242875876541e-06
4.65123488537515e-06
4.52590635037162e-06
4.34032894336768e-06
4.07679386978628e-06
3.71790259970952e-06
3.24915299388736e-06
2.66184742387779e-06
1.95576987563843e-06
1.14098912514897e-06
3.35054418594184e-09
1.26951387329243e-11
1.27799657792031e-11
3.38420692919411e-09
1.15437202064042e-06
1.9791903868287e-06
2.69396357392462e-06
3.28860093011948e-06
3.76334248218225e-06
4.1269601165099e-06
4.39408056390327e-06
4.58226617947695e-06
4.70941021441976e-06
4.79181136717189e-06
4.84306027678501e-06
4.8736672584675e-06
4.89123368648266e-06
4.90093144980598e-06
4.90608635080203e-06
4.9087274482769e-06
4.91003307594812e-06
4.91065646321671e-06
4.91094417941973e-06
4.91107258303828e-06
4.91112788286868e-06
4.91115051347468e-06
4.91115837527516e-06
4.91115816043419e-06
4.91114987285997e-06
4.91112681849059e-06
4.91107111206793e-06
4.91094241540293e-06
4.91065479134548e-06
4.91003253317174e-06
4.90873047068713e-06
4.90609810848612e-06
4.90096200060401e-06
4.8913010683765e-06
4.87380131020426e-06
4.84330636611562e-06
4.79223237813669e-06
4.71008438200198e-06
4.58327817774222e-06
4.39550424030843e-06
4.12883371520525e-06
3.76564081524317e-06
3.29121262634552e-06
2.69668368251903e-06
1.98173772453313e-06
1.15642895239996e-06
3.3963435714166e-09
1.28656921192758e-11
1.2912908628786e-11
3.41991917076886e-09
1.16641082328075e-06
1.99942420921626e-06
2.72109966015576e-06
3.32136632865196e-06
3.80054657287534e-06
4.16754314982048e-06
4.4371439229596e-06
4.62708350344377e-06
4.75542159719391e-06
4.83860504598109e-06
4.89034718254913e-06
4.92125351527575e-06
4.9389949369632e-06
4.94879131097691e-06
4.95399983217849e-06
4.95666909844891e-06
4.95798904425884e-06
4.9586194864131e-06
4.9589105804087e-06
4.95904056042768e-06
4.95909657940851e-06
4.95911952919933e-06
4.9591275221649e-06
4.95912733727111e-06
4.95911899347857e-06
4.95909574968756e-06
4.95903957608691e-06
4.95890979650691e-06
4.95861973914029e-06
4.95799217160456e-06
4.95667888716012e-06
4.95402360473479e-06
4.9488423471973e-06
4.93909576733907e-06
4.92143974150461e-06
4.89067083738489e-06
4.83913569746733e-06
4.75624274671803e-06
4.62828184389515e-06
4.43879025810889e-06
4.16966639186418e-06
3.80310585705327e-06
3.32422970649925e-06
2.72403952105078e-06
2.00213816309271e-06
1.1685647688935e-06
3.43232327441179e-09
1.29994762177328e-11
1.30132348977002e-11
3.44690793136624e-09
1.17551800918435e-06
2.01473356518598e-06
2.74163567300638e-06
3.34616834336298e-06
3.82871560835961e-06
4.19827838504391e-06
4.46976556202103e-06
4.66104132125177e-06
4.79029077961891e-06
4.87407259643786e-06
4.92619289830258e-06
4.95732935551756e-06
4.97520569306002e-06
4.98507833413481e-06
4.99032846876366e-06
4.99301967814031e-06
4.99435082353029e-06
4.9949868094333e-06
4.99528057184842e-06
4.99541180520222e-06
4.99546840061666e-06
4.99549160916349e-06
4.99549971088266e-06
4.99549955442482e-06
4.99549117280969e-06
4.99546779241108e-06
4.99541127878688e-06
4.99528070833988e-06
4.99498886782974e-06
4.9943573945001e-06
4.99303582156564e-06
4.99036354484475e-06
4.98514869151792e-06
4.97533817787278e-06
4.95756517508592e-06
4.92659069572266e-06
4.87470879704423e-06
4.79125470180846e-06
4.6624227291516e-06
4.47163380284977e-06
4.20065500167791e-06
3.83154596827064e-06
3.34930104404248e-06
2.74481978688084e-06
2.01764192844665e-06
1.17779249615509e-06
3.45967044039709e-09
1.3101037301407e-11
1.30847772787501e-11
3.46617886015603e-09
1.18202805250447e-06
2.02568160128584e-06
2.75632741699085e-06
3.36391944184595e-06
3.84888490483613e-06
4.220293954513e-06
4.49314112100489e-06
4.68538250495366e-06
4.81529240656104e-06
4.89950920907874e-06
4.95190538371126e-06
4.98321037003321e-06
5.00118593342143e-06
5.01111492701307e-06
5.01639596414186e-06
5.01910355776261e-06
5.02044311549831e-06
5.02108329314397e-06
5.0213790885497e-06
5.02151128543775e-06
5.02156832903215e-06
5.0215917418947e-06
5.02159993209549e-06
5.02159980264386e-06
5.02159139977112e-06
5.02156793037751e-06
5.02151119124057e-06
5.02138009248611e-06
5.02108705230955e-06
5.0204529306143e-06
5.01912569297393e-06
5.01644171428485e-06
5.01120356918088e-06
5.00134846133878e-06
4.98349343371226e-06
4.95237414456984e-06
4.90024703076615e-06
4.81639480354513e-06
4.68694309321197e-06
4.4952290168243e-06
4.22292489049497e-06
3.85199204966203e-06
3.36733295536736e-06
2.75977274892312e-06
2.02880430977052e-06
1.18444044741146e-06
3.47937041027035e-09
1.31741415137183e-11
1.31304948077237e-11
3.47850918713154e-09
1.18619909884454e-06
2.03270204197029e-06
2.76575610429531e-06
3.37532053558223e-06
3.86184912254683e-06
4.23445531408577e-06
4.50818755689049e-06
4.70106007430257e-06
4.83140379199631e-06
4.91590794189677e-06
4.96848750632043e-06
4.99990530803984e-06
5.01794780240475e-06
5.02791512205455e-06
5.03321736323263e-06
5.03593630631913e-06
5.03728175133354e-06
5.03792489561929e-06
5.03822214811369e-06
5.03835504582538e-06
5.0384124212997e-06
5.03843598908875e-06
5.03844424937303e-06
5.03844414568598e-06
5.03843573680082e-06
5.03841222219511e-06
5.03835536275281e-06
5.03822397656421e-06
5.03793027101616e-06
5.03729465014261e-06
5.03596414104863e-06
5.03327327867192e-06
5.02802120626115e-06
5.01813905149362e-06
5.00023366395362e-06
4.96902453990701e-06
4.91674396474926e-06
4.83264074168853e-06
4.7027959354869e-06
4.51049207649607e-06
4.23733955159953e-06
3.86523524101292e-06
3.37902111325656e-06
2.76947294089664e-06
2.03605187664596e-06
1.18876103030877e-06
3.49218086427681e-09
1.32216798902718e-11
1.31524068448814e-11
3.48442969745806e-09
1.18820717144517e-06
2.03608995280072e-06
2.77031643029562e-06
3.3808469320089e-06
3.86814661928512e-06
4.2413484212259e-06
4.51552547466664e-06
4.70871893206715e-06
4.839286247225e-06
4.92394078290198e-06
4.97661793433998e-06
5.00809686692403e-06
5.02617634012716e-06
5.03616527368823e-06
5.04147973293552e-06
5.04420536461216e-06
5.0455543623271e-06
5.0461993427357e-06
5.04649752245496e-06
5.04663088040562e-06
5.04668848201273e-06
5.04671216027366e-06
5.04672047431027e-06
5.04672039547532e-06
5.04671199464799e-06
5.04668847535969e-06
5.04663159366935e-06
5.04650014551696e-06
5.04620627557161e-06
5.04557023300456e-06
5.04423869416878e-06
5.04154545473943e-06
5.03628819953457e-06
5.02639535644211e-06
5.00846908242016e-06
4.9772212192776e-06
4.92487235138369e-06
4.8406545540803e-06
4.71062658971184e-06
4.5180433616976e-06
4.24448363013646e-06
3.87181109894527e-06
3.38483632679832e-06
2.77430907414509e-06
2.03967312517399e-06
1.1909248902242e-06
3.49861362431658e-09
1.32456019374737e-11
1.31515513165134e-11
3.48421315811876e-09
1.18814247763788e-06
2.03599595946817e-06
2.77020922882476e-06
3.38073983861002e-06
3.86805003753356e-06
4.2412695899136e-06
4.51546841653289e-06
4.70868473099775e-06
4.83927364003695e-06
4.92394694488981e-06
4.97663928055632e-06
5.00812974138706e-06
5.0262174699748e-06
5.03621200596899e-06
5.0415300838258e-06
5.04425794974461e-06
5.04560827264795e-06
5.04625401264193e-06
5.04655261628302e-06
5.04668620668802e-06
5.04674393473591e-06
5.04676768179595e-06
5.04677603442323e-06
5.04677597981863e-06
5.04676760076754e-06
5.04674411622227e-06
5.04668730782581e-06
5.04655601751418e-06
5.04626247123106e-06
5.04562705517723e-06
5.04429666350038e-06
5.04160541500805e-06
5.0363514364936e-06
5.02646370218352e-06
5.00854495681299e-06
4.97730754363759e-06
4.9249722692325e-06
4.84077092154945e-06
4.71076125689825e-06
4.51819634223364e-06
4.24465231750765e-06
3.87198969697916e-06
3.38501559502946e-06
2.77447635787603e-06
2.03981250094263e-06
1.19101715591886e-06
3.49892300029604e-09
1.32468733826752e-11
1.3127968444439e-11
3.47786985782339e-09
1.18600793474028e-06
2.03242375020958e-06
2.76543807228733e-06
3.37500224360893e-06
3.86156162991007e-06
4.23422040570909e-06
4.50801747935284e-06
4.70095828076112e-06
4.83136666385932e-06
4.91592711931217e-06
4.96855230966553e-06
5.00000478569395e-06
5.01807213207955e-06
5.02805632904719e-06
5.03336947711211e-06
5.03609515706338e-06
5.03744459885913e-06
5.03809003425573e-06
5.03838856527294e-06
5.0385221638235e-06
5.03857992029174e-06
5.03860369523303e-06
5.03861207164601e-06
5.03861204091003e-06
5.03860369775333e-06
5.03858028824703e-06
5.03852365052328e-06
5.03839274152724e-06
5.03810001392616e-06
5.03746628513771e-06
5.03613923890491e-06
5.03345438360236e-06
5.02821219236205e-06
5.01834543377506e-06
5.00046271719784e-06
4.96928502960787e-06
4.9170452946516e-06
4.83299140782391e-06
4.703201356192e-06
4.51095209889726e-06
4.23784612015588e-06
3.8657707381567e-06
3.379557675919e-06
2.76997265596945e-06
2.03646733000976e-06
1.18903543067969e-06
3.49309921153885e-09
1.32254497012896e-11
1.30807067020145e-11
3.4651490000822e-09
1.18171943449284e-06
2.02523030076165e-06
2.7558094201853e-06
3.36339898961698e-06
3.84841329139572e-06
4.21990773021306e-06
4.4928612958066e-06
4.6852155075931e-06
4.81523277857076e-06
4.89954341409528e-06
4.95201584112e-06
4.98337890539543e-06
5.00139616823238e-06
5.01135351984522e-06
5.01665290298078e-06
5.0193718374869e-06
5.02071812705339e-06
5.02136216465164e-06
5.02166011392473e-06
5.02179349096973e-06
5.02185117558269e-06
5.02187493656667e-06
5.02188332173487e-06
5.02188331480526e-06
5.02187502269887e-06
5.02185173109165e-06
5.0217953671009e-06
5.0216650751012e-06
5.02137368682827e-06
5.02074275857622e-06
5.01942136082796e-06
5.01674750382411e-06
5.01152599111592e-06
5.00169676657334e-06
4.98387979306905e-06
4.95281316681144e-06
4.90075429297829e-06
4.81698421807414e-06
4.68762324554012e-06
4.4959990042031e-06
4.22377050405394e-06
3.85288317621516e-06
3.36822271132003e-06
2.76059816252155e-06
2.02948762030161e-06
1.18488975670603e-06
3.48086879365203e-09
1.31802827409655e-11
1.3007840075842e-11
3.44554348444803e-09
1.17510751708485e-06