/*--------------------------------*- C++ -*----------------------------------*\
  =========                 |
  \\      /  F ield         | OpenFOAM: The Open Source CFD Toolbox
   \\    /   O peration     | Website:  https://openfoam.org
    \\  /    A nd           | Version:  10
     \\/     M anipulation  |
\*---------------------------------------------------------------------------*/
FoamFile
{
    format      ascii;
    class       volScalarField;
    location    "9.6";
    object      omega;
}
// * * * * * * * * * * * * * * * * * * * * * * * * * * * * * * * * * * * * * //

dimensions      [0 0 -1 0 0 0 0];

internalField   nonuniform List<scalar> 
2500
(
127792.608276429
127800.694305771
127798.653050226
127796.862907734
127795.589807347
127794.75117834
127794.218596931
127793.887860854
127793.687265152
127793.569365742
127793.501547339
127793.464017134
127793.443944575
127793.433318652
127793.427830044
127793.424920679
127793.42354576
127793.422739742
127793.422190647
127793.421876835
127793.421654806
127793.421487161
127793.42136002
127793.421286924
127793.42121406
127793.421162472
127793.421152545
127793.421165938
127793.421210903
127793.421296413
127793.421441465
127793.421723405
127793.422150135
127793.422922325
127793.424392431
127793.427263931
127793.432885632
127793.443659094
127793.46438491
127793.502379711
127793.570385281
127793.688598756
127793.888339176
127794.217058404
127794.747645677
127795.583827099
127796.859081028
127798.659054741
127800.705235259
127792.584751681
31874.0038153606
14165.6096867985
14164.5978918368
14163.7472096507
14163.1393490386
14162.7338692503
14162.4722490029
14162.3071667787
14162.2053459717
14162.1442083255
14162.1085604191
14162.0884423417
14162.0774619367
14162.0716556471
14162.0686812248
14162.0671992424
14162.0664869426
14162.0661459651
14162.0659802981
14162.06590061
14162.0658596124
14162.0658361986
14162.065821591
14162.0658127215
14162.0658057726
14162.0658009673
14162.0657994715
14162.065800888
14162.0658071062
14162.0658229537
14162.0658590174
14162.0659393299
14162.0661097032
14162.0664713906
14162.0672274242
14162.0687745515
14162.0718574892
14162.0778209726
14162.0890209272
14162.109366708
14162.14518604
14162.2063456605
14162.3078418291
14162.4721427981
14162.7326957779
14163.1375698232
14163.7471478731
14164.6032337266
14165.6188460105
31873.9624167486
31801.4353472618
3533.17299573837
50.8721494938587
50.8676892505384
50.8645420881514
50.8624551021825
50.8611133209196
50.8602684630747
50.8597477964146
50.8594349983956
50.8592524324457
50.8591491973241
50.8590927116627
50.8590628003025
50.8590474692231
50.859039853822
50.8590361942097
50.8590344733705
50.8590336728728
50.8590333049874
50.85903313136
50.8590330431365
50.8590329939237
50.8590329652382
50.8590329451838
50.8590329317582
50.8590329268498
50.8590329317065
50.8590329559785
50.8590330238528
50.8590331890548
50.8590335713483
50.8590344192304
50.8590362532479
50.8590401210619
50.8590480662866
50.8590639166377
50.8590945734802
50.8591520378151
50.8592563170091
50.8594396965952
50.8597525873011
50.8602718677692
50.8611134182089
50.8624509968613
50.864537531358
50.867698327838
50.8721950541454
3533.17873914528
31801.4155464675
31731.5500092848
3525.28589491415
50.7576909583499
50.752733335102
50.7493163313304
50.7470929032155
50.7456879033372
50.7448170575078
50.7442878046834
50.7439736800616
50.7437922928915
50.7436906835642
50.7436355516528
50.7436065881597
50.743591856404
50.743584598363
50.7435811367274
50.7435795290145
50.7435787964555
50.7435784679444
50.7435783189
50.7435782471334
50.7435782091703
50.7435781876124
50.7435781733108
50.7435781636481
50.7435781591465
50.7435781610766
50.7435781787255
50.7435782345948
50.7435783774823
50.7435787185988
50.7435794950194
50.743581199592
50.7435848338667
50.743592371495
50.7436075451335
50.7436371546218
50.7436931458032
50.7437957221149
50.7439779517658
50.7442923734895
50.7448207665964
50.7456893085295
50.7470919524588
50.7493187605258
50.7527575723851
50.7577681405092
3525.29592738857
31731.5994332458
31669.9072883044
3518.38645288967
50.6583737359098
50.6536352923314
50.6504509680574
50.6484219850213
50.6471639953382
50.6463973966842
50.6459382828812
50.645669143056
50.6455153497101
50.6454299544662
50.6453839665357
50.6453599660413
50.645347831744
50.6453418887478
50.645339070646
50.6453377728235
50.6453371896194
50.6453369330781
50.6453368203043
50.6453367684
50.6453367421957
50.6453367278051
50.6453367186361
50.6453367122773
50.6453367087564
50.6453367085731
50.645336718946
50.6453367585567
50.6453368660322
50.6453371303914
50.6453377449036
50.6453391097601
50.645342044098
50.6453481765444
50.6453606129978
50.6453850638312
50.6454316648096
50.6455177835447
50.6456722676745
50.6459417829126
50.6464005583379
50.6471660396245
50.6484237634196
50.6504595378848
50.6536714704442
50.6584746120326
3518.40012015363
31670.0355085871
31619.5784945182
3512.81276331268
50.5788343544908
50.5747824811031
50.5721285279818
50.5704737341606
50.5694675676876
50.5688648779377
50.5685091420924
50.568303081637
50.5681864713036
50.5681222281259
50.5680878502155
50.5680700029025
50.5680610201807
50.5680566393637
50.5680545709793
50.5680536244312
50.5680532036694
50.5680530217641
50.5680529442028
50.5680529101548
50.5680528938367
50.5680528852798
50.5680528800619
50.5680528762649
50.5680528736718
50.5680528725194
50.5680528774027
50.56805290222
50.5680529752139
50.5680531605935
50.568053600204
50.5680545864301
50.5680567208764
50.5680612086309
50.5680703634367
50.5680884725092
50.5681232165684
50.5681879113136
50.5683049863854
50.5685113662135
50.5688670626243
50.5694694620287
50.570476751801
50.5721400473607
50.5748234218217
50.5789441459011
3512.82829472181
31619.7654406555
31581.2581044785
3508.62088035852
50.5195608276491
50.5163961843379
50.5143751960053
50.5131421735266
50.512406976469
50.5119740600017
50.5117221439086
50.5115778757368
50.5114969602767
50.5114526889912
50.511429123644
50.5114169397778
50.5114108277309
50.5114078558174
50.51140645714
50.5114058202932
50.5114055398367
50.5114054206125
50.5114053714099
50.5114053510048
50.5114053418637
50.5114053373944
50.5114053348526
50.5114053328346
50.5114053310589
50.5114053297421
50.5114053312258
50.5114053450481
50.5114053905762
50.511405510491
50.5114058007331
50.5114064579676
50.5114078882485
50.5114109099307
50.5114171025957
50.5114294120833
50.511453159052
50.5114976644391
50.5115788360147
50.5117233044335
50.5119752694846
50.5124082690722
50.5131450821116
50.5143864718813
50.5164348073302
50.5196646037984
3508.63620755002
31581.4699916618
31553.8910581631
3505.66770304128
50.4782009099959
50.47591390589
50.4744889361109
50.4736380480862
50.4731404477753
50.4728523475147
50.4726870159262
50.4725933596747
50.4725412628395
50.4725129323302
50.4724979184239
50.4724901803045
50.4724863075199
50.4724844282427
50.472483545901
50.4724831458559
50.4724829711957
50.4724828982007
50.4724828691754
50.4724828580062
50.4724828534494
50.4724828514747
50.4724828505401
50.4724828496382
50.4724828485067
50.472482847413
50.4724828474344
50.472482854228
50.4724828803206
50.4724829526799
50.4724831316763
50.4724835407411
50.4724844351943
50.4724863320612
50.472490233338
50.4724980175876
50.4725131016982
50.4725415275542
50.4725937332688
50.4726874750024
50.472852829761
50.473141071864
50.4736401363066
50.4744979999273
50.4759456481943
50.4782883170091
3505.68118098985
31554.0954518235
31535.4716429056
3503.70897669473
50.4510385714235
50.4494952874072
50.4485562980398
50.4480073052175
50.4476923399493
50.4475129975989
50.4474114714827
50.447354559234
50.4473231441017
50.4473061527091
50.4472971808838
50.4472925677838
50.4472902625981
50.4472891454391
50.4472886218426
50.4472883853334
50.4472882829253
50.447288240868
50.4472882248658
50.4472882193257
50.4472882173113
50.4472882166275
50.4472882165765
50.447288216327
50.447288215657
50.4472882147937
50.4472882143264
50.4472882172623
50.4472882311319
50.4472882721881
50.4472883761471
50.4472886159617
50.4472891425761
50.4472902626882
50.4472925724215
50.4472971941261
50.4473061815197
50.4473231964534
50.4473546376322
50.447411557942
50.4475130536862
50.4476924605734
50.4480084558164
50.448562548035
50.4495185805569
50.451105314917
3503.71972569869
31535.6464644429
31523.7402767457
3502.48059101757
50.4341759028854
50.4331966714163
50.4326143111745
50.4322807609894
50.4320929680673
50.4319877850724
50.4319290338112
50.4318964327959
50.431878567127
50.4318689510098
50.4318638888521
50.4318612904835
50.4318599932552
50.4318593650168
50.431859070949
50.4318589385702
50.4318588817183
50.4318588587854
50.4318588504671
50.4318588479831
50.4318588474459
50.4318588474528
50.4318588476019
50.4318588475821
50.4318588472134
50.4318588466103
50.4318588460942
50.4318588471255
50.431858853997
50.4318588760366
50.4318589332503
50.4318590665161
50.4318593603145
50.4318599866286
50.4318612803826
50.4318638742125
50.4318689316234
50.4318785426956
50.431896398708
50.4319289704321
50.4319876546884
50.4320928107698
50.4322811880108
50.4326180675964
50.4332121678238
50.43422268367
3502.48846646395
31523.8759618898
31516.6443003005
3501.74942151185
50.4242418971795
50.4236543833315
50.4233125227681
50.4231205972745
50.4230145209701
50.4229560676213
50.4229238478643
50.4229061459355
50.422896511731
50.4228913489265
50.4228886379028
50.4228872479847
50.4228865543379
50.4228862184817
50.4228860614186
50.4228859909429
50.4228859609298
50.4228859490539
50.4228859450123
50.4228859441353
50.4228859441813
50.4228859443646
50.4228859445382
50.4228859445628
50.4228859443788
50.4228859439765
50.4228859435681
50.4228859438004
50.4228859469751
50.422885958211
50.4228859882009
50.4228860587552
50.422886214879
50.4228865482299
50.4228872374824
50.4228886209316
50.4228913233694
50.4228964746385
50.4229060901822
50.4229237536157
50.4229558962233
50.4230142678495
50.4231205993134
50.4233144843599
50.4236638216741
50.4242722767575
3501.75477451796
31516.741299098
31512.5548081678
3501.33495272835
50.4186694812484
50.4183346143704
50.4181437755215
50.4180386926755
50.4179816581556
50.4179507322999
50.4179339089304
50.4179247560632
50.4179198075776
50.4179171664307
50.4179157824068
50.4179150733314
50.4179147194398
50.417914548059
50.4179144679652
50.4179144321407
50.4179144170216
50.4179144111714
50.4179144093679
50.4179144091556
50.4179144093146
50.4179144095137
50.4179144096555
50.4179144096962
50.4179144096064
50.4179144093517
50.4179144090566
50.4179144090298
50.4179144104144
50.4179144158664
50.4179144309037
50.4179144666425
50.4179145460049
50.4179147156245
50.4179150664172
50.4179157707802
50.41791714819
50.417919779799
50.4179247120805
50.4179338315425
50.4179505864861
50.417981416346
50.4180385135373
50.4181446382844
50.4183399088948
50.4186878941338
3501.33835447289
31512.6193559779
31510.3027207094
3501.11052643389
50.4156840413071
50.4155019957936
50.4154002824718
50.4153453153723
50.4153160072662
50.4153003676769
50.4152919709626
50.4152874468991
50.415285016697
50.4152837244598
50.4152830484408
50.4152827022025
50.4152825293212
50.4152824455569
50.4152824064278
50.4152823889829
50.4152823816937
50.4152823789618
50.4152823782249
50.4152823782196
50.415282378357
50.4152823785096
50.4152823786087
50.4152823786456
50.4152823786023
50.4152823784507
50.4152823782591
50.4152823781793
50.4152823787442
50.415282381277
50.4152823885176
50.4152824059029
50.4152824446364
50.415282527456
50.415282698657
50.4152830422912
50.4152837145231
50.4152850009161
50.4152874202653
50.4152919204226
50.4153002653943
50.4153158204355
50.4153451035219
50.4154005679318
50.4155047387282
50.41569451792
3501.11256033527
31510.3430230975
31509.11449896
3500.99412951118
50.414152262167
50.4140575411881
50.4140056032615
50.4139780383017
50.413963594299
50.4139560078816
50.4139519880207
50.4139498431146
50.4139486982065
50.4139480915362
50.4139477745984
50.4139476122644
50.4139475311454
50.413947491811
50.4139474734423
50.4139474652806
50.4139474619074
50.4139474606917
50.4139474604114
50.4139474604528
50.4139474605521
50.4139474606517
50.4139474607138
50.4139474607398
50.4139474607192
50.4139474606344
50.4139474605205
50.4139474604505
50.4139474606649
50.4139474617985
50.4139474651581
50.4139474733066
50.4139474915159
50.413947530447
50.4139476108341
50.4139477720171
50.4139480872208
50.4139486909567
50.4139498296555
50.4139519594649
50.4139559444297
50.4139634676391
50.4139778612332
50.4140056347587
50.4140588524458
50.4141578846591
3500.99527970041
31509.1382584962
31508.5124807985
3500.93617031483
50.4133978240314
50.4133505096564
50.4133250234009
50.4133117303987
50.4133048822224
50.4133013414631
50.4132994898584
50.4132985114816
50.4132979925095
50.4132977184216
50.4132975753889
50.4132975021023
50.4132974654411
50.4132974476462
50.4132974393379
50.4132974356593
50.4132974341566
50.4132974336398
50.4132974335431
50.4132974335814
50.4132974336437
50.4132974337022
50.4132974337381
50.4132974337539
50.4132974337443
50.4132974336994
50.4132974336365
50.4132974335906
50.4132974336658
50.4132974341554
50.4132974356621
50.4132974393527
50.4132974476224
50.4132974652922
50.4132975017155
50.4132975746226
50.4132977170504
50.4132979899245
50.4132985057501
50.4132994754444
50.4133013055252
50.4133048041324
50.413311605465
50.4133249707781
50.4133510846017
50.4134006810221
3500.9367882763
31508.5257739006
31508.219018562
3500.90840879896
50.4130404791501
50.4130177285689
50.4130056779364
50.4129994966849
50.4129963645595
50.4129947701417
50.4129939473009
50.4129935167713
50.4129932898239
50.412993170343
50.4129931080452
50.4129930761051
50.4129930601059
50.4129930523307
50.4129930487009
50.4129930470998
50.4129930464538
50.4129930462436
50.4129930462148
50.4129930462399
50.4129930462752
50.412993046307
50.4129930463263
50.4129930463351
50.4129930463307
50.4129930463082
50.4129930462755
50.4129930462489
50.4129930462729
50.4129930464783
50.4129930471332
50.4129930487527
50.4129930523902
50.412993060154
50.4129930761217
50.4129931080094
50.4129931701991
50.4129932893001
50.4129935148163
50.4129939407141
50.4129947512162
50.4129963198921
50.4129994177909
50.4130056153875
50.4130179562348
50.4130418579339
3500.90872544788
31508.2261071193
31508.0812111534
3500.89560355319
50.4128775511252
50.4128669953792
50.4128614919172
50.4128587137016
50.4128573284018
50.4128566339677
50.4128562803011
50.4128560970819
50.4128560011038
50.412855950728
50.4128559244789
50.4128559110092
50.4128559042516
50.412855900963
50.412855899428
50.4128558987535
50.4128558984851
50.4128558984032
50.4128558983966
50.4128558984107
50.4128558984293
50.4128558984455
50.4128558984554
50.4128558984599
50.412855898458
50.4128558984472
50.4128558984311
50.4128558984174
50.4128558984242
50.4128558985079
50.4128558987843
50.4128558994745
50.4128559010275
50.4128559043375
50.4128559111265
50.4128559246453
50.4128559509503
50.4128560012762
50.4128560966701
50.412856277569
50.4128566245877
50.4128573043911
50.412858667849
50.4128614437448
50.4128670737712
50.4128781846022
3500.89575881893
31508.084827108
31508.0188745598
3500.88991871319
50.4128061158165
50.4128013797487
50.412798946905
50.4127977373396
50.4127971435363
50.4127968503432
50.4127967029893
50.4127966274132
50.4127965880722
50.4127965674847
50.4127965567624
50.4127965512545
50.4127965484864
50.4127965471374
50.4127965465078
50.4127965462323
50.4127965461245
50.4127965460936
50.412796546093
50.4127965461006
50.4127965461098
50.4127965461177
50.4127965461224
50.4127965461247
50.4127965461239
50.4127965461189
50.4127965461115
50.4127965461047
50.4127965461063
50.4127965461396
50.4127965462532
50.4127965465393
50.4127965471841
50.412796548556
50.4127965513611
50.4127965569284
50.4127965677306
50.4127965883638
50.4127966274942
50.4127967019688
50.412796845928
50.4127971312965
50.4127977124125
50.4127989159244
50.4128014007191
50.4128063933831
3500.88999178244
31508.0206446747
31507.9917983382
3500.8875007779
50.4127761719339
50.4127741131054
50.4127730701211
50.412772559021
50.4127723118542
50.412772191616
50.4127721319812
50.4127721017038
50.4127720860434
50.4127720778725
50.4127720736186
50.412772071431
50.4127720703296
50.4127720697922
50.4127720695415
50.4127720694323
50.4127720693903
50.4127720693791
50.4127720693798
50.4127720693836
50.412772069388
50.4127720693917
50.4127720693939
50.4127720693949
50.4127720693946
50.4127720693925
50.4127720693891
50.412772069386
50.4127720693862
50.4127720693992
50.4127720694447
50.4127720695601
50.4127720698208
50.4127720703742
50.4127720715024
50.4127720737333
50.4127720780479
50.412772086272
50.4127721018686
50.4127721316467
50.4127721896278
50.4127723058968
50.4127725462108
50.4127730522696
50.4127741152255
50.4127762880414
3500.88753386736
31507.9926322165
31507.9806322509
3500.88653067558
50.4127644016171
50.4127635329509
50.412763098567
50.4127628886027
50.4127627885227
50.4127627405416
50.4127627170569
50.4127627052557
50.4127626991916
50.4127626960375
50.4127626943962
50.4127626935513
50.4127626931255
50.4127626929174
50.4127626928206
50.4127626927787
50.412762692763
50.4127626927591
50.4127626927598
50.4127626927617
50.4127626927637
50.4127626927653
50.4127626927664
50.4127626927669
50.4127626927668
50.4127626927659
50.4127626927645
50.4127626927631
50.412762692763
50.4127626927679
50.4127626927856
50.4127626928309
50.4127626929333
50.4127626931507
50.4127626935926
50.4127626944634
50.4127626961418
50.4127626993335
50.4127627053838
50.4127627169677
50.4127627396798
50.4127627857395
50.4127628823327
50.412763089063
50.4127635305634
50.412764447996
3500.88654512854
31507.9810112193
31507.9764136894
3500.88618165839
50.4127603354443
50.4127599791591
50.4127598031362
50.4127597191494
50.4127596796693
50.4127596610098
50.4127596519971
50.4127596475159
50.4127596452293
50.4127596440442
50.4127596434282
50.4127596431111
50.4127596429512
50.4127596428733
50.4127596428372
50.4127596428219
50.4127596428163
50.4127596428152
50.4127596428157
50.4127596428166
50.4127596428175
50.4127596428183
50.4127596428187
50.412759642819
50.412759642819
50.4127596428186
50.4127596428181
50.4127596428174
50.4127596428173
50.412759642819
50.4127596428256
50.4127596428427
50.4127596428818
50.4127596429646
50.412759643133
50.4127596434638
50.4127596440999
50.4127596453068
50.4127596475936
50.4127596519833
50.4127596606485
50.412759678416
50.4127597162104
50.4127597983825
50.4127599767054
50.4127603531222
3500.88618775996
31507.976580206
31507.9751365887
3500.88609101592
50.4127594360695
50.4127592938157
50.4127592243213
50.4127591915667
50.412759176374
50.4127591692939
50.4127591659201
50.4127591642614
50.4127591634219
50.412759162989
50.4127591627646
50.4127591626495
50.4127591625917
50.4127591625638
50.4127591625511
50.4127591625459
50.4127591625442
50.412759162544
50.4127591625444
50.4127591625449
50.4127591625454
50.4127591625457
50.412759162546
50.4127591625461
50.4127591625462
50.4127591625461
50.4127591625458
50.4127591625455
50.4127591625453
50.4127591625459
50.412759162548
50.4127591625541
50.4127591625682
50.4127591625986
50.4127591626605
50.4127591627825
50.4127591630168
50.4127591634609
50.4127591643029
50.4127591659241
50.4127591691469
50.4127591758283
50.4127591902418
50.4127592220644
50.4127592921993
50.4127594424859
3500.8860935104
31507.9752074726
31507.9750689942
3500.88610478714
50.4127598010403
50.4127597456826
50.4127597189215
50.4127597064541
50.412759700746
50.4127596981234
50.4127596968916
50.4127596962939
50.4127596959947
50.4127596958418
50.4127596957633
50.4127596957235
50.4127596957039
50.4127596956947
50.4127596956908
50.4127596956894
50.4127596956892
50.4127596956894
50.4127596956897
50.41275969569
50.4127596956903
50.4127596956906
50.4127596956907
50.4127596956908
50.4127596956909
50.4127596956908
50.4127596956907
50.4127596956905
50.4127596956903
50.4127596956903
50.4127596956909
50.4127596956927
50.4127596956972
50.4127596957076
50.4127596957291
50.412759695772
50.4127596958551
50.4127596960134
50.4127596963144
50.4127596968972
50.4127596980653
50.4127597005158
50.412759705878
50.4127597178975
50.4127597447886
50.4127598032492
3500.88610577642
31507.975098278
31507.9754851687
3500.88615961205
50.4127606570733
50.4127606360573
50.4127606259983
50.4127606213643
50.4127606192702
50.4127606183225
50.412760617885
50.4127606176765
50.4127606175741
50.4127606175229
50.4127606174974
50.412760617485
50.4127606174793
50.412760617477
50.4127606174764
50.4127606174764
50.4127606174767
50.412760617477
50.4127606174774
50.4127606174776
50.4127606174778
50.412760617478
50.4127606174781
50.4127606174782
50.4127606174782
50.4127606174782
50.4127606174781
50.412760617478
50.4127606174778
50.4127606174776
50.4127606174775
50.4127606174777
50.4127606174787
50.4127606174815
50.412760617488
50.4127606175019
50.4127606175294
50.4127606175829
50.4127606176863
50.412760617889
50.4127606183004
50.4127606191761
50.4127606211222
50.4127606255523
50.4127606356116
50.4127606577896
3500.8861599933
31507.9754969296
31507.9760898255
3500.88623016436
50.4127616989099
50.4127616911232
50.4127616874325
50.4127616857515
50.4127616850026
50.4127616846699
50.41276168452
50.4127616844509
50.4127616844184
50.4127616844032
50.4127616843964
50.4127616843936
50.4127616843929
50.412761684393
50.4127616843935
50.412761684394
50.4127616843945
50.412761684395
50.4127616843953
50.4127616843955
50.4127616843957
50.4127616843959
50.412761684396
50.4127616843961
50.4127616843961
50.412761684396
50.412761684396
50.4127616843959
50.4127616843957
50.4127616843954
50.412761684395
50.4127616843946
50.4127616843943
50.4127616843944
50.4127616843955
50.4127616843989
50.4127616844066
50.4127616844228
50.4127616844557
50.4127616845226
50.412761684662
50.4127616849655
50.4127616856533
50.4127616872458
50.4127616909172
50.4127616991264
3500.8862303074
31507.9760944256
31507.9767661092
3500.88630659486
50.4127628093255
50.4127628065124
50.4127628051932
50.4127628046
50.4127628043404
50.4127628042283
50.4127628041802
50.4127628041596
50.4127628041513
50.4127628041484
50.4127628041479
50.4127628041484
50.4127628041493
50.4127628041503
50.4127628041511
50.4127628041518
50.4127628041524
50.4127628041529
50.4127628041532
50.4127628041535
50.4127628041537
50.4127628041538
50.4127628041539
50.412762804154
50.412762804154
50.412762804154
50.4127628041539
50.4127628041538
50.4127628041535
50.4127628041532
50.4127628041527
50.4127628041521
50.4127628041514
50.4127628041506
50.4127628041499
50.4127628041496
50.4127628041504
50.4127628041537
50.4127628041623
50.4127628041819
50.412762804226
50.4127628043266
50.4127628045618
50.4127628051183
50.4127628064233
50.4127628093858
3500.88630664724
31507.9767678618
31507.9774689743
3500.88638517144
50.4127639444629
50.4127639434764
50.4127639430205
50.412763942819
50.4127639427333
50.4127639426984
50.4127639426851
50.4127639426809
50.4127639426805
50.4127639426815
50.412763942683
50.4127639426846
50.412763942686
50.4127639426872
50.4127639426881
50.4127639426889
50.4127639426895
50.41276394269
50.4127639426903
50.4127639426906
50.4127639426908
50.4127639426909
50.412763942691
50.4127639426911
50.4127639426911
50.4127639426911
50.412763942691
50.4127639426909
50.4127639426906
50.4127639426903
50.4127639426898
50.4127639426891
50.4127639426883
50.4127639426872
50.4127639426859
50.4127639426844
50.4127639426831
50.4127639426822
50.4127639426827
50.4127639426865
50.4127639426982
50.4127639427288
50.4127639428051
50.4127639429921
50.4127639434407
50.4127639444788
3500.8863851902
31507.9774696275
31507.9781814834
3500.88646451421
50.4127650883143
50.4127650879836
50.4127650878348
50.412765087771
50.4127650877456
50.4127650877367
50.4127650877348
50.4127650877357
50.4127650877377
50.4127650877398
50.4127650877418
50.4127650877436
50.412765087745
50.4127650877462
50.4127650877472
50.4127650877479
50.4127650877485
50.412765087749
50.4127650877494
50.4127650877496
50.4127650877498
50.41276508775
50.4127650877501
50.4127650877502
50.4127650877502
50.4127650877501
50.4127650877501
50.4127650877499
50.4127650877497
50.4127650877493
50.4127650877489
50.4127650877482
50.4127650877473
50.4127650877462
50.4127650877448
50.4127650877431
50.4127650877412
50.4127650877391
50.4127650877372
50.4127650877361
50.4127650877374
50.4127650877446
50.4127650877667
50.4127650878251
50.4127650879709
50.4127650883192
3500.88646452091
31507.9781817217
31507.9788974169
3500.88654412478
50.4127662351719
50.4127662350715
50.4127662350293
50.4127662350126
50.4127662350071
50.4127662350066
50.4127662350081
50.4127662350103
50.4127662350127
50.4127662350149
50.4127662350169
50.4127662350186
50.41276623502
50.4127662350211
50.412766235022
50.4127662350228
50.4127662350233
50.4127662350238
50.4127662350241
50.4127662350244
50.4127662350246
50.4127662350248
50.4127662350249
50.4127662350249
50.412766235025
50.4127662350249
50.4127662350249
50.4127662350247
50.4127662350245
50.4127662350241
50.4127662350236
50.412766235023
50.4127662350222
50.4127662350211
50.4127662350198
50.4127662350181
50.4127662350162
50.412766235014
50.4127662350116
50.4127662350093
50.4127662350076
50.4127662350076
50.412766235012
50.412766235027
50.4127662350683
50.4127662351748
3500.88654412722
31507.9788975035
31507.9796145415
3500.88662382705
50.4127673830457
50.4127673830241
50.4127673830178
50.4127673830165
50.4127673830172
50.4127673830189
50.412767383021
50.4127673830233
50.4127673830255
50.4127673830275
50.4127673830293
50.4127673830308
50.4127673830321
50.4127673830331
50.412767383034
50.4127673830346
50.4127673830352
50.4127673830356
50.412767383036
50.4127673830363
50.4127673830365
50.4127673830366
50.4127673830367
50.4127673830368
50.4127673830368
50.4127673830368
50.4127673830367
50.4127673830366
50.4127673830363
50.412767383036
50.4127673830356
50.412767383035
50.4127673830342
50.4127673830332
50.412767383032
50.4127673830306
50.4127673830288
50.4127673830268
50.4127673830246
50.4127673830223
50.41276738302
50.4127673830182
50.4127673830173
50.4127673830184
50.4127673830247
50.4127673830487
3500.88662382806
31507.9796145732
31507.9803320723
3500.88670356012
50.4127685312563
50.4127685312608
50.412768531266
50.4127685312692
50.4127685312714
50.4127685312733
50.4127685312751
50.4127685312771
50.4127685312789
50.4127685312806
50.4127685312821
50.4127685312834
50.4127685312845
50.4127685312855
50.4127685312863
50.4127685312869
50.4127685312874
50.4127685312878
50.4127685312881
50.4127685312884
50.4127685312887
50.4127685312888
50.4127685312889
50.412768531289
50.412768531289
50.412768531289
50.4127685312889
50.4127685312888
50.4127685312886
50.4127685312883
50.4127685312879
50.4127685312874
50.4127685312866
50.4127685312858
50.4127685312847
50.4127685312834
50.412768531282
50.4127685312802
50.4127685312784
50.4127685312764
50.4127685312745
50.4127685312726
50.4127685312705
50.4127685312676
50.412768531263
50.4127685312596
3500.8867035606
31507.9803320846
31507.981049739
3500.88678330334
50.4127696795764
50.412769679589
50.4127696795974
50.4127696796014
50.4127696796036
50.412769679605
50.4127696796064
50.4127696796079
50.4127696796093
50.4127696796107
50.4127696796119
50.412769679613
50.4127696796139
50.4127696796148
50.4127696796155
50.4127696796161
50.4127696796166
50.4127696796169
50.4127696796172
50.4127696796175
50.4127696796177
50.4127696796179
50.412769679618
50.412769679618
50.4127696796181
50.4127696796181
50.412769679618
50.4127696796179
50.4127696796177
50.4127696796174
50.412769679617
50.4127696796166
50.412769679616
50.4127696796152
50.4127696796143
50.4127696796132
50.412769679612
50.4127696796107
50.4127696796092
50.4127696796077
50.4127696796063
50.4127696796049
50.412769679603
50.4127696795994
50.4127696795918
50.41276967958
3500.88678330362
31507.9810497425
31507.9817674504
3500.88686304985
50.4127708279316
50.4127708279461
50.4127708279549
50.4127708279587
50.4127708279602
50.4127708279611
50.4127708279619
50.4127708279629
50.4127708279639
50.4127708279649
50.4127708279659
50.4127708279668
50.4127708279676
50.4127708279683
50.4127708279689
50.4127708279694
50.4127708279699
50.4127708279702
50.4127708279705
50.4127708279708
50.412770827971
50.4127708279711
50.4127708279712
50.4127708279713
50.4127708279713
50.4127708279713
50.4127708279713
50.4127708279712
50.412770827971
50.4127708279707
50.4127708279704
50.41277082797
50.4127708279695
50.4127708279689
50.4127708279681
50.4127708279673
50.4127708279663
50.4127708279653
50.4127708279643
50.4127708279633
50.4127708279625
50.4127708279617
50.4127708279604
50.4127708279571
50.4127708279491
50.4127708279352
3500.88686305012
31507.9817674527
31507.9824851763
3500.88694279741
50.4127719762976
50.4127719763121
50.4127719763204
50.4127719763235
50.4127719763243
50.4127719763246
50.4127719763248
50.4127719763253
50.4127719763259
50.4127719763266
50.4127719763273
50.412771976328
50.4127719763286
50.4127719763292
50.4127719763298
50.4127719763302
50.4127719763306
50.4127719763309
50.4127719763312
50.4127719763315
50.4127719763316
50.4127719763318
50.4127719763319
50.412771976332
50.412771976332
50.412771976332
50.412771976332
50.4127719763319
50.4127719763318
50.4127719763316
50.4127719763313
50.4127719763309
50.4127719763305
50.41277197633
50.4127719763294
50.4127719763288
50.4127719763281
50.4127719763274
50.4127719763268
50.4127719763263
50.412771976326
50.4127719763259
50.4127719763253
50.4127719763228
50.4127719763153
50.4127719763014
3500.88694279771
31507.982485179
31507.9832029069
3500.8870225453
50.412773124667
50.4127731246808
50.4127731246883
50.4127731246905
50.4127731246906
50.4127731246902
50.41277312469
50.41277312469
50.4127731246902
50.4127731246906
50.412773124691
50.4127731246915
50.412773124692
50.4127731246925
50.412773124693
50.4127731246933
50.4127731246937
50.412773124694
50.4127731246943
50.4127731246945
50.4127731246947
50.4127731246948
50.4127731246949
50.412773124695
50.4127731246951
50.4127731246951
50.4127731246951
50.412773124695
50.4127731246949
50.4127731246947
50.4127731246945
50.4127731246942
50.4127731246939
50.4127731246935
50.412773124693
50.4127731246926
50.4127731246922