/*--------------------------------*- C++ -*----------------------------------*\
  =========                 |
  \\      /  F ield         | OpenFOAM: The Open Source CFD Toolbox
   \\    /   O peration     | Website:  https://openfoam.org
    \\  /    A nd           | Version:  10
     \\/     M anipulation  |
\*---------------------------------------------------------------------------*/
FoamFile
{
    format      ascii;
    class       volScalarField;
    location    "9.6";
    object      p;
}
// * * * * * * * * * * * * * * * * * * * * * * * * * * * * * * * * * * * * * //

dimensions      [1 -1 -2 0 0 0 0];

internalField   nonuniform List<scalar> 
2500
(
100105.493951162
100105.493951732
100105.493952536
100105.493953327
100105.493953948
100105.493954406
100105.493954727
100105.49395495
100105.493955102
100105.493955207
100105.493955277
100105.493955326
100105.493955359
100105.493955382
100105.493955398
100105.493955409
100105.493955417
100105.493955423
100105.493955427
100105.493955431
100105.493955433
100105.493955434
100105.493955435
100105.493955436
100105.493955436
100105.493955435
100105.493955434
100105.493955433
100105.493955431
100105.493955429
100105.493955426
100105.493955422
100105.493955417
100105.493955411
100105.493955402
100105.493955389
100105.493955373
100105.493955349
100105.493955315
100105.493955265
100105.493955193
100105.493955088
100105.493954934
100105.49395471
100105.493954388
100105.493953927
100105.493953301
100105.493952502
100105.493951689
100105.493951123
100105.491699852
100105.491700286
100105.491700953
100105.49170164
100105.491702193
100105.491702614
100105.491702914
100105.491703125
100105.491703271
100105.491703372
100105.49170344
100105.491703488
100105.49170352
100105.491703543
100105.491703559
100105.49170357
100105.491703579
100105.491703584
100105.491703589
100105.491703592
100105.491703594
100105.491703596
100105.491703597
100105.491703597
100105.491703597
100105.491703597
100105.491703596
100105.491703595
100105.491703593
100105.491703591
100105.491703588
100105.491703584
100105.491703579
100105.491703572
100105.491703563
100105.491703551
100105.491703534
100105.49170351
100105.491703477
100105.491703428
100105.491703358
100105.491703257
100105.49170311
100105.491702897
100105.491702595
100105.491702172
100105.491701613
100105.491700919
100105.491700244
100105.491699813
100105.489443108
100105.489443443
100105.489443923
100105.48944445
100105.489444886
100105.489445228
100105.489445478
100105.489445658
100105.489445784
100105.489445872
100105.489445934
100105.489445977
100105.489446007
100105.489446028
100105.489446043
100105.489446054
100105.489446062
100105.489446068
100105.489446073
100105.489446076
100105.489446078
100105.48944608
100105.489446081
100105.489446081
100105.489446081
100105.489446081
100105.48944608
100105.489446079
100105.489446077
100105.489446075
100105.489446072
100105.489446068
100105.489446063
100105.489446056
100105.489446047
100105.489446035
100105.489446019
100105.489445997
100105.489445966
100105.489445922
100105.489445859
100105.48944577
100105.489445643
100105.489445461
100105.48944521
100105.489444864
100105.489444423
100105.48944389
100105.489443403
100105.489443068
100105.487181111
100105.487181333
100105.487181622
100105.487181969
100105.487182264
100105.487182506
100105.487182688
100105.487182823
100105.48718292
100105.48718299
100105.487183041
100105.487183077
100105.487183103
100105.487183123
100105.487183137
100105.487183147
100105.487183154
100105.48718316
100105.487183164
100105.487183167
100105.487183169
100105.487183171
100105.487183172
100105.487183172
100105.487183172
100105.487183172
100105.487183171
100105.48718317
100105.487183168
100105.487183166
100105.487183163
100105.487183159
100105.487183154
100105.487183148
100105.48718314
100105.487183129
100105.487183114
100105.487183094
100105.487183067
100105.48718303
100105.487182978
100105.487182907
100105.487182808
100105.487182671
100105.487182488
100105.487182243
100105.487181944
100105.487181591
100105.487181295
100105.48718107
100105.484914332
100105.484914439
100105.48491456
100105.484914739
100105.4849149
100105.484915042
100105.484915156
100105.484915245
100105.484915313
100105.484915364
100105.484915403
100105.484915432
100105.484915453
100105.48491547
100105.484915482
100105.484915491
100105.484915498
100105.484915504
100105.484915508
100105.484915511
100105.484915513
100105.484915514
100105.484915515
100105.484915515
100105.484915516
100105.484915515
100105.484915514
100105.484915513
100105.484915512
100105.484915509
100105.484915507
100105.484915503
100105.484915498
100105.484915492
100105.484915484
100105.484915474
100105.484915461
100105.484915444
100105.484915422
100105.484915392
100105.484915352
100105.4849153
100105.484915231
100105.48491514
100105.484915025
100105.48491488
100105.484914716
100105.484914532
100105.484914406
100105.484914293
100105.482643489
100105.482643496
100105.482643486
100105.482643526
100105.482643573
100105.482643631
100105.482643685
100105.482643733
100105.482643774
100105.482643808
100105.482643835
100105.482643857
100105.482643874
100105.482643887
100105.482643898
100105.482643906
100105.482643912
100105.482643917
100105.482643921
100105.482643923
100105.482643925
100105.482643927
100105.482643928
100105.482643928
100105.482643928
100105.482643928
100105.482643927
100105.482643926
100105.482643924
100105.482643922
100105.482643919
100105.482643916
100105.482643912
100105.482643906
100105.482643899
100105.48264389
100105.482643879
100105.482643865
100105.482643847
100105.482643824
100105.482643796
100105.482643762
100105.48264372
100105.48264367
100105.482643615
100105.482643555
100105.482643505
100105.482643463
100105.482643469
100105.482643456
100105.480369451
100105.480369383
100105.480369286
100105.480369224
100105.480369189
100105.480369181
100105.480369187
100105.480369203
100105.480369221
100105.48036924
100105.480369257
100105.480369272
100105.480369285
100105.480369296
100105.480369304
100105.480369311
100105.480369317
100105.480369321
100105.480369324
100105.480369327
100105.480369329
100105.48036933
100105.480369331
100105.480369331
100105.480369331
100105.480369331
100105.48036933
100105.480369329
100105.480369328
100105.480369326
100105.480369323
100105.48036932
100105.480369316
100105.480369311
100105.480369305
100105.480369297
100105.480369288
100105.480369276
100105.480369263
100105.480369247
100105.480369229
100105.480369209
100105.48036919
100105.480369174
100105.480369166
100105.480369172
100105.480369206
100105.480369267
100105.480369363
100105.480369426
100105.47809307
100105.478092957
100105.478092813
100105.478092688
100105.478092598
100105.478092546
100105.478092519
100105.47809251
100105.478092511
100105.478092517
100105.478092526
100105.478092536
100105.478092545
100105.478092553
100105.478092559
100105.478092565
100105.47809257
100105.478092573
100105.478092576
100105.478092579
100105.47809258
100105.478092581
100105.478092582
100105.478092582
100105.478092582
100105.478092582
100105.478092581
100105.47809258
100105.478092579
100105.478092577
100105.478092575
100105.478092572
100105.478092568
100105.478092564
100105.478092559
100105.478092552
100105.478092545
100105.478092536
100105.478092526
100105.478092516
100105.478092507
100105.478092499
100105.478092498
100105.478092506
100105.478092532
100105.478092584
100105.478092673
100105.478092798
100105.478092942
100105.478093053
100105.47581508
100105.475814948
100105.475814788
100105.475814632
100105.475814514
100105.475814435
100105.475814386
100105.47581436
100105.475814349
100105.475814346
100105.475814348
100105.475814352
100105.475814358
100105.475814363
100105.475814368
100105.475814373
100105.475814376
100105.47581438
100105.475814382
100105.475814384
100105.475814385
100105.475814386
100105.475814387
100105.475814387
100105.475814387
100105.475814387
100105.475814386
100105.475814385
100105.475814384
100105.475814382
100105.47581438
100105.475814378
100105.475814375
100105.475814371
100105.475814366
100105.475814361
100105.475814355
100105.475814349
100105.475814343
100105.475814338
100105.475814335
100105.475814338
100105.475814349
100105.475814374
100105.475814422
100105.475814501
100105.47581462
100105.475814777
100105.475814938
100105.475815068
100105.473536049
100105.473535921
100105.473535766
100105.473535603
100105.473535474
100105.473535382
100105.473535321
100105.473535284
100105.473535264
100105.473535254
100105.47353525
100105.473535251
100105.473535253
100105.473535256
100105.47353526
100105.473535263
100105.473535266
100105.473535268
100105.47353527
100105.473535272
100105.473535273
100105.473535274
100105.473535274
100105.473535275
100105.473535275
100105.473535274
100105.473535274
100105.473535273
100105.473535272
100105.47353527
100105.473535268
100105.473535266
100105.473535263
100105.47353526
100105.473535257
100105.473535253
100105.473535249
100105.473535245
100105.473535242
100105.473535241
100105.473535244
100105.473535253
100105.473535273
100105.47353531
100105.47353537
100105.473535463
100105.473535592
100105.473535757
100105.473535914
100105.473536043
100105.471256389
100105.471256275
100105.471256136
100105.471255981
100105.471255855
100105.471255759
100105.471255693
100105.471255649
100105.471255623
100105.471255607
100105.4712556
100105.471255597
100105.471255596
100105.471255598
100105.4712556
100105.471255602
100105.471255604
100105.471255606
100105.471255607
100105.471255608
100105.471255609
100105.47125561
100105.47125561
100105.47125561
100105.47125561
100105.47125561
100105.471255609
100105.471255609
100105.471255608
100105.471255606
100105.471255605
100105.471255603
100105.471255601
100105.471255598
100105.471255596
100105.471255593
100105.47125559
100105.471255589
100105.471255588
100105.471255591
100105.471255598
100105.471255612
100105.471255639
100105.471255682
100105.471255748
100105.471255844
100105.471255972
100105.471256129
100105.47125627
100105.471256384
100105.468976368
100105.468976274
100105.468976157
100105.468976017
100105.468975899
100105.468975806
100105.468975739
100105.468975693
100105.468975663
100105.468975644
100105.468975633
100105.468975627
100105.468975624
100105.468975624
100105.468975624
100105.468975625
100105.468975626
100105.468975628
100105.468975629
100105.46897563
100105.46897563
100105.468975631
100105.468975631
100105.468975631
100105.468975631
100105.468975631
100105.46897563
100105.468975629
100105.468975629
100105.468975627
100105.468975626
100105.468975625
100105.468975623
100105.468975621
100105.468975619
100105.468975618
100105.468975617
100105.468975617
100105.468975619
100105.468975624
100105.468975634
100105.468975653
100105.468975683
100105.468975729
100105.468975796
100105.46897589
100105.468976009
100105.46897615
100105.46897627
100105.468976365
100105.466696155
100105.466696082
100105.466695985
100105.466695864
100105.466695759
100105.466695672
100105.466695606
100105.46669556
100105.466695527
100105.466695506
100105.466695493
100105.466695485
100105.46669548
100105.466695478
100105.466695477
100105.466695477
100105.466695477
100105.466695478
100105.466695479
100105.466695479
100105.46669548
100105.46669548
100105.46669548
100105.46669548
100105.46669548
100105.46669548
100105.466695479
100105.466695478
100105.466695478
100105.466695477
100105.466695476
100105.466695475
100105.466695473
100105.466695472
100105.466695471
100105.466695471
100105.466695471
100105.466695473
100105.466695476
100105.466695484
100105.466695497
100105.466695518
100105.46669555
100105.466695597
100105.466695662
100105.46669575
100105.466695856
100105.466695979
100105.466696077
100105.466696152
100105.464415847
100105.464415792
100105.464415714
100105.464415612
100105.464415519
100105.46441544
100105.464415379
100105.464415332
100105.4644153
100105.464415277
100105.464415262
100105.464415252
100105.464415246
100105.464415242
100105.46441524
100105.464415239
100105.464415239
100105.464415239
100105.464415239
100105.464415239
100105.464415239
100105.46441524
100105.46441524
100105.46441524
100105.464415239
100105.464415239
100105.464415239
100105.464415238
100105.464415237
100105.464415237
100105.464415236
100105.464415235
100105.464415234
100105.464415234
100105.464415233
100105.464415234
100105.464415235
100105.464415238
100105.464415244
100105.464415253
100105.464415268
100105.46441529
100105.464415323
100105.464415369
100105.464415431
100105.464415511
100105.464415604
100105.464415708
100105.464415787
100105.464415844
100105.462135497
100105.462135456
100105.462135394
100105.462135309
100105.462135229
100105.462135158
100105.462135101
100105.462135057
100105.462135024
100105.462135001
100105.462134985
100105.462134973
100105.462134966
100105.462134961
100105.462134958
100105.462134957
100105.462134956
100105.462134955
100105.462134955
100105.462134955
100105.462134955
100105.462134955
100105.462134954
100105.462134954
100105.462134954
100105.462134954
100105.462134953
100105.462134953
100105.462134952
100105.462134952
100105.462134951
100105.462134951
100105.46213495
100105.46213495
100105.462134951
100105.462134952
100105.462134955
100105.462134959
100105.462134966
100105.462134976
100105.462134992
100105.462135016
100105.462135048
100105.462135092
100105.46213515
100105.462135221
100105.462135302
100105.462135388
100105.462135451
100105.462135493
100105.459855132
100105.459855102
100105.459855052
100105.459854982
100105.459854914
100105.459854851
100105.459854799
100105.459854757
100105.459854725
100105.459854702
100105.459854685
100105.459854673
100105.459854664
100105.459854659
100105.459854655
100105.459854652
100105.459854651
100105.45985465
100105.459854649
100105.459854649
100105.459854648
100105.459854648
100105.459854648
100105.459854648
100105.459854647
100105.459854647
100105.459854647
100105.459854646
100105.459854646
100105.459854646
100105.459854645
100105.459854645
100105.459854645
100105.459854646
100105.459854647
100105.459854649
100105.459854652
100105.459854657
100105.459854665
100105.459854677
100105.459854693
100105.459854717
100105.459854749
100105.45985479
100105.459854843
100105.459854906
100105.459854975
100105.459855046
100105.459855096
100105.459855127
100105.457574763
100105.457574741
100105.457574702
100105.457574645
100105.457574586
100105.457574531
100105.457574484
100105.457574445
100105.457574414
100105.457574391
100105.457574374
100105.457574361
100105.457574352
100105.457574345
100105.457574341
100105.457574338
100105.457574336
100105.457574334
100105.457574333
100105.457574333
100105.457574332
100105.457574332
100105.457574331
100105.457574331
100105.457574331
100105.45757433
100105.45757433
100105.45757433
100105.45757433
100105.457574329
100105.457574329
100105.457574329
100105.45757433
100105.457574331
100105.457574332
100105.457574335
100105.457574339
100105.457574345
100105.457574353
100105.457574366
100105.457574383
100105.457574406
100105.457574436
100105.457574475
100105.457574523
100105.457574579
100105.457574638
100105.457574696
100105.457574735
100105.457574757
100105.455294397
100105.455294381
100105.45529435
100105.455294303
100105.455294253
100105.455294205
100105.455294162
100105.455294126
100105.455294097
100105.455294074
100105.455294057
100105.455294044
100105.455294034
100105.455294027
100105.455294022
100105.455294019
100105.455294016
100105.455294014
100105.455294013
100105.455294012
100105.455294011
100105.455294011
100105.45529401
100105.45529401
100105.45529401
100105.455294009
100105.455294009
100105.455294009
100105.455294009
100105.455294009
100105.455294009
100105.455294009
100105.45529401
100105.455294011
100105.455294013
100105.455294016
100105.455294021
100105.455294027
100105.455294037
100105.455294049
100105.455294066
100105.455294089
100105.455294118
100105.455294154
100105.455294196
100105.455294245
100105.455294295
100105.455294343
100105.455294375
100105.455294391
100105.453014034
100105.453014023
100105.453013998
100105.453013959
100105.453013917
100105.453013875
100105.453013836
100105.453013803
100105.453013776
100105.453013754
100105.453013737
100105.453013724
100105.453013714
100105.453013707
100105.453013702
100105.453013698
100105.453013695
100105.453013693
100105.453013691
100105.45301369
100105.453013689
100105.453013688
100105.453013688
100105.453013687
100105.453013687
100105.453013687
100105.453013686
100105.453013686
100105.453013686
100105.453013686
100105.453013687
100105.453013687
100105.453013688
100105.45301369
100105.453013692
100105.453013696
100105.453013701
100105.453013708
100105.453013717
100105.45301373
100105.453013747
100105.453013768
100105.453013795
100105.453013828
100105.453013867
100105.453013909
100105.453013952
100105.453013991
100105.453014016
100105.453014028
100105.450733676
100105.450733667
100105.450733647
100105.450733615
100105.450733579
100105.450733543
100105.450733509
100105.450733479
100105.450733453
100105.450733432
100105.450733416
100105.450733403
100105.450733393
100105.450733385
100105.45073338
100105.450733375
100105.450733372
100105.45073337
100105.450733368
100105.450733367
100105.450733365
100105.450733365
100105.450733364
100105.450733363
100105.450733363
100105.450733363
100105.450733363
100105.450733363
100105.450733363
100105.450733363
100105.450733363
100105.450733364
100105.450733365
100105.450733367
100105.45073337
100105.450733374
100105.450733379
100105.450733386
100105.450733396
100105.450733409
100105.450733425
100105.450733445
100105.450733471
100105.450733501
100105.450733535
100105.450733572
100105.450733608
100105.45073364
100105.45073366
100105.450733669
100105.448453321
100105.448453315
100105.448453299
100105.448453272
100105.448453242
100105.44845321
100105.448453179
100105.448453152
100105.448453129
100105.448453109
100105.448453093
100105.448453081
100105.448453071
100105.448453063
100105.448453057
100105.448453053
100105.448453049
100105.448453046
100105.448453044
100105.448453043
100105.448453042
100105.448453041
100105.44845304
100105.448453039
100105.448453039
100105.448453039
100105.448453039
100105.448453039
100105.448453039
100105.448453039
100105.44845304
100105.448453041
100105.448453042
100105.448453044
100105.448453047
100105.448453051
100105.448453057
100105.448453064
100105.448453074
100105.448453086
100105.448453102
100105.448453121
100105.448453144
100105.448453171
100105.448453202
100105.448453234
100105.448453265
100105.448453291
100105.448453308
100105.448453314
100105.446172969
100105.446172965
100105.446172952
100105.44617293
100105.446172904
100105.446172876
100105.446172849
100105.446172825
100105.446172803
100105.446172785
100105.44617277
100105.446172758
100105.446172748
100105.44617274
100105.446172734
100105.446172729
100105.446172726
100105.446172723
100105.446172721
100105.446172719
100105.446172718
100105.446172717
100105.446172716
100105.446172715
100105.446172715
100105.446172715
100105.446172714
100105.446172714
100105.446172715
100105.446172715
100105.446172716
100105.446172717
100105.446172719
100105.446172721
100105.446172724
100105.446172728
100105.446172734
100105.446172741
100105.446172751
100105.446172763
100105.446172777
100105.446172795
100105.446172817
100105.446172841
100105.446172868
100105.446172896
100105.446172922
100105.446172944
100105.446172957
100105.446172962
100105.44389262
100105.443892617
100105.443892606
100105.443892588
100105.443892566
100105.443892542
100105.443892518
100105.443892496
100105.443892477
100105.44389246
100105.443892446
100105.443892434
100105.443892424
100105.443892417
100105.443892411
100105.443892406
100105.443892402
100105.443892399
100105.443892397
100105.443892395
100105.443892394
100105.443892393
100105.443892392
100105.443892391
100105.443892391
100105.44389239
100105.44389239
100105.44389239
100105.443892391
100105.443892391
100105.443892392
100105.443892393
100105.443892395
100105.443892397
100105.443892401
100105.443892405
100105.443892411
100105.443892418
100105.443892427
100105.443892438
100105.443892452
100105.443892469
100105.443892489
100105.443892511
100105.443892534
100105.443892558
100105.44389258
100105.443892599
100105.443892609
100105.443892613
100105.441612273
100105.441612271
100105.441612262
100105.441612247
100105.441612228
100105.441612208
100105.441612187
100105.441612167
100105.44161215
100105.441612134
100105.441612121
100105.441612109
100105.4416121
100105.441612093
100105.441612087
100105.441612082
100105.441612078
100105.441612075
100105.441612073
100105.441612071
100105.44161207
100105.441612068
100105.441612068
100105.441612067
100105.441612066
100105.441612066
100105.441612066
100105.441612066
100105.441612066
100105.441612067
100105.441612068
100105.441612069
100105.441612071
100105.441612074
100105.441612077
100105.441612081
100105.441612087
100105.441612094
100105.441612103
100105.441612113
100105.441612127
100105.441612142
100105.44161216
100105.441612179
100105.4416122
100105.441612221
100105.441612239
100105.441612255
100105.441612263
100105.441612266
100105.439331928
100105.439331926
100105.439331919
100105.439331907
100105.439331891
100105.439331874
100105.439331856
100105.439331838
100105.439331822
100105.439331808
100105.439331795
100105.439331785
100105.439331776
100105.439331769
100105.439331763
100105.439331758
100105.439331754
100105.439331751
100105.439331749
100105.439331747
100105.439331745
100105.439331744
100105.439331743
100105.439331743
100105.439331742
100105.439331742
100105.439331742
100105.439331742
100105.439331742
100105.439331743
100105.439331744
100105.439331745
100105.439331747
100105.43933175
100105.439331753
100105.439331757
100105.439331763
100105.439331769
100105.439331778
100105.439331788
100105.4393318
100105.439331814
100105.43933183
100105.439331848
100105.439331866
100105.439331884
100105.439331899
100105.439331912
100105.439331919
100105.43933192
100105.437051584
100105.437051583
100105.437051578
100105.437051568
100105.437051555
100105.437051539
100105.437051524
100105.437051508
100105.437051494
100105.437051481
100105.437051469
100105.437051459
100105.437051451
100105.437051444
100105.437051439
100105.437051434
100105.43705143
100105.437051427
100105.437051425
100105.437051423
100105.437051421
100105.43705142
100105.437051419
100105.437051418
100105.437051418
100105.437051418
100105.437051417
100105.437051418
100105.437051418
100105.437051419
100105.43705142
100105.437051421
100105.437051423
100105.437051426
100105.437051429
100105.437051433
100105.437051438
100105.437051445
100105.437051453
100105.437051462
100105.437051473
100105.437051486
100105.437051501
100105.437051516
100105.437051532
100105.437051547
100105.43705156
100105.43705157
100105.437051576
100105.437051576
100105.434771242
100105.434771242
100105.434771237
100105.434771229
100105.434771218
100105.434771205
100105.434771192
100105.434771178
100105.434771165
100105.434771153
100105.434771143
100105.434771134
100105.434771126
100105.43477112
100105.434771114
100105.43477111
100105.434771106
100105.434771103
100105.434771101
100105.434771099
100105.434771097
100105.434771096
100105.434771095
100105.434771094
100105.434771094
100105.434771093
100105.434771093
100105.434771093
100105.434771094
100105.434771094
100105.434771095
100105.434771097
100105.434771099
100105.434771101
100105.434771104
100105.434771109
100105.434771114
100105.43477112
100105.434771127
100105.434771136
100105.434771146
100105.434771158
100105.434771171
100105.434771184
100105.434771198
100105.43477121
100105.434771221
100105.434771229
100105.434771234
100105.434771234
100105.4324909
100105.432490901
100105.432490898
100105.432490891
100105.432490882
100105.432490872
100105.43249086
100105.432490848
100105.432490837
100105.432490826
100105.432490816
100105.432490808
100105.432490801
100105.432490795
100105.432490789
100105.432490785
100105.432490782
100105.432490779
100105.432490776
100105.432490774
100105.432490773
100105.432490771
100105.43249077
100105.43249077
100105.432490769
100105.432490769
100105.432490769
100105.432490769
100105.432490769
100105.43249077
100105.432490771
100105.432490773
100105.432490774
100105.432490777
100105.43249078
100105.432490784
100105.432490789
100105.432490794
100105.432490801
100105.432490809
100105.432490819
100105.432490829
100105.43249084
100105.432490852
100105.432490864
100105.432490874
100105.432490883
100105.43249089
100105.432490893
100105.432490893
100105.43021056
100105.430210561
100105.430210559
100105.430210554
100105.430210547
100105.430210538
100105.430210528
100105.430210518
100105.430210508
100105.430210498
100105.43021049
100105.430210482
100105.430210475
100105.430210469
100105.430210465
100105.43021046
100105.430210457
100105.430210454
100105.430210452
100105.43021045
100105.430210448
100105.430210447
100105.430210446
100105.430210445
100105.430210445
100105.430210444
100105.430210444
100105.430210445
100105.430210445
100105.430210446
100105.430210447
100105.430210448
100105.43021045
100105.430210452
100105.430210455
100105.430210459
100105.430210463
100105.430210469
100105.430210475
100105.430210483
100105.430210491
100105.4302105
100105.43021051
100105.43021052
100105.43021053
100105.430210539
100105.430210546
100105.430210551
100105.430210553
100105.430210552
100105.42793022
100105.427930221
100105.42793022
100105.427930217
100105.427930212
100105.427930204
100105.427930196
100105.427930187
100105.427930179
100105.42793017
100105.427930162
100105.427930156
100105.427930149
100105.427930144
100105.427930139
100105.427930136
100105.427930132
100105.42793013
100105.427930127
100105.427930125
100105.427930124
100105.427930123
100105.427930122
100105.427930121
100105.42793012
100105.42793012
100105.42793012
100105.42793012
100105.427930121
100105.427930121
100105.427930122
100105.427930124
100105.427930125
100105.427930128
100105.42793013
100105.427930134
100105.427930138
100105.427930143
100105.427930149
100105.427930155
100105.427930163
100105.427930171
100105.42793018
100105.427930188
100105.427930196
100105.427930204
100105.427930209
100105.427930213
100105.427930214
100105.427930212
100105.425649881
100105.425649883
100105.425649883
100105.425649881
100105.425649877
100105.425649871
100105.425649864
100105.425649857
100105.425649849
100105.425649842
100105.425649835
100105.425649829
100105.425649823
100105.425649819
100105.425649814
100105.425649811
100105.425649808
100105.425649805
100105.425649803
100105.425649801
100105.425649799
100105.425649798
100105.425649797
100105.425649796
100105.425649796
100105.425649796
100105.425649796
100105.425649796
100105.425649796
100105.425649797
100105.425649798
100105.425649799
100105.425649801
100105.425649803
100105.425649805
100105.425649809
100105.425649813
100105.425649817
100105.425649822
100105.425649828
100105.425649835
100105.425649842
100105.425649849
100105.425649856
100105.425649863
100105.425649869
100105.425649873
100105.425649875
100105.425649875
100105.425649873
100105.423369542
100105.423369545
100105.423369546
100105.423369545
100105.423369542
100105.423369538
100105.423369533
100105.423369527
100105.42336952
100105.423369514
100105.423369508
100105.423369502
100105.423369497
100105.423369493
100105.423369489
100105.423369486
100105.423369483
100105.42336948
100105.423369478
100105.423369476
100105.423369475
100105.423369474
100105.423369473
100105.423369472
100105.423369471
100105.423369471
100105.423369471
100105.423369471
100105.423369472
100105.423369472
100105.423369473
100105.423369474
100105.423369476
100105.423369478
100105.42336948
100105.423369483
100105.423369487
100105.423369491
100105.423369496
100105.423369501
100105.423369507
100105.423369513
100105.423369519
100105.423369525
100105.42336953
100105.423369534
100105.423369537
100105.423369538
100105.423369537
100105.423369534
100105.421089204
100105.421089207
100105.421089209
100105.42108921
100105.421089208
100105.421089205
100105.421089201
100105.421089196
100105.421089191
100105.421089186
100105.42108918
100105.421089176
100105.421089171
100105.421089167
100105.421089164
100105.42108916
100105.421089158
100105.421089155
100105.421089153
100105.421089152
100105.42108915
100105.421089149
100105.421089148
100105.421089147
100105.421089147
100105.421089147
100105.421089147
100105.421089147
100105.421089147
100105.421089148
100105.421089148
100105.42108915
100105.421089151
100105.421089153
100105.421089155
100105.421089158
100105.421089161
100105.421089165
100105.421089169
100105.421089173
100105.421089178
100105.421089183
100105.421089189
100105.421089193
100105.421089197
100105.4210892
100105.421089202
100105.421089201
100105.4210892
100105.421089196
100105.418808866
100105.41880887
100105.418808873
100105.418808875
100105.418808875
100105.418808873
100105.41880887
100105.418808866
100105.418808862
100105.418808857
100105.418808853
100105.418808849
100105.418808845
100105.418808841
100105.418808838
100105.418808835
100105.418808833
100105.41880883
100105.418808829
100105.418808827
100105.418808826
100105.418808825
100105.418808824
100105.418808823
100105.418808822
100105.418808822
100105.418808822
100105.418808822
100105.418808822
100105.418808823
100105.418808824
100105.418808825
100105.418808826
100105.418808828
100105.41880883
100105.418808832
100105.418808835
100105.418808838
100105.418808842
100105.418808846
100105.41880885
100105.418808854
100105.418808858
100105.418808862
100105.418808865
100105.418808867
100105.418808867
100105.418808865
100105.418808863
100105.418808858
100105.416528528
100105.416528534
100105.416528537
100105.416528541
100105.416528541
100105.416528541
100105.416528539
100105.416528536
100105.416528533
100105.416528529
100105.416528525
100105.416528522
100105.416528518
100105.416528515
100105.416528512
100105.41652851
100105.416528508
100105.416528506
100105.416528504
100105.416528502
100105.416528501
100105.4165285
100105.416528499
100105.416528498
100105.416528498
100105.416528498
100105.416528497
100105.416528498
100105.416528498
100105.416528498
100105.416528499
100105.4165285
100105.416528501
100105.416528503
100105.416528505
100105.416528507
100105.416528509