/*--------------------------------*- C++ -*----------------------------------*\
  =========                 |
  \\      /  F ield         | OpenFOAM: The Open Source CFD Toolbox
   \\    /   O peration     | Website:  https://openfoam.org
    \\  /    A nd           | Version:  10
     \\/     M anipulation  |
\*---------------------------------------------------------------------------*/
FoamFile
{
    format      ascii;
    class       volScalarField;
    location    "9.6";
    object      p_rgh;
}
// * * * * * * * * * * * * * * * * * * * * * * * * * * * * * * * * * * * * * //

dimensions      [1 -1 -2 0 0 0 0];

internalField   nonuniform List<scalar> 
2500
(
105.607543240723
105.607544152605
105.607547679101
105.607550856628
105.607553174268
105.607554750546
105.607555781229
105.607556444666
105.607556863994
105.607557125171
105.607557286014
105.607557384123
105.607557443858
105.607557480689
105.607557503827
105.607557518801
105.607557528638
105.607557535433
105.60755754025
105.607557543641
105.607557546027
105.607557547643
105.607557548676
105.607557549185
105.607557549243
105.607557548909
105.607557548123
105.6075575469
105.607557545183
105.607557542855
105.607557539755
105.607557535594
105.607557530064
105.607557522453
105.607557511641
105.60755749575
105.607557471492
105.607557433395
105.607557371914
105.607557272102
105.607557109761
105.607556847186
105.607556427669
105.607555765484
105.607554736154
105.607553160153
105.607550834276
105.607547635751
105.607544093538
105.607543228005
105.607788018388
105.607793485819
105.607802445564
105.607810105415
105.607815642434
105.607819387427
105.607821832396
105.607823397251
105.607824377978
105.607824979714
105.607825340805
105.60782555303
105.607825675674
105.607825746003
105.60782578637
105.607825809915
105.607825823943
105.607825832703
105.607825838379
105.607825842177
105.607825844723
105.607825846426
105.607825847488
105.607825848027
105.607825848114
105.607825847765
105.607825846993
105.607825845756
105.60782584401
105.60782584158
105.607825838277
105.607825833707
105.607825827188
105.607825817468
105.607825802232
105.607825777304
105.607825735162
105.607825662635
105.607825537212
105.607825322106
105.607824958541
105.607824355509
105.607823376296
105.607821816535
105.607819378522
105.607815635638
105.607810079484
105.607802368075
105.607793368894
105.607788130408
105.608055462042
105.608066533605
105.608079935089
105.608090864465
105.608098641562
105.608103852603
105.608107232722
105.608109383567
105.608110724526
105.608111542722
105.608112030211
105.608112314076
105.608112476053
105.608112567206
105.60811261824
105.608112647024
105.608112663584
105.608112673479
105.608112679663
105.608112683665
105.608112686314
105.608112688045
105.608112689122
105.608112689675
105.608112689748
105.608112689399
105.608112688627
105.608112687405
105.60811268563
105.60811268317
105.608112679794
105.608112674992
105.608112667935
105.608112656992
105.608112639122
105.608112608752
105.608112555652
105.608112461894
105.608112296715
105.608112009446
105.608111519017
105.608110699526
105.60810936059
105.60810721603
105.608103843711
105.608098630735
105.608090816997
105.608079796017
105.608066300367
105.608055495439
105.608318954968
105.60833436079
105.608349987378
105.608362170809
105.608370625021
105.608376176504
105.608379713682
105.608381928585
105.608383290193
105.608384110863
105.608384594569
105.608384873602
105.608385031504
105.608385119747
105.608385168889
105.608385196494
105.60838521237
105.608385221858
105.608385227781
105.608385231651
105.608385234213
105.608385235901
105.608385236963
105.608385237472
105.608385237545
105.608385237196
105.608385236439
105.608385235217
105.6083852335
105.608385231084
105.608385227795
105.608385223168
105.608385216357
105.608385205895
105.608385188825
105.608385159765
105.608385108761
105.608385018146
105.608384857333
105.608384575098
105.608384088395
105.60838326595
105.608381905186
105.608379694284
105.608376160701
105.608370598246
105.608362087645
105.608349772185
105.60833397838
105.608318725339
105.608556625521
105.608574027545
105.608589749434
105.608601497806
105.608609434334
105.608614532335
105.608617718259
105.608619680002
105.6086208692
105.608621577965
105.608621992142
105.608622229629
105.608622363667
105.608622438594
105.608622480533
105.608622504325
105.608622518223
105.608622526677
105.608622532047
105.608622535627
105.608622537999
105.608622539614
105.608622540603
105.608622541098
105.608622541156
105.608622540807
105.60862254005
105.608622538872
105.608622537198
105.608622534914
105.608622531785
105.608622527463
105.608622521278
105.608622511907
105.608622497006
105.608622471977
105.608622428554
105.608622351734
105.608622215397
105.608621975276
105.608621558509
105.608620847837
105.608619658291
105.608617697842
105.608614510696
105.608609393603
105.608601386208
105.608589475421
105.608573514182
105.608556086576
105.608754860732
105.608771875166
105.608786003126
105.608796148721
105.608802816831
105.608807002645
105.608809566547
105.608811118756
105.608812047096
105.608812594961
105.60881291308
105.608813095081
105.608813198007
105.608813255982
105.608813288884
105.608813307961
105.608813319413
105.608813326588
105.608813331302
105.608813334489
105.608813336687
105.608813338156
105.608813339088
105.608813339539
105.608813339582
105.608813339233
105.608813338506
105.608813337356
105.608813335755
105.608813333602
105.608813330691
105.608813326762
105.608813321291
105.608813313287
105.608813300947
105.608813280895
105.608813246814
105.608813187442
105.608813082858
105.608812898936
105.608812578808
105.608812029226
105.608811099926
105.60880954715
105.608806978868
105.608802769901
105.608796026063
105.608785705743
105.608771290514
105.608754082394
105.608908879542
105.608923751162
105.608935308119
105.608943300336
105.608948408801
105.608951539631
105.608953417788
105.608954535361
105.608955194999
105.60895558093
105.608955804142
105.608955931981
105.608956004828
105.608956046475
105.60895607069
105.608956085183
105.608956094235
105.608956100143
105.608956104174
105.608956106982
105.608956108947
105.608956110285
105.608956111115
105.608956111522
105.608956111537
105.608956111202
105.608956110489
105.608956109398
105.608956107899
105.608956105876
105.608956103228
105.608956099706
105.608956094962
105.608956088297
105.60895607846
105.608956063123
105.608956038006
105.608955995311
105.6089559213
105.608955792093
105.60895556747
105.608955180185
105.608954519514
105.608953400631
105.608951517177
105.608948363762
105.608943184416
105.608935024953
105.608923169042
105.608907991802
105.609020989708
105.609032834618
105.609041546326
105.609047354403
105.609050962114
105.609053117296
105.609054381523
105.609055119989
105.609055549925
105.609055799461
105.609055943496
105.609056026413
105.609056074318
105.609056102388
105.609056119283
105.609056129848
105.609056136775
105.609056141519
105.609056144865
105.609056147296
105.609056149013
105.609056150206
105.609056150919
105.609056151283
105.609056151283
105.609056150934
105.60905615025
105.609056149246
105.609056147834
105.609056145957
105.60905614357
105.609056140471
105.609056136411
105.609056130954
105.6090561233
105.609056112007
105.60905609437
105.609056065514
105.609056016736
105.609055932873
105.609055787849
105.609055537352
105.609055106557
105.609054366883
105.609053098029
105.60905092406
105.609047257225
105.609041304662
105.609032316541
105.609020123797
105.609097809152
105.609106515345
105.609112618753
105.609116540523
105.609118903507
105.609120274836
105.609121058602
105.609121506408
105.609121762856
105.609121910355
105.609121995411
105.609122044829
105.609122074005
105.609122091701
105.609122102891
105.609122110312
105.609122115449
105.609122119175
105.609122121896
105.609122123933
105.609122125403
105.609122126421
105.609122127047
105.609122127324
105.609122127295
105.60912212696
105.609122126334
105.609122125374
105.609122124079
105.609122122376
105.609122120251
105.609122117545
105.60912211414
105.609122109759
105.609122103924
105.609122095848
105.609122083988
105.609122065609
105.609122035748
105.609121985617
105.609121899848
105.609121751695
105.60912149465
105.609121046044
105.609120259061
105.609118874083
105.609116466498
105.609112430917
105.60910609641
105.609097058856
105.609147564537
105.609153523241
105.609157521787
105.609159991916
105.609161429631
105.609162234265
105.60916267852
105.60916292436
105.609163061628
105.609163139321
105.609163183966
105.609163210233
105.609163226254
105.609163236484
105.609163243411
105.609163248359
105.609163252026
105.609163254834
105.609163257002
105.609163258632
105.609163259855
105.609163260699
105.609163261208
105.609163261426
105.609163261368
105.609163261033
105.609163260437
105.609163259549
105.609163258385
105.609163256871
105.609163255009
105.60916325271
105.609163249886
105.609163246438
105.609163242116
105.609163236528
105.60916322899
105.60916321812
105.609163201516
105.609163174653
105.60916312944
105.609163051267
105.609162913664
105.609162667446
105.609162221386
105.609161407963
105.609159939617
105.609157386978
105.609153211481
105.609146973977
105.60917813488
105.609181957698
105.609184417146
105.60918586886
105.609186677524
105.609187106762
105.609187330672
105.609187447262
105.609187508759
105.609187542024
105.609187560694
105.609187571798
105.609187578957
105.609187583963
105.609187587746
105.609187590759
105.609187593203
105.609187595226
105.609187596827
105.609187598093
105.609187599053
105.609187599723
105.609187600116
105.609187600261
105.609187600159
105.609187599839
105.609187599286
105.609187598486
105.609187597423
105.609187596114
105.609187594528
105.609187592607
105.609187590351
105.609187587717
105.609187584618
105.609187581009
105.609187576614
105.609187571041
105.609187563328
105.609187551701
105.609187532536
105.609187498878
105.609187437178
105.609187320515
105.609187095863
105.609186661677
105.609185833731
105.609184326648
105.609181741864
105.609177706239
105.60919600683
105.609198317077
105.609199739774
105.609200531529
105.609200944717
105.609201143889
105.609201235347
105.609201275074
105.609201291605
105.609201298241
105.609201301049
105.609201302577
105.609201303872
105.609201305226
105.609201306666
105.609201308136
105.609201309562
105.609201310843
105.609201311934
105.609201312836
105.609201313535
105.609201314015
105.609201314292
105.609201314364
105.609201314233
105.609201313913
105.609201313389
105.609201312676
105.60920131176
105.609201310654
105.609201309329
105.609201307787
105.609201306055
105.609201304149
105.609201302141
105.60920130006
105.609201298023
105.609201296131
105.609201294297
105.60920129226
105.609201289044
105.609201282059
105.609201265383
105.609201225729
105.609201134197
105.609200932668
105.609200508392
105.609199682105
105.609198176622
105.609195716635
105.609205972709
105.609207292233
105.609208064925
105.609208458758
105.609208640846
105.60920870924
105.609208726892
105.60920872417
105.609208715701
105.609208707232
105.609208700669
105.609208696274
105.609208693684
105.609208692447
105.609208692127
105.609208692331
105.609208692855
105.609208693466
105.609208694106
105.609208694645
105.609208695067
105.609208695358
105.609208695503
105.609208695503
105.609208695343
105.609208695023
105.609208694543
105.609208693917
105.609208693146
105.609208692214
105.609208691167
105.609208690003
105.609208688766
105.609208687543
105.609208686423
105.609208685622
105.60920868539
105.609208686088
105.609208688169
105.609208692098
105.609208698253
105.609208706432
105.60920871477
105.609208717637
105.609208700247
105.609208631024
105.609208443158
105.609208029273
105.609207205314
105.609205787536
105.609211282033
105.609211995499
105.609212386407
105.60921255649
105.609212613272
105.609212613213
105.609212593117
105.609212568859
105.609212547497
105.609212530908
105.609212519004
105.609212510928
105.609212505762
105.609212502648
105.609212500931
105.609212500087
105.60921249981
105.609212499839
105.6092125
105.609212500218
105.609212500392
105.609212500494
105.609212500509
105.609212500422
105.609212500232
105.609212499912
105.60921249949
105.609212498952
105.609212498312
105.609212497584
105.609212496784
105.609212495954
105.609212495197
105.609212494586
105.609212494266
105.609212494543
105.609212495721
105.609212498312
105.609212502997
105.609212510622
105.609212522162
105.609212538475
105.609212559721
105.609212584124
105.60921260457
105.609212604628
105.609212545212
105.609212364318
105.609211943476
105.60921116946
105.609213985212
105.609214350057
105.609214530297
105.60921458347
105.609214577999
105.609214545795
105.609214508702
105.60921447484
105.609214447541
105.609214426921
105.609214412048
105.609214401717
105.609214394761
105.60921439025
105.609214387412
105.609214385709
105.609214384735
105.609214384211
105.609214383963
105.609214383832
105.609214383774
105.609214383701
105.609214383585
105.609214383425
105.609214383177
105.609214382872
105.609214382494
105.609214382042
105.609214381533
105.609214380995
105.609214380456
105.609214379976
105.609214379627
105.609214379583
105.609214379991
105.60921438114
105.609214383454
105.60921438747
105.609214393946
105.60921440387
105.609214418379
105.609214438766
105.609214465949
105.609214499942
105.609214537384
105.609214569922
105.609214574448
105.609214515891
105.609214319149
105.609213919
105.609215297503
105.609215473029
105.609215544144
105.609215541524
105.609215508841
105.609215464254
105.609215421311
105.609215384306
105.609215354911
105.60921533253
105.609215316115
105.609215304416
105.609215296252
105.609215290664
105.609215286939
105.609215284479
105.609215282908
105.609215281889
105.609215281234
105.609215280812
105.609215280521
105.609215280274
105.609215280041
105.609215279794
105.609215279517
105.609215279212
105.609215278877
105.609215278499
105.60921527812
105.609215277771
105.609215277465
105.609215277305
105.609215277378
105.609215277829
105.609215278848
105.609215280769
105.609215283985
105.609215289092
105.609215296805
105.609215308126
105.609215324192
105.60921534634
105.609215375647
105.609215412755
105.609215456003
105.609215501012
105.609215533565
105.609215533797
105.609215454053
105.609215258955
105.609215900171
105.609215978475
105.609215996956
105.609215971126
105.609215929377
105.609215882403
105.609215839242
105.609215802397
105.6092157729
105.609215750097
105.609215733028
105.609215720498
105.609215711491
105.609215705132
105.609215700693
105.609215697594
105.609215695498
105.609215694058
105.609215693054
105.609215692355
105.609215691831
105.609215691424
105.609215691074
105.609215690754
105.609215690449
105.609215690143
105.609215689852
105.609215689561
105.609215689299
105.60921568911
105.609215689037
105.609215689168
105.60921568959
105.609215690478
105.609215692049
105.609215694611
105.609215698554
105.609215704462
105.609215713048
105.609215725184
105.609215741963
105.609215764533
105.609215793942
105.609215830846
105.609215874254
105.609215921635
105.609215963617
105.609215988545
105.609215965771
105.609215877106
105.60921615627
105.609216187411
105.609216182856
105.609216149984
105.609216107812
105.609216063065
105.609216022276
105.609215987206
105.60921595867
105.609215936202
105.609215919001
105.609215906064
105.609215896518
105.609215889563
105.609215884571
105.609215880977
105.609215878416
105.609215876582
105.609215875273
105.609215874312
105.609215873585
105.609215873032
105.609215872581
105.609215872188
105.609215871853
105.609215871547
105.609215871285
105.609215871067
105.609215870936
105.609215870907
105.609215871038
105.609215871431
105.609215872173
105.609215873454
105.609215875491
105.609215878576
105.609215883087
105.609215889592
105.60921589873
105.609215911303
105.609215928213
105.609215950491
105.609215978926
105.609216014054
105.609216055032
105.609216100129
105.60921614262
105.609216175275
105.609216177807
105.609216141384
105.609216250406
105.609216260142
105.609216247045
105.609216214492
105.609216175551
105.609216134879
105.609216097509
105.609216064884
105.609216037876
105.60921601615
105.609215999168
105.609215986115
105.609215976277
105.609215968929
105.609215963486
105.609215959485
105.60921595656
105.609215954406
105.60921595282
105.609215951627
105.609215950724
105.60921595004
105.609215949473
105.609215949036
105.609215948672
105.609215948367
105.609215948134
105.609215947989
105.609215947959
105.609215948061
105.609215948381
105.609215949007
105.60921595004
105.609215951656
105.609215954071
105.609215957578
105.60921596254
105.609215969453
105.609215978897
105.609215991601
105.609216008306
105.609216029843
105.609216056764
105.609216089404
105.609216126933
105.609216167883
105.609216207129
105.609216239754
105.609216251934
105.609216239565
105.609216272438
105.609216273282
105.609216258294
105.609216228913
105.60921619444
105.609216158336
105.609216124634
105.60921609473
105.609216069482
105.609216048775
105.609216032273
105.609216019322
105.609216009369
105.609216001772
105.609215996024
105.609215991717
105.609215988487
105.609215986056
105.609215984237
105.609215982855
105.609215981807
105.609215980978
105.609215980337
105.609215979828
105.609215979435
105.609215979144
105.609215978955
105.609215978853
105.609215978911
105.609215979159
105.609215979639
105.609215980454
105.609215981734
105.609215983626
105.609215986347
105.609215990175
105.609215995457
105.609216002631
105.609216012206
105.609216024823
105.609216041063
105.609216061581
105.609216086727
105.609216116645
105.609216150449
105.609216186771
105.609216221521
105.609216251032
105.609216265628
105.609216263489
105.60921626426
105.609216261946
105.609216247802
105.609216222409
105.609216192504
105.609216160839
105.609216130775
105.609216103578
105.609216080207
105.609216060679
105.609216044802
105.609216032142
105.609216022218
105.609216014505
105.609216008583
105.609216004043
105.609216000579
105.609215997945
105.609215995923
105.60921599438
105.609215993187
105.609215992255
105.609215991542
105.609215990975
105.609215990553
105.609215990262
105.609215990102
105.609215990073
105.609215990204
105.609215990553
105.609215991179
105.609215992168
105.609215993652
105.609215995762
105.609215998717
105.609216002777
105.609216008263
105.609216015568
105.609216025114
105.609216037454
105.609216053068
105.609216072407
105.609216095676
105.609216122859
105.609216152996
105.60921618485
105.609216214929
105.609216240468
105.609216254437
105.609216256096
105.609216244542
105.609216241544
105.60921622919
105.609216207711
105.609216182027
105.609216154466
105.609216127792
105.609216103257
105.60921608175
105.609216063487
105.609216048397
105.609216036144
105.60921602638
105.609216018667
105.609216012628
105.609216007942
105.609216004319
105.609216001511
105.609215999342
105.609215997654
105.609215996345
105.609215995326
105.60921599454
105.609215993929
105.609215993492
105.609215993201
105.609215993056
105.60921599307
105.609215993289
105.60921599374
105.609215994482
105.609215995617
105.609215997247
105.609215999546
105.609216002675
105.609216006895
105.609216012483
105.609216019788
105.609216029188
105.609216041121
105.609216055964
105.609216074037
105.609216095429
105.609216119934
105.609216146666
105.609216174358
105.609216200173
105.609216221768
105.609216234036
105.609216236699
105.609216221259
105.609216218538
105.609216208148
105.609216190162
105.609216168261
105.609216144367
105.609216120822
105.609216098776
105.609216079145
105.609216062177
105.609216047946
105.609216036202
105.6092160267
105.609216019089
105.60921601305
105.609216008292
105.609216004552
105.609216001627
105.609215999342
105.609215997538
105.609215996141
105.609215995049
105.609215994191
105.609215993565
105.609215993099
105.609215992808
105.609215992677
105.609215992736
105.609215993012
105.609215993536
105.60921599438
105.609215995632
105.609215997392
105.609215999808
105.609216003053
105.609216007346
105.609216012948
105.609216020166
105.609216029319
105.609216040728
105.609216054727
105.609216071491
105.609216091019
105.609216113007
105.609216136581
105.609216160563
105.609216182551
105.609216200624
105.609216210956
105.609216213488
105.609216197568
105.609216195429
105.609216186873
105.609216171943
105.609216153345
105.609216132725
105.609216112032
105.609216092329
105.609216074488
105.60921605886
105.609216045515
105.609216034383
105.609216025216
105.609216017794
105.609216011813
105.60921600704
105.609216003257
105.609216000244
105.609215997873
105.609215995995
105.609215994526
105.609215993361
105.609215992474
105.609215991804
105.609215991324
105.609215991033
105.609215990931
105.609215991019
105.609215991339
105.609215991935
105.609215992852
105.609215994176
105.609215996039
105.609215998527
105.609216001831
105.609216006138
105.609216011682
105.609216018725
105.609216027529
105.609216038371
105.609216051453
105.609216066907
105.609216084602
105.609216104247
105.60921612494
105.609216145618
105.609216164288
105.609216179262
105.60921618779
105.609216189812
105.609216174576
105.609216173107
105.60921616618
105.609216153869
105.609216138153
105.609216120443
105.609216102326
105.60921608482
105.609216068711
105.609216054378
105.609216041994
105.609216031487
105.609216022756
105.609216015568
105.609216009718
105.609216004988
105.609216001205
105.609215998164
105.609215995733
105.609215993798
105.60921599227
105.609215991077
105.609215990145
105.609215989447
105.609215988952
105.609215988661
105.609215988574
105.60921598869
105.609215989054
105.60921598968
105.609215990655
105.609215992052
105.609215993958
105.60921599649
105.609215999808
105.609216004072
105.6092160095
105.609216016295
105.609216024692
105.609216034878
105.609216047014
105.609216061159
105.609216077137
105.60921609457
105.609216112673
105.609216130411
105.609216146157
105.609216158497
105.609216165394
105.609216166806
105.609216152603
105.609216151759
105.609216146258
105.609216136247
105.609216123048
105.609216107929
105.609216092154
105.609216076671
105.609216062221
105.609216049168
105.609216037745
105.609216027922
105.609216019657
105.609216012774
105.609216007098
105.609216002471
105.609215998717
105.609215995675
105.60921599323
105.609215991266
105.609215989694
105.609215988472
105.609215987512
105.609215986799
105.609215986289
105.609215986013
105.609215985925
105.609215986056
105.609215986449
105.609215987119
105.609215988137
105.609215989549
105.609215991484
105.609215994016
105.609215997305
105.609216001481
105.60921600672
105.609216013225
105.609216021156
105.609216030658
105.609216041848
105.609216054698
105.609216069017
105.609216084413
105.609216100143
105.609216115277
105.609216128505
105.609216138531
105.609216144003
105.609216144818
105.609216131634
105.609216131401
105.609216127166
105.609216119134
105.609216108176
105.609216095341
105.609216081692
105.6092160681
105.609216055193
105.609216043405
105.609216032928
105.609216023819
105.609216016048
105.609216009514
105.609216004072
105.609215999575
105.609215995893
105.609215992881
105.609215990436
105.609215988472
105.609215986886
105.609215985634
105.609215984659
105.609215983932
105.609215983422
105.609215983131
105.609215983059
105.609215983204
105.609215983612
105.60921598431
105.609215985343
105.609215986769
105.60921598869
105.609215991208
105.609215994409
105.609215998455
105.60921600349
105.609216009645
105.609216017067
105.60921602587
105.609216036086
105.609216047684
105.609216060431
105.60921607395
105.609216087541
105.609216100376
105.609216111348
105.609216119381
105.609216123601
105.609216123834
105.609216111567
105.609216111901
105.609216108816
105.60921610253
105.609216093537
105.609216082783
105.609216071069
105.609216059209
105.609216047786
105.609216037192
105.60921602766
105.609216019278
105.609216012046
105.609216005891
105.609216000696
105.609215996374
105.609215992794
105.609215989854
105.609215987439
105.609215985474
105.609215983888
105.609215982637
105.609215981662
105.60921598092
105.60921598041
105.609215980119
105.609215980046
105.609215980206
105.609215980614
105.609215981312
105.609215982346
105.609215983772
105.609215985663
105.609215988108
105.609215991222
105.609215995093
105.609215999866
105.609216005643
105.609216012541
105.609216020617
105.609216029901
105.609216040291
105.609216051555
105.609216063312
105.609216074969
105.609216085708
105.609216094701
105.609216101002
105.609216104087
105.609216103767
105.609216092242
105.609216093158
105.609216091107
105.609216086421
105.609216079189
105.609216070297
105.609216060358
105.609216050114
105.609216040073
105.609216030643
105.609216022029
105.609216014374
105.609216007695
105.609216001933
105.609215997043
105.609215992925
105.609215989476
105.609215986609
105.609215984252
105.609215982317
105.609215980745
105.609215979493
105.609215978504
105.609215977762
105.609215977252
105.609215976961
105.609215976889
105.609215977049
105.609215977471
105.609215978155
105.609215979188
105.609215980585
105.609215982418
105.60921598479
105.609215987759
105.609215991441
105.609215995908
105.609216001292
105.609216007637
105.609216015
105.609216023338
105.609216032564
105.609216042445
105.609216052588
105.609216062468
105.609216071345
105.609216078563
105.609216083263
105.60921608533
105.609216084456
105.609216073572
105.609216075085
105.609216073994
105.609216070749
105.609216065146
105.609216057943
105.609216049619
105.609216040859
105.609216032128
105.609216023804
105.609216016092
105.60921600915
105.609216003024
105.609215997683
105.609215993114
105.609215989214
105.609215985925
105.609215983175
105.609215980876
105.609215978984
105.609215977442
105.609215976205
105.60921597523
105.609215974488
105.609215973978
105.609215973687
105.609215973614
105.609215973775
105.609215974167
105.609215974851
105.609215975841
105.609215977194
105.60921597897
105.609215981225
105.609215984048
105.609215987497
105.609215991673
105.609215996621
105.609216002413
105.609216009048
105.609216016499
105.609216024619
105.60921603319
105.609216041834
105.609216050085
105.609216057259
105.609216062876
105.609216066121
105.609216067242
105.609216065801
105.609216055396
105.609216057535
105.609216057361
105.609216055484
105.609216051351
105.609216045705
105.609216038865
105.609216031502
105.609216023993
105.609216016703
105.609216009878
105.60921600365
105.609215998076
105.609215993172
105.609215988909
105.609215985256
105.609215982142
105.609215979508
105.609215977311
105.609215975477
105.609215973978
105.609215972756
105.609215971795
105.609215971053
105.609215970559
105.609215970253
105.60921597018
105.609215970326
105.609215970719
105.609215971373
105.609215972334
105.609215973629
105.609215975317
105.609215977442
105.60921598009
105.609215983306
105.609215987148
105.609215991659
105.609215996898
105.60921600282
105.609216009398
105.609216016455
105.609216023804
105.609216031051
105.609216037818
105.609216043435
105.609216047582
105.609216049488
105.609216049692
105.60921604764
105.609216037657
105.609216040466
105.609216041223
105.609216040626
105.609216037861
105.609216033656
105.609216028184
105.609216022087
105.609216015728
105.609216009441
105.609216003446
105.609215997902
105.609215992896
105.609215988428
105.609215984514
105.609215981109
105.609215978184
105.609215975695
105.609215973585
105.609215971825
105.609215970369
105.609215969176
105.60921596823
105.609215967517
105.609215967008
105.609215966717
105.609215966644
105.609215966761
105.609215967139
105.60921596775
105.609215968667
105.609215969889
105.609215971475
105.609215973469
105.609215975928
105.609215978882
105.609215982389
105.609215986464
105.60921599115
105.609215996374
105.609216002107
105.609216008175
105.609216014374
105.609216020341
105.609216025725
105.609216029916
105.609216032695
105.609216033321
105.609216032637
105.60921602993
105.609216020224
105.609216023819
105.609216025463
105.609216026132
105.609216024633
105.609216021767
105.609216017561
105.609216012657
105.60921600736
105.60921600202
105.609215996825
105.609215991964
105.609215987497
105.609215983466
105.609215979886
105.609215976758
105.609215974036
105.609215971694
105.6092159697
105.609215968012
105.609215966615
105.609215965451
105.609215964534
105.609215963836
105.609215963326
105.609215963035
105.609215962948
105.609215963064
105.609215963399
105.609215963981
105.60921596484
105.609215965989
105.609215967459
105.609215969307
105.609215971548
105.60921597424
105.609215977398
105.609215981051
105.609215985169
105.609215989738
105.609215994657
105.609215999779
105.609216004901
105.609216009674
105.609216013807
105.609216016659
105.609216018172
105.609216017561
105.60921601599
105.609216012541
105.609216003038
105.609216007506
105.609216010096
105.609216012002
105.609216011711
105.609216010067
105.60921600704
105.609216003242
105.609215998935
105.609215994482
105.609215990058
105.609215985838
105.609215981895
105.609215978315
105.609215975084
105.609215972217
105.6092159697
105.609215967517
105.60921596564
105.609215964054
105.609215962701
105.609215961595
105.609215960707
105.609215960008
105.609215959528
105.609215959223
105.609215959121
105.609215959223
105.609215959543
105.609215960067
105.609215960852
105.609215961915
105.609215963268
105.609215964956
105.609215966993
105.609215969409
105.609215972232
105.609215975433
105.609215979028
105.609215982942
105.60921598709
105.609215991324
105.609215995457
105.609215999124
105.609216002078
105.609216003693
105.609216004013
105.60921600218
105.609215999692
105.609215995399
105.609215986042
105.609215991528
105.609215995093
105.609215998207
105.609215999066
105.609215998586
105.609215996636
105.609215993856
105.60921599048
105.609215986857
105.609215983161
105.609215979566
105.609215976147
105.609215972974
105.609215970093
105.609215967503
105.609215965203
105.609215963195
105.609215961435
105.609215959936
105.609215958655
105.609215957593
105.609215956734
105.609215956065
105.609215955585
105.609215955279
105.609215955163
105.60921595525
105.609215955526
105.609215956007
105.60921595672
105.609215957695
105.609215958917
105.60921596043
105.609215962264