/*--------------------------------*- C++ -*----------------------------------*\
  =========                 |
  \\      /  F ield         | OpenFOAM: The Open Source CFD Toolbox
   \\    /   O peration     | Website:  https://openfoam.org
    \\  /    A nd           | Version:  10
     \\/     M anipulation  |
\*---------------------------------------------------------------------------*/
FoamFile
{
    format      ascii;
    class       surfaceScalarField;
    location    "9.6";
    object      phi;
}
// * * * * * * * * * * * * * * * * * * * * * * * * * * * * * * * * * * * * * //

dimensions      [1 0 -1 0 0 0 0];

internalField   nonuniform List<scalar> 
4900
(
-4.77224567951554e-12
4.78612800604295e-12
-7.68597085794102e-12
2.93546942143336e-12
-7.93660331368673e-12
2.73826296717713e-13
-6.6384892785914e-12
-1.27557107862091e-12
-4.99313602966062e-12
-1.6232504044711e-12
-3.56167327695848e-12
-1.40947365741053e-12
-2.48201372906069e-12
-1.05769550299443e-12
-1.71556962760392e-12
-7.44550829486939e-13
-1.18590571279058e-12
-5.0792563938641e-13
-8.23383187690849e-13
-3.41020335835345e-13
-5.75548227086162e-13
-2.26628495265604e-13
-4.05185021835014e-13
-1.49490711544741e-13
-2.8678782449891e-13
-9.78752632886675e-14
-2.03162443962018e-13
-6.34564902513657e-14
-1.42888207617525e-13
-4.04482484213445e-14
-9.84461842775428e-14
-2.49428843991125e-14
-6.48989529979391e-14
-1.43526258958396e-14
-3.89803565978114e-14
-7.00618149544525e-15
-1.84898846334916e-14
-1.83505935269641e-15
-1.93558815767871e-15
1.86775391104624e-15
1.17460507225572e-14
4.53132486821751e-15
2.33380261498496e-14
6.4343563441135e-15
3.34410033295984e-14
7.75944735735751e-15
4.25371210752023e-14
8.62277977202354e-15
5.10618376888202e-14
9.07085331608323e-15
5.94019445794767e-14
9.15021507959539e-15
6.79542094300712e-14
8.85049209773741e-15
7.7141320750545e-14
8.14418571222884e-15
8.74544766672112e-14
6.9621123256206e-15
9.94868097242822e-14
5.20152309635054e-15
1.140242811887e-13
2.66907422121945e-15
1.32115485020329e-13
-8.97206908729733e-16
1.55263259954078e-13
-5.95208158102187e-15
1.85661598131339e-13
-1.31855784179391e-14
2.26583341470602e-13
-2.36763302841643e-14
2.82990951313463e-13
-3.91146021662633e-14
3.62407981440884e-13
-6.20630566223801e-14
4.76243815337562e-13
-9.64101759880136e-14
6.41646940955595e-13
-1.4790127453891e-13
8.84115444610513e-13
-2.24892927436745e-13
1.24089701198321e-12
-3.39143894198319e-13
1.76471879675011e-12
-5.06140829360028e-13
2.52630576436534e-12
-7.43882231983779e-13
3.60481124277996e-12
-1.06077531960463e-12
5.04382855561699e-12
-1.42119727726031e-12
6.70984608517933e-12
-1.64791793018186e-12
8.03372693924197e-12
-1.30515762882041e-12
7.77942689578891e-12
2.74090683020879e-13
4.80833105611017e-12
2.99147446507953e-12
4.82282943336968e-12
-8.1508472456259e-12
1.29567585870398e-11
-1.41883406957827e-11
9.00200967273895e-12
-1.5101233183032e-11
1.21731295689083e-12
-1.29494866275005e-11
-3.39748671993501e-12
-9.94101024305044e-12
-4.60245492918366e-12
-7.22444542465178e-12
-4.0969788501656e-12
-5.12298582292957e-12
-3.13021207914977e-12
-3.60507566211907e-12
-2.23368349289189e-12
-2.53994691221394e-12
-1.54453186185854e-12
-1.80006125091342e-12
-1.05272193643129e-12
-1.28562381345886e-12
-7.13279492554288e-13
-9.25037847730642e-13
-4.82724247902388e-13
-6.68775855646796e-13
-3.27231387100207e-13
-4.83317866972685e-13
-2.22453300848705e-13
-3.46230465438736e-13
-1.51502621878723e-13
-2.42603739330435e-13
-1.02943013880638e-13
-1.62503204199196e-13
-6.9204485806184e-14
-9.92455184712176e-14
-4.53644550159266e-14
-4.82566143939672e-14
-2.8242369461208e-14
-6.32838847335716e-15
-1.57669620736747e-14
2.88690956316191e-14
-6.63059179888741e-15
5.90799268139141e-14
2.93354852089312e-17
8.56969244065175e-14
4.74617866096949e-15
1.09860007834614e-13
7.88705715524336e-15
1.32585015974276e-13
9.62200542313509e-15
1.54815866527864e-13
1.00670095371356e-14
1.77494412728578e-13
9.21266697947629e-15
2.01627800050189e-13
6.96520506500902e-15
2.2836111113802e-13
3.11558568411638e-15
2.59063238183998e-13
-2.6630358075041e-15
2.95484844068249e-13
-1.09459838046294e-14
3.39934171859597e-13
-2.25531242239009e-14
3.95610994724607e-13
-3.88301894771873e-14
4.67083674070776e-13
-6.1834326848176e-14
5.61051521380801e-13
-9.47764202267382e-14
6.87473897856076e-13
-1.42605853170922e-13
8.61280674956375e-13
-2.12858739386739e-13
1.10489314027909e-12
-3.16918427429758e-13
1.45181353910468e-12
-4.7161845938529e-13
1.95159954897793e-12
-7.01379339827311e-13
2.6760174134058e-12
-1.04017902648184e-12
3.72559609569691e-12
-1.53227469510267e-12
5.23015725487535e-12
-2.22495443420088e-12
7.3259405008321e-12
-3.13301077904339e-12
1.00542752644926e-11
-4.12581690343082e-12
1.31002492308643e-11
-4.66972806073149e-12
1.53009900506063e-11
-3.48081745043869e-12
1.43850557719593e-11
1.21638877078476e-12
8.24393339971016e-12
9.15873211587602e-12
1.30842140841572e-11
-7.64812830349083e-12
2.06269711339955e-11
-1.43362265793553e-11
1.57215767068714e-11
-1.57448122145106e-11
2.65869192614013e-12
-1.38704959656194e-11
-5.23984999906635e-12
-1.09181663684531e-11
-7.52351597076783e-12
-8.13536923645246e-12
-6.84887124444894e-12
-5.91666624930117e-12
-5.31826679918831e-12
-4.27409688543918e-12
-3.84588163392014e-12
-3.09411828069652e-12
-2.69447426813427e-12
-2.25460843687718e-12
-1.86258704150436e-12
-1.65573062850685e-12
-1.28294161583248e-12
-1.22430045851053e-12
-8.85387714144614e-13
-9.08813948486601e-13
-6.14402839553897e-13
-6.73877953458037e-13
-4.2951722184081e-13
-4.95398548182724e-13
-3.02533309821141e-13
-3.57025960184612e-13
-2.14267400831362e-13
-2.47607314273401e-13
-1.51946371489572e-13
-1.59434378405503e-13
-1.07203554420165e-13
-8.70918781502782e-14
-7.45630913789106e-14
-2.66602130877309e-14
-5.0459787494402e-14
2.47816115252374e-14
-3.25866222470606e-14
6.94879274948262e-14
-1.94166106043484e-14
1.0928741484307e-13
-9.99084030738973e-15
1.45720116844796e-13
-3.655938818404e-15
1.80153273861888e-13
-6.92857453625241e-17
2.13890223885259e-13
9.46353556552127e-16
2.48219431370236e-13
-6.04445508065115e-16
2.84509359276085e-13
-4.89695126466663e-15
3.24291309149685e-13
-1.23041437877401e-14
3.69374921481453e-13
-2.34314741664876e-14
4.220018249877e-13
-3.92874788418699e-14
4.85072634752493e-13
-6.13498408313361e-14
5.62481269262333e-13
-9.19578228360098e-14
6.59637796343789e-13
-1.34683895195202e-13
7.8425235666079e-13
-1.95038129447357e-13
9.4749557624492e-13
-2.81430925325679e-13
1.16573825919826e-12
-4.06600757741027e-13
1.46308718327794e-12
-5.89669484293909e-13
1.8749663575933e-12
-8.58793551538343e-13
2.45297848138046e-12
-1.25457958787019e-12
3.27062572850752e-12
-1.83291430104752e-12
4.42869506686912e-12
-2.66534566193805e-12
6.05188134741723e-12
-3.82306575948229e-12
8.25972097411787e-12
-5.31567421007892e-12
1.10508950520971e-11
-6.89159100927286e-12
1.40408419705132e-11
-7.63374184676511e-12
1.59702062900139e-11
-5.3832163277872e-12
1.45700261663175e-11
2.64477180390768e-12
7.7775812246964e-12
1.59786733372855e-11
2.08798042101568e-11
-5.33048663833668e-12
2.59815189974158e-11
-1.09090558473241e-11
2.13338713641623e-11
-1.25700338832912e-11
4.35459909171134e-12
-1.15529675097669e-11
-6.22293693787133e-12
-9.46900898041402e-12
-9.57433767549788e-12
-7.34386561875866e-12
-8.94141208310946e-12
-5.55706883563618e-12
-7.07286480096142e-12
-4.1744173792655e-12
-5.19672339114357e-12
-3.13939452014432e-12
-3.69809810832594e-12
-2.37294587915253e-12
-2.59807242230522e-12
-1.8041522555593e-12
-1.82122247922755e-12
-1.37827772461732e-12
-1.28120465644719e-12
-1.0552088499964e-12
-9.0786095032664e-13
-8.06347129467963e-13
-6.49200979064359e-13
-6.11499516093376e-13
-4.68614346813347e-13
-4.56415344651373e-13
-3.40971478642007e-13
-3.30983291002487e-13
-2.49356639477966e-13
-2.27937028400388e-13
-1.82558848374463e-13
-1.41961355501001e-13
-1.33148823234094e-13
-6.9068771080746e-14
-9.62352213069088e-14
-6.19474965251164e-15
-6.85874210254948e-14
4.91076475301082e-14
-4.80635329666234e-14
9.88489058879914e-14
-3.32672042541619e-14
1.44776076262288e-13
-2.32845872993458e-14
1.88449754242313e-13
-1.75871286325306e-14
2.31358768797436e-13
-1.59274825211261e-14
2.74986076789262e-13
-1.82968667563086e-14
3.20891236880648e-13
-2.49480192383634e-14
3.70797916715095e-13
-3.64190303072399e-14
4.26709300930015e-13
-5.3596691839748e-14
4.91040477938997e-13
-7.79001842257538e-14
5.66840191499903e-13
-1.11441832571205e-13
6.58059221015396e-13
-1.5746191742615e-13
7.69995491586545e-13
-2.20879152925711e-13
9.09910882131408e-13
-3.09167056834094e-13
1.08791605187812e-12
-4.33584862488991e-13
1.31826385880908e-12
-6.11013974787317e-13
1.62117867332646e-12
-8.66549740260898e-13
2.02532262930103e-12
-1.23679070362326e-12
2.57095464335132e-12
-1.7739456746702e-12
3.31317570159448e-12
-2.54875099049643e-12
4.32380630911834e-12
-3.64947997899793e-12
5.68411862382944e-12
-5.15677388532286e-12
7.45569606606789e-12
-7.06051256003277e-12
9.58215250376338e-12
-8.99105117298917e-12
1.16943479007446e-11
-9.71836908860601e-12
1.27613168384322e-11
-6.42153383791916e-12
1.11229839286926e-11
4.31295082079609e-12
5.46613474983231e-12
2.16643180550125e-11
2.63646304466544e-11
-2.54362812105792e-12
2.85507998906241e-11
-6.22894410444947e-12
2.50546191176168e-11
-7.93048841785674e-12
6.09246568841036e-12
-7.90820956191409e-12
-6.20995996516593e-12
-6.9692345254246e-12
-1.04790503294822e-11
-5.77541347705475e-12
-1.01016684738383e-11
-4.64265603175741e-12
-8.17259818519488e-12
-3.6838804420397e-12
-6.12296186283879e-12
-2.91016007057284e-12
-4.43975358737722e-12
-2.29823609572736e-12
-3.1783997645423e-12
-1.81681412523609e-12
-2.27150945755309e-12
-1.43731396384392e-12
-1.63002087853923e-12
-1.1362764876317e-12
-1.17864943272902e-12
-8.9540469280919e-13
-8.60240221024489e-13
-7.00727055894416e-13
-6.33851929579946e-13
-5.41654797977251e-13
-4.70972571106761e-13
-4.10170989619042e-13
-3.52111449552747e-13
-3.00168097980673e-13
-2.64148192728686e-13
-2.06947681028703e-13
-1.98242617658416e-13
-1.2682448710039e-13
-1.48492185479564e-13
-5.68623141955076e-14
-1.1091704708482e-13
5.36386095849321e-15
-8.2864319578296e-14
6.18900465621566e-14
-6.25506119749806e-14
1.14512897600001e-13
-4.88236221084394e-14
1.64867553229001e-13
-4.09940390803283e-14
2.14510713901831e-13
-3.87382329880493e-14
2.65003994670993e-13
-4.20529962803723e-14
3.17971744479742e-13
-5.12556153174497e-14
3.75188076304098e-13
-6.70351250191541e-14
4.38682825672825e-13
-9.05341738986013e-14
5.1083634730813e-13
-1.23522976653441e-13
5.94572176843927e-13
-1.6865671239675e-13
6.93536295879715e-13
-2.29897943870821e-13
8.12397622215194e-13
-3.1318760808206e-13
9.57239788190478e-13
-4.27412557800662e-13
1.13606008263381e-12
-5.85745380355289e-13
1.35943449523523e-12
-8.07646507389298e-13
1.64135615001719e-12
-1.12162913535443e-12
2.00017126422152e-12
-1.56864787491325e-12
2.4594722755148e-12
-2.2061612316864e-12
3.04813697966481e-12
-3.11019756220492e-12
3.79809804424832e-12
-4.37209059304782e-12
4.73408402205847e-12
-6.06527848853715e-12
5.84848401663388e-12
-8.14727841066706e-12
7.03543119645458e-12
-1.0150100550845e-11
7.98877133068377e-12
-1.06432451419483e-11
8.04854660895174e-12
-6.45177136783076e-12
6.379906681407e-12
6.01221993040353e-12
2.65508125875062e-12
2.5418454675048e-11
2.90383907492374e-11
-1.328712789507e-13
2.87106159979728e-11
-1.87918613466156e-12
2.68375486989929e-11
-3.45888871446125e-12
7.70943589269087e-12
-4.26757902654828e-12
-5.36519855257421e-12
-4.37249808137303e-12
-1.03392048804732e-11
-4.06527807764591e-12
-1.03748116488712e-11
-3.5787625409589e-12
-8.62570114255395e-12
-3.05448849533464e-12
-6.61439543210631e-12
-2.56011380414424e-12
-4.9018116259591e-12
-2.12243612856581e-12
-3.58425290850818e-12
-1.74718979294625e-12
-2.61539776471616e-12
-1.43089015351991e-12
-1.91540608014964e-12
-1.16642862481461e-12
-1.41261722636103e-12
-9.45877387290496e-13
-1.05069639228922e-12
-7.61703870901475e-13
-7.88304186719591e-13
-6.07265749004565e-13
-5.96040441625026e-13
-4.76927848695599e-13
-4.5340389761454e-13
-3.66004676603898e-13
-3.46325836661416e-13
-2.70637210271174e-13
-2.65138331525008e-13
-1.87631473323636e-13
-2.03274513679393e-13
-1.14328681680154e-13
-1.56218664460076e-13
-4.84694158093409e-14
-1.2092050326295e-13
1.19004222657281e-14
-9.52912439845544e-14
6.852920706575e-14
-7.79748645486985e-14
1.23037942773761e-13
-6.81546366979653e-14
1.76968560857224e-13
-6.5430911058476e-14
2.31868589869763e-13
-6.98054998190675e-14
2.8934114733032e-13
-8.16539582786122e-14
3.51114527610083e-13
-1.01790828914116e-13
4.1913184013282e-13
-1.31574408858647e-13
4.95611654952425e-13
-1.73051131251017e-13
5.83192403107277e-13
-2.29295148518388e-13
6.85021254940983e-13
-3.04778322784894e-13
8.04927418255067e-13
-4.0612147805366e-13
9.47555597525827e-13
-5.43026810707266e-13
1.11849716513267e-12
-7.29612698495675e-13
1.32436348670176e-12
-9.86358125485411e-13
1.57266950876766e-12
-1.34268053088675e-12
1.87136420724437e-12
-1.83996971780717e-12
2.22761226481082e-12
-2.53490221132147e-12
2.64502948854131e-12
-3.49996277456526e-12
3.11814036844125e-12
-4.81740047026933e-12
3.62075159528475e-12
-6.53994063984881e-12
4.08694469800195e-12
-8.5853578190138e-12
4.37965300246871e-12
-1.04144354820329e-11
4.27449089723528e-12
-1.05091656372559e-11
3.48745201232382e-12
-5.63477925952746e-12
1.94427081233541e-12
7.58636123228693e-12
1.99002110357221e-13
2.71931048927846e-11
2.92559412589615e-11
1.52583111003328e-12
2.7212149217268e-11
1.33746822874489e-12
2.70623654152656e-11
-1.36189278830503e-14
9.09715409664054e-12
-1.3487570058043e-12
-3.99472158937971e-12
-2.20245592397492e-12
-9.45141106302974e-12
-2.56853029985363e-12
-9.97560337371222e-12
-2.59625399054599e-12
-8.56559611029323e-12
-2.43304710745983e-12
-6.74585079864901e-12
-2.18135158881386e-12
-5.12230793192184e-12
-1.90258628836933e-12
-3.83231894500627e-12
-1.62981863686836e-12
-2.85792547044779e-12
-1.37892252397895e-12
-2.13649088112657e-12
-1.15588398445406e-12
-1.60624462138266e-12
-9.6138099138091e-13
-1.21616547362315e-12
-7.93428961649419e-13
-9.27575138720431e-13
-6.48933385647097e-13
-7.12186121475866e-13
-5.24498784572557e-13
-5.49794902845445e-13
-4.16858702621555e-13
-4.26205854022642e-13
-3.23042167330173e-13
-3.31453869803594e-13
-2.40424965437241e-13
-2.58626234124971e-13
-1.66704838050074e-13
-2.02883936650729e-13
-9.98623870208698e-14
-1.60896212823777e-13
-3.8088582192841e-14
-1.30362878245386e-13
2.02535686718333e-14
-1.09758707925353e-13
7.66988855700083e-14
-9.8164875851175e-14
1.32727081158427e-13
-9.51276400859189e-14
1.89812485612225e-13
-1.00645107575881e-13
2.49480167189711e-13
-1.15145167346061e-13
3.133502749229e-13
-1.395377464164e-13
3.83205593728916e-13
-1.75345199910465e-13
4.61033333620095e-13
-2.24818107674517e-13
5.49105090363553e-13
-2.91315143707609e-13
6.50003530478994e-13
-3.7961949794357e-13
7.66656917191584e-13
-4.96695831919333e-13
9.02277759869723e-13
-6.52529837902268e-13
1.06019822227277e-12
-8.61358253696507e-13
1.24346566921585e-12
-1.14337438766559e-12
1.45400394293907e-12
-1.52687044616934e-12
1.69110811531833e-12
-2.05060853700922e-12
1.94873640655298e-12
-2.76592946317627e-12
2.2109585545255e-12
-3.7354334267805e-12
2.44456814270084e-12
-5.02410200090856e-12
2.58796172524181e-12
-6.65627196033966e-12
2.53897593832264e-12
-8.50914695342643e-12
2.1524593561213e-12
-1.00004542703583e-11
1.2860247303426e-12
-9.61476290871583e-12
-4.2855738440603e-14
-4.27695351294401e-12
-1.35933979033836e-12
8.93266197791039e-12
-1.51188127675978e-12
2.73737407785896e-11
2.7761395155108e-11
2.41017550476285e-12
2.4829026459588e-11
3.2457769752496e-12
2.62620400569954e-11
2.17546976711926e-12
1.0202594185178e-11
6.26824748798231e-13
-2.41231560832363e-12
-6.40306132895688e-13
-8.15183270064012e-12
-1.42193865230501e-12
-9.1625596028061e-12
-1.79373408453972e-12
-8.16320162610038e-12
-1.88909502924736e-12
-6.62055493742871e-12
-1.82237789578417e-12
-5.15965499026251e-12
-1.67224876242476e-12
-3.95357534108785e-12
-1.48761131474627e-12
-3.01413690055146e-12
-1.29662045944189e-12
-2.2994655335262e-12
-1.11418513763249e-12
-1.76104313857758e-12
-9.47202092914139e-13
-1.3558673766842e-12
-7.97941270162446e-13
-1.0498877846365e-12
-6.66168328221898e-13
-8.1732222195375e-13
-5.50399839950117e-13
-6.3921622142826e-13
-4.48649669744316e-13
-5.01877136090096e-13
-3.58791277906295e-13
-3.95478457337207e-13
-2.78777363528504e-13
-3.1302951593538e-13
-2.06689483109158e-13
-2.49561535829375e-13
-1.40774288059946e-13
-2.01579237517233e-13
-7.9421643418178e-14
-1.66639824736335e-13
-2.11319699350427e-14
-1.43109044290162e-13
3.55106912064996e-14
-1.29984399747769e-13
9.18871586520353e-14
-1.26779217812022e-13
1.4936279254778e-13
-1.33476682335956e-13
2.09346723781737e-13
-1.50550578924597e-13
2.73317537566338e-13
-1.78980407333046e-13
3.42859817990238e-13
-2.2039530474841e-13
4.19699618530261e-13
-2.77188424071231e-13
5.05709426777637e-13
-3.52864532003644e-13
6.02903064162595e-13
-4.52347599909922e-13
7.13351629575124e-13
-5.82658688799793e-13
8.38982332490276e-13
-7.53639097125128e-13
9.8120190950058e-13
-9.79003070363504e-13
1.14017299104794e-12
-1.27769922410615e-12
1.31353792298374e-12
-1.67549625091859e-12
1.49430959774639e-12
-2.20652778465847e-12
1.66742969916185e-12
-2.91406248979197e-12
1.80451094481805e-12
-3.84737733465894e-12
1.85618579008904e-12
-5.05048090385826e-12
1.74304306967169e-12
-6.51767890289536e-12
1.34998912080496e-12
-8.09048688035794e-12
5.44347283748395e-13
-9.16898839889223e-12
-7.44109134515876e-13
-8.30001997997297e-12
-2.29836949370208e-12
-2.69549109929896e-12
-3.33866021965413e-12
1.0000952308801e-11
-2.44225730413126e-12
2.6503500982583e-11
2.53351078565623e-11
2.68532977542256e-12
2.21691437837083e-11
4.04775245339599e-12
2.4931973809433e-11
3.26437474715019e-12
1.10177113219496e-11
1.74571785750801e-12
-8.6328325113286e-13
3.46272713751063e-13
-6.72330786758108e-12
-6.25603065136088e-13
-8.1626491794215e-12
-1.18655915625521e-12
-7.575030813296e-12
-1.44309207818061e-12
-6.33746824433756e-12
-1.50358863426324e-12
-5.0731553490161e-12
-1.44949882094746e-12
-3.98213746846398e-12
-1.33557646049051e-12
-3.10295295015912e-12
-1.19589838391912e-12
-2.41442083297179e-12
-1.0504298481827e-12
-1.88214247012012e-12
-9.10005313269862e-13
-1.47225366942755e-12
-7.79849359476815e-13
-1.15631575515562e-12
-6.61865602563664e-13
-9.11869730215644e-13
-5.56104628106985e-13
-7.21812961352756e-13
-4.61662344464951e-13
-5.73406748967783e-13
-3.77172235571495e-13
-4.57286822331901e-13
-3.01124587677136e-13
-3.66605835240498e-13
-2.31985239028686e-13
-2.96418253146014e-13
-1.68277859985639e-13
-2.43172437540791e-13
-1.08599684469969e-13
-2.04351107631288e-13
-5.16081911954165e-14
-1.78261922333025e-13
3.97264136617547e-15
-1.63835975581338e-13
5.94009055510241e-14
-1.6057068829498e-13
1.15926292123245e-13
-1.68441256475397e-13
1.7481806006254e-13
-1.87942187430483e-13
2.37397693354129e-13
-2.20107208730669e-13
3.05034239844696e-13
-2.66612787278375e-13
3.79183544926539e-13
-3.29939647990296e-13
4.61327805251897e-13
-4.13619142551864e-13
5.52944018359834e-13
-5.22570153544948e-13
6.55336012343465e-13
-6.63639175707109e-13
7.69342611867782e-13
-8.46202396736883e-13
8.94833808514979e-13
-1.0830026756251e-12
1.02980820303007e-12
-1.39111608638563e-12
1.16893887939427e-12
-1.79298417808045e-12
1.30124815997207e-12
-2.31708853369246e-12
1.40655446297405e-12
-2.99749429059489e-12
1.45041817334282e-12
-3.86922486180319e-12
1.37742800907767e-12
-4.9553261368157e-12
1.10507509079986e-12
-6.22301974131575e-12
5.23718711978562e-13
-7.48668895358699e-12
-4.73251378587836e-13
-8.14939241017286e-12
-1.89813016676127e-12
-6.85210487457959e-12
-3.42921526326642e-12
-1.14052420107357e-12
-4.18709015622361e-12
1.07833835226288e-11
-2.74949420391372e-12
2.50886945714704e-11
2.25991154174668e-11
2.56858620762389e-12
1.96236162504094e-11
4.08917012836309e-12
2.34399381687014e-11
3.56639467681521e-12
1.15681912188389e-11
2.22666815278467e-12
5.02825102686919e-13
8.85435765359261e-13
-5.35693402247263e-12
-1.15286569332557e-13
-7.13779906540653e-12
-7.48795726388567e-13
-6.91819118429001e-12
-1.08963221927329e-12
-5.97393687188066e-12
-1.22942394857294e-12
-4.91119100475482e-12
-1.24275529602271e-12
-3.9470794231378e-12
-1.18310560069054e-12
-3.14126809892952e-12
-1.08570820054672e-12
-2.49083945362787e-12
-9.72552891659056e-13
-1.97464718277959e-12
-8.56560243848437e-13
-1.56790364238028e-12
-7.44793781101558e-13
-1.2480289695629e-12
-6.4065314098185e-13
-9.96229678867217e-13
-5.45355573579943e-13
-7.97584793711917e-13
-4.58874987186595e-13
-6.40598882723522e-13
-3.80504346322192e-13
-5.16586649637095e-13
-3.09215360185654e-13
-4.19022710648081e-13
-2.43834651561804e-13
-3.43104528391166e-13
-1.83155153480932e-13
-2.85316487111325e-13
-1.25981046367573e-13
-2.4312917330042e-13
-7.11412489039339e-14
-2.148260417994e-13
-1.74964335103184e-14
-1.99308280581006e-13
3.60757739988411e-14
-1.96056886005673e-13
9.06973095654602e-14
-2.05047967783308e-13
1.47492962921463e-13
-2.26779916863965e-13
2.07618859754962e-13
-2.62318905953502e-13
2.72236137630047e-13
-3.13346972549155e-13
3.42526974616459e-13
-3.82367382664536e-13
4.1961331682928e-13
-4.72850463700058e-13
5.04488010289538e-13
-5.89586111960242e-13
5.97795073177702e-13
-7.39071961203545e-13
6.99490567132487e-13
-9.29994679682057e-13
8.08272868608996e-13
-1.1738387639405e-12
9.20636769728319e-13
-1.48547473498864e-12
1.029400562641e-12
-1.8836661127836e-12
1.121468139452e-12
-2.3909784623963e-12
1.17459740576375e-12
-3.03233132385566e-12
1.1531198176555e-12
-3.82932605616878e-12
1.00283873036745e-12
-4.78649038594822e-12
6.48024466848266e-13
-5.84952651441187e-12
-4.30106324182723e-15
-6.81557157070273e-12
-1.02906243773044e-12
-7.10568645335057e-12
-2.39585413106744e-12
-5.46600585362092e-12
-3.74986773525944e-12
2.33568210387108e-13
-4.25005844948551e-12
1.13042885942947e-11
-2.64916534882446e-12
2.35068389488252e-11
1.99610544067833e-11
2.25021942677756e-12
1.73929236418841e-11
3.70393233644344e-12
2.20095830877949e-11
3.39731931699108e-12
1.18970306011947e-11
2.30105026727734e-12
1.62014513239626e-12
1.12135869394233e-12
-4.15728758882771e-12
1.88671284168801e-13
-6.18607470518137e-12
-4.4157588177807e-13
-6.26963388009874e-12
-8.13211940827561e-13
-5.58456823836013e-12
-9.96757205546788e-13
-4.71038545342178e-12
-1.05492829276966e-12
-3.87204909428911e-12
-1.03568952455909e-12
-3.14400117388544e-12
-9.72349775845087e-13
-2.53799576388297e-12
-8.86815373970836e-13
-2.04429706632585e-12
-7.92728730938502e-13
-1.64638822201742e-12
-6.98120196122111e-13
-1.32730294646464e-12
-6.07358217918386e-13
-1.07191028815294e-12
-5.22501704214552e-13
-8.67597402947511e-13
-4.44209808294355e-13
-7.04268704475235e-13
-3.72327476112999e-13
-5.74050394657373e-13
-3.06245621982114e-13
-4.70872108759761e-13
-2.45119124126962e-13
-3.90165797934592e-13
-1.87997953340154e-13
-3.28520975330921e-13
-1.33885138064163e-13
-2.83455948559941e-13
-8.17789367363323e-14
-2.53258801755038e-13
-3.06804469322615e-14
-2.36829074279503e-13
2.03989295076427e-14
-2.33639261460698e-13
7.24451678103503e-14
-2.4366309998002e-13
1.26446280765212e-13
-2.6740249269518e-13
1.83382464390419e-13
-3.05916662644041e-13
2.44223558281535e-13
-3.60878454978652e-13
3.09889189423228e-13
-4.34741343638636e-13
3.81179848126908e-13
-5.30856839158653e-13
4.5866018422722e-13
-6.53779312601101e-13
5.42423491267781e-13
-8.09534589526916e-13
6.31740007927646e-13
-1.00598556269228e-12
7.24461095844834e-13
-1.25319684673479e-12
8.16117192754962e-13
-1.56371702499528e-12
8.98544197686543e-13
-1.95261319502562e-12
9.57919047370847e-13
-2.43679145777793e-12
9.72066796205754e-13
-3.03281913270738e-12
9.07236715922706e-13
-3.75072790572676e-12
7.14775644224309e-13
-4.58015282919301e-12
3.30913547687869e-13
-5.45169230327626e-12
-3.16044693588359e-13
-6.15456183583021e-12
-1.27018677926715e-12
-6.1373821852378e-12
-2.47269620329162e-12
-4.2490314529062e-12
-3.58136556405677e-12
1.35738941619473e-12
-3.86645174829525e-12
1.16050510306391e-11
-2.33406048653422e-12
2.19887150781001e-11
1.76348925647379e-11
1.86406120570865e-12
1.5544506647281e-11
3.14242872777119e-12
2.07491722280633e-11
3.00170452216126e-12
1.20545597702731e-11
2.15440134966738e-12
2.48324369384414e-12
1.17430352751049e-12
-3.1623305259686e-12
3.56194397381061e-13
-5.35390555781913e-12
-2.28186683450336e-13
-5.67183317956036e-12
-5.96995933817054e-13
-5.20284859050062e-12
-7.9986520367259e-13
-4.49502167869936e-12
-8.8612366596868e-13
-3.7736515236934e-12
-8.96264759881118e-13
-3.12203626400314e-12
-8.59973047114077e-13
-2.56275406670078e-12
-7.97756838504859e-13
-2.09525185864405e-12
-7.23041038741614e-13
-1.71010212364094e-12
-6.44188574911426e-13
-1.39540047198385e-12
-5.66108411569359e-13
-1.13947115274608e-12
-4.91429875810679e-13
-9.31978269352963e-13
-4.21329954236423e-13
-7.64278820494544e-13
-3.56099723885181e-13
-6.29381527313023e-13
-2.9548678376072e-13
-5.21760907139034e-13
-2.38938053113001e-13
-4.37146876949415e-13
-1.85738251343731e-13
-3.72292958471268e-13
-1.35077664814343e-13
-3.24810174107783e-13
-8.61177494791674e-14
-2.93018142137169e-13
-3.80019950370611e-14
-2.75833598003933e-13
1.01280659734785e-14
-2.72732770649083e-13
5.91230732053889e-14
-2.83682494201743e-13
1.09834236682264e-13
-3.09186110069065e-13
1.63077582567128e-13
-3.50269169689741e-13
2.19636550116213e-13
-4.08572612130079e-13
2.80191039253174e-13
-4.86447271172889e-13
3.45256021266896e-13
-5.87079747144764e-13
4.15032762791041e-13
-7.14711433737591e-13
4.89175730622888e-13
-8.74821228744963e-13
5.6643501824382e-13
-1.07436701535445e-12
6.44090103704436e-13
-1.32194225473255e-12
7.171341422086e-13
-1.62780834871777e-12
7.7706775612104e-13
-2.00353848935584e-12
8.10292577171341e-13
-2.46093983184168e-12
7.96033040391584e-13
-3.0094037974336e-12
7.04208834766017e-13
-3.64966174889892e-12
4.93713019587347e-13
-4.36033290741308e-12
1.14371215525172e-13
-5.06296028154811e-12
-4.84319340182757e-13
-5.54643330163626e-12
-1.32044865831816e-12
-5.29174118758374e-12
-2.31902182512878e-12
-3.24070137649317e-12
-3.17471019462101e-12
2.22342422233886e-12
-3.2936487292857e-12
1.17348287449533e-11
-1.94242019289274e-12
2.06471509118403e-11
1.56975739558602e-11
1.48884949961612e-12
1.40668442874637e-11
2.56020820892148e-12
1.96897821107398e-11
2.53776228684221e-12
1.2087776153881e-11
1.9120783758403e-12
3.11893726822766e-12
1.1293275538241e-12
-2.37028491635917e-12
4.39317716438092e-13
-4.6552415172999e-12
-7.96479647968956e-14
-5.14473822393532e-12
-4.26534660809155e-13
-4.84825488441543e-12
-6.32859008977243e-13
-4.2813379200162e-12
-7.35202906345042e-13
-3.66424983857319e-12
-7.661831481885e-13
-3.08427052716468e-12
-7.51136508775895e-13
-2.57127087983808e-12
-7.08449016516572e-13
-2.13165375238547e-12
-6.50726066724448e-13
-1.76177513656124e-12
-5.8621006168574e-13
-1.45409288845608e-12
-5.20026404891249e-13
-1.20004869015538e-12
-4.55151391259774e-13
-9.91452675080011e-13
-3.931344424751e-13
-8.21087795435199e-13
-3.3460717205717e-13
-6.82878938345653e-13
-2.79618537315738e-13
-5.71881655413716e-13
-2.27868169460118e-13
-4.84175636047922e-13
-1.78848765275139e-13
-4.16720171842013e-13
-1.31931345383263e-13
-3.6724833531169e-13
-8.64296840839453e-14
-3.34137883693176e-13
-4.16215916367951e-14
-3.16342520346992e-13
3.21950947656691e-15
-3.1334299162164e-13
4.881832537039e-14
-3.25106058650081e-13
9.58846641125148e-14
-3.5212066698709e-13
1.45085550812529e-13
-3.95371230923323e-13
1.97024892011112e-13
-4.56436413581309e-13
2.52176204923025e-13
-5.3753700956011e-13
3.10801329698428e-13
-6.41649341041893e-13
3.72798909129306e-13
-7.72650850773205e-13
4.37485156194904e-13
-9.35438884732113e-13
5.03238434285165e-13
-1.13603328676149e-12
5.66997365769246e-13
-1.38158781545012e-12
6.23538965583581e-13
-1.68020161168913e-12
6.64492194462881e-13
-2.04029965026468e-12
6.77088324442338e-13
-2.46929098086072e-12
6.42698832457772e-13
-2.97071084122581e-12
5.35655503459945e-13
-3.53825562348602e-12
3.22841007916004e-13
-4.14310467583667e-12
-3.293427773935e-14
-4.70274069638252e-12
-5.63712780975111e-13
-5.01120107808671e-12
-1.26803469658324e-12
-4.58293899183586e-12
-2.06440154288396e-12
-2.43968004476886e-12
-2.69375539314873e-12
2.85790746644475e-12
-2.69361992562992e-12
1.17401879820481e-11
-1.55721210101379e-12
1.95154212005864e-11
1.41422625865e-11
1.16199842359713e-12
1.29118310558501e-11
2.03643887077681e-12
1.88218865334007e-11
2.09214132062808e-12
1.2037589746573e-11
1.64779318329974e-12
3.56827149376949e-12
1.0399664133019e-12
-1.75798322726465e-12
4.73042437212959e-13
-4.08432897507045e-12
2.49004454160791e-14
-4.69302085129966e-12
-2.90577218371758e-13
-4.5295408904278e-12
-4.90544929144328e-13
-4.07841844201959e-12
-6.00556069854942e-13
-3.551539697089e-12
-6.45840254713574e-13
-3.03652212295654e-12
-6.47286295585409e-13
-2.56758572176181e-12
-6.20841502983808e-13
-2.15607865259379e-12
-5.77937285155764e-13
-1.8028736507786e-12
-5.26390139933999e-13
-1.50404314298384e-12
-4.71296892582496e-13
-1.25374607979464e-12
-4.15794911335126e-13
-1.04574976003486e-12
-3.61682035462818e-13
-8.74175371021685e-13
-3.09840150531292e-13
-7.33861319625697e-13
-2.60562627523504e-13
-6.20451189749837e-13
-2.13763209816679e-13
-5.30402465171848e-13
-1.69118533949272e-13
-4.60912806578325e-13
-1.26165455308607e-13
-4.09854484862443e-13
-8.43587415369795e-14
-3.7568774676131e-13
-4.31089442910434e-14
-3.57410984412175e-13
-1.81574907246458e-15
-3.54517392210759e-13
4.01256397248353e-14
-3.66979173964329e-13
8.32901745237701e-14
-3.95256033682062e-13
1.28205984514803e-13
-4.40287363345163e-13
1.75311867948801e-13
-5.0356285914333e-13
2.24895818051708e-13
-5.8715324948463e-13
2.77006556030983e-13
-6.93796818849591e-13
3.31305058154691e-13
-8.26983347873975e-13
3.86851860796885e-13
-9.91010169649975e-13
4.41781994014409e-13
-1.19097242699245e-12
4.9287719651387e-13
-1.43266991629426e-12
5.34945977692152e-13
-1.72222900266205e-12
5.60060518990566e-13