/*--------------------------------*- C++ -*----------------------------------*\
  =========                 |
  \\      /  F ield         | OpenFOAM: The Open Source CFD Toolbox
   \\    /   O peration     | Website:  https://openfoam.org
    \\  /    A nd           | Version:  10
     \\/     M anipulation  |
\*---------------------------------------------------------------------------*/
FoamFile
{
    format      ascii;
    class       volScalarField;
    location    "9.6";
    object      rho;
}
// * * * * * * * * * * * * * * * * * * * * * * * * * * * * * * * * * * * * * //

dimensions      [1 -3 0 0 0 0 0];

internalField   nonuniform List<scalar> 
2500
(
1.14645672145079
1.14646017788143
1.14648764770483
1.14651173647789
1.14652886557425
1.14654014689726
1.14654731148572
1.14655175741757
1.14655445124172
1.14655603562005
1.14655694374326
1.14655744588311
1.14655771426159
1.14655785485071
1.14655792659935
1.14655796332069
1.14655798075732
1.14655799016964
1.1465579959334
1.1465579991357
1.14655800126133
1.14655800280564
1.14655800394961
1.14655800463365
1.14655800527958
1.14655800573984
1.14655800584698
1.1465580057405
1.14655800534711
1.14655800454916
1.14655800309566
1.1465580002041
1.14655799532839
1.1465579859789
1.14655796742653
1.14655793022537
1.14655785625143
1.14655771251196
1.1465574365058
1.14655692770032
1.14655601529883
1.14655442762671
1.1465517433415
1.14654732169318
1.14654018673289
1.14652893444432
1.14651177419675
1.1464875544807
1.14646001693353
1.14645699447886
1.1488986514569
1.14894846853809
1.14903053936569
1.14909955075067
1.14914886837294
1.14918176856323
1.14920299714632
1.14921639277349
1.14922465519714
1.14922961637318
1.1492325091366
1.14923414168881
1.14923503273439
1.14923550390775
1.14923574527872
1.1492358655399
1.14923592334223
1.14923595101219
1.14923596445587
1.14923597092248
1.1492359742494
1.1492359761494
1.14923597733476
1.14923597805454
1.14923597861844
1.14923597900835
1.14923597912977
1.14923597901483
1.14923597851019
1.14923597722422
1.14923597429768
1.14923596778041
1.1492359539548
1.14923592460429
1.149235863253
1.14923573770534
1.14923548752854
1.14923500359909
1.14923409473741
1.14923244370759
1.14922953703364
1.14922457407511
1.14921633799579
1.14920300576424
1.14918186378025
1.14914901273242
1.14909955576268
1.14903010603238
1.14894772565052
1.14890014367206
1.15152035120808
1.15162458611471
1.15175003578477
1.15185102494861
1.15192229389299
1.15196955951672
1.15199994994802
1.15201908622521
1.15203087979391
1.15203796506682
1.15204210045803
1.15204443890073
1.15204571839647
1.1520463959405
1.15204674321627
1.1520469157185
1.15204699861518
1.15204703759523
1.15204705572791
1.15204706406117
1.15204706799414
1.15204706999256
1.15204707110731
1.15204707175709
1.15204707221136
1.15204707251547
1.15204707262666
1.15204707251664
1.15204707196684
1.15204707042937
1.15204706668725
1.15204705802762
1.1520470388216
1.15204699727786
1.15204690966505
1.15204672969173
1.15204637065356
1.15204567622311
1.15204437455889
1.15204201246657
1.15203785864598
1.15203077127492
1.15201900910661
1.15199994774443
1.151969652497
1.15192239709007
1.15185081940172
1.15174900429671
1.15162271407566
1.15152106818931
1.15405645136417
1.15420110884028
1.1543472308084
1.1544599896352
1.15453772061611
1.15458830541774
1.15462027259555
1.15464008735314
1.1546521300195
1.15465927775818
1.15466340516706
1.15466571726873
1.15466697178917
1.15466763085128
1.15466796607157
1.15466813122797
1.15466820999734
1.15466824658079
1.15466826325014
1.1546682707254
1.1546682741169
1.15466827574995
1.1546682766138
1.15466827710435
1.15466827742978
1.15466827764965
1.15466827775209
1.15466827770817
1.15466827730657
1.15466827603526
1.15466827278386
1.15466826502177
1.15466824735435
1.15466820856686
1.15466812586909
1.1546679543507
1.1546676090754
1.15466693531375
1.15466566124082
1.15466332713587
1.15465918055723
1.1546520260594
1.15464000295709
1.15462024062311
1.15458832704917
1.15453766535236
1.15445943831593
1.15434547551035
1.15419782415345
1.15405465384867
1.15630272190673
1.15646445987964
1.15661036229567
1.15671855853691
1.15679127984371
1.156837621068
1.15686635495313
1.15688386561995
1.15689435296344
1.15690050089966
1.15690401401623
1.15690596471741
1.15690701523193
1.15690756348236
1.15690784066992
1.1569079764277
1.15690804080251
1.1569080704491
1.15690808377142
1.15690808963168
1.15690809220781
1.15690809339347
1.15690809399207
1.1569080943208
1.15690809453025
1.1569080946755
1.15690809475593
1.15690809476012
1.15690809452317
1.15690809361833
1.15690809116323
1.15690808512438
1.15690807108688
1.15690803990902
1.15690797287898
1.15690783279354
1.15690754870374
1.1569069901661
1.15690592564762
1.15690395841974
1.15690042952392
1.15689427301297
1.15688379340028
1.15686630825819
1.15683758044841
1.15679108411988
1.15671773237973
1.15660805913968
1.15645996758073
1.15629804046387
1.15814320568342
1.15829939226588
1.15842922731962
1.15852203658795
1.15858283417082
1.15862074593185
1.15864379868295
1.15865760762929
1.15866575847357
1.15867047991327
1.15867315180958
1.15867462382084
1.15867541152736
1.15867582046609
1.15867602628895
1.15867612666749
1.1586761740608
1.15867619574925
1.15867620539025
1.15867620955828
1.15867621133546
1.15867621211561
1.15867621248951
1.15867621268558
1.15867621280514
1.15867621289214
1.15867621295155
1.15867621297796
1.15867621286607
1.15867621229742
1.1586762106249
1.15867620637726
1.15867619630437
1.15867617370677
1.15867612479977
1.15867602197095
1.15867581220511
1.15867539726863
1.15867460117251
1.15867311881451
1.15867043626981
1.15866570751274
1.15865755757272
1.15864375527996
1.15862067679465
1.15858257026752
1.15852109875522
1.15842671272426
1.15829427103015
1.15813635837142
1.15954848533431
1.15968325665129
1.15978838770769
1.1598610436539
1.159907447586
1.15993576085052
1.15995264346233
1.15996258491898
1.15996836997698
1.15997168300982
1.15997354119356
1.15997455786438
1.15997509903305
1.15997537883082
1.15997551919165
1.15997558744053
1.15997561956063
1.15997563418558
1.15997564062616
1.1599756433641
1.15997564449402
1.15997564496262
1.15997564517254
1.15997564527518
1.15997564533355
1.15997564537989
1.15997564542067
1.15997564545091
1.15997564541684
1.15997564509941
1.15997564405387
1.15997564130008
1.15997563463477
1.15997561954163
1.15997558669576
1.15997551730396
1.15997537509176
1.15997509240916
1.15997454706963
1.15997352502279
1.15997166095755
1.1599683433263
1.15996255714428
1.15995261377935
1.15993569406054
1.1599071886702
1.15986015686717
1.15978600530128
1.15967819066944
1.15954070566277
1.16055417484007
1.16066017476756
1.16073867419465
1.1607912658945
1.16082403675576
1.16084360600636
1.16085505043272
1.16086167662139
1.16086547921477
1.16086763330082
1.16086883152718
1.16086948312948
1.16086982844993
1.16087000642706
1.16087009550133
1.16087013872481
1.16087015901872
1.16087016821979
1.16087017223698
1.16087017391587
1.16087017458345
1.16087017484034
1.16087017494515
1.16087017499057
1.16087017501207
1.16087017503281
1.16087017505883
1.16087017508399
1.1608701750835
1.16087017492724
1.16087017432711
1.16087017266284
1.16087016854592
1.1608701591374
1.16087013856492
1.16087009493687
1.16087000520729
1.16086982616916
1.16086947923401
1.16086882543874
1.16086762470817
1.16086546865607
1.16086166552986
1.16085503607902
1.16084355797936
1.16082382830404
1.16079053591928
1.16073666428695
1.16065571249124
1.1605466572766
1.16123203783566
1.16130903449844
1.16136360437955
1.16139913127387
1.16142074817464
1.16143338716057
1.16144063845714
1.1614447674118
1.16144710483553
1.16144841512359
1.16144913839399
1.16144952958709
1.16144973614568
1.16144984235324
1.16144989542561
1.16144992114601
1.16144993320079
1.16144993864595
1.16144994100369
1.16144994197198
1.1614499423404
1.16144994246795
1.16144994251433
1.16144994253007
1.16144994253125
1.16144994253699
1.16144994255242
1.16144994257229
1.16144994258305
1.16144994251546
1.16144994219614
1.1614499412509
1.16144993885745
1.16144993333619
1.16144992121192
1.16144989542354
1.16144984224646
1.1614497358408
1.16144952892378
1.16144913718869
1.16144841331863
1.16144710284498
1.16144476612051
1.16144063568005
1.16143336067104
1.161420604288
1.16139859504192
1.1613620679719
1.1613054717376
1.16122560041028
1.16166418320017
1.16171632737207
1.1617519063427
1.16177446339045
1.16178787874214
1.16179556260169
1.16179988875535
1.16180231185222
1.16180366530731
1.16180441633953
1.1618048279128
1.16180504944041
1.16180516605795
1.1618052259169
1.16180525580132
1.16180527027412
1.1618052770486
1.16180528009823
1.16180528140794
1.16180528193624
1.16180528212787
1.1618052821851
1.16180528219747
1.16180528219731
1.16180528219388
1.16180528219434
1.16180528220283
1.16180528221672
1.16180528222861
1.16180528220485
1.16180528204655
1.16180528153883
1.16180528022078
1.16180527715072
1.16180527038245
1.16180525595397
1.1618052261496
1.16180516639521
1.16180504988701
1.16180482847562
1.16180441712481
1.16180366676738
1.16180231485588
1.161799892379
1.16179555276451
1.16178779220756
1.16177410641675
1.16175082874771
1.16171371521939
1.16165918316232
1.16192573203775
1.16195889514338
1.16198078137646
1.16199432025634
1.16200219835901
1.16200662128728
1.16200906583307
1.16201041290446
1.16201115541779
1.1620115633641
1.16201178538739
1.16201190436588
1.16201196684231
1.16201199887342
1.16201201485874
1.16201202259866
1.16201202621823
1.16201202784237
1.16201202853403
1.16201202880771
1.16201202890085
1.16201202892106
1.16201202892
1.16201202891578
1.16201202891178
1.16201202891121
1.16201202891545
1.16201202892472
1.16201202893413
1.16201202892878
1.16201202885562
1.16201202859668
1.16201202790556
1.16201202627961
1.16201202268169
1.1620120149995
1.16201199911545
1.16201196723341
1.16201190495485
1.1620117862422
1.16201156464896
1.16201115758978
1.16201041685437
1.16200907166629
1.16200662124029
1.16200215315425
1.1619941027533
1.16198008130714
1.16195711889877
1.16192215598912
1.16207651911829
1.16209644144965
1.1621092068245
1.16211692528416
1.16212132403905
1.16212374616849
1.16212506080204
1.16212577363767
1.1621261614138
1.16212637238612
1.16212648644806
1.16212654732615
1.16212657922773
1.16212659557183
1.16212660372898
1.16212660767929
1.16212660952544
1.16212661035119
1.16212661069968
1.16212661083453
1.1621266108761
1.16212661088099
1.16212661087733
1.16212661087274
1.16212661086947
1.16212661086853
1.1621266108706
1.16212661087647
1.16212661088328
1.16212661088389
1.16212661085198
1.16212661072631
1.1621266103797
1.16212660955593
1.16212660772663
1.16212660381692
1.1621265957312
1.16212657949572
1.1621265477466
1.16212648708835
1.16212637339991
1.16212616319758
1.16212577699866
1.1621250663757
1.16212375029758
1.16212130415265
1.16211680324808
1.16210878242266
1.16209531240846
1.16207413881805
1.16215957442809
1.16217093352757
1.16217802285483
1.16218221936754
1.16218456407597
1.16218583118848
1.16218650680589
1.16218686733374
1.16218706089706
1.16218716518701
1.16218722120871
1.16218725099772
1.1621872665815
1.16218727456308
1.16218727854839
1.16218728047935
1.16218728138136
1.16218728178351
1.16218728195154
1.16218728201452
1.1621872820315
1.16218728203163
1.16218728202846
1.16218728202494
1.16218728202266
1.16218728202181
1.1621872820228
1.1621872820263
1.16218728203072
1.16218728203256
1.16218728201953
1.16218728196115
1.16218728179423
1.16218728139346
1.16218728050057
1.16218727859139
1.16218727464481
1.16218726672326
1.16218725122678
1.16218722157249
1.16218716580098
1.16218706206212
1.16218686969159
1.16218651111276
1.1621858360721
1.1621845574955
1.16218215613719
1.1621777813489
1.1621702583876
1.16215808800165
1.16220339994666
1.16220957201576
1.16221333436901
1.16221551800568
1.1622167153528
1.16221735082054
1.16221768380508
1.16221785869849
1.16221795137034
1.16221800081793
1.16221802721207
1.16221804119794
1.16221804850447
1.16221805224684
1.16221805411691
1.16221805502371
1.16221805544717
1.16221805563533
1.16221805571309
1.16221805574112
1.16221805574758
1.16221805574663
1.16221805574434
1.16221805574204
1.16221805574061
1.16221805574001
1.16221805574048
1.16221805574244
1.16221805574507
1.16221805574668
1.16221805574174
1.1622180557156
1.16221805563815
1.1622180554503
1.16221805503051
1.16221805413302
1.16221805227981
1.16221804856398
1.16221804129743
1.1622180273792
1.16221800112821
1.16221795202865
1.16221786016128
1.16221768672503
1.16221735490259
1.16221671462668
1.16221548777673
1.16221320475194
1.16220919019265
1.16220252358456
1.16222560561424
1.16222881279294
1.1622307269293
1.16223181771616
1.16223240527783
1.16223271173573
1.16223286961418
1.16223295124317
1.16223299393024
1.16223301648583
1.16223302845027
1.16223303476911
1.1622330380666
1.16223303975616
1.16223304060135
1.1622330410116
1.16223304120314
1.16223304128794
1.16223304132259
1.1622330413345
1.16223304133673
1.16223304133585
1.16223304133441
1.16223304133306
1.16223304133224
1.16223304133187
1.16223304133209
1.16223304133313
1.16223304133458
1.16223304133563
1.1622330413339
1.16223304132262
1.16223304128788
1.1622330412028
1.16223304101214
1.16223304060478
1.16223303976508
1.16223303808427
1.16223303480073
1.16223302850986
1.16223301661797
1.16223299426254
1.16223295207169
1.16223287141448
1.16223271461596
1.162232406491
1.16223180446135
1.16223066106423
1.16222860764425
1.16222511528396
1.16223643038747
1.16223802903909
1.16223896521838
1.16223948971807
1.16223976753767
1.16223991004251
1.16223998225169
1.16224001900999
1.16224003798007
1.16224004790566
1.16224005313779
1.16224005589235
1.16224005732859
1.16224005806494
1.1622400584338
1.16224005861305
1.16224005869673
1.16224005873364
1.16224005874854
1.16224005875338
1.16224005875405
1.16224005875347
1.16224005875265
1.16224005875192
1.16224005875147
1.16224005875127
1.16224005875137
1.16224005875189
1.16224005875265
1.16224005875326
1.16224005875271
1.16224005874797
1.16224005873287
1.16224005869554
1.16224005861168
1.16224005843269
1.16224005806456
1.16224005732941
1.16224005589567
1.16224005314987
1.16224004795073
1.16224003813192
1.1622400194463
1.16223998328147
1.16223991186136
1.1622397689797
1.16223948446938
1.16223893343145
1.1622379239174
1.16223616891348
1.16224151367989
1.16224228016374
1.16224272142728
1.16224296478458
1.1622430916641
1.16224315571446
1.16224318765186
1.16224320366169
1.16224321181529
1.16224321603932
1.16224321825205
1.16224321941344
1.1622432200186
1.16224322032913
1.16224322048493
1.16224322056074
1.16224322059614
1.16224322061168
1.16224322061787
1.16224322061976
1.16224322061991
1.16224322061959
1.16224322061916
1.16224322061878
1.16224322061856
1.16224322061845
1.1622432206185
1.16224322061875
1.16224322061912
1.16224322061943
1.16224322061928
1.16224322061735
1.16224322061097
1.16224322059506
1.16224322055926
1.16224322048295
1.16224322032643
1.16224322001476
1.16224321940831
1.16224321824807
1.16224321604882
1.16224321187828
1.16224320387794
1.16224318820541
1.16224315677157
1.16224309277469
1.16224296297729
1.1622427068228
1.16224222861796
1.16224138029779
1.16224381310016
1.16224416744428
1.16224436833357
1.16224447752148
1.1622445336096
1.16224456149559
1.16224457518546
1.16224458194489
1.16224458534207
1.16224458708445
1.16224458799144
1.16224458846607
1.16224458871327
1.16224458884025
1.16224458890407
1.16224458893517
1.16224458894968
1.16224458895603
1.16224458895852
1.16224458895923
1.16224458895925
1.16224458895907
1.16224458895886
1.16224458895868
1.16224458895857
1.16224458895852
1.16224458895854
1.16224458895865
1.16224458895882
1.16224458895898
1.16224458895894
1.16224458895817
1.16224458895555
1.16224458894896
1.16224458893409
1.16224458890246
1.16224458883779
1.16224458870944
1.1622445884604
1.16224458798471
1.16224458708258
1.1622445853656
1.16224458204669
1.16224457546764
1.16224456207027
1.16224453432384
1.16224447703801
1.1622443619344
1.16224414318636
1.16224374780552
1.16224481186806
1.16224497016393
1.16224505867661
1.16224510614202
1.16224513018758
1.16224514197078
1.16224514766911
1.16224515044115
1.162245151816
1.16224515251403
1.16224515287508
1.16224515306346
1.16224515316153
1.16224515321196
1.16224515323735
1.16224515324974
1.16224515325552
1.16224515325804
1.16224515325901
1.16224515325927
1.16224515325925
1.16224515325916
1.16224515325906
1.16224515325898
1.16224515325893
1.1622451532589
1.16224515325891
1.16224515325896
1.16224515325904
1.16224515325911
1.1622451532591
1.1622451532588
1.16224515325776
1.16224515325509
1.16224515324908
1.16224515323632
1.16224515321032
1.16224515315888
1.16224515305941
1.16224515286981
1.16224515251024
1.16224515182371
1.16224515048698
1.16224514780645
1.16224514226612
1.16224513059914
1.16224510609314
1.1622450559998
1.16224495917869
1.16224478110847
1.16224522375504
1.16224529222422
1.16224533003631
1.16224535006305
1.16224536007759
1.16224536491823
1.16224536722553
1.16224536833171
1.16224536887314
1.16224536914521
1.16224536928502
1.16224536935774
1.16224536939557
1.16224536941505
1.16224536942487
1.16224536942967
1.1622453694319
1.16224536943287
1.16224536943323
1.16224536943332
1.1622453694333
1.16224536943326
1.16224536943321
1.16224536943317
1.16224536943315
1.16224536943314
1.16224536943314
1.16224536943316
1.16224536943319
1.16224536943323
1.16224536943323
1.16224536943311
1.16224536943271
1.16224536943166
1.1622453694293
1.16224536942429
1.1622453694141
1.16224536939403
1.16224536935533
1.16224536928175
1.16224536914226
1.1622453688752
1.16224536835158
1.16224536728969
1.16224536506278
1.1622453602967
1.16224535011809
1.16224532896706
1.16224528742606
1.16224520977589
1.16224537936653
1.16224540809305
1.16224542378024
1.16224543199425
1.16224543605238
1.16224543798866
1.16224543889886
1.16224543932905
1.16224543953683
1.16224543964014
1.16224543969286
1.16224543972018
1.16224543973438
1.16224543974169
1.16224543974538
1.16224543974718
1.16224543974801
1.16224543974836
1.16224543974849
1.16224543974852
1.16224543974851
1.16224543974848
1.16224543974846
1.16224543974845
1.16224543974843
1.16224543974843
1.16224543974843
1.16224543974844
1.16224543974845
1.16224543974846
1.16224543974847
1.16224543974843
1.16224543974828
1.16224543974788
1.16224543974698
1.16224543974507
1.16224543974119
1.16224543973356
1.1622454397189
1.16224543969107
1.16224543963835
1.16224543953715
1.16224543933738
1.16224543892776
1.16224543805642
1.16224543616198
1.16224543205081
1.16224542337268
1.16224540606742
1.16224537322411
1.16224542647537
1.16224543818509
1.16224544451495
1.16224544779456
1.16224544939672
1.16224545015186
1.16224545050213
1.16224545066535
1.16224545074314
1.16224545078138
1.16224545080073
1.16224545081071
1.16224545081588
1.16224545081854
1.16224545081987
1.16224545082052
1.16224545082081
1.16224545082093
1.16224545082097
1.16224545082097
1.16224545082096
1.16224545082095
1.16224545082094
1.16224545082093
1.16224545082093
1.16224545082092
1.16224545082092
1.16224545082092
1.16224545082093
1.16224545082094
1.16224545082094
1.16224545082093
1.16224545082088
1.16224545082074
1.16224545082041
1.16224545081971
1.16224545081828
1.16224545081547
1.16224545081007
1.16224545079983
1.16224545078042
1.16224545074304
1.16224545066875
1.16224545051471
1.16224545018241
1.16224544944875
1.16224544783182
1.16224544436703
1.16224543735697
1.16224542386067
1.16224542896875
1.16224543361324
1.1622454361007
1.16224543737695
1.16224543799392
1.16224543828135
1.16224543841295
1.16224543847341
1.16224543850181
1.16224543851559
1.16224543852249
1.16224543852601
1.16224543852782
1.16224543852874
1.16224543852919
1.1622454385294
1.16224543852949
1.16224543852952
1.16224543852953
1.16224543852952
1.16224543852952
1.16224543852951
1.1622454385295
1.1622454385295
1.16224543852949
1.16224543852949
1.16224543852949
1.16224543852949
1.16224543852949
1.1622454385295
1.1622454385295
1.1622454385295
1.16224543852949
1.16224543852945
1.16224543852934
1.1622454385291
1.16224543852861
1.16224543852762
1.1622454385257
1.16224543852206
1.16224543851511
1.16224543850168
1.16224543847475
1.16224543841825
1.16224543829463
1.16224543801752
1.16224543739756
1.16224543604978
1.16224543328481
1.16224542788853
1.16224541361719
1.16224541541213
1.16224541636521
1.16224541684973
1.16224541708164
1.16224541718847
1.16224541723675
1.1622454172586
1.16224541726868
1.16224541727349
1.16224541727585
1.16224541727703
1.16224541727762
1.16224541727791
1.16224541727804
1.16224541727809
1.1622454172781
1.1622454172781
1.1622454172781
1.16224541727809
1.16224541727808
1.16224541727807
1.16224541727807
1.16224541727807
1.16224541727806
1.16224541727806
1.16224541727806
1.16224541727806
1.16224541727806
1.16224541727807
1.16224541727807
1.16224541727808
1.16224541727808
1.16224541727807
1.16224541727805
1.16224541727799
1.16224541727783
1.16224541727752
1.16224541727688
1.16224541727565
1.16224541727326
1.16224541726859
1.16224541725911
1.16224541723892
1.16224541719405
1.16224541709192
1.16224541686
1.1622454163487
1.16224541528556
1.16224541318333
1.162245391313
1.16224539198975
1.1622453923461
1.16224539252562
1.16224539261071
1.16224539264946
1.16224539266673
1.1622453926744
1.16224539267785
1.16224539267945
1.1622453926802
1.16224539268055
1.1622453926807
1.16224539268077
1.16224539268078
1.16224539268078
1.16224539268077
1.16224539268076
1.16224539268075
1.16224539268074
1.16224539268073
1.16224539268072
1.16224539268072
1.16224539268071
1.16224539268071
1.16224539268071
1.16224539268071
1.16224539268071
1.16224539268071
1.16224539268072
1.16224539268072
1.16224539268073
1.16224539268074
1.16224539268074
1.16224539268075
1.16224539268075
1.16224539268072
1.16224539268065
1.16224539268047
1.1622453926801
1.16224539267934
1.1622453926778
1.16224539267458
1.16224539266758
1.16224539265173
1.16224539261501
1.16224539253037
1.16224539234111
1.16224539194226
1.16224539114333
1.1622453663667
1.16224536661589
1.16224536674593
1.16224536681078
1.1622453668412
1.16224536685487
1.16224536686086
1.16224536686344
1.16224536686455
1.16224536686503
1.16224536686522
1.16224536686528
1.1622453668653
1.16224536686528
1.16224536686526
1.16224536686524
1.16224536686522
1.1622453668652
1.16224536686519
1.16224536686518
1.16224536686517
1.16224536686517
1.16224536686516
1.16224536686516
1.16224536686516
1.16224536686516
1.16224536686515
1.16224536686516
1.16224536686516
1.16224536686516
1.16224536686517
1.16224536686517
1.16224536686518
1.1622453668652
1.16224536686521
1.16224536686523
1.16224536686525
1.16224536686526
1.16224536686524
1.16224536686516
1.16224536686496
1.16224536686451
1.16224536686349
1.16224536686117
1.16224536685575
1.16224536684292
1.16224536681284
1.16224536674454
1.1622453665985
1.16224536630198
1.16224534043988
1.16224534052956
1.16224534057581
1.16224534059855
1.16224534060906
1.16224534061371
1.16224534061568
1.16224534061649
1.16224534061679
1.16224534061689
1.1622453406169
1.16224534061687
1.16224534061684
1.1622453406168
1.16224534061677
1.16224534061674
1.16224534061672
1.1622453406167
1.16224534061669
1.16224534061668
1.16224534061667
1.16224534061667
1.16224534061666
1.16224534061666
1.16224534061666
1.16224534061665
1.16224534061665
1.16224534061665
1.16224534061666
1.16224534061666
1.16224534061666
1.16224534061667
1.16224534061668
1.1622453406167
1.16224534061672
1.16224534061675
1.16224534061677
1.16224534061681
1.16224534061684
1.16224534061686
1.16224534061685
1.16224534061676
1.16224534061649
1.16224534061579
1.16224534061403
1.16224534060972
1.16224534059937
1.16224534057544
1.16224534052332
1.16224534041576
1.16224531415731
1.16224531418887
1.16224531420479
1.16224531421241
1.16224531421584
1.16224531421731
1.1622453142179
1.1622453142181
1.16224531421815
1.16224531421813
1.16224531421808
1.16224531421803
1.16224531421799
1.16224531421795
1.16224531421791
1.16224531421788
1.16224531421786
1.16224531421784
1.16224531421783
1.16224531421782
1.16224531421781
1.16224531421781
1.1622453142178
1.1622453142178
1.1622453142178
1.16224531421779
1.16224531421779
1.16224531421779
1.1622453142178
1.1622453142178
1.1622453142178
1.16224531421781
1.16224531421782
1.16224531421784
1.16224531421786
1.16224531421789
1.16224531421792
1.16224531421796
1.162245314218
1.16224531421805
1.16224531421809
1.16224531421812
1.16224531421809
1.16224531421792
1.16224531421741
1.16224531421607
1.1622453142127
1.16224531420468
1.16224531418665
1.1622453141485
1.16224528774844
1.16224528775928
1.16224528776446
1.16224528776678
1.16224528776775
1.16224528776814
1.16224528776826
1.16224528776828
1.16224528776824
1.16224528776819
1.16224528776813
1.16224528776808
1.16224528776804
1.162245287768
1.16224528776797
1.16224528776794
1.16224528776792
1.1622452877679
1.16224528776789
1.16224528776788
1.16224528776787
1.16224528776786
1.16224528776786
1.16224528776786
1.16224528776785
1.16224528776785
1.16224528776785
1.16224528776785
1.16224528776785
1.16224528776786
1.16224528776786
1.16224528776787
1.16224528776788
1.1622452877679
1.16224528776792
1.16224528776794
1.16224528776797
1.16224528776801
1.16224528776805
1.1622452877681
1.16224528776816
1.16224528776821
1.16224528776825
1.16224528776825
1.16224528776815
1.1622452877678
1.16224528776685
1.1622452877644
1.16224528775847
1.16224528774526
1.16224526129562
1.16224526129924
1.16224526130071
1.16224526130121
1.16224526130136
1.16224526130139
1.16224526130137
1.16224526130133
1.16224526130128
1.16224526130123
1.16224526130118
1.16224526130113
1.16224526130109
1.16224526130106
1.16224526130103
1.162245261301
1.16224526130098
1.16224526130097
1.16224526130095
1.16224526130094
1.16224526130094
1.16224526130093
1.16224526130093
1.16224526130092
1.16224526130092
1.16224526130092
1.16224526130092
1.16224526130092
1.16224526130092
1.16224526130092
1.16224526130093
1.16224526130094
1.16224526130095
1.16224526130096
1.16224526130098
1.162245261301
1.16224526130103
1.16224526130106
1.1622452613011
1.16224526130115
1.1622452613012
1.16224526130125
1.1622452613013
1.16224526130135
1.16224526130137
1.16224526130134
1.1622452613012
1.16224526130064
1.16224526129892
1.16224526129447
1.16224523482783
1.16224523482898
1.1622452348292
1.1622452348291
1.16224523482898
1.1622452348289
1.16224523482885
1.16224523482881
1.16224523482876
1.16224523482872
1.16224523482868
1.16224523482864
1.1622452348286
1.16224523482857
1.16224523482855
1.16224523482853
1.16224523482851
1.16224523482849
1.16224523482848
1.16224523482847
1.16224523482846
1.16224523482846
1.16224523482845
1.16224523482845
1.16224523482845
1.16224523482845
1.16224523482844
1.16224523482844
1.16224523482845
1.16224523482845
1.16224523482845
1.16224523482846
1.16224523482847
1.16224523482848
1.1622452348285
1.16224523482852
1.16224523482854
1.16224523482857
1.16224523482861
1.16224523482865
1.16224523482869
1.16224523482873
1.16224523482878
1.16224523482882
1.16224523482887
1.16224523482894
1.16224523482905
1.16224523482912
1.16224523482882
1.16224523482739
1.16224520835502
1.16224520835535
1.16224520835516
1.16224520835487
1.16224520835468
1.16224520835458
1.16224520835453
1.1622452083545
1.16224520835447
1.16224520835444
1.1622452083544
1.16224520835437
1.16224520835434
1.16224520835432
1.16224520835429
1.16224520835428
1.16224520835426
1.16224520835425
1.16224520835424
1.16224520835423
1.16224520835422
1.16224520835421
1.16224520835421
1.1622452083542
1.1622452083542
1.1622452083542
1.1622452083542
1.1622452083542
1.1622452083542
1.1622452083542
1.16224520835421
1.16224520835421
1.16224520835422
1.16224520835423
1.16224520835425
1.16224520835427
1.16224520835429
1.16224520835431
1.16224520835434
1.16224520835437
1.1622452083544
1.16224520835444
1.16224520835447
1.1622452083545
1.16224520835455
1.16224520835463
1.16224520835481
1.16224520835508
1.16224520835525
1.16224520835483
1.16224518188057
1.16224518188063
1.16224518188032
1.16224518187998
1.16224518187978
1.16224518187969
1.16224518187966
1.16224518187964
1.16224518187962
1.1622451818796
1.16224518187957
1.16224518187955
1.16224518187953
1.1622451818795
1.16224518187949
1.16224518187947
1.16224518187946
1.16224518187944
1.16224518187943
1.16224518187943
1.16224518187942
1.16224518187941
1.16224518187941
1.1622451818794
1.1622451818794
1.1622451818794
1.1622451818794
1.1622451818794
1.1622451818794
1.1622451818794
1.16224518187941
1.16224518187941
1.16224518187942
1.16224518187943
1.16224518187944
1.16224518187946
1.16224518187947
1.16224518187949
1.16224518187951
1.16224518187954
1.16224518187956
1.16224518187958
1.1622451818796
1.16224518187962
1.16224518187965
1.16224518187973
1.16224518187991
1.16224518188023
1.16224518188054
1.16224518188046
1.16224515540558
1.16224515540557
1.16224515540522
1.16224515540489
1.1622451554047
1.16224515540463
1.16224515540461
1.1622451554046
1.16224515540459
1.16224515540458
1.16224515540457
1.16224515540455
1.16224515540454
1.16224515540452
1.16224515540451
1.16224515540449
1.16224515540448
1.16224515540447
1.16224515540446
1.16224515540445
1.16224515540445
1.16224515540444
1.16224515540444
1.16224515540443
1.16224515540443
1.16224515540443
1.16224515540443
1.16224515540443
1.16224515540443
1.16224515540443
1.16224515540443
1.16224515540444
1.16224515540445
1.16224515540445
1.16224515540446
1.16224515540447
1.16224515540449
1.1622451554045
1.16224515540452
1.16224515540453
1.16224515540455
1.16224515540456
1.16224515540457
1.16224515540457
1.16224515540458
1.16224515540464
1.16224515540481
1.16224515540514
1.16224515540548
1.16224515540549
1.16224512893042
1.16224512893039
1.16224512893005
1.16224512892973
1.16224512892956
1.16224512892951
1.16224512892951
1.16224512892952
1.16224512892952
1.16224512892952
1.16224512892952
1.16224512892951
1.1622451289295
1.16224512892948
1.16224512892947
1.16224512892946
1.16224512892945
1.16224512892944
1.16224512892944
1.16224512892943
1.16224512892942
1.16224512892942
1.16224512892941
1.16224512892941
1.16224512892941
1.16224512892941
1.1622451289294
1.1622451289294
1.1622451289294
1.16224512892941
1.16224512892941
1.16224512892941
1.16224512892942
1.16224512892942
1.16224512892943
1.16224512892944
1.16224512892945
1.16224512892946