/*--------------------------------*- C++ -*----------------------------------*\
  =========                 |
  \\      /  F ield         | OpenFOAM: The Open Source CFD Toolbox
   \\    /   O peration     | Website:  https://openfoam.org
    \\  /    A nd           | Version:  10
     \\/     M anipulation  |
\*---------------------------------------------------------------------------*/
FoamFile
{
    format      ascii;
    class       volScalarField;
    location    "9.6";
    object      T;
}
// * * * * * * * * * * * * * * * * * * * * * * * * * * * * * * * * * * * * * //

dimensions      [0 0 0 1 0 0 0];

internalField   nonuniform List<scalar> 
2500
(
304.131679658075
304.130762741789
304.123475776666
304.117085995919
304.112542500442
304.109550202052
304.107649871688
304.106470647886
304.105756151653
304.105335920804
304.105095056296
304.104961872282
304.104890689544
304.104853400749
304.104834370696
304.104824631023
304.104820006281
304.104817509841
304.104815981115
304.10481513177
304.104814567989
304.104814158392
304.104813854976
304.104813673547
304.104813502225
304.104813380147
304.104813351729
304.104813379967
304.104813484303
304.10481369594
304.104814081445
304.104814848372
304.104816141555
304.104818621327
304.104823542001
304.104833408934
304.104853029204
304.104891153575
304.104964359422
304.105099311385
304.10534131064
304.105762415127
304.106474381317
304.107647164235
304.109539635955
304.112524232852
304.117075990756
304.1235005057
304.130805437616
304.131607229172
303.485255263352
303.472096493874
303.450420652449
303.432196355533
303.419174063182
303.41048740683
303.404882675788
303.401346093824
303.39916477101
303.397855009841
303.397091319311
303.396660326692
303.396425091831
303.396300702846
303.396236981363
303.396205232657
303.396189972968
303.396182668167
303.396179119074
303.396177411909
303.396176533615
303.396176032022
303.396175719092
303.396175529073
303.396175380206
303.396175277268
303.396175245213
303.396175275552
303.396175408771
303.396175748259
303.396176520851
303.396178241388
303.396181891308
303.396189639771
303.396205836373
303.396238980697
303.396305026905
303.396432783481
303.396672721783
303.39710859252
303.397875955529
303.399186187459
303.401360555486
303.404880400495
303.41046226729
303.419135946712
303.432195031981
303.450535092497
303.472292712986
303.484861090339
302.794294762575
302.76688849301
302.733910847334
302.707368488972
302.688640113617
302.676220717574
302.66823594289
302.663208298198
302.660109875251
302.658248452934
302.657162025579
302.65654768618
302.656211547038
302.656033548271
302.655942314945
302.655896996661
302.655875218781
302.655864978295
302.655860214644
302.655858025412
302.655856992183
302.65585646718
302.655856174324
302.655856003621
302.65585588428
302.655855804385
302.655855775173
302.655855804072
302.655855948506
302.655856352411
302.6558573355
302.655859610471
302.655864656098
302.655875570092
302.655898586953
302.655945867974
302.65604019142
302.656222626458
302.656564589564
302.657185142106
302.658276411307
302.660138385189
302.663228559074
302.6682365218
302.67619628726
302.688612996638
302.707422506791
302.734181970907
302.767380660536
302.794106231101
302.128881440537
302.091015248651
302.052775339958
302.023273134872
302.00293896662
301.989707620122
301.981346639206
301.976164343193
301.973014825023
301.971145508244
301.970066095654
301.969461431152
301.969133348005
301.968960989875
301.968873323049
301.96883013137
301.968809531624
301.968799964338
301.968795604982
301.968793650061
301.968792763123
301.968792336053
301.968792110142
301.968791981855
301.968791896748
301.968791839245
301.968791812455
301.968791823937
301.968791928959
301.968792261424
301.968793111722
301.968795141653
301.968799762022
301.968809905706
301.968831532804
301.968876388271
301.968966684685
301.969142887049
301.969476083604
301.970086502509
301.971170928597
301.973042013389
301.976186415483
301.981355001288
301.989701962234
302.002953422403
302.02341736789
302.053234641404
302.091874957646
302.129352025882
301.541949411976
301.49977709716
301.461743938419
301.433546044708
301.414596523544
301.402522295766
301.395036154403
301.390474220474
301.387742090966
301.386140473158
301.385225268007
301.38471709151
301.384443423061
301.384300599122
301.384228389448
301.384193023436
301.38417625328
301.384168530113
301.384165059548
301.384163532911
301.384162861814
301.384162552942
301.384162397006
301.384162311371
301.384162256807
301.384162218966
301.384162198012
301.384162196918
301.384162258641
301.384162494353
301.384163133918
301.384164707078
301.38416836395
301.384176486026
301.384193947887
301.384230441292
301.384304449057
301.384449952906
301.384727269525
301.385239751427
301.386159067345
301.387762919186
301.390493035047
301.395048319656
301.402532878747
301.414647521476
301.433761336136
301.462344239724
301.500948280814
301.543170248841
301.06274185529
301.022146167285
300.988408045297
300.964295846369
300.948502498644
300.938655024773
300.932667452281
300.929080920016
300.926963979972
300.925737739702
300.925043806062
300.924661502894
300.924456924236
300.924350717116
300.924297262076
300.924271192397
300.924258883715
300.924253250938
300.924250747047
300.924249664558
300.924249203006
300.924249000394
300.92424890329
300.92424885237
300.924248821319
300.924248798723
300.92424878329
300.924248776428
300.924248805484
300.924248953163
300.924249387533
300.924250490694
300.92425310675
300.924258975644
300.924271677451
300.924298383499
300.924352862587
300.924460627405
300.924667384967
300.925052375355
300.925749074593
300.926977215409
300.92909392078
300.932678725231
300.938672982334
300.948571048996
300.964539479481
300.989061400378
301.023477094423
301.064521844668
300.697871156702
300.662925883383
300.635671763825
300.616839361832
300.60481270956
300.597475144926
300.593100077982
300.590523845554
300.589024724025
300.588166201992
300.587684684125
300.587421231211
300.587280996776
300.587208492122
300.58717212011
300.587154434639
300.587146111299
300.587142321514
300.587140652562
300.58713994308
300.587139650287
300.587139528862
300.587139474467
300.587139447872
300.587139432746
300.587139420736
300.587139410167
300.587139402328
300.587139411153
300.587139493403
300.587139764328
300.587140477917
300.587142205101
300.587146116208
300.587154627615
300.587172609251
300.58720946101
300.587282713218
300.587424028459
300.58768887448
300.588171916457
300.589031630133
300.590531043002
300.593107770066
300.597492453515
300.604879810861
300.617069202444
300.636289322829
300.664239310566
300.699888619802
300.437291660116
300.409853541501
300.389537166731
300.375927487462
300.367447668081
300.362384138408
300.35942298035
300.357708531263
300.356724663406
300.356167326642
300.355857304838
300.355688713504
300.355599367628
300.355553319059
300.355530272615
300.355519089286
300.355513838592
300.355511457983
300.355510418611
300.355509984233
300.355509811511
300.355509745048
300.355509717933
300.355509706183
300.355509700622
300.355509695253
300.355509688518
300.355509682007
300.35550968213
300.355509722553
300.35550987782
300.355510308414
300.355511373589
300.355513807871
300.355519130636
300.355530418638
300.355553634633
300.355599957716
300.355689721367
300.355858880096
300.356169549826
300.356727395281
300.357711401018
300.359426694189
300.362396565111
300.367501605693
300.376116381953
300.390057315027
300.4110085022
300.439237774338
300.261906163849
300.241998314585
300.227890613382
300.218706720603
300.213118910655
300.209851922029
300.207977602526
300.206910358301
300.206306188904
300.205967511142
300.20578056358
300.205679449917
300.205626059709
300.205598607737
300.205584889877
300.205578241815
300.205575125968
300.20557371854
300.205573109129
300.205572858856
300.205572763633
300.205572730667
300.205572718682
300.205572714613
300.20557271431
300.205572712824
300.205572708836
300.205572703696
300.205572700911
300.205572718378
300.205572800908
300.205573045221
300.205573663859
300.205575090956
300.20557822476
300.205584890395
300.205598635315
300.20562613849
300.205679621341
300.205780875092
300.205967977652
300.206306703383
300.206910692038
300.207978320313
300.209858769067
300.213156103569
300.218845335222
300.228287795626
300.242919424863
300.263570709981
300.150200275857
300.136727895612
300.127536125569
300.12170883985
300.118243285771
300.116258369642
300.115140837032
300.114514905941
300.114165284398
300.113971279762
300.113864963368
300.113807739046
300.113777614779
300.113762152218
300.113754432582
300.113750694023
300.11374894407
300.113748156307
300.113747817994
300.113747681527
300.11374763203
300.11374761725
300.113747614055
300.113747614097
300.113747614984
300.113747614865
300.113747612669
300.113747609078
300.113747606003
300.113747612136
300.113747653023
300.113747784172
300.113748124636
300.113748917675
300.113750666024
300.11375439313
300.113762092089
300.113777527639
300.113807623656
300.113864817955
300.113971076883
300.114164907208
300.114514130012
300.115139900942
300.116260910761
300.118265639742
300.121801057024
300.127814512203
300.137402763207
300.151492188636
300.082629798519
300.074065233633
300.068413254254
300.064917031703
300.062882661486
300.061740536377
300.061109289241
300.060761440478
300.060569704619
300.060464362589
300.060407030609
300.06037630739
300.060360174423
300.060351903196
300.060347775394
300.060345776762
300.060344842105
300.060344422717
300.060344244117
300.060344173449
300.0603441494
300.060344144184
300.060344144458
300.060344145549
300.060344146583
300.060344146728
300.060344145631
300.060344143235
300.060344140802
300.060344142181
300.060344161069
300.060344227927
300.060344406387
300.06034482624
300.060345755306
300.060347739029
300.060351840678
300.060360073408
300.060376155281
300.060406809852
300.060464030782
300.060569143729
300.060760420482
300.061107782922
300.061740548482
300.062894334648
300.064973198085
300.068594039339
300.074523946713
300.083553363031
300.043685267347
300.038541485957
300.035245664156
300.0332529125
300.032117253841
300.031491918587
300.031152513036
300.030968476969
300.030868363095
300.030813895462
300.030784447605
300.03076873045
300.030760494288
300.030756274666
300.030754168702
300.030753148839
300.030752672214
300.03075245903
300.030752369061
300.03075233425
300.030752323519
300.030752322257
300.030752323204
300.030752324389
300.030752325232
300.030752325474
300.030752324938
300.030752323421
300.030752321662
300.0307523215
300.030752329736
300.030752362176
300.030752451656
300.030752664329
300.0307531366
300.030754145981
300.030756233502
300.030760425079
300.03076862188
300.030784282275
300.030813633702
300.030867902543
300.030967609223
300.031151074031
300.031490852531
300.032122388011
300.033284419537
300.035355236936
300.038832990327
300.044299852962
300.022235404553
300.019302976477
300.017472847775
300.016389517179
300.015784233523
300.015457130883
300.015282721791
300.015189652399
300.015139684499
300.015112762296
300.015098300426
300.015090610459
300.015086587539
300.015084527112
300.015083498314
300.015082999842
300.015082766991
300.01508266318
300.015082619805
300.015082603548
300.015082599165
300.015082599134
300.015082599952
300.01508260086
300.015082601449
300.015082601668
300.015082601409
300.015082600506
300.015082599363
300.015082598886
300.015082602245
300.015082617314
300.015082660399
300.015082763853
300.015082994349
300.015083487197
300.015084505995
300.015086550924
300.015090551305
300.015098206492
300.015112603778
300.015139383717
300.015189043702
300.015281609959
300.015455870163
300.015785932237
300.016405840022
300.017535192783
300.019477266788
300.022619139764
300.010915034524
300.009321786339
300.008350586577
300.007786913508
300.007477837091
300.007313801209
300.007227846562
300.007182700599
300.007158778809
300.007146014672
300.007139201421
300.007135591172
300.007133705097
300.007132739056
300.007132256321
300.007132022244
300.007131912933
300.007131864364
300.007131844291
300.007131837056
300.007131835388
300.007131835635
300.007131836226
300.007131836818
300.007131837188
300.007131837342
300.007131837218
300.007131836712
300.007131836032
300.007131835614
300.007131836888
300.007131843632
300.007131863622
300.007131912111
300.007132020473
300.007132252148
300.007132730527
300.007133689716
300.007135565471
300.007139158257
300.007145934556
300.007158608853
300.00718232298
300.007227092801
300.007312747472
300.007478024506
300.007794716621
300.008384045314
300.009420349045
300.011141258597
300.005176144213
300.004348277666
300.003854185202
300.003572622995
300.003420957225
300.003341852013
300.0033010992
300.003280028451
300.003269009685
300.003263187416
300.00326009903
300.003258467933
300.003257616742
300.003257180608
300.003256962433
300.003256856533
300.003256807087
300.003256785195
300.003256776252
300.003256773175
300.0032567726
300.003256772828
300.003256773198
300.003256773546
300.003256773758
300.003256773852
300.003256773794
300.003256773526
300.00325677315
300.003256772876
300.003256773322
300.003256776234
300.003256785199
300.003256807162
300.003256856376
300.003256961531
300.003257178289
300.003257612163
300.003258459753
300.003260083625
300.003263153287
300.003268923886
300.003279814565
300.003300634472
300.003341108526
300.003420644052
300.003576044405
300.003871186784
300.004401232385
300.005302713164
300.002375138689
300.001962487084
300.00172083644
300.001585450359
300.001513738344
300.0014769543
300.001458315257
300.001448826952
300.001443930235
300.001441368137
300.001440017551
300.001439306498
300.001438935747
300.001438745659
300.001438650438
300.001438604161
300.001438582556
300.001438573025
300.001438569179
300.001438567927
300.001438567754
300.001438567903
300.001438568112
300.001438568301
300.001438568415
300.001438568467
300.001438568439
300.001438568304
300.001438568109
300.00143856795
300.001438568092
300.001438569314
300.001438573212
300.001438582851
300.001438604501
300.001438650708
300.00143874574
300.001438935516
300.001439305623
300.001440014413
300.001441356481
300.001443891015
300.001448714307
300.001458049425
300.00147648479
300.001513366103
300.001586805152
300.001729041395
300.001989621546
300.002442631689
300.001056185225
300.000858338318
300.000744438207
300.000681622109
300.00064887152
300.000632338542
300.000624094655
300.00061996205
300.000617857333
300.000616766949
300.000616195744
300.000615895927
300.000615739694
300.000615659519
300.000615619292
300.000615599713
300.000615590571
300.000615586553
300.000615584953
300.000615584464
300.000615584423
300.000615584505
300.000615584615
300.000615584711
300.000615584768
300.000615584795
300.000615584782
300.000615584718
300.000615584622
300.000615584539
300.00061558458
300.000615585079
300.000615586725
300.000615590835
300.000615600082
300.000615619787
300.0006156602
300.000615740667
300.00061589723
300.00061619675
300.000616764478
300.000617841053
300.000619906209
300.00062395175
300.000632065658
300.000648584833
300.000682088592
300.000748207934
300.000871643429
300.001090614179
300.000455819656
300.000364355696
300.00031250174
300.000284317851
300.000269840155
300.000262642039
300.000259108264
300.000257363402
300.000256486431
300.00025603662
300.000255802455
300.000255679903
300.000255616068
300.00025558327
300.000255566783
300.000255558744
300.00025555499
300.000255553345
300.0002555527
300.000255552513
300.000255552507
300.000255552551
300.000255552604
300.00025555265
300.000255552677
300.00025555269
300.000255552684
300.000255552655
300.00025555261
300.00025555257
300.00025555258
300.00025555278
300.000255553458
300.000255555165
300.000255559009
300.000255567182
300.000255583888
300.000255617038
300.000255681348
300.000255804171
300.000256037082
300.000256480337
300.000257337106
300.000259035406
300.000262493681
300.000269655775
300.000284442626
300.000314153488
300.000370617174
300.00047267361
300.000191182232
300.00015032266
300.000127475583
300.000115223636
300.000109016842
300.000105975224
300.000104504252
300.000103788632
300.000103433672
300.000103253431
300.000103160188
300.000103111524
300.000103086181
300.000103073141
300.00010306657
300.00010306336
300.00010306186
300.000103061204
300.000103060949
300.000103060879
300.00010306088
300.000103060901
300.000103060925
300.000103060946
300.000103060958
300.000103060964
300.000103060961
300.000103060948
300.000103060929
300.00010306091
300.000103060913
300.000103060992
300.000103061266
300.000103061958
300.000103063517
300.000103066821
300.000103073549
300.000103086846
300.00010311255
300.000103161529
300.000103254391
300.000103431661
300.00010377678
300.00010446878
300.000105898972
300.000108910591
300.000115236235
300.000128166507
300.000153158169
300.000199121921
300.000078031579
300.00006035821
300.000050598053
300.000045428634
300.000042843563
300.000041593983
300.000040998319
300.000040712701
300.000040572871
300.000040502582
300.000040466447
300.000040447639
300.000040437842
300.000040432792
300.00004043024
300.00004042899
300.000040428404
300.000040428148
300.000040428049
300.000040428022
300.000040428023
300.000040428031
300.000040428041
300.00004042805
300.000040428055
300.000040428057
300.000040428056
300.000040428051
300.000040428043
300.000040428035
300.000040428037
300.000040428068
300.000040428177
300.000040428453
300.000040429071
300.000040430376
300.000040433021
300.000040438225
300.000040448242
300.000040467272
300.000040503325
300.00004057232
300.000040707553
300.000040981737
300.000041556652
300.000042786987
300.000045414408
300.000050874031
300.000061596701
300.000081639878
300.00003103111
300.000023616169
300.000019566928
300.00001744664
300.00001639906
300.000015899171
300.00001566414
300.000015553019
300.000015499316
300.000015472591
300.000015458937
300.000015451847
300.000015448152
300.000015446243
300.000015445274
300.000015444797
300.000015444572
300.000015444472
300.000015444433
300.000015444422
300.000015444421
300.000015444424
300.000015444428
300.000015444431
300.000015444432
300.000015444433
300.000015444433
300.000015444431
300.000015444428
300.000015444425
300.000015444427
300.00001544444
300.000015444484
300.000015444592
300.000015444833
300.000015445339
300.000015446357
300.000015448348
300.000015452161
300.00001545938
300.000015473035
300.000015499215
300.000015550849
300.000015656662
300.000015881662
300.000016370753
300.000017432021
300.000019672109
300.00002413901
300.00003261658
300.000012037476
300.000009014936
300.000007381026
300.000006534427
300.000006120798
300.000005925797
300.000005835308
300.000005793103
300.000005772962
300.000005763038
300.000005757997
300.000005755384
300.000005754021
300.000005753313
300.000005752951
300.000005752771
300.000005752685
300.000005752646
300.000005752629
300.000005752623
300.000005752622
300.000005752622
300.000005752622
300.000005752623
300.000005752623
300.000005752623
300.000005752623
300.000005752623
300.000005752622
300.000005752622
300.000005752623
300.00000575263
300.000005752648
300.000005752691
300.000005752784
300.000005752978
300.000005753363
300.00000575411
300.000005755532
300.000005758211
300.000005763266
300.000005772967
300.000005792208
300.000005832042
300.000005917894
300.000006107348
300.00000652479
300.000007419192
300.000009228674
300.000012712367
300.00000456004
300.000003361191
300.000002719092
300.000002389611
300.000002230295
300.000002156032
300.000002121994
300.000002106322
300.000002098933
300.000002095326
300.000002093504
300.000002092559
300.000002092064
300.000002091805
300.00000209167
300.000002091602
300.000002091568
300.000002091551
300.000002091543
300.000002091539
300.000002091537
300.000002091536
300.000002091535
300.000002091534
300.000002091534
300.000002091534
300.000002091534
300.000002091534
300.000002091534
300.000002091535
300.000002091537
300.000002091541
300.000002091549
300.000002091567
300.000002091604
300.000002091678
300.000002091823
300.0000020921
300.000002092622
300.000002093597
300.00000209543
300.000002098948
300.000002105957
300.000002120605
300.000002152584
300.000002224182
300.000002384273
300.000002732218
300.000003445946
300.000004838852
300.000001688768
300.000001225448
300.000000979412
300.000000854303
300.000000794388
300.000000766751
300.000000754228
300.00000074853
300.000000745874
300.000000744587
300.000000743938
300.000000743601
300.000000743422
300.000000743326
300.000000743275
300.000000743247
300.000000743232
300.000000743224
300.000000743219
300.000000743215
300.000000743213
300.000000743211
300.00000074321
300.000000743209
300.000000743208
300.000000743208
300.000000743208
300.000000743209
300.000000743209
300.00000074321
300.000000743212
300.000000743215
300.00000074322
300.000000743228
300.000000743244
300.000000743274
300.000000743329
300.000000743432
300.000000743622
300.000000743973
300.000000744627
300.000000745879
300.00000074838
300.000000753649
300.000000765291
300.000000791716
300.000000851633
300.000000983656
300.0000012581
300.000001800737
300.000000612118
300.00000043743
300.000000345428
300.000000299053
300.000000277044
300.000000266989
300.000000262478
300.000000260447
300.000000259507
300.000000259054
300.000000258824
300.000000258703
300.000000258636
300.000000258599
300.000000258577
300.000000258564
300.000000258556
300.00000025855
300.000000258546
300.000000258543
300.000000258541
300.000000258539
300.000000258537
300.000000258536
300.000000258536
300.000000258535
300.000000258535
300.000000258536
300.000000258537
300.000000258538
300.00000025854
300.000000258542
300.000000258546
300.000000258551
300.000000258559
300.000000258573
300.000000258595
300.000000258635
300.000000258706
300.000000258832
300.000000259064
300.000000259504
300.000000260381
300.000000262239
300.000000266385
300.000000275914
300.000000297809
300.000000346698
300.000000449669
300.000000655895
300.000000217459
300.000000153135
300.000000119552
300.000000102782
300.000000094893
300.000000091318
300.000000089727
300.000000089014
300.000000088685
300.000000088524
300.000000088441
300.000000088395
300.000000088368
300.000000088351
300.00000008834
300.000000088332
300.000000088326
300.000000088321
300.000000088318
300.000000088315
300.000000088312
300.00000008831
300.000000088309
300.000000088308
300.000000088307
300.000000088307
300.000000088307
300.000000088307
300.000000088308
300.000000088309
300.000000088311
300.000000088314
300.000000088317
300.000000088321
300.000000088326
300.000000088333
300.000000088345
300.000000088362
300.000000088391
300.000000088438
300.000000088522
300.000000088677
300.000000088982
300.000000089626
300.000000091072
300.000000094428
300.000000102233
300.000000119893
300.000000157604
300.000000234144
300.000000075895
300.000000052745
300.000000040796
300.000000034902
300.000000032156
300.000000030919
300.000000030369
300.000000030121
300.000000030004
300.000000029945
300.000000029912
300.000000029891
300.000000029877
300.000000029867
300.00000002986
300.000000029854
300.000000029849
300.000000029845
300.000000029841
300.000000029838
300.000000029836
300.000000029834
300.000000029832
300.000000029831
300.000000029831
300.00000002983
300.00000002983
300.000000029831
300.000000029832
300.000000029833
300.000000029835
300.000000029837
300.00000002984
300.000000029843
300.000000029848
300.000000029853
300.00000002986
300.00000002987
300.000000029884
300.000000029904
300.000000029937
300.000000029995
300.000000030102
300.000000030324
300.000000030818
300.000000031968
300.00000003467
300.000000040872
300.000000054337
300.000000082103
300.000000026159
300.000000018015
300.000000013897
300.000000011911
300.000000010999
300.000000010588
300.000000010402
300.000000010314
300.00000001027
300.000000010244
300.000000010228
300.000000010216
300.000000010207
300.000000010199
300.000000010193
300.000000010188
300.000000010183
300.000000010179
300.000000010176
300.000000010173
300.00000001017
300.000000010168
300.000000010167
300.000000010166
300.000000010165
300.000000010165
300.000000010165
300.000000010165
300.000000010166
300.000000010167
300.000000010169
300.000000010171
300.000000010174
300.000000010177
300.000000010181
300.000000010186
300.000000010192
300.000000010199
300.000000010208
300.000000010219
300.000000010235
300.000000010259
300.0000000103
300.000000010378
300.000000010544
300.000000010923
300.000000011817
300.000000013908
300.00000001857
300.000000028416
300.00000000903
300.000000006235
300.00000000489
300.000000004279
300.000000004007
300.000000003882
300.00000000382
300.000000003787
300.000000003766
300.000000003752
300.000000003741
300.000000003732
300.000000003724
300.000000003718
300.000000003712
300.000000003707
300.000000003702
300.000000003698
300.000000003695
300.000000003692
300.00000000369
300.000000003688
300.000000003686
300.000000003685
300.000000003685
300.000000003684
300.000000003684
300.000000003685
300.000000003686
300.000000003687
300.000000003689
300.000000003691
300.000000003693
300.000000003697
300.000000003701
300.000000003705
300.00000000371
300.000000003716
300.000000003723
300.000000003732
300.000000003742
300.000000003756
300.000000003774
300.000000003804
300.000000003859
300.000000003975
300.000000004242
300.000000004889
300.000000006425
300.000000009833
300.000000003244
300.000000002315
300.000000001932
300.000000001795
300.000000001741
300.000000001712
300.000000001692
300.000000001677
300.000000001664
300.000000001653
300.000000001644
300.000000001636
300.000000001629
300.000000001622
300.000000001616
300.000000001611
300.000000001607
300.000000001603
300.0000000016
300.000000001597
300.000000001595
300.000000001593
300.000000001592
300.000000001591
300.00000000159
300.00000000159
300.00000000159
300.00000000159
300.000000001591
300.000000001592
300.000000001594
300.000000001596
300.000000001599
300.000000001602
300.000000001606
300.00000000161
300.000000001615
300.000000001621
300.000000001627
300.000000001635
300.000000001643
300.000000001653
300.000000001665
300.00000000168
300.000000001698
300.000000001726
300.00000000178
300.000000001932
300.00000000238
300.000000003524
300.000000001327
300.000000001036
300.00000000098
300.000000001002
300.000000001021
300.000000001024
300.000000001017
300.000000001007
300.000000000996
300.000000000987
300.000000000978
300.00000000097
300.000000000963
300.000000000957
300.000000000951
300.000000000946
300.000000000942
300.000000000938
300.000000000935
300.000000000932
300.00000000093
300.000000000928
300.000000000927
300.000000000926
300.000000000925
300.000000000925
300.000000000925
300.000000000925
300.000000000926
300.000000000927
300.000000000929
300.000000000931
300.000000000934
300.000000000937
300.00000000094
300.000000000945
300.00000000095
300.000000000955
300.000000000962
300.000000000969
300.000000000977
300.000000000986
300.000000000996
300.000000001006
300.000000001013
300.000000001012
300.000000000996
300.000000000982
300.00000000106
300.000000001423
300.000000000706
300.000000000629
300.000000000681
300.000000000755
300.000000000797
300.000000000809
300.000000000806
300.000000000797
300.000000000787
300.000000000778
300.000000000769
300.000000000761
300.000000000754
300.000000000748
300.000000000743
300.000000000738
300.000000000734
300.00000000073
300.000000000727
300.000000000724
300.000000000722
300.00000000072
300.000000000719
300.000000000718
300.000000000717
300.000000000717
300.000000000717
300.000000000718
300.000000000718
300.00000000072
300.000000000721
300.000000000723
300.000000000726
300.000000000729
300.000000000732
300.000000000737
300.000000000741
300.000000000747
300.000000000753
300.00000000076
300.000000000768
300.000000000777
300.000000000787
300.000000000796
300.0000000008
300.00000000079
300.000000000753
300.000000000684
300.000000000639
300.000000000738
300.000000000511
300.000000000505
300.000000000592
300.000000000681
300.000000000729
300.000000000744
300.000000000741
300.000000000732
300.000000000722
300.000000000712
300.000000000704
300.000000000696
300.000000000689
300.000000000683
300.000000000678
300.000000000673
300.000000000669
300.000000000665
300.000000000662
300.00000000066
300.000000000658
300.000000000656
300.000000000655
300.000000000654
300.000000000653
300.000000000653
300.000000000653
300.000000000653
300.000000000654
300.000000000655
300.000000000657
300.000000000659
300.000000000661
300.000000000664
300.000000000668
300.000000000672
300.000000000676
300.000000000682
300.000000000688
300.000000000695
300.000000000703
300.000000000712
300.000000000722
300.000000000731
300.000000000735
300.000000000724
300.00000000068
300.000000000595
300.00000000051
300.000000000522
300.000000000454
300.000000000471
300.000000000568
300.000000000661
300.00000000071
300.000000000724
300.000000000721
300.000000000712
300.000000000701
300.000000000691
300.000000000682
300.000000000675
300.000000000668
300.000000000662
300.000000000657
300.000000000652
300.000000000648
300.000000000645
300.000000000642
300.000000000639
300.000000000637
300.000000000636
300.000000000634
300.000000000634
300.000000000633
300.000000000633
300.000000000633
300.000000000633
300.000000000634
300.000000000635
300.000000000637
300.000000000639
300.000000000641
300.000000000644
300.000000000647
300.000000000651
300.000000000656
300.000000000661
300.000000000667
300.000000000674
300.000000000683
300.000000000692
300.000000000702
300.000000000711
300.000000000716
300.000000000705
300.000000000661
300.000000000572
300.000000000475
300.000000000458
300.000000000443
300.000000000467
300.000000000566
300.000000000658
300.000000000706
300.000000000718
300.000000000714
300.000000000704
300.000000000693
300.000000000683
300.000000000674
300.000000000666
300.00000000066
300.000000000654
300.000000000649
300.000000000644
300.000000000641
300.000000000637
300.000000000635
300.000000000632
300.00000000063
300.000000000629
300.000000000628
300.000000000627
300.000000000626
300.000000000626
300.000000000626
300.000000000626
300.000000000627
300.000000000628
300.00000000063
300.000000000631
300.000000000634
300.000000000637
300.00000000064
300.000000000644