/*--------------------------------*- C++ -*----------------------------------*\
  =========                 |
  \\      /  F ield         | OpenFOAM: The Open Source CFD Toolbox
   \\    /   O peration     | Website:  https://openfoam.org
    \\  /    A nd           | Version:  10
     \\/     M anipulation  |
\*---------------------------------------------------------------------------*/
FoamFile
{
    format      ascii;
    class       volVectorField;
    location    "9.6";
    object      U;
}
// * * * * * * * * * * * * * * * * * * * * * * * * * * * * * * * * * * * * * //

dimensions      [0 1 -1 0 0 0 0];

internalField   nonuniform List<vector> 
2500
(
(-1.07941266678585e-06 -1.04694155387641e-06 1.15048525985766e-25)
(-3.04839587921372e-06 -1.48077780671757e-06 1.96417138907992e-24)
(-3.63762643409852e-06 -1.67199805266542e-06 1.21779032779645e-25)
(-3.27131857199931e-06 -1.77805944244998e-06 -1.5960863186405e-25)
(-2.5297336776705e-06 -1.80429234995117e-06 -7.09681365246152e-25)
(-1.83261168136302e-06 -1.79755859252098e-06 -7.10224450849908e-25)
(-1.28149729786016e-06 -1.78080605256169e-06 -3.21179397830971e-25)
(-8.86905592265572e-07 -1.76496082618144e-06 -3.03281559175382e-25)
(-6.11677708211263e-07 -1.75207222006838e-06 -4.41024256417089e-25)
(-4.23590291853443e-07 -1.74247190933904e-06 1.50536633778434e-24)
(-2.95056535028314e-07 -1.73555045264823e-06 1.14790315683672e-24)
(-2.07131851373994e-07 -1.73075717015022e-06 2.72727365883622e-24)
(-1.463752167503e-07 -1.72752958309309e-06 2.34232722160491e-24)
(-1.03813354979292e-07 -1.72542018032243e-06 9.37954949687806e-25)
(-7.34180047944583e-08 -1.72405958354513e-06 2.03616409527973e-24)
(-5.12261596708936e-08 -1.72320670137303e-06 5.87819549314931e-25)
(-3.46450887442243e-08 -1.72266926397821e-06 2.67194665677479e-24)
(-2.19604633389294e-08 -1.72232760226966e-06 2.11537925667503e-24)
(-1.20334863151674e-08 -1.72211837334481e-06 3.44829670096144e-25)
(-4.09122027658126e-09 -1.72197939544161e-06 1.51066165002701e-24)
(2.40695582175727e-09 -1.72188748464896e-06 -7.356846094002e-26)
(7.84163178845618e-09 -1.72183590233439e-06 -2.06426192194494e-25)
(1.25090707460071e-08 -1.72179728549967e-06 2.19435963661865e-24)
(1.6647861175122e-08 -1.72177731482205e-06 1.79982769088137e-25)
(2.04452832911016e-08 -1.72177925983272e-06 -1.3716103796926e-25)
(2.40757158473073e-08 -1.72178635931621e-06 2.28136607217848e-24)
(2.77123981442344e-08 -1.72180689908319e-06 1.28635163558872e-25)
(3.15303031391237e-08 -1.72183658321164e-06 7.35539077082425e-25)
(3.5721432391433e-08 -1.7218870739259e-06 2.17820003426449e-24)
(4.05191766842339e-08 -1.72195671555076e-06 -8.4626760223139e-26)
(4.62172573956332e-08 -1.72206336904574e-06 1.34768295582777e-25)
(5.31985090785599e-08 -1.72222424174088e-06 -1.16796439372574e-25)
(6.20007107145155e-08 -1.72245794626804e-06 6.01062764159895e-25)
(7.33928375583005e-08 -1.72282279428079e-06 6.01346166431604e-25)
(8.85186950566465e-08 -1.72338451646448e-06 -2.12687944131672e-26)
(1.09098917191738e-07 -1.72426805138388e-06 1.75461118831139e-24)
(1.37733913212291e-07 -1.72564609516247e-06 -2.07754060896561e-24)
(1.78389647885151e-07 -1.72777404007331e-06 -1.94758907672108e-25)
(2.37078044644604e-07 -1.73100793591988e-06 2.16201460859454e-26)
(3.22758385563047e-07 -1.73578866995128e-06 -1.0767539487943e-24)
(4.48865088712777e-07 -1.74267853699899e-06 -2.95155578759663e-24)
(6.34386554904619e-07 -1.7522411851533e-06 -3.50146458909044e-24)
(9.0710281916639e-07 -1.76514295965272e-06 -1.79811787937879e-24)
(1.30000045743078e-06 -1.7811504618138e-06 -3.86927015888419e-24)
(1.85182938608514e-06 -1.79837339191737e-06 -3.64288108527671e-24)
(2.55494120746876e-06 -1.80588748800387e-06 -1.91532728534811e-24)
(3.30830443475129e-06 -1.77997082481319e-06 -3.65822753247364e-24)
(3.68510803992038e-06 -1.67207993122477e-06 -3.1173790642899e-24)
(3.07987253288638e-06 -1.476759174244e-06 -1.4130536765864e-24)
(1.08235219435539e-06 -1.04616748697617e-06 -1.79792669428976e-24)
(-1.62914590755606e-06 -9.14225112561021e-07 -1.21152652507235e-25)
(-5.5694406229901e-06 -1.96623712983402e-06 -1.83883923285439e-25)
(-6.85908540360546e-06 -3.1346898496493e-06 -1.61130356227388e-25)
(-6.31948047283329e-06 -3.81141103208299e-06 -5.20821562760685e-25)
(-4.98766066785114e-06 -3.9792445757297e-06 -2.2232984580717e-24)
(-3.67906981694899e-06 -3.90061669429502e-06 -2.08577453883667e-24)
(-2.61726884071422e-06 -3.75702342671223e-06 -8.91031804724291e-25)
(-1.84223433280859e-06 -3.6247547980962e-06 -8.86760947530135e-25)
(-1.29384653406516e-06 -3.52274485564051e-06 -1.79009056874118e-24)
(-9.13737259481846e-07 -3.44954306384664e-06 -1.10718369776262e-25)
(-6.5008529863843e-07 -3.39878136732213e-06 2.18805926657518e-24)
(-4.66472957340894e-07 -3.3642931583053e-06 2.22832336032279e-24)
(-3.36928367942877e-07 -3.34116286040919e-06 1.11801475576445e-24)
(-2.43996518324794e-07 -3.32575792590959e-06 1.5644298275263e-24)
(-1.75939272038787e-07 -3.31550852040943e-06 5.37107007945726e-25)
(-1.24971994407882e-07 -3.30865075764721e-06 5.74591453983689e-25)
(-8.5926880617334e-08 -3.30400587738225e-06 1.25257546436305e-24)
(-5.53632773420255e-08 -3.3008057488035e-06 2.40997953233701e-25)
(-3.09378739303277e-08 -3.29857377552631e-06 -5.05087211123064e-26)
(-1.10210322363995e-08 -3.2969740683123e-06 -4.72789684824077e-25)
(5.53566087481575e-09 -3.29582608538344e-06 -7.43760164567621e-25)
(1.95920605294864e-08 -3.29500499419105e-06 -1.26041833875913e-24)
(3.18161952982237e-08 -3.29442869623632e-06 7.03246426448994e-25)
(4.2742577804688e-08 -3.29404566924128e-06 -1.22034650841582e-25)
(5.2835549013655e-08 -3.29385017992479e-06 -1.1321875767871e-24)
(6.25096365454496e-08 -3.29380441101321e-06 5.30288512916811e-25)
(7.21722770296974e-08 -3.29392459885899e-06 -3.25581926415367e-25)
(8.22394251802683e-08 -3.29421713183384e-06 1.57838284648005e-24)
(9.3165764022986e-08 -3.29470791523356e-06 1.13917900694833e-24)
(1.05490813790468e-07 -3.29544401521023e-06 -8.2038142030546e-25)
(1.19870746280848e-07 -3.29651561383396e-06 4.32577236492105e-25)
(1.37166400956492e-07 -3.29803338269023e-06 -3.89582708174817e-25)
(1.58525641171816e-07 -3.30020105903496e-06 1.73452060693422e-24)
(1.85561406843114e-07 -3.30333452543993e-06 1.65987520761878e-24)
(2.20624286358633e-07 -3.30791330332895e-06 -5.9487446929405e-25)
(2.67174477153145e-07 -3.31471892642409e-06 3.74323459628231e-25)
(3.30380887797627e-07 -3.32491563575454e-06 -9.13370938009179e-25)
(4.18031699842107e-07 -3.34026464624933e-06 -1.97286145020508e-26)
(5.41869196290758e-07 -3.36331047145943e-06 3.54194995020778e-25)
(7.19340151075901e-07 -3.39768043504082e-06 -2.21203265142382e-24)
(9.76421986965443e-07 -3.44831353658435e-06 -3.42132534475908e-24)
(1.34967934305661e-06 -3.52147454299932e-06 -3.53898545810058e-24)
(1.89139450558281e-06 -3.62388360066604e-06 -3.79471548617835e-24)
(2.661457998968e-06 -3.75767768865066e-06 -3.78212168731656e-24)
(3.72316154326728e-06 -3.90492309213265e-06 -4.02698739164097e-24)
(5.04203419280759e-06 -3.98898886336773e-06 -3.84265553317771e-24)
(6.3959681881007e-06 -3.82320500342426e-06 -3.86862383063692e-24)
(6.95686159554064e-06 -3.13378077263706e-06 -3.54515513320621e-24)
(5.64124316643869e-06 -1.9416465962226e-06 -2.79528339145445e-24)
(1.6400223902239e-06 -8.96950170884596e-07 -1.53506699433761e-24)
(-1.26758692631975e-06 1.37373103876426e-06 -4.35519379517385e-25)
(-5.56514180714414e-06 4.63879295928643e-08 -2.08180829195615e-24)
(-7.05124217840528e-06 -2.25270759324571e-06 -4.98246656435621e-25)
(-6.68056446463646e-06 -3.60517581502574e-06 -6.62408828316113e-25)
(-5.40328603884736e-06 -3.95443988529436e-06 -2.88634081366878e-24)
(-4.08517941509746e-06 -3.79379907483548e-06 -3.3518999735692e-24)
(-2.97929929479183e-06 -3.49547214736552e-06 -1.16969943158993e-24)
(-2.1515812990143e-06 -3.21828246830728e-06 -1.21373606558845e-24)
(-1.55214418638083e-06 -3.00464953750849e-06 -3.27104676382854e-24)
(-1.12692150477441e-06 -2.85183750925908e-06 -2.22580894847456e-24)
(-8.24619953426193e-07 -2.74630062980158e-06 2.72088945822098e-24)
(-6.08390618328641e-07 -2.67464954635201e-06 9.90327449407164e-25)
(-4.51450834552947e-07 -2.62638416557227e-06 -1.02761833261604e-24)
(-3.35559274717832e-07 -2.59390419641262e-06 1.84107553230159e-24)
(-2.48252376468189e-07 -2.57194292325298e-06 -1.46664594621985e-24)
(-1.81111036477735e-07 -2.55691258286193e-06 6.51028779096062e-26)
(-1.28431364739691e-07 -2.54647391652843e-06 -1.1877332428064e-25)
(-8.63019367706641e-08 -2.53908879807607e-06 -2.01106504790307e-24)
(-5.19927683819547e-08 -2.53376855494802e-06 -7.65910240782659e-25)
(-2.35539809285189e-08 -2.52988879261722e-06 -2.64619137267697e-24)
(4.41170486584497e-10 -2.52703959110949e-06 -1.36300438799939e-24)
(2.10821141576012e-08 -2.52494950830089e-06 -2.59277566805569e-24)
(3.92375286634375e-08 -2.52346837017039e-06 -6.78803466798983e-25)
(5.56204231873153e-08 -2.52247369467198e-06 -5.42281067857887e-25)
(7.08529295716746e-08 -2.52191914048363e-06 -2.43650199481234e-24)
(8.55044058837441e-08 -2.52176606373323e-06 -9.7882107457046e-25)
(1.00126034898655e-07 -2.52201934285023e-06 -1.27126883505735e-24)
(1.1529532397985e-07 -2.52271301208106e-06 2.23004205829995e-24)
(1.31623084550951e-07 -2.52390011979994e-06 5.01297043696434e-26)
(1.49816210724957e-07 -2.5256866426959e-06 -1.94679881114391e-24)
(1.70738800342834e-07 -2.52824506547108e-06 1.03873619552898e-24)
(1.95472743020651e-07 -2.53182546868095e-06 -1.00414589013293e-24)
(2.25435558254428e-07 -2.5368502628863e-06 2.84579604879715e-24)
(2.62571138895549e-07 -2.54394798781168e-06 2.64801627672892e-24)
(3.09604646333629e-07 -2.55411123951037e-06 -1.56552781196912e-24)
(3.70453942206262e-07 -2.56888303200866e-06 -6.57428345466916e-25)
(4.50831987716609e-07 -2.59060787138802e-06 1.3890519519731e-25)
(5.59171070437729e-07 -2.6228500397558e-06 3.10000001302307e-25)
(7.07946120652031e-07 -2.67085389887688e-06 1.06998307018447e-24)
(9.15418896841486e-07 -2.74225842384681e-06 -3.5679547793282e-24)
(1.20841649347852e-06 -2.84758185715865e-06 -2.70251851025849e-24)
(1.62401341738494e-06 -3.0004625417987e-06 -2.80861749703445e-24)
(2.21406017572619e-06 -3.21511072860619e-06 -4.97663164250126e-24)
(3.03428475006695e-06 -3.49567278973205e-06 -3.00295618434037e-24)
(4.13800565447351e-06 -3.80168679087307e-06 -3.3409561137552e-24)
(5.46537298030136e-06 -3.97372717716486e-06 -5.32342858955048e-24)
(6.76600252501401e-06 -3.6293612447076e-06 -3.14497120476733e-24)
(7.16277617302e-06 -2.25257234286705e-06 -2.83612056819498e-24)
(5.65806773293577e-06 9.47471825945973e-08 -4.35875523922645e-24)
(1.28856173149241e-06 1.42005470604265e-06 -1.11641032502816e-24)
(-7.0055994916954e-07 3.63699550633326e-06 -5.00427845987047e-25)
(-4.14064658918705e-06 2.4120566787765e-06 -2.61991079891081e-24)
(-5.4914636371974e-06 -8.65332349679567e-07 -4.87294262302679e-25)
(-5.44395479629818e-06 -2.8503158268676e-06 -3.79550572867612e-25)
(-4.58355026070585e-06 -3.41782679060405e-06 -1.47034821319576e-24)
(-3.60888166562439e-06 -3.22957532350703e-06 -2.15033759623373e-24)
(-2.73936217631033e-06 -2.82324277531326e-06 -9.14281541885109e-25)
(-2.05854880734656e-06 -2.43336135930618e-06 -9.94302912551129e-25)
(-1.54414058246361e-06 -2.12844932051137e-06 -2.4783276702458e-24)
(-1.16426408141173e-06 -1.90804692486694e-06 -2.53783634835327e-24)
(-8.83140272865612e-07 -1.75446142450126e-06 1.60874099436046e-24)
(-6.73942572469976e-07 -1.64907498270603e-06 -7.93506796653224e-25)
(-5.16195272955324e-07 -1.57716943545668e-06 -1.89131114670136e-24)
(-3.9547861565374e-07 -1.52801659956017e-06 7.94590888296692e-25)
(-3.01566010422013e-07 -1.49415179981847e-06 -2.11888905301942e-24)
(-2.27290132362857e-07 -1.47051785187229e-06 -2.15517224068803e-25)
(-1.67589457082406e-07 -1.45375820315382e-06 -1.40477580290377e-24)
(-1.18846294116178e-07 -1.44166354476535e-06 -2.45472641949582e-24)
(-7.84488695546022e-08 -1.43278951135027e-06 -8.55581653533031e-25)
(-4.44433658443471e-08 -1.42621105608392e-06 -3.07392115384482e-24)
(-1.53459955617526e-08 -1.42130999414149e-06 -1.23686860612912e-24)
(9.99605753637453e-09 -1.41769076768486e-06 -1.85379086631311e-24)
(3.25344433735061e-08 -1.41508644084547e-06 -1.63020464252696e-24)
(5.30676222489159e-08 -1.41334040147243e-06 -5.45609731889369e-25)
(7.23008415683837e-08 -1.4123362615835e-06 -1.66764469986088e-24)
(9.08861504290119e-08 -1.41205087538987e-06 -1.85446491600791e-24)
(1.09454246536522e-07 -1.41246918552618e-06 -8.26803581013281e-25)
(1.28660700213775e-07 -1.41363634704791e-06 1.28796420770248e-24)
(1.49203654449246e-07 -1.41566347483471e-06 -1.11981612902887e-24)
(1.71873365637482e-07 -1.41870303387764e-06 -1.42907211283768e-24)
(1.97607742267299e-07 -1.42301702148283e-06 3.41964151929879e-25)
(2.27561595660691e-07 -1.42901374654088e-06 -5.49877783453583e-25)
(2.63199750801407e-07 -1.43729704288498e-06 1.92040790104066e-24)
(3.06459026521704e-07 -1.44881056716418e-06 1.81058395639244e-24)
(3.59954749679359e-07 -1.46500958505797e-06 -1.07998170853753e-24)
(4.27301454167471e-07 -1.48810397127039e-06 -1.46737365254462e-24)
(5.13557358410543e-07 -1.52145061991141e-06 1.19571570442836e-24)
(6.25906635017549e-07 -1.57009068478687e-06 4.04564204308212e-25)
(7.74586123944657e-07 -1.64148451505915e-06 3.61950969340697e-25)
(9.74070250969663e-07 -1.74640560135659e-06 -2.97305371119171e-24)
(1.244899766637e-06 -1.89966606975231e-06 -1.02564841249365e-24)
(1.61413779686194e-06 -2.12023170860806e-06 -1.01517353216314e-24)
(2.11807398338554e-06 -2.4267866585433e-06 -3.89405967570826e-24)
(2.78997239410654e-06 -2.82187941250694e-06 -1.27213211281959e-24)
(3.65500875847636e-06 -3.23990357773262e-06 -1.6927598817247e-24)
(4.63508396790648e-06 -3.44576169206327e-06 -4.42627193836633e-24)
(5.51465843823289e-06 -2.88748213632271e-06 -1.52001438757639e-24)
(5.5882208358196e-06 -8.70162728833566e-07 -1.18192675091807e-24)
(4.23348232442141e-06 2.47885503323191e-06 -3.66963378331747e-24)
(7.28730077081889e-07 3.71224838059849e-06 -8.84013347866856e-26)
(-1.6197036856025e-07 5.35879422662592e-06 -2.72182554089536e-25)
(-2.23363620120361e-06 4.45840665503998e-06 -1.51907697680268e-24)
(-3.29005946975034e-06 5.60953675484375e-07 -1.16108041343828e-25)
(-3.57641116668009e-06 -1.9017568765241e-06 4.39502562564343e-26)
(-3.24938548340298e-06 -2.69499471349101e-06 -2.9896791191998e-27)
(-2.74529003007606e-06 -2.5510256675001e-06 -1.21054944544146e-24)
(-2.22126880248694e-06 -2.11210087192032e-06 -4.7396219826529e-25)
(-1.76917102562862e-06 -1.66781259620802e-06 -5.37558636582921e-25)
(-1.39832893794054e-06 -1.31117857680757e-06 -1.56672060062968e-24)
(-1.10467234267734e-06 -1.04827770326307e-06 -1.33725966532223e-24)
(-8.73328953947229e-07 -8.6187043008257e-07 1.33989297242445e-24)
(-6.91391426860008e-07 -7.31679873781696e-07 1.70974253482509e-25)
(-5.47418851683347e-07 -6.41178623027636e-07 -7.68713618040076e-25)
(-4.3259501477041e-07 -5.78067240898414e-07 6.62981749389422e-25)
(-3.40124198185315e-07 -5.33690250545333e-07 -9.23563649444738e-25)
(-2.6487067356337e-07 -5.02086541461735e-07 7.71611163182228e-26)
(-2.02947811717438e-07 -4.79232810833075e-07 -3.90004639450068e-25)
(-1.51395039277675e-07 -4.62449607608354e-07 -1.0498398836238e-24)
(-1.07956809118888e-07 -4.49966172337373e-07 -2.82987146346546e-25)
(-7.08672801225094e-08 -4.40581945743376e-07 -1.40936458397601e-24)
(-3.87280297547849e-08 -4.33527196334461e-07 -6.16607176357712e-25)
(-1.04069155872065e-08 -4.28279165804774e-07 -1.04543455312181e-24)
(1.50436517128547e-08 -4.24483618916442e-07 -7.17241581911816e-25)
(3.84455485753214e-08 -4.21920642468642e-07 -1.66029544468601e-25)
(6.05249144780873e-08 -4.20452770643687e-07 -8.94950299576579e-25)
(8.19604322448667e-08 -4.20027128559664e-07 -8.82114343040603e-25)
(1.03427094426543e-07 -4.20633658255679e-07 -4.68187008576568e-25)
(1.25599842106321e-07 -4.22336854951943e-07 9.06341383340041e-25)
(1.49203354251137e-07 -4.25272618920446e-07 -5.32047165602488e-25)
(1.75049411415086e-07 -4.29658982924889e-07 -9.55219347659226e-25)
(2.04070019267259e-07 -4.35841645112213e-07 1.68589885009723e-25)
(2.37391167633077e-07 -4.44346478981012e-07 -5.02303987976281e-25)
(2.76397776615715e-07 -4.55955018956514e-07 1.24772765616243e-24)
(3.22837251793593e-07 -4.718522692509e-07 1.21646402856369e-24)
(3.7896089157678e-07 -4.93839325029105e-07 -7.55021738828312e-25)
(4.47714590645968e-07 -5.24598882483619e-07 -7.97540066312215e-25)
(5.32977653228893e-07 -5.68149114814313e-07 5.74560192712178e-25)
(6.39893133456723e-07 -6.3044123738852e-07 2.33151914803728e-25)
(7.75263829554302e-07 -7.20150262838331e-07 4.20841601445032e-26)
(9.47949878244551e-07 -8.4962393665134e-07 -3.00914396548909e-24)
(1.16945741485809e-06 -1.03555337014869e-06 -1.11066720489409e-24)
(1.45288960524896e-06 -1.29864322201875e-06 -1.11608777059143e-24)
(1.81343890779928e-06 -1.65738936012851e-06 -3.57559860589949e-24)
(2.25609942081966e-06 -2.10831224539356e-06 -1.25862638044332e-24)
(2.77349890214967e-06 -2.56216168821195e-06 -1.56413780901763e-24)
(3.27802518129347e-06 -2.72915411952283e-06 -4.20754222160836e-24)
(3.61720218861437e-06 -1.95033649351688e-06 -1.44452838443437e-24)
(3.35299488173101e-06 5.47510971822353e-07 -1.19881994776413e-24)
(2.30708329477233e-06 4.53471019303018e-06 -3.69893644335556e-24)
(1.90638659449272e-07 5.45705490544034e-06 -4.32284551741394e-25)
(2.33554004026429e-07 6.37638541784379e-06 -1.5230333822792e-26)
(-4.8063007393253e-07 5.89774332354081e-06 -1.14581323881443e-24)
(-1.21006276870086e-06 1.7755753509511e-06 2.63231999550481e-25)
(-1.74775041162469e-06 -9.6867182114331e-07 2.67402167767419e-25)
(-1.89752910534319e-06 -1.95975701958223e-06 -4.22930366076096e-25)
(-1.83209947272061e-06 -1.91092108002474e-06 -8.66171279124365e-25)
(-1.64280625707938e-06 -1.50350966600015e-06 -8.60862284953909e-26)
(-1.41983071975783e-06 -1.05808479951436e-06 -1.02641020385427e-25)
(-1.19838437554598e-06 -6.8744778685226e-07 -1.01115156060394e-24)
(-9.98625280391235e-07 -4.06951350867385e-07 -8.2806221984282e-25)
(-8.2498948162309e-07 -2.0346163936781e-07 1.50418692565182e-24)
(-6.77697501940841e-07 -5.81929678492016e-08 6.39634958532763e-25)
(-5.54042730637734e-07 4.50281941805902e-08 -2.88910797456705e-25)
(-4.50755617919007e-07 1.18592455490544e-07 1.1095469854835e-24)
(-3.64508593872925e-07 1.71443280408715e-07 -5.39125944024707e-25)
(-2.9228642257595e-07 2.09846034577819e-07 4.50761259153609e-25)
(-2.31492661619259e-07 2.38133629601367e-07 3.45109876977175e-25)
(-1.79946455904524e-07 2.5923383734879e-07 -2.9077683076833e-25)
(-1.35842349992444e-07 2.75146862593049e-07 3.25086825739286e-25)
(-9.76810143986886e-08 2.87220259336684e-07 -6.16995574965569e-25)
(-6.42266284349314e-08 2.96374407355955e-07 1.4352974232708e-26)
(-3.44329228109089e-08 3.03228099450703e-07 -5.39021314544176e-25)
(-7.39943774402361e-09 3.08197268554258e-07 -2.37742842850311e-26)
(1.7662702883671e-08 3.11560253742851e-07 2.4008410894626e-25)
(4.14696358189518e-08 3.13473001008714e-07 -4.80300944314262e-25)
(6.46982920566313e-08 3.14020170170115e-07 -1.76559402898071e-25)
(8.80085456063137e-08 3.13198922793093e-07 -4.05500909502803e-25)
(1.12072250603974e-07 3.10930049334357e-07 1.062215332924e-24)
(1.37602415260372e-07 3.0705855970826e-07 -1.34403771832394e-25)
(1.6538046106445e-07 3.01308141625772e-07 -7.72579299232746e-25)
(1.96289285579325e-07 2.93261752238399e-07 3.69537400460456e-25)
(2.31363690991425e-07 2.82308695079948e-07 -8.31987213567803e-25)
(2.71831283657215e-07 2.67528153737691e-07 9.81468691908629e-25)
(3.19168581294013e-07 2.47569616100511e-07 1.0015734941102e-24)
(3.75164828349398e-07 2.20424298092072e-07 -7.28644892740988e-25)
(4.41989368568318e-07 1.83140209549699e-07 -4.21280748616636e-25)
(5.22216928075744e-07 1.3140502684011e-07 2.29430309385755e-25)
(6.18853540085098e-07 5.89339501827421e-08 7.19099708745487e-26)
(7.3521954234483e-07 -4.32215084977716e-08 3.72547755424843e-25)
(8.74615260445442e-07 -1.8752593983309e-07 -1.99127137176341e-24)
(1.03977265989566e-06 -3.90329720829185e-07 -8.65470725854525e-25)
(1.23055994798756e-06 -6.70943251786024e-07 -8.78696531287923e-25)
(1.44263847538882e-06 -1.04386148727889e-06 -2.47020263478284e-24)
(1.65625110265276e-06 -1.49666812934368e-06 -9.37796908483667e-25)
(1.83718908873912e-06 -1.92099633191882e-06 -1.05923425475116e-24)
(1.89815215548324e-06 -1.99682373061965e-06 -2.63811873516818e-24)
(1.75269988923109e-06 -1.02527879575954e-06 -9.86593226608086e-25)
(1.23077961840834e-06 1.75222256194359e-06 -8.62518460937876e-25)
(5.21967037571915e-07 5.97461368445572e-06 -2.69845253168669e-24)
(-2.11074907379942e-07 6.48844351015701e-06 -2.88757078235947e-25)
(4.58927574473955e-07 6.69199048998256e-06 2.30171959632013e-25)
(7.96551367483648e-07 6.62905106627702e-06 -1.69478993923058e-25)
(3.55174171520777e-07 2.61080563161044e-06 5.82835140332073e-25)
(-3.13273872104493e-07 -2.34072439375615e-07 4.38641415670584e-25)
(-7.95431407550689e-07 -1.3761740612077e-06 1.03380839579915e-25)
(-1.05407798900633e-06 -1.44686652962383e-06 -1.76731878106054e-26)
(-1.12506236223734e-06 -1.11293961252625e-06 2.33954472564089e-25)
(-1.08787050543231e-06 -7.04594714347896e-07 2.60202605241306e-25)
(-9.92969602248076e-07 -3.4843156828064e-07 2.54944253552437e-26)
(-8.76452660897273e-07 -6.98950853213351e-08 6.23001290368981e-26)
(-7.56736131871969e-07 1.37819129520244e-07 1.02922492863437e-24)
(-6.43932317492933e-07 2.8991737540769e-07 6.79106532403824e-25)
(-5.42195102611248e-07 4.00625122220166e-07 3.41954125501129e-25)
(-4.52744157332721e-07 4.8134997519983e-07 8.07855792316103e-25)
(-3.7517672950373e-07 5.40610635508702e-07 2.35705933774931e-25)
(-3.08342658633132e-07 5.84523063629078e-07 7.37272034720447e-25)
(-2.50827185730797e-07 6.17427332170496e-07 6.50123540354891e-25)
(-2.01189560138616e-07 6.42325770031095e-07 5.0434731272632e-25)
(-1.5809687243842e-07 6.6133937845387e-07 8.00570329013808e-25)
(-1.20349588191211e-07 6.75894029802159e-07 2.78533258345028e-25)
(-8.68930758145845e-08 6.87005734030665e-07 5.34035759848646e-25)
(-5.68096878732982e-08 6.95361853423312e-07 3.18940028251009e-25)
(-2.92789124803042e-08 7.01439140467576e-07 3.34623177092821e-25)
(-3.56314032364514e-09 7.05540585073014e-07 5.48951002342682e-25)
(2.10125732129606e-08 7.07856917364522e-07 3.20046715239975e-25)
(4.50900715203553e-08 7.08487025734975e-07 2.46038845947034e-25)
(6.93040488449147e-08 7.0742459867004e-07 2.08872622255064e-25)
(9.42964950487554e-08 7.04587095212888e-07 5.08867357463821e-25)
(1.20737008793314e-07 6.99783729193602e-07 -2.75116902839772e-26)
(1.49350312311656e-07 6.92705575238612e-07 -1.75556742581792e-25)
(1.80943194362247e-07 6.82882271261685e-07 5.48430241772988e-26)
(2.16424428361955e-07 6.69630598347123e-07 -3.64638498658659e-25)
(2.56831996876482e-07 6.51948912348663e-07 1.94381601084687e-25)
(3.03347153418099e-07 6.28382390247622e-07 2.59238920849387e-25)
(3.57278468060234e-07 5.96828021551056e-07 -2.03986171092776e-25)
(4.20044419011418e-07 5.54257913699648e-07 -2.53506660319312e-25)
(4.93032530857059e-07 4.96335572365234e-07 1.83008796751428e-25)
(5.77372948093574e-07 4.16937924575246e-07 -7.06488486957608e-26)
(6.73449732688088e-07 3.07542710014713e-07 -3.65021686642784e-26)
(7.80030910919335e-07 1.56647435213473e-07 -7.82903831184763e-25)
(8.92928531728814e-07 -5.01504044972194e-08 -3.67963539830769e-25)
(1.00201686356371e-06 -3.28600143322473e-07 -3.7653856295768e-25)
(1.08875446477493e-06 -6.86878595307196e-07 -8.95349650915703e-25)
(1.11698766506563e-06 -1.10266853497471e-06 -3.92699938083653e-25)
(1.03645780789169e-06 -1.45426150043773e-06 -3.96396867138722e-25)
(7.69388194734327e-07 -1.4129490254353e-06 -1.00275700673784e-24)
(2.84577630269222e-07 -2.9486852340645e-07 -2.44885656149293e-25)
(-3.75074735459426e-07 2.57807990713476e-06 -2.25608243858081e-25)
(-7.90936042932442e-07 6.69904742068397e-06 -8.40299926020413e-25)
(-4.46522455111742e-07 6.80771630761552e-06 1.95480329747155e-25)
(5.44482364783481e-07 6.46137893054351e-06 3.93344209021747e-25)
(1.53046537405894e-06 6.75408278013872e-06 7.62561013456799e-25)
(1.31104053418392e-06 3.05978030969713e-06 7.63109135993313e-25)
(6.2569285683594e-07 2.5339682482655e-07 5.16268341083601e-25)
(-2.84520858357915e-08 -9.86270691630774e-07 4.59852282907775e-25)
(-4.77231047834512e-07 -1.17667278207563e-06 4.81134265806901e-25)
(-7.1609899909338e-07 -9.34862737115933e-07 4.119718616498e-25)
(-8.07438933155955e-07 -5.84790130849795e-07 4.5459739515033e-25)
(-8.06029075584703e-07 -2.60699351555682e-07 6.16023411487568e-25)
(-7.54855898107814e-07 2.82519031462926e-09 6.40811433192581e-25)
(-6.80122484187161e-07 2.05601988982883e-07 6.75905082678287e-25)
(-5.97933789589229e-07 3.58266315677454e-07 7.54273731702308e-25)
(-5.1697806299598e-07 4.72240459668942e-07 7.83256055360154e-25)
(-4.41623438075358e-07 5.57316014518279e-07 6.55002169543366e-25)
(-3.73639831531322e-07 6.21096855708801e-07 7.20585972827945e-25)
(-3.1334158214182e-07 6.69258896979803e-07 8.39668455407401e-25)
(-2.60295060205561e-07 7.05932698097227e-07 9.24167372627753e-25)
(-2.13710777687493e-07 7.34070302142078e-07 1.04944121065904e-24)
(-1.72692719980591e-07 7.55779250555888e-07 1.02445054845167e-24)
(-1.36337026390663e-07 7.72544614289612e-07 9.11532864704576e-25)
(-1.03784162593607e-07 7.85419404068262e-07 8.0371185588869e-25)
(-7.42499591463199e-08 7.95137435509657e-07 7.5995521501584e-25)
(-4.70127259340017e-08 8.02214058745339e-07 6.59467110670331e-25)
(-2.14099198205664e-08 8.06986831702691e-07 6.79769389510246e-25)
(3.18972234852808e-09 8.09657953333612e-07 7.30444337157191e-25)
(2.73804610650651e-08 8.10335298249943e-07 6.11903041177542e-25)
(5.1747066460857e-08 8.0902252780675e-07 4.83063264252952e-25)
(7.68854179166729e-08 8.05614510821427e-07 2.29449670419545e-25)
(1.03411385809945e-07 7.99919115848999e-07 1.85718291427833e-25)
(1.31981935143664e-07 7.91583248696251e-07 1.64281838960616e-25)
(1.63304902642418e-07 7.80117636880135e-07 -9.74712415200294e-26)
(1.98154389219447e-07 7.64774913039575e-07 -1.52893091136781e-25)
(2.37367589264893e-07 7.44524573040443e-07 -2.59823153641002e-25)
(2.81831254829341e-07 7.17860546586163e-07 -1.71881460523859e-25)
(3.32419387858439e-07 6.82675057763798e-07 1.00765567813245e-25)
(3.8988553696979e-07 6.3601145719022e-07 4.57620215108998e-26)
(4.54633339021721e-07 5.73740694318681e-07 -4.73802356184551e-27)
(5.26323280824257e-07 4.90190213312319e-07 -1.59943036752959e-25)
(6.03133980474022e-07 3.77732378387293e-07 -1.68111951421267e-25)
(6.80662788414713e-07 2.26493551303962e-07 -7.4641969722693e-26)
(7.50137401717018e-07 2.48911102832302e-08 -1.76072091269149e-25)
(7.95336517907324e-07 -2.38215787919972e-07 -1.65443003358157e-25)
(7.89756889650304e-07 -5.63989851532823e-07 -5.53343841020954e-26)
(6.90039305795869e-07 -9.21014845713452e-07 -1.49881162554094e-25)
(4.41072749849143e-07 -1.18028843060701e-06 -1.4045522220204e-25)
(-1.86648133897768e-08 -1.02032278587921e-06 -5.30771023873695e-26)
(-6.80481524312698e-07 1.9166339243806e-07 -9.71985601391221e-26)
(-1.36286035957643e-06 3.01903388752039e-06 9.5472886184416e-27)
(-1.55600610874679e-06 6.81171496352219e-06 1.38513882680646e-25)
(-5.42513701680496e-07 6.57161674802924e-06 2.08554124966788e-25)
(5.38310115644194e-07 5.89822801599433e-06 4.4068663114142e-25)
(1.80807811128985e-06 6.47343287060363e-06 1.14745404398099e-24)
(1.7443217563132e-06 3.21216415215651e-06 7.81076322072359e-25)
(1.1240164803243e-06 5.33303362323033e-07 5.31777843582781e-25)
(4.30056292372857e-07 -7.5467244220047e-07 7.81846458896377e-25)
(-9.44180122827694e-08 -1.04909191596181e-06 8.24048180605875e-25)
(-4.18934432689541e-07 -9.00168179543701e-07 4.7247305682408e-25)
(-5.85909440276145e-07 -6.15701562273846e-07 5.0837136116338e-25)
(-6.46021633496609e-07 -3.320592719019e-07 9.27166252010638e-25)
(-6.41835815242216e-07 -9.09539499629187e-08 8.98423682050528e-25)
(-6.02054669641139e-07 1.01036827998247e-07 3.22306866909834e-25)
(-5.45345848665331e-07 2.49873437757527e-07 6.20130619958091e-25)
(-4.82810583682898e-07 3.6391122399307e-07 9.14846211747135e-25)
(-4.20714183432098e-07 4.51033205858896e-07 3.79524461413106e-25)
(-3.6227608338028e-07 5.1770525309567e-07 8.90158935296693e-25)
(-3.08866236010643e-07 5.68966623288501e-07 7.68191701566451e-25)
(-2.60816266573196e-07 6.08597370860107e-07 8.83976580987443e-25)
(-2.17880003016806e-07 6.39393359769058e-07 1.22287258522732e-24)
(-1.7954146479513e-07 6.63392044910503e-07 1.00867876447031e-24)
(-1.45163652107195e-07 6.82072423589297e-07 1.15284744805056e-24)
(-1.1408034598495e-07 6.96495261348494e-07 8.46436500410093e-25)
(-8.56456522760573e-08 7.07421505701095e-07 9.74637420593961e-25)
(-5.92364585187018e-08 7.15381572656452e-07 6.85390531736817e-25)
(-3.42687735991423e-08 7.20739802346856e-07 6.55905405702598e-25)
(-1.01787203339882e-08 7.23720350465309e-07 9.36288978460742e-25)
(1.35792086655852e-08 7.24419837848818e-07 6.87294760651529e-25)
(3.75360515462114e-08 7.22851349207579e-07 6.34551332981989e-25)
(6.22391767393271e-08 7.18906243798824e-07 -5.66552820805632e-26)
(8.82374957323711e-08 7.12372399139404e-07 2.04150510712211e-25)
(1.16109363937504e-07 7.02883207231337e-07 4.14744480624202e-25)
(1.46463826291799e-07 6.89930435391515e-07 -2.32654873004766e-25)
(1.79934001581504e-07 6.72740717187585e-07 4.08269877822572e-26)
(2.17167893281803e-07 6.50267651398182e-07 -5.71320807671677e-25)
(2.58776218615861e-07 6.21030740174672e-07 -4.71991466644218e-25)
(3.05253488094652e-07 5.82983174188383e-07 3.16317919659213e-25)
(3.56812084023284e-07 5.33334190532548e-07 1.59045369754201e-25)
(4.13084378980481e-07 4.68301439194413e-07 -4.73175702607583e-26)
(4.7265957945158e-07 3.82855116280802e-07 -1.91215034390954e-25)
(5.32258703695689e-07 2.7050105646133e-07 -3.06825903808545e-25)
(5.85558216849514e-07 1.23317327404046e-07 3.36415816720671e-25)
(6.21329297940893e-07 -6.7217812348997e-08 6.12531228318442e-27)
(6.20723161823493e-07 -3.07492901275778e-07 2.86922194158315e-26)