/*--------------------------------*- C++ -*----------------------------------*\
  =========                 |
  \\      /  F ield         | OpenFOAM: The Open Source CFD Toolbox
   \\    /   O peration     | Website:  https://openfoam.org
    \\  /    A nd           | Version:  10
     \\/     M anipulation  |
\*---------------------------------------------------------------------------*/
FoamFile
{
    format      ascii;
    class       volScalarField;
    location    "9.6";
    object      wallHeatFlux;
}
// * * * * * * * * * * * * * * * * * * * * * * * * * * * * * * * * * * * * * //

dimensions      [1 0 -3 0 0 0 0];

internalField   uniform 0;

boundaryField
{
    back
    {
        type            calculated;
        value           uniform 0;
    }
    bottom
    {
        type            calculated;
        value           nonuniform List<scalar> 
50
(
62.1666297321635
62.405477444099
64.305624164987
65.971430328371
67.1555256777839
67.935026114835
68.4300849684517
68.7368212136546
68.9222986748954
69.0315379807405
69.0937005431823
69.1280158383458
69.1463305552097
69.1557179259315
69.1603862069108
69.1625887052484
69.1636467231102
69.164098936579
69.1642724416195
69.1643525465889
69.1643801473855
69.1643884091962
69.1643890271354
69.1643948294186
69.1643931886016
69.1643926233808
69.164396360347
69.1643992088381
69.1644013153237
69.164394977922
69.1643634860748
69.164288506013
69.1640713888714
69.1635692022004
69.1624569002266
69.1600842992505
69.1552020269625
69.1454356041624
69.1267545219427
69.0919211136178
69.0292192012575
68.9198812481601
68.7347904956974
68.4293377332165
67.9367141938472
67.1586813656724
65.9721316451839
64.297456985176
62.3924240953755
62.1837750767994
)
;
    }
    left
    {
        type            calculated;
        value           uniform 0;
    }
    front
    {
        type            calculated;
        value           uniform 0;
    }
    right
    {
        type            calculated;
        value           uniform 0;
    }
    top
    {
        type            calculated;
        value           uniform 0;
    }
}


// ************************************************************************* //
