/*--------------------------------*- C++ -*----------------------------------*\
  =========                 |
  \\      /  F ield         | OpenFOAM: The Open Source CFD Toolbox
   \\    /   O peration     | Website:  https://openfoam.org
    \\  /    A nd           | Version:  10
     \\/     M anipulation  |
\*---------------------------------------------------------------------------*/
FoamFile
{
    format      ascii;
    class       volScalarField;
    location    "0";
    object      T;
}
// * * * * * * * * * * * * * * * * * * * * * * * * * * * * * * * * * * * * * //

dimensions      [0 0 0 1 0 0 0];

internalField   uniform 222;

boundaryField
{
    patch0
    {
        type            zeroGradient;
    }
    patch1
    {
        type            zeroGradient;
    }
    patch2
    {
        type            fixedValue;
        value           nonuniform List<scalar> 
50
(
300.011666666667
300.013
300.013
300.014666666667
300.015
300.016
300.017333333333
300.019
300.019666666667
300.02
300.013666666667
300.015
300.015666666667
300.016666666667
300.017666666667
300.018666666667
300.02
300.021
300.021666666667
300.022666666667
300.015666666667
300.017
300.017666666667
300.018666666667
300.019666666667
300.020666666667
300.021666666667
300.023
300.023666666667
300.024666666667
300.017
300.018
300.019
300.02
300.021
300.022333333333
300.023
300.024333333333
300.025
300.026
300.019666666667
300.020666666667
300.021666666667
300.022666666667
300.023666666667
300.025
300.025666666667
300.027
300.027666666667
300.028666666667
)
;
    }
    patch3
    {
        type            zeroGradient;
    }
    patch4
    {
        type            fixedValue;
        value           nonuniform List<scalar> 
50
(
300.022
300.024
300.026666666667
300.028666666667
300.03
300.032
300.034666666667
300.036
300.037333333333
300.039333333333
300.024666666667
300.026666666667
300.028666666667
300.029333333333
300.032
300.034
300.036666666667
300.038
300.04
300.042
300.026666666667
300.028
300.030666666667
300.032
300.034666666667
300.036
300.038666666667
300.040666666667
300.042
300.044
300.028
300.029333333333
300.032
300.034
300.036
300.037333333333
300.04
300.042
300.044
300.045333333333
300.030666666667
300.032
300.034666666667
300.036666666667
300.038666666667
300.04
300.042666666667
300.044666666667
300.046666666667
300.048
)
;
    }
    patch5
    {
        type            zeroGradient;
    }
}


// ************************************************************************* //
