/*--------------------------------*- C++ -*----------------------------------*\
  =========                 |
  \\      /  F ield         | OpenFOAM: The Open Source CFD Toolbox
   \\    /   O peration     | Website:  https://openfoam.org
    \\  /    A nd           | Version:  10
     \\/     M anipulation  |
\*---------------------------------------------------------------------------*/
FoamFile
{
    format      ascii;
    class       volScalarField;
    location    "1";
    object      alphat;
}
// * * * * * * * * * * * * * * * * * * * * * * * * * * * * * * * * * * * * * //

dimensions      [1 -1 -1 0 0 0 0];

internalField   nonuniform List<scalar> 
2500
(
2.68396950422689e-11
3.23521866289058e-11
3.81583511876068e-11
3.98712048004822e-11
4.02373126726627e-11
4.03032996114236e-11
4.03139243143704e-11
4.03155003442718e-11
4.03157091517986e-11
4.03157455105474e-11
4.03157499741928e-11
4.03157330412326e-11
4.03157262163288e-11
4.03157185237944e-11
4.03157086233398e-11
4.03156994556045e-11
4.03156946512584e-11
4.03156909173737e-11
4.03156875359049e-11
4.03156842802596e-11
4.03156812247639e-11
4.03156784682373e-11
4.03156758136784e-11
4.03156730703705e-11
4.03156705392298e-11
4.03156684082507e-11
4.03156663731636e-11
4.03156645061233e-11
4.03156629010102e-11
4.03156612897658e-11
4.0315660008265e-11
4.03156589879159e-11
4.03156582171806e-11
4.03156577079669e-11
4.03156575209023e-11
4.03156590316329e-11
4.03156640818607e-11
4.0315663974564e-11
4.03156614309015e-11
4.03156674880961e-11
4.03156580643437e-11
4.03155683372727e-11
4.03150458736198e-11
4.0311989320723e-11
4.0295153882341e-11
4.02088525345924e-11
3.98049567112152e-11
3.81315215567452e-11
3.24055778736128e-11
2.69180849294105e-11
2.13170253134891e-10
1.51379902284488e-09
3.07583058983244e-09
3.58282695968676e-09
3.69894315415025e-09
3.72087408786563e-09
3.72452005131556e-09
3.72507279655137e-09
3.7251506995963e-09
3.72516210052259e-09
3.72516246520615e-09
3.72516017664736e-09
3.72515876215258e-09
3.72515702451625e-09
3.72515497195096e-09
3.72515312348099e-09
3.72515200196205e-09
3.72515112423049e-09
3.72515033899619e-09
3.72514961071206e-09
3.72514894306586e-09
3.72514832821825e-09
3.72514774562101e-09
3.72514719669548e-09
3.72514669383972e-09
3.72514625124195e-09
3.72514585418746e-09
3.72514551199199e-09
3.72514521998328e-09
3.72514496427184e-09
3.72514477576015e-09
3.72514465822353e-09
3.72514459900492e-09
3.7251446052637e-09
3.72514472805147e-09
3.7251454518999e-09
3.72514621245879e-09
3.72514602118732e-09
3.72514649127711e-09
3.72514744798671e-09
3.72514366219208e-09
3.72511383922019e-09
3.7249355551891e-09
3.72390848443195e-09
3.71836686535901e-09
3.69071923861248e-09
3.56614890031295e-09
3.07857959449183e-09
1.54627985893281e-09
2.18074460566999e-10
2.76770822555064e-10
1.70154775274349e-08
3.18443929174766e-06
3.83413643168585e-06
3.99226583515564e-06
4.02391631603076e-06
4.02943539965998e-06
4.03030604840294e-06
4.03043359098552e-06
4.030451493889e-06
4.03045200440439e-06
4.03045030084207e-06
4.03044889960694e-06
4.03044746144371e-06
4.03044577373479e-06
4.03044428047923e-06
4.03044322416811e-06
4.03044237593291e-06
4.03044161620753e-06
4.03044091314549e-06
4.03044026166295e-06
4.03043965147999e-06
4.03043908239211e-06
4.03043855330022e-06
4.03043806012946e-06
4.03043761936113e-06
4.03043722485758e-06
4.03043687156482e-06
4.03043656660459e-06
4.0304363080557e-06
4.03043610218132e-06
4.03043595761558e-06
4.03043587178573e-06
4.03043584791617e-06
4.0304359164551e-06
4.030436217453e-06
4.03043687970348e-06
4.03043733790866e-06
4.03043763449337e-06
4.03043796898524e-06
4.0304311833755e-06
4.0303880445228e-06
4.03013037658724e-06
4.02866612905288e-06
4.02089081727256e-06
3.98292844360144e-06
3.81697184283796e-06
3.19245096131218e-06
1.74688888779427e-08
2.85587405739323e-10
3.09562779101315e-10
2.39443226803355e-08
4.68637720321333e-06
5.65837298824189e-06
5.90162935493536e-06
5.95196749781626e-06
5.96104892463441e-06
5.96253023113472e-06
5.96275456193529e-06
5.96278626963431e-06
5.96278815212375e-06
5.962786576557e-06
5.96278496882333e-06
5.9627832998786e-06
5.96278139908844e-06
5.96277972107577e-06
5.96277844881155e-06
5.96277739258099e-06
5.96277643490667e-06
5.96277554016168e-06
5.9627746993254e-06
5.96277390752756e-06
5.9627731642444e-06
5.96277246772607e-06
5.96277181881895e-06
5.96277122357957e-06
5.96277067948136e-06
5.96277018523398e-06
5.96276974589119e-06
5.96276936142726e-06
5.96276903549366e-06
5.9627687732427e-06
5.96276857739788e-06
5.96276845321345e-06
5.96276841658908e-06
5.96276853016648e-06
5.96276901697181e-06
5.96276909226226e-06
5.96276953274683e-06
5.96276880620047e-06
5.9627594871962e-06
5.96269922426813e-06
5.96233109302624e-06
5.96020880537763e-06
5.94876634278409e-06
5.89210373685119e-06
5.64166756983094e-06
4.69448963548072e-06
2.43787784107696e-08
3.18297666206766e-10
3.24926526088479e-10
2.76816525887635e-08
5.56884946234366e-06
6.74143786398392e-06
7.04150203723071e-06
7.10527593181276e-06
7.11711385189194e-06
7.11910205385434e-06
7.11941197306887e-06
7.11945675065009e-06
7.11946085676724e-06
7.11945981832288e-06
7.11945838565898e-06
7.11945686506274e-06
7.11945518643804e-06
7.11945367808593e-06
7.11945246059774e-06
7.11945141216153e-06
7.11945044720206e-06
7.11944953664897e-06
7.11944867259871e-06
7.11944785200054e-06
7.1194470758309e-06
7.11944634370677e-06
7.11944565698703e-06
7.11944501715725e-06
7.11944442463795e-06
7.11944388011472e-06
7.11944338558094e-06
7.11944294154203e-06
7.11944255135918e-06
7.11944221748648e-06
7.11944194354075e-06
7.11944173399359e-06
7.11944159731185e-06
7.11944155671516e-06
7.11944168229664e-06
7.11944173027442e-06
7.11944179483695e-06
7.11944055913548e-06
7.11942999171484e-06
7.11936064916571e-06
7.11893323807979e-06
7.11644245454639e-06
7.10285857101489e-06
7.03488466866133e-06
6.73218872746631e-06
5.58514534020718e-06
2.81293005140282e-08
3.33697545979646e-10
3.31739214679637e-10
2.95189185584251e-08
6.04540021962295e-06
7.33571891036507e-06
7.67143813870984e-06
7.74424499059249e-06
7.75806478583747e-06
7.76044153458843e-06
7.76082094185857e-06
7.76087728704086e-06
7.7608837374114e-06
7.76088324315751e-06
7.76088209049443e-06
7.76088082945875e-06
7.76087947440164e-06
7.76087822429309e-06
7.76087715349695e-06
7.76087619594722e-06
7.76087529987195e-06
7.76087444519183e-06
7.76087362723373e-06
7.76087284488891e-06
7.76087209969449e-06
7.76087139198489e-06
7.76087072325746e-06
7.76087009432902e-06
7.76086950639221e-06
7.76086895998678e-06
7.76086845656861e-06
7.7608679966283e-06
7.76086758245551e-06
7.7608672153837e-06
7.76086689836246e-06
7.76086663428456e-06
7.76086642825715e-06
7.76086628962135e-06
7.76086624054804e-06
7.76086619109179e-06
7.7608660364362e-06
7.76086448275974e-06
7.76085313977376e-06
7.76077913882929e-06
7.76032116363801e-06
7.75763441467724e-06
7.74287617216863e-06
7.66854498977679e-06
7.33607286463351e-06
6.07531200798509e-06
3.00320189699931e-08
3.40824034971572e-10
3.34651365695387e-10
3.03674452388377e-08
6.28619866716937e-06
7.64173756203001e-06
7.99853900573013e-06
8.07704270352405e-06
8.09219287451001e-06
8.09484640661851e-06
8.09527811241518e-06
8.09534379030675e-06
8.09535217127583e-06
8.09535224726859e-06
8.09535135351117e-06
8.09535032831814e-06
8.09534924843777e-06
8.09534822408742e-06
8.09534729927832e-06
8.09534644306242e-06
8.09534562815904e-06
8.09534484316933e-06
8.09534408647502e-06
8.09534335819121e-06
8.0953426603323e-06
8.09534199373686e-06
8.09534136021558e-06
8.09534076042799e-06
8.09534019577761e-06
8.09533966657886e-06
8.09533917409872e-06
8.09533871859112e-06
8.09533830157722e-06
8.09533792374853e-06
8.09533758717499e-06
8.09533729344956e-06
8.09533704569785e-06
8.09533684760937e-06
8.09533670495866e-06
8.09533657176112e-06
8.09533628184877e-06
8.09533453143134e-06
8.09532274670064e-06
8.09524645910115e-06
8.094773552147e-06
8.09198878634315e-06
8.07662846102307e-06
7.99897244779033e-06
7.6507433235012e-06
6.32972666492965e-06
3.09546897709546e-08
3.44065243466985e-10
3.3586258442857e-10
3.07419099509245e-08
6.40151485648811e-06
7.79130487000524e-06
8.15990337316722e-06
8.24179625811177e-06
8.25778582528581e-06
8.26062403744381e-06
8.26109255153336e-06
8.26116514872451e-06
8.26117502776975e-06
8.26117554363552e-06
8.26117484605011e-06
8.26117399335271e-06
8.26117310552281e-06
8.26117224301916e-06
8.2611714312949e-06
8.26117065823104e-06
8.26116991178368e-06
8.26116918685204e-06
8.2611684839846e-06
8.26116780421176e-06
8.2611671499279e-06
8.26116652228538e-06
8.26116592328787e-06
8.26116535359469e-06
8.26116481465737e-06
8.26116430666777e-06
8.26116383074088e-06
8.26116338688601e-06
8.26116297620635e-06
8.26116259891784e-06
8.26116225643161e-06
8.2611619494645e-06
8.26116167988578e-06
8.26116144879026e-06
8.26116125588004e-06
8.26116106724541e-06
8.26116069664933e-06
8.26115883027809e-06
8.26114680822543e-06
8.26106944766201e-06
8.26058963095353e-06
8.2577586454945e-06
8.24210818531189e-06
8.16282041821242e-06
7.80676198562347e-06
6.45565357104487e-06
3.13872385835496e-08
3.4551485459149e-10
3.36355441532982e-10
3.09015261334697e-08
6.45437649995397e-06
7.86132196244661e-06
8.2362045457598e-06
8.3200115415901e-06
8.3365023915113e-06
8.33945690511921e-06
8.33994981809317e-06
8.34002723416111e-06
8.34003817789816e-06
8.340038990083e-06
8.34003842707168e-06
8.34003768788378e-06
8.34003692140229e-06
8.34003616383329e-06
8.34003543013719e-06
8.34003471723769e-06
8.34003402154629e-06
8.34003334185266e-06
8.3400326801268e-06
8.34003203797837e-06
8.3400314180674e-06
8.34003082172983e-06
8.34003025106234e-06
8.34002970675277e-06
8.34002919025054e-06
8.34002870168571e-06
8.34002824205456e-06
8.34002781120077e-06
8.34002740997902e-06
8.34002703829517e-06
8.34002669713982e-06
8.34002638668448e-06
8.34002610803687e-06
8.3400258610216e-06
8.34002564290547e-06
8.34002542278905e-06
8.34002500743201e-06
8.34002307712471e-06
8.34001093416518e-06
8.3399330912758e-06
8.33945023315066e-06
8.33659857315896e-06
8.32081564109527e-06
8.24076912726434e-06
7.88101935408576e-06
6.51559942197376e-06
3.15845630238264e-08
3.46152863367621e-10
3.36552319442728e-10
3.09677153525366e-08
6.47775411469545e-06
7.89294700093377e-06
8.27103550129796e-06
8.3558751904641e-06
8.37265127066092e-06
8.37567539278133e-06
8.37618363848325e-06
8.37626422107016e-06
8.37627587143317e-06
8.37627688731469e-06
8.37627641356662e-06
8.37627574603518e-06
8.37627505332116e-06
8.37627436127974e-06
8.37627367937201e-06
8.37627300846495e-06
8.37627234925376e-06
8.37627170269459e-06
8.37627107159559e-06
8.37627045790229e-06
8.3762698644263e-06
8.37626929259797e-06
8.37626874455342e-06
8.37626822099802e-06
8.37626772336555e-06
8.37626725174513e-06
8.37626680705555e-06
8.37626638903912e-06
8.37626599839796e-06
8.376265634852e-06
8.37626529914219e-06
8.37626499112041e-06
8.3762647114634e-06
8.37626445936081e-06
8.37626423104872e-06
8.37626399622725e-06
8.37626355907311e-06
8.37626159701195e-06
8.37624939671209e-06
8.37617134683857e-06
8.37568721057443e-06
8.37282672245429e-06
8.35698603338071e-06
8.27660232352257e-06
7.91518609355834e-06
6.54322761140419e-06
3.16725275548931e-08
3.46429366406965e-10
3.36629670825457e-10
3.09945475374038e-08
6.48778898185825e-06
7.90680983485793e-06
8.28647363559243e-06
8.37184864066822e-06
8.38878028058148e-06
8.3918442446023e-06
8.39236168166543e-06
8.39244424019767e-06
8.39245634614885e-06
8.39245749889197e-06
8.39245708413391e-06
8.39245646214037e-06
8.39245581481234e-06
8.39245516428552e-06
8.39245451734776e-06
8.39245387639498e-06
8.39245324410973e-06
8.39245262255135e-06
8.39245201496947e-06
8.39245142349146e-06
8.39245085099479e-06
8.39245029895284e-06
8.39244976951035e-06
8.39244926337716e-06
8.39244878196477e-06
8.39244832533719e-06
8.39244789435961e-06
8.39244748871517e-06
8.39244710901167e-06
8.39244675486267e-06
8.39244642686157e-06
8.39244612468401e-06
8.39244584877226e-06
8.39244559801105e-06
8.39244536819863e-06
8.39244512909473e-06
8.39244468388701e-06
8.39244270882697e-06
8.39243048455337e-06
8.3923523513752e-06
8.39186770188764e-06
8.38900359584547e-06
8.37313869617024e-06
8.29261069334538e-06
7.93046864917263e-06
6.55562012187181e-06
3.17109580663168e-08
3.46547406907213e-10
3.36659572435993e-10
3.10052144781698e-08
6.49198940722471e-06
7.91273441491842e-06
8.29314753063027e-06
8.3787905126647e-06
8.3958038963192e-06
8.39888978568767e-06
8.39941250819739e-06
8.39949624838514e-06
8.39950863854146e-06
8.39950988230712e-06
8.39950950760387e-06
8.39950891623223e-06
8.39950829883596e-06
8.399507676639e-06
8.39950705523814e-06
8.39950643746124e-06
8.39950582678319e-06
8.39950522576115e-06
8.39950463784946e-06
8.39950406525207e-06
8.39950351086604e-06
8.39950297617285e-06
8.3995024633086e-06
8.39950197297604e-06
8.39950150656479e-06
8.399501064119e-06
8.39950064646601e-06
8.39950025325083e-06
8.39949988502293e-06
8.39949954133114e-06
8.39949922268261e-06
8.39949892865583e-06
8.39949865957322e-06
8.39949841418777e-06
8.39949818814784e-06
8.39949795121504e-06
8.3994975061279e-06
8.39949552883833e-06
8.39948329794461e-06
8.3994051357809e-06
8.39892029128854e-06
8.3960547569356e-06
8.38018004098228e-06
8.29959219887253e-06
7.9371432375433e-06
6.56105176156724e-06
3.17274459733092e-08
3.46597045643898e-10
3.36670935463158e-10
3.10093799338869e-08
6.49370982747523e-06
7.91521176018516e-06
8.29597143059951e-06
8.38174453784226e-06
8.39879949539995e-06
8.40189703837086e-06
8.40242269002704e-06
8.40250711043484e-06
8.40251967343986e-06
8.40252097838543e-06
8.40252063210801e-06
8.40252006297438e-06
8.40251946725958e-06
8.40251886633467e-06
8.4025182653704e-06
8.4025176670865e-06
8.40251707513532e-06
8.40251649224669e-06
8.40251592194259e-06
8.40251536644977e-06
8.40251482865401e-06
8.40251431003141e-06
8.40251381269672e-06
8.40251333734183e-06
8.40251288533427e-06
8.402512456702e-06
8.40251205224234e-06
8.40251167157498e-06
8.40251131520714e-06
8.40251098264871e-06
8.40251067435008e-06
8.40251038983726e-06
8.40251012937282e-06
8.4025098916872e-06
8.40250967245971e-06
8.40250944152049e-06
8.40250900111836e-06
8.40250702740847e-06
8.40249479860196e-06
8.40241663075868e-06
8.40193171879485e-06
8.39906564054319e-06
8.38318705168305e-06
8.30257501095554e-06
7.93999933502623e-06
6.56338519736878e-06
3.17344011857984e-08
3.46617587735947e-10
3.36675267836985e-10
3.10109790205466e-08
6.49440085100097e-06
7.91622787823487e-06
8.29714399818023e-06
8.38297863608829e-06
8.40005413703029e-06
8.40315768517164e-06
8.40368490678738e-06
8.40376970524388e-06
8.40378237203238e-06
8.4037837196443e-06
8.40378339489577e-06
8.40378284349298e-06
8.40378226530213e-06
8.40378168217577e-06
8.40378109926055e-06
8.40378051883718e-06
8.40377994441603e-06
8.40377937873365e-06
8.4037788253074e-06
8.40377828635328e-06
8.40377776473069e-06
8.40377726189837e-06
8.40377677994559e-06
8.40377631955031e-06
8.40377588205635e-06
8.40377546747758e-06
8.40377507658558e-06
8.40377470898004e-06
8.40377436513549e-06
8.40377404453402e-06
8.40377374758514e-06
8.403773473785e-06
8.40377322337556e-06
8.40377299515179e-06
8.40377278503544e-06
8.40377256312133e-06
8.403772130419e-06
8.40377016373855e-06
8.40375794171995e-06
8.40367977849807e-06
8.4031948490499e-06
8.40032857256249e-06
8.38444848686559e-06
8.30382683856346e-06
7.94119979721777e-06
6.56436985914992e-06
3.17372869269949e-08
3.46625964037184e-10
3.3667751259191e-10
3.10115878139795e-08
6.49467327148235e-06
7.91663728059881e-06
8.29762259649227e-06
8.38348567365834e-06
8.40057107278253e-06
8.40367763084259e-06
8.40420566837643e-06
8.4042906700761e-06
8.4043033996944e-06
8.4043047791926e-06
8.40430447222973e-06
8.40430393646612e-06
8.40430337397576e-06
8.4043028070925e-06
8.40430224107063e-06
8.40430167760634e-06
8.40430112001271e-06
8.40430057098057e-06
8.40430003399118e-06
8.40429951123394e-06
8.40429900553331e-06
8.40429851832684e-06
8.40429805167599e-06
8.40429760624371e-06
8.40429718335125e-06
8.40429678299882e-06
8.40429640593403e-06
8.40429605174189e-06
8.40429572086731e-06
8.40429541277005e-06
8.40429512782728e-06
8.40429486551733e-06
8.4042946260927e-06
8.4042944085191e-06
8.40429420934572e-06
8.40429399954609e-06
8.40429357665471e-06
8.40429161889157e-06
8.40427940604505e-06
8.40420125192492e-06
8.4037163240932e-06
8.40084998069308e-06
8.38496932343169e-06
8.30434389649358e-06
7.94169628303846e-06
6.56477851837059e-06
3.17384648356051e-08
3.46629571721836e-10
3.36680696104931e-10
3.10118379084795e-08
6.49477850343638e-06
7.91679917304241e-06
8.29781459496574e-06
8.38369057003075e-06
8.4007806356052e-06
8.4038886655016e-06
8.40441711541831e-06
8.40450222373434e-06
8.40451499421376e-06
8.40451640120417e-06
8.40451611155821e-06
8.40451559216749e-06
8.40451504622485e-06
8.4045144961757e-06
8.40451394708848e-06
8.40451340050657e-06
8.40451285973876e-06
8.40451232744307e-06
8.40451180705197e-06
8.40451130071973e-06
8.40451081123195e-06
8.40451034000021e-06
8.40450988905693e-06
8.4045094590482e-06
8.40450905127205e-06
8.40450866571566e-06
8.4045083031047e-06
8.40450796300817e-06
8.40450764584247e-06
8.40450735104777e-06
8.40450707897256e-06
8.40450682908305e-06
8.40450660166569e-06
8.40450639600443e-06
8.4045062100243e-06
8.40450601744235e-06
8.40450560680261e-06
8.40450365935339e-06
8.40449145719174e-06
8.40441331441938e-06
8.40392839560398e-06
8.40106203427097e-06
8.38518115910869e-06
8.30455424142101e-06
7.94189842086666e-06
6.5649453113393e-06
3.17389410339169e-08
3.46632706137298e-10
3.36680779836004e-10
3.10119091402719e-08
6.49481765826087e-06
7.91686172824499e-06
8.29789004396088e-06
8.3837717712793e-06
8.40086399707217e-06
8.40397273131242e-06
8.4045013853082e-06
8.40458654990099e-06
8.40459935111277e-06
8.40460078496329e-06
8.40460051305995e-06
8.40460001190481e-06
8.40459948443897e-06
8.40459895270516e-06
8.40459842132373e-06
8.40459789224727e-06
8.40459736890087e-06
8.40459685392902e-06
8.40459635071707e-06
8.40459586138405e-06
8.40459538867497e-06
8.40459493397723e-06
8.40459449929466e-06
8.40459408525617e-06
8.40459369313566e-06
8.40459332290824e-06
8.40459297527404e-06
8.4045926497833e-06
8.4045923468211e-06
8.40459206580379e-06
8.40459180704675e-06
8.40459157000246e-06
8.40459135499365e-06
8.40459116176269e-06
8.40459099079332e-06
8.40459082339464e-06
8.40459042759575e-06
8.40458849119671e-06
8.4045763005163e-06
8.40449817021092e-06
8.40401326324362e-06
8.40114690175747e-06
8.38526594134402e-06
8.30463841694238e-06
7.94197928077506e-06
6.5650120108832e-06
3.17391391188595e-08
3.46635769254098e-10
3.36680713242437e-10
3.10119282547422e-08
6.49483186768308e-06
7.91688478526919e-06
8.29791859288247e-06
8.3838028909226e-06
8.4008961108604e-06
8.40400517734697e-06
8.40453393435075e-06
8.40461913366865e-06
8.40463196440193e-06
8.40463342807688e-06
8.40463317340397e-06
8.4046326933013e-06
8.40463218742076e-06
8.40463167686979e-06
8.40463116590005e-06
8.40463065682357e-06
8.4046301531837e-06
8.40462965762442e-06
8.40462917349729e-06
8.40462870289446e-06
8.40462824852861e-06
8.40462781176825e-06
8.40462739459108e-06
8.40462699761312e-06
8.40462662208078e-06
8.40462626795207e-06
8.40462593589771e-06
8.40462562543655e-06
8.40462533690882e-06
8.40462506969228e-06
8.40462482404991e-06
8.40462459939534e-06
8.40462439604435e-06
8.40462421414863e-06
8.40462405758572e-06
8.40462392371497e-06
8.40462354378746e-06
8.40462161940214e-06
8.40460944253359e-06
8.40453132819839e-06
8.40404643798216e-06
8.40118008681877e-06
8.38529909244779e-06
8.30467129916503e-06
7.94201082336189e-06
6.56503784422615e-06
3.17392403548605e-08
3.46636168742752e-10
3.36682835199789e-10
3.10119371145287e-08
6.49483573165973e-06
7.916892219603e-06
8.29792849956183e-06
8.38381399169249e-06
8.40090768654201e-06
8.40401691943008e-06
8.40454573679551e-06
8.40463096460225e-06
8.40464382878301e-06
8.40464532756261e-06
8.40464508010445e-06
8.40464462142595e-06
8.40464413899208e-06
8.40464365149794e-06
8.40464316281827e-06
8.40464267544946e-06
8.40464219301009e-06
8.40464171815003e-06
8.40464125420085e-06
8.40464080324189e-06
8.40464036796365e-06
8.40463994972406e-06
8.40463955048216e-06
8.40463917084492e-06
8.40463881203062e-06
8.40463847397986e-06
8.40463815732854e-06
8.40463786155321e-06
8.40463758693559e-06
8.40463733279798e-06
8.40463709933639e-06
8.40463688590001e-06
8.40463669270754e-06
8.40463651985047e-06
8.40463637196453e-06
8.40463624733272e-06
8.40463587388871e-06
8.40463395852149e-06
8.40462179645718e-06
8.40454370141934e-06
8.40405883228285e-06
8.401192496976e-06
8.3853114841348e-06
8.30468352720569e-06
7.94202231973663e-06
6.56504702550105e-06
3.17392504909032e-08
3.46634556724581e-10
3.36682036924386e-10
3.10119349268961e-08
6.49483527683677e-06
7.91689350026767e-06
8.29793109545859e-06
8.38381720252072e-06
8.40091113854676e-06
8.40402045966283e-06
8.4045493069038e-06
8.40463455091136e-06
8.4046474444565e-06
8.40464897837217e-06
8.40464875903276e-06
8.4046483275222e-06
8.40464786996862e-06
8.40464740658773e-06
8.40464694122087e-06
8.4046464764495e-06
8.40464601592881e-06
8.40464556231889e-06
8.40464511894427e-06
8.40464468788606e-06
8.40464427181917e-06
8.40464387209898e-06
8.40464349067577e-06
8.40464312815641e-06
8.4046427857295e-06
8.40464246331817e-06
8.40464216152412e-06
8.40464187977167e-06
8.40464161827198e-06
8.40464137628119e-06
8.40464115391764e-06
8.40464095045087e-06
8.40464076592915e-06
8.40464059985222e-06
8.40464045371195e-06
8.40464030955852e-06
8.40463993541014e-06
8.40463802294538e-06
8.40462586816971e-06
8.40454778332727e-06
8.40406292470306e-06
8.40119659211505e-06
8.38531554171511e-06
8.30468740450434e-06
7.94202555768238e-06
6.56504912039304e-06
3.17392128499459e-08
3.46633332505706e-10
3.3668069589899e-10
3.10119442117082e-08
6.49483220330975e-06
7.91689234500988e-06
8.29793087737129e-06
8.38381735824451e-06
8.40091142538906e-06
8.40402079044149e-06
8.40454964650721e-06
8.40463489573445e-06
8.40464780722483e-06
8.40464936302916e-06
8.40464918312611e-06
8.40464877124619e-06
8.40464833432541e-06
8.4046478915572e-06
8.40464744667386e-06
8.4046470022268e-06
8.40464656183471e-06
8.40464612812202e-06
8.40464570437608e-06
8.40464529265589e-06
8.40464489559443e-06
8.40464451452755e-06
8.40464415138934e-06
8.40464380678615e-06
8.40464348186787e-06
8.40464317654158e-06
8.40464289138456e-06
8.40464262576851e-06
8.40464237984542e-06
8.40464215282091e-06
8.40464194475334e-06
8.4046417548668e-06
8.4046415830725e-06
8.40464142832701e-06
8.40464128900673e-06
8.40464114043708e-06
8.404640772437e-06
8.40463886867373e-06
8.40462671975674e-06
8.40454863963477e-06
8.40406378506614e-06
8.40119744762832e-06
8.38531634863884e-06
8.30468801973615e-06
7.94202572753308e-06
6.56504829510266e-06
3.17392372815943e-08
3.46633604308882e-10
3.36681337620922e-10
3.1011875268744e-08
6.49482799760861e-06
7.91689011174423e-06
8.29792949091552e-06
8.38381626518561e-06
8.40091042154915e-06
8.40401981328002e-06
8.40454867628335e-06
8.40463393221033e-06
8.40464685854842e-06
8.40464843199402e-06
8.40464826973937e-06
8.40464786993347e-06
8.40464745050636e-06
8.40464702595645e-06
8.40464659973301e-06
8.40464617427606e-06
8.40464575311414e-06
8.40464533879206e-06
8.40464493453608e-06
8.40464454235998e-06
8.40464416482493e-06
8.40464380322568e-06
8.40464345947555e-06
8.40464313418572e-06
8.40464282845248e-06
8.40464254215888e-06
8.40464227586395e-06
8.40464202889185e-06
8.40464180135157e-06
8.40464159239986e-06
8.40464140204636e-06
8.40464122949001e-06
8.40464107456524e-06
8.40464093598388e-06
8.40464081060133e-06
8.40464067108614e-06
8.4046403167805e-06
8.40463842849484e-06
8.40462629155572e-06
8.40454822237533e-06
8.40406337901342e-06
8.40119704632631e-06
8.38531591646357e-06
8.30468742659768e-06
7.94202463512104e-06
6.5650463268472e-06
3.17392653730332e-08
3.46636138998128e-10
3.36680277198005e-10
3.10117879526234e-08
6.49482380422363e-06
7.91688752645635e-06
8.29792766316215e-06
8.38381469283686e-06
8.40090892098567e-06
8.40401833236575e-06
8.40454720217752e-06
8.40463246727647e-06
8.40464540921875e-06
8.40464700760312e-06
8.40464687104328e-06
8.40464648440843e-06
8.40464608458046e-06
8.40464568017443e-06
8.40464527428335e-06
8.40464486923915e-06
8.40464446850037e-06
8.40464407454581e-06
8.4046436905626e-06
8.40464331853994e-06
8.40464296095825e-06
8.4046426190738e-06
8.40464229478759e-06
8.4046419887444e-06
8.40464170196659e-06
8.40464143429361e-06
8.40464118624579e-06
8.40464095711846e-06
8.40464074700147e-06
8.40464055494621e-06
8.40464038087307e-06
8.40464022392139e-06
8.40464008386745e-06
8.40463995932605e-06
8.40463984652126e-06
8.40463971714084e-06
8.40463937437103e-06
8.40463749846377e-06
8.4046253736423e-06
8.4045473173097e-06
8.40406248740706e-06
8.40119616247847e-06
8.38531500738331e-06
8.30468636787925e-06
7.94202307982458e-06
6.56504373392753e-06
3.1739211670201e-08
3.466355572872e-10
3.36676545604505e-10
3.1011742617954e-08
6.4948200083409e-06
7.91688489538809e-06
8.29792567018337e-06
8.38381292205507e-06
8.40090721155339e-06
8.40401663900848e-06
8.40454551508903e-06
8.40463078976144e-06
8.4046437480383e-06
8.40464537482353e-06
8.40464525928877e-06
8.40464488930489e-06
8.40464450977504e-06
8.40464412612744e-06
8.40464374114697e-06
8.40464335705751e-06
8.40464297726017e-06
8.40464260415777e-06
8.40464224092131e-06
8.40464188950479e-06
8.40464155228679e-06
8.40464123047783e-06
8.40464092595811e-06
8.40464063945654e-06
8.4046403718858e-06
8.40464012300051e-06
8.40463989324496e-06
8.4046396818814e-06
8.40463948891928e-06
8.4046393134246e-06
8.40463915525771e-06
8.40463901348512e-06
8.40463888783101e-06
8.40463877688082e-06
8.40463867664482e-06
8.40463855850459e-06
8.40463822714836e-06
8.40463636296311e-06
8.40462425042989e-06
8.40454620773154e-06
8.40406139236104e-06
8.40119507691775e-06
8.38531390097306e-06
8.30468512752475e-06
7.94202139426295e-06
6.56504105895089e-06
3.17391391921783e-08
3.46634099215537e-10
3.36675994096059e-10
3.10117129294513e-08
6.49481666526141e-06
7.91688237612767e-06
8.2979236731834e-06
8.38381111578964e-06
8.40090545852932e-06
8.40401489978137e-06
8.40454378160772e-06
8.40462906574949e-06
8.40464204172695e-06
8.40464369382962e-06
8.40464359879054e-06
8.40464324603632e-06
8.4046428867597e-06
8.40464252377386e-06
8.40464215961448e-06
8.40464179638861e-06
8.40464143744626e-06
8.40464108510593e-06
8.40464074258148e-06
8.40464041170799e-06
8.4046400947515e-06
8.40463979288657e-06
8.40463950793431e-06
8.4046392404998e-06
8.40463899153116e-06
8.40463876080749e-06
8.40463854873268e-06
8.40463835456952e-06
8.4046381782729e-06
8.4046380188749e-06
8.40463787617499e-06
8.40463774916457e-06
8.40463763749153e-06
8.40463753975599e-06
8.40463745194164e-06
8.4046373453881e-06
8.40463702527448e-06
8.40463517219655e-06
8.40462307158788e-06
8.40454504254096e-06
8.40406024202595e-06
8.40119393714945e-06
8.38531274470755e-06
8.30468385593531e-06
7.94201975291245e-06
6.56503871053764e-06
3.17391068035461e-08
3.46632882427655e-10
3.36675825744302e-10
3.10116894421349e-08
6.49481361200939e-06
7.91687994040453e-06
8.29792167584291e-06
8.38380928432699e-06
8.40090367398036e-06
8.40401312747673e-06
8.404542014811e-06
8.4046273085166e-06
8.40464030232049e-06
8.40464197809284e-06
8.40464190295172e-06
8.40464156745593e-06
8.4046412283912e-06
8.40464088602623e-06
8.4046405427355e-06
8.40464020043953e-06
8.40463986239675e-06
8.40463953077703e-06
8.40463920860127e-06
8.40463889775328e-06
8.40463860052292e-06
8.40463831808176e-06
8.40463805219717e-06
8.40463780340901e-06
8.40463757267933e-06
8.40463735979493e-06
8.40463716513543e-06
8.40463698796395e-06
8.40463682818744e-06
8.4046366847825e-06
8.4046365574961e-06
8.40463644524027e-06
8.40463634753403e-06
8.40463626305087e-06
8.40463618785984e-06
8.4046360933785e-06
8.40463578462349e-06
8.40463394207653e-06
8.40462185292981e-06
8.40454383754538e-06
8.40405905227738e-06
8.40119275910148e-06
8.38531155420038e-06
8.30468256636899e-06
7.94201815034338e-06
6.56503656041578e-06
3.17390844503436e-08
3.46630565420683e-10
3.36675705161284e-10
3.1011668273777e-08
6.49481073339572e-06
7.91687758062249e-06
8.29791970301218e-06
8.38380746076326e-06
8.40090189306678e-06
8.40401135784188e-06
8.40454025068242e-06
8.40462555451483e-06
8.40463856610964e-06
8.40464026390563e-06
8.40464020780542e-06
8.40463988922726e-06
8.40463957006572e-06
8.40463924799128e-06
8.40463892497099e-06
8.40463860288075e-06
8.40463828486105e-06
8.4046379730698e-06
8.40463767043401e-06
8.40463737881121e-06
8.40463710052382e-06
8.40463683674617e-06
8.40463658920716e-06
8.40463635841231e-06
8.40463614532899e-06
8.40463594975456e-06
8.40463577206008e-06
8.40463561151501e-06
8.40463546796626e-06
8.40463534030807e-06
8.40463522826129e-06
8.40463513066458e-06
8.4046350467893e-06
8.40463497550288e-06
8.4046349130791e-06
8.40463483112667e-06
8.40463453366498e-06
8.40463270017018e-06
8.40462062115112e-06
8.40454261893986e-06
8.40405784900484e-06
8.40119156839838e-06
8.38531035425075e-06
8.30468127835373e-06
7.94201658569041e-06
6.56503454219809e-06
3.17390668467014e-08
3.46630163759102e-10
3.36675597049096e-10
3.10116476922709e-08
6.49480787505576e-06
7.91687519375965e-06
8.29791767759502e-06
8.38380557559965e-06
8.40090004816929e-06
8.40400952379025e-06
8.40453842238797e-06
8.4046237375973e-06
8.40463676690803e-06
8.40463848449342e-06
8.4046384461994e-06
8.40463814373498e-06
8.40463784369824e-06
8.4046375411522e-06
8.404637237744e-06
8.40463693521965e-06
8.40463663659267e-06
8.40463634401822e-06
8.40463606036822e-06
8.40463578747111e-06
8.40463552766002e-06
8.40463528211136e-06
8.40463505252556e-06
8.40463483939255e-06
8.40463464368833e-06
8.40463446523718e-06
8.40463430443753e-06
8.40463416058838e-06
8.40463403343842e-06
8.40463392171594e-06
8.40463382518338e-06
8.40463374266038e-06
8.40463367290201e-06
8.40463361524142e-06
8.40463356631901e-06
8.4046334981541e-06
8.40463321229676e-06
8.40463138536039e-06
8.40461931440334e-06
8.40454132486971e-06
8.40405657072399e-06
8.4011903042491e-06
8.38530908488953e-06
8.30467993118855e-06
7.94201498584663e-06
6.56503254434921e-06
3.17390512107317e-08
3.46630065570236e-10
3.36675495712087e-10
3.10116271264492e-08
6.49480492579013e-06
7.91687268595831e-06