/*--------------------------------*- C++ -*----------------------------------*\
  =========                 |
  \\      /  F ield         | OpenFOAM: The Open Source CFD Toolbox
   \\    /   O peration     | Website:  https://openfoam.org
    \\  /    A nd           | Version:  10
     \\/     M anipulation  |
\*---------------------------------------------------------------------------*/
FoamFile
{
    format      ascii;
    class       volScalarField;
    location    "1";
    object      h;
}
// * * * * * * * * * * * * * * * * * * * * * * * * * * * * * * * * * * * * * //

dimensions      [0 2 -2 0 0 0 0];

internalField   nonuniform List<scalar> 
2500
(
6695.23552976601
6567.18160303175
6546.23488683539
6544.01555799467
6543.79815467819
6543.77360724944
6543.76979103779
6543.76785429052
6543.76603709183
6543.76520867488
6543.76387460125
6543.76297543484
6543.76242861238
6543.76170908935
6543.76104513662
6543.76028379473
6543.75992564659
6543.75943371235
6543.75887879619
6543.7585138119
6543.75803185891
6543.75686229347
6543.75606668312
6543.7565075131
6543.75687196651
6543.75617411094
6543.75591494051
6543.75580477661
6543.75544582413
6543.75615303232
6543.75637870481
6543.75647530621
6543.75666740191
6543.7569668885
6543.7575856171
6543.75786678009
6543.75817739859
6543.75843188797
6543.75894378822
6543.75942691921
6543.75999705014
6543.76066098676
6543.76150613638
6543.76276764683
6543.76859999364
6543.80097009278
6544.05346680509
6546.37181405907
6567.6860142746
6695.35859587412
3618.71322670526
3482.41742186769
3408.07900296653
3398.05893634725
3396.78972261802
3396.62691399542
3396.60609615662
3396.60322963854
3396.60259734481
3396.60242307103
3396.60215839684
3396.60198381329
3396.60193131614
3396.60185230413
3396.6017691255
3396.60167806399
3396.60167605791
3396.6016243333
3396.60155413122
3396.6014677759
3396.60092887155
3396.60012436718
3396.59991039216
3396.60017897604
3396.60048184255
3396.60029282282
3396.60024509011
3396.59998237298
3396.599838558
3396.60040866811
3396.60063637947
3396.60051950911
3396.60080742096
3396.60150008938
3396.60176635381
3396.60185252932
3396.6019266345
3396.6019797116
3396.60207248202
3396.60215624024
3396.60226582801
3396.60247176993
3396.60332998434
3396.60847025807
3396.6416626539
3396.85282271984
3398.24616937516
3408.28530024269
3483.4993851176
3625.92737065897
2383.97870197643
2313.83493182549
2273.80633182598
2266.51263903361
2265.53627897696
2265.40672538144
2265.38973751512
2265.38753952366
2265.3872494258
2265.38722953363
2265.38703834897
2265.38687525636
2265.38691814835
2265.38690506339
2265.38698276834
2265.38710039617
2265.38715551537
2265.38717907183
2265.38724906885
2265.38723030596
2265.38699529785
2265.38682913383
2265.38673114452
2265.38671541693
2265.38697173529
2265.38690650183
2265.38678190202
2265.38682458022
2265.38685532094
2265.38699533572
2265.38714794445
2265.38711140554
2265.38717475009
2265.38747181008
2265.38760451347
2265.38763530961
2265.38765348345
2265.38765998669
2265.38766788462
2265.38767136762
2265.38768118545
2265.38774713816
2265.38824078283
2265.39162560722
2265.41390818807
2265.55876050788
2266.54085994344
2273.68786113812
2314.29777370079
2391.68038310217
1995.72385941202
1970.06349048668
1959.46555307828
1956.90127756079
1956.5374261132
1956.48836680032
1956.4818408052
1956.48095696394
1956.48082219856
1956.48086737017
1956.48085761856
1956.48076218227
1956.4807550865
1956.4807940213
1956.48083402578
1956.48087755602
1956.4808839086
1956.48087287736
1956.48091076148
1956.4809180646
1956.48087688786
1956.48083762264
1956.48081184684
1956.48082928709
1956.48089781839
1956.48087166779
1956.48084497935
1956.48087445809
1956.48088690002
1956.48091693071
1956.48096008711
1956.48096185816
1956.480984968
1956.48105248932
1956.48109217595
1956.48111134214
1956.48112481196
1956.48112514552
1956.48112317893
1956.48111863771
1956.48111428652
1956.48112508319
1956.48125913322
1956.4822549421
1956.48908414942
1956.53595460607
1956.87504854139
1959.38036262184
1970.20374766948
1999.6564887697
1890.88799399712
1883.18486497985
1880.88293674158
1880.16433058099
1880.05450012281
1880.03929390216
1880.03724357893
1880.03696219863
1880.03692193299
1880.03694118637
1880.03694025825
1880.0369085856
1880.03691034783
1880.03692648099
1880.03694084027
1880.03695338058
1880.0369518514
1880.03694213216
1880.03695844802
1880.03695941617
1880.03694935299
1880.03694797277
1880.03694712218
1880.03695332416
1880.03696661661
1880.03696312734
1880.03696254739
1880.03696434561
1880.03696574893
1880.03697731814
1880.03698640679
1880.03698855099
1880.03699516819
1880.03700636819
1880.037015257
1880.03702539002
1880.03703155328
1880.0370314189
1880.03702980271
1880.03702306177
1880.03701515331
1880.03701668721
1880.037054279
1880.03731566176
1880.03913617431
1880.05208387182
1880.1488290576
1880.8500625424
1883.20805409104
1892.33949543695
1865.40110069475
1863.37146454257
1862.91718627249
1862.74078624754
1862.71171537046
1862.70756227829
1862.70699568663
1862.70691779007
1862.70690753801
1862.70691328846
1862.70691293281
1862.70690676382
1862.70690931762
1862.70691410157
1862.70691747904
1862.70691835089
1862.70691747542
1862.70691536073
1862.7069184083
1862.7069185739
1862.7069178243
1862.70691945369
1862.7069193913
1862.70691981371
1862.70692323836
1862.70692303473
1862.70692371711
1862.706923201
1862.70692347983
1862.70692666248
1862.70692808501
1862.70692909303
1862.70693075182
1862.70693222565
1862.70693401124
1862.70693750339
1862.70693954583
1862.7069394672
1862.70693817556
1862.70693665537
1862.7069357596
1862.70693431121
1862.70694227703
1862.70700610862
1862.70745309705
1862.71069968269
1862.73526977612
1862.90831745572
1863.37105565298
1865.84357267127
1859.66370707695
1859.17654240607
1859.09068063497
1859.05103156881
1859.04401621141
1859.0429792954
1859.04283610279
1859.04281640255
1859.04281409457
1859.04281563252
1859.04281552253
1859.04281445619
1859.0428152804
1859.04281624788
1859.04281682025
1859.04281692735
1859.04281726606
1859.04281673227
1859.04281705209
1859.04281749708
1859.04281738137
1859.04281795839
1859.0428179436
1859.04281792819
1859.04281870162
1859.04281869195
1859.04281887684
1859.04281871575
1859.04281887655
1859.04281938445
1859.042819668
1859.04282001185
1859.04282040323
1859.04282059846
1859.04282092679
1859.0428218829
1859.04282243724
1859.04282241452
1859.04282199695
1859.04282171822
1859.04282158572
1859.04282097039
1859.04282262541
1859.04283718234
1859.04294004865
1859.04369636154
1859.04943711477
1859.08871464732
1859.17457134366
1859.78233824874
1858.44598592888
1858.33699042436
1858.32097597322
1858.3126074553
1858.31102764317
1858.3107856789
1858.31075184023
1858.31074717818
1858.31074661945
1858.31074696095
1858.31074693405
1858.31074678925
1858.31074702963
1858.31074722719
1858.31074734948
1858.31074735782
1858.31074750201
1858.31074735103
1858.3107473538
1858.31074750913
1858.31074755635
1858.31074766627
1858.31074765922
1858.31074769734
1858.31074784016
1858.31074783579
1858.31074785846
1858.3107478563
1858.31074790541
1858.31074796318
1858.31074802076
1858.31074809677
1858.31074821111
1858.31074824042
1858.31074827808
1858.31074849345
1858.31074861263
1858.31074861242
1858.31074855237
1858.31074846894
1858.31074841523
1858.31074828504
1858.31074861446
1858.31075175469
1858.31077414561
1858.31093997652
1858.31219687702
1858.32057838185
1858.33606551555
1858.47497024795
1858.19928034313
1858.17620008829
1858.17320785322
1858.1715229012
1858.1711858453
1858.17113231733
1858.17112471792
1858.17112366666
1858.17112353566
1858.17112360475
1858.17112359916
1858.17112358573
1858.17112364677
1858.17112368609
1858.17112371104
1858.17112371119
1858.17112374946
1858.17112371242
1858.17112370067
1858.17112374226
1858.17112376549
1858.17112378576
1858.17112379295
1858.17112380537
1858.17112382064
1858.17112381742
1858.17112383164
1858.17112383475
1858.17112384228
1858.1711238539
1858.17112386176
1858.17112386761
1858.17112390003
1858.17112390479
1858.17112390762
1858.17112395159
1858.1711239735
1858.17112397425
1858.17112396898
1858.17112394816
1858.17112393591
1858.17112390894
1858.17112397262
1858.1711246188
1858.17112926204
1858.17116380468
1858.17142479401
1858.17312840614
1858.1758890567
1858.20587880721
1858.15114761284
1858.14647219442
1858.14590935797
1858.14558229968
1858.14551345151
1858.14550211596
1858.14550047701
1858.14550024859
1858.14550021908
1858.14550023285
1858.14550023258
1858.14550023192
1858.14550024361
1858.14550024999
1858.14550025481
1858.14550025475
1858.14550026373
1858.1455002554
1858.1455002518
1858.14550026179
1858.14550026756
1858.14550027138
1858.14550027387
1858.14550027639
1858.1455002762
1858.14550027502
1858.14550027891
1858.14550028036
1858.14550028155
1858.14550028443
1858.14550028465
1858.14550028389
1858.1455002916
1858.14550029248
1858.14550029223
1858.14550030058
1858.14550030417
1858.14550030436
1858.14550030438
1858.14550030032
1858.14550029797
1858.14550029279
1858.14550030513
1858.1455004331
1858.14550135657
1858.14550824371
1858.14556009407
1858.14589283187
1858.14638356699
1858.15256844613
1858.14204495531
1858.14113177194
1858.14102515128
1858.14096346782
1858.14094989783
1858.14094758321
1858.14094724108
1858.14094719269
1858.140947186
1858.14094718814
1858.14094718817
1858.14094718752
1858.14094718871
1858.14094718977
1858.14094719037
1858.14094719024
1858.14094719191
1858.14094718983
1858.14094718869
1858.14094719043
1858.1409471915
1858.14094719182
1858.14094719239
1858.14094719295
1858.14094719203
1858.14094719147
1858.14094719215
1858.14094719242
1858.14094719246
1858.14094719296
1858.14094719268
1858.14094719212
1858.14094719369
1858.14094719377
1858.14094719347
1858.14094719493
1858.14094719549
1858.14094719552
1858.14094719571
1858.14094719525
1858.14094719478
1858.14094719384
1858.14094719666
1858.14094722151
1858.14094739906
1858.14094872225
1858.14095864815
1858.14102152476
1858.14110906848
1858.14233741265
1858.14036800633
1858.14019498999
1858.14017449859
1858.14016309847
1858.14016049916
1858.14016004028
1858.14015997035
1858.14015995994
1858.1401599581
1858.14015995787
1858.1401599574
1858.14015995685
1858.14015995659
1858.14015995639
1858.14015995618
1858.14015995582
1858.14015995573
1858.14015995499
1858.14015995444
1858.14015995439
1858.14015995429
1858.14015995407
1858.14015995394
1858.14015995374
1858.14015995328
1858.14015995292
1858.14015995279
1858.14015995263
1858.14015995245
1858.14015995237
1858.14015995212
1858.14015995185
1858.140159952
1858.1401599519
1858.14015995175
1858.14015995194
1858.140159952
1858.14015995202
1858.14015995213
1858.14015995219
1858.14015995227
1858.14015995233
1858.14015995317
1858.1401599582
1858.14015999173
1858.14016023865
1858.14016208303
1858.14017367042
1858.14018959734
1858.14042599289
1858.14006588983
1858.14003391776
1858.1400296988
1858.14002758882
1858.14002709916
1858.14002700973
1858.1400269952
1858.1400269925
1858.14002699156
1858.14002699096
1858.14002699038
1858.14002698981
1858.1400269893
1858.14002698884
1858.14002698839
1858.14002698793
1858.14002698752
1858.14002698702
1858.14002698656
1858.1400269862
1858.14002698584
1858.14002698548
1858.14002698514
1858.14002698481
1858.14002698444
1858.1400269841
1858.14002698382
1858.14002698355
1858.1400269833
1858.14002698308
1858.14002698285
1858.14002698264
1858.14002698252
1858.14002698238
1858.14002698227
1858.14002698224
1858.14002698223
1858.14002698225
1858.14002698232
1858.14002698245
1858.14002698263
1858.14002698288
1858.14002698336
1858.14002698468
1858.14002699129
1858.14002703688
1858.14002737454
1858.14002950182
1858.14003269998
1858.14007702037
1858.14001250006
1858.14000668882
1858.14000553068
1858.14000510138
1858.14000500676
1858.14000498886
1858.14000498534
1858.14000498417
1858.14000498341
1858.14000498275
1858.14000498212
1858.14000498153
1858.14000498097
1858.14000498044
1858.14000497992
1858.14000497942
1858.14000497894
1858.14000497845
1858.14000497799
1858.14000497755
1858.14000497713
1858.14000497672
1858.14000497633
1858.14000497596
1858.14000497559
1858.14000497524
1858.14000497492
1858.14000497462
1858.14000497434
1858.14000497408
1858.14000497384
1858.14000497363
1858.14000497346
1858.14000497332
1858.1400049732
1858.14000497313
1858.1400049731
1858.14000497312
1858.14000497319
1858.14000497332
1858.14000497352
1858.14000497379
1858.14000497418
1858.14000497481
1858.14000497649
1858.14000498545
1858.14000505009
1858.14000547705
1858.14000641452
1858.14001456694
1858.14000322315
1858.14000215317
1858.14000156557
1858.14000143497
1858.1400014127
1858.14000140835
1858.14000140699
1858.14000140614
1858.14000140541
1858.14000140473
1858.14000140409
1858.14000140348
1858.1400014029
1858.14000140233
1858.14000140179
1858.14000140126
1858.14000140075
1858.14000140025
1858.14000139976
1858.1400013993
1858.14000139885
1858.14000139842
1858.140001398
1858.1400013976
1858.14000139722
1858.14000139686
1858.14000139651
1858.14000139619
1858.1400013959
1858.14000139562
1858.14000139538
1858.14000139516
1858.14000139497
1858.14000139482
1858.1400013947
1858.14000139462
1858.14000139458
1858.14000139459
1858.14000139466
1858.14000139478
1858.14000139497
1858.14000139524
1858.14000139559
1858.14000139607
1858.14000139684
1858.14000139925
1858.14000141556
1858.1400015437
1858.14000208085
1858.14000358399
1858.1400016359
1858.14000140814
1858.14000092536
1858.14000084705
1858.14000083782
1858.14000083603
1858.1400008351
1858.14000083433
1858.14000083361
1858.14000083293
1858.14000083227
1858.14000083165
1858.14000083104
1858.14000083046
1858.14000082989
1858.14000082934
1858.14000082881
1858.14000082829
1858.14000082779
1858.1400008273
1858.14000082683
1858.14000082638
1858.14000082595
1858.14000082553
1858.14000082513
1858.14000082476
1858.1400008244
1858.14000082406
1858.14000082375
1858.14000082347
1858.14000082321
1858.14000082298
1858.14000082278
1858.14000082262
1858.1400008225
1858.14000082241
1858.14000082237
1858.14000082237
1858.14000082243
1858.14000082255
1858.14000082273
1858.14000082298
1858.14000082332
1858.14000082374
1858.14000082431
1858.14000082552
1858.1400008334
1858.14000091
1858.14000137673
1858.14000168253
1858.14000136886
1858.14000128812
1858.14000082403
1858.14000075476
1858.14000074788
1858.14000074659
1858.14000074577
1858.14000074503
1858.14000074432
1858.14000074363
1858.14000074297
1858.14000074233
1858.14000074171
1858.14000074111
1858.14000074053
1858.14000073996
1858.14000073941
1858.14000073887
1858.14000073835
1858.14000073785
1858.14000073736
1858.1400007369
1858.14000073645
1858.14000073601
1858.1400007356
1858.14000073521
1858.14000073484
1858.14000073449
1858.14000073417
1858.14000073387
1858.14000073361
1858.14000073337
1858.14000073316
1858.14000073299
1858.14000073286
1858.14000073277
1858.14000073272
1858.14000073272
1858.14000073278
1858.14000073289
1858.14000073306
1858.14000073329
1858.1400007336
1858.14000073399
1858.14000073448
1858.14000073544
1858.14000074182
1858.14000080966
1858.14000126418
1858.14000135824
1858.14000132537
1858.1400012699
1858.14000080881
1858.14000074107
1858.14000073464
1858.14000073349
1858.14000073272
1858.14000073199
1858.14000073129
1858.1400007306
1858.14000072993
1858.14000072928
1858.14000072865
1858.14000072803
1858.14000072743
1858.14000072685
1858.14000072628
1858.14000072573
1858.1400007252
1858.14000072468
1858.14000072418
1858.1400007237
1858.14000072323
1858.14000072279
1858.14000072236
1858.14000072196
1858.14000072158
1858.14000072122
1858.14000072089
1858.14000072058
1858.14000072031
1858.14000072006
1858.14000071985
1858.14000071967
1858.14000071953
1858.14000071944
1858.14000071938
1858.14000071938
1858.14000071943
1858.14000071953
1858.14000071969
1858.14000071991
1858.1400007202
1858.14000072055
1858.14000072099
1858.14000072186
1858.14000072794
1858.14000079428
1858.14000124681
1858.14000130399
1858.14000131917
1858.14000126798
1858.14000080711
1858.14000073962
1858.14000073331
1858.1400007322
1858.14000073146
1858.14000073075
1858.14000073006
1858.14000072937
1858.1400007287
1858.14000072804
1858.1400007274
1858.14000072677
1858.14000072615
1858.14000072556
1858.14000072498
1858.14000072441
1858.14000072386
1858.14000072333
1858.14000072282
1858.14000072233
1858.14000072185
1858.14000072139
1858.14000072096
1858.14000072054
1858.14000072015
1858.14000071978
1858.14000071944
1858.14000071913
1858.14000071884
1858.14000071859
1858.14000071837
1858.14000071819
1858.14000071805
1858.14000071795
1858.14000071789
1858.14000071788
1858.14000071792
1858.14000071801
1858.14000071816
1858.14000071837
1858.14000071864
1858.14000071896
1858.14000071936
1858.14000072017
1858.14000072615
1858.14000079223
1858.14000124454
1858.14000129537
1858.14000131902
1858.14000126853
1858.14000080742
1858.14000073996
1858.14000073369
1858.14000073262
1858.14000073191
1858.14000073122
1858.14000073053
1858.14000072984
1858.14000072916
1858.1400007285
1858.14000072784
1858.14000072721
1858.14000072658
1858.14000072597
1858.14000072538
1858.14000072481
1858.14000072425
1858.14000072371
1858.14000072318
1858.14000072268
1858.14000072219
1858.14000072172
1858.14000072128
1858.14000072086
1858.14000072046
1858.14000072008
1858.14000071973
1858.14000071941
1858.14000071912
1858.14000071886
1858.14000071864
1858.14000071845
1858.1400007183
1858.1400007182
1858.14000071814
1858.14000071812
1858.14000071816
1858.14000071824
1858.14000071838
1858.14000071858
1858.14000071882
1858.14000071912
1858.14000071949
1858.14000072026
1858.14000072619
1858.1400007922
1858.14000124457
1858.14000129432
1858.14000131969
1858.14000126931
1858.14000080793
1858.14000074046
1858.14000073423
1858.14000073319
1858.14000073249
1858.14000073181
1858.14000073113
1858.14000073044
1858.14000072976
1858.14000072909
1858.14000072843
1858.14000072779
1858.14000072715
1858.14000072654
1858.14000072594
1858.14000072535
1858.14000072478
1858.14000072423
1858.1400007237
1858.14000072318
1858.14000072269
1858.14000072222
1858.14000072176
1858.14000072133
1858.14000072093
1858.14000072055
1858.14000072019
1858.14000071986
1858.14000071957
1858.14000071931
1858.14000071908
1858.14000071889
1858.14000071873
1858.14000071862
1858.14000071856
1858.14000071854
1858.14000071857
1858.14000071865
1858.14000071878
1858.14000071897
1858.1400007192
1858.14000071947
1858.14000071982
1858.14000072055
1858.14000072643
1858.14000079242
1858.14000124489
1858.14000129445
1858.14000132033
1858.14000126996
1858.14000080836
1858.14000074089
1858.14000073467
1858.14000073365
1858.14000073297
1858.1400007323
1858.14000073162
1858.14000073094
1858.14000073026
1858.14000072958
1858.14000072892
1858.14000072826
1858.14000072763
1858.140000727
1858.14000072639
1858.1400007258
1858.14000072523
1858.14000072467
1858.14000072413
1858.14000072361
1858.14000072311
1858.14000072263
1858.14000072217
1858.14000072173
1858.14000072132
1858.14000072094
1858.14000072058
1858.14000072025
1858.14000071995
1858.14000071968
1858.14000071945
1858.14000071925
1858.1400007191
1858.14000071899
1858.14000071892
1858.1400007189
1858.14000071892
1858.140000719
1858.14000071912
1858.1400007193
1858.14000071951
1858.14000071977
1858.14000072009
1858.14000072079
1858.14000072665
1858.14000079262
1858.14000124518
1858.14000129469
1858.14000132079
1858.14000127042
1858.14000080866
1858.14000074118
1858.14000073499
1858.14000073398
1858.14000073331
1858.14000073265
1858.14000073197
1858.14000073129
1858.14000073061
1858.14000072993
1858.14000072926
1858.1400007286
1858.14000072796
1858.14000072733
1858.14000072672
1858.14000072612
1858.14000072554
1858.14000072498
1858.14000072443
1858.14000072391
1858.14000072341
1858.14000072292
1858.14000072246
1858.14000072202
1858.1400007216
1858.14000072121
1858.14000072085
1858.14000072052
1858.14000072022
1858.14000071995
1858.14000071971
1858.14000071951
1858.14000071936
1858.14000071924
1858.14000071917
1858.14000071915
1858.14000071918
1858.14000071925
1858.14000071937
1858.14000071953
1858.14000071974
1858.14000071998
1858.14000072029
1858.14000072097
1858.1400007268
1858.14000079276
1858.14000124537
1858.14000129487
1858.14000132104
1858.14000127068
1858.14000080883
1858.14000074135
1858.14000073516
1858.14000073417
1858.1400007335
1858.14000073285
1858.14000073217
1858.14000073149
1858.14000073081
1858.14000073013
1858.14000072946
1858.1400007288
1858.14000072815
1858.14000072752
1858.14000072691
1858.1400007263
1858.14000072572
1858.14000072516
1858.14000072461
1858.14000072408
1858.14000072358
1858.14000072309
1858.14000072263
1858.14000072219
1858.14000072177
1858.14000072138
1858.14000072101
1858.14000072068
1858.14000072037
1858.1400007201
1858.14000071987
1858.14000071967
1858.14000071951
1858.1400007194
1858.14000071933
1858.1400007193
1858.14000071932
1858.14000071939
1858.14000071951
1858.14000071967
1858.14000071987
1858.1400007201
1858.14000072039
1858.14000072106
1858.14000072688
1858.14000079283
1858.14000124546
1858.14000129495
1858.1400013211
1858.14000127074
1858.14000080887
1858.14000074139
1858.14000073521
1858.14000073422
1858.14000073356
1858.1400007329
1858.14000073223
1858.14000073154
1858.14000073086
1858.14000073018
1858.14000072951
1858.14000072885
1858.1400007282
1858.14000072757
1858.14000072695
1858.14000072635
1858.14000072577
1858.14000072521
1858.14000072466
1858.14000072413
1858.14000072362
1858.14000072314
1858.14000072267
1858.14000072223
1858.14000072181
1858.14000072142
1858.14000072106
1858.14000072072
1858.14000072042
1858.14000072015
1858.14000071991
1858.14000071971
1858.14000071956
1858.14000071944
1858.14000071937
1858.14000071934
1858.14000071937
1858.14000071943
1858.14000071955
1858.14000071971
1858.1400007199
1858.14000072013
1858.14000072041
1858.14000072108
1858.14000072689
1858.14000079283
1858.14000124544
1858.14000129493
1858.14000132095
1858.1400012706
1858.14000080878
1858.14000074131
1858.14000073512
1858.14000073413
1858.14000073347
1858.14000073281
1858.14000073213
1858.14000073145
1858.14000073077
1858.14000073009
1858.14000072942
1858.14000072876
1858.14000072811
1858.14000072748
1858.14000072687
1858.14000072627
1858.14000072568
1858.14000072512
1858.14000072458
1858.14000072405
1858.14000072354
1858.14000072306
1858.1400007226
1858.14000072216
1858.14000072174
1858.14000072135
1858.14000072099
1858.14000072065
1858.14000072035
1858.14000072008
1858.14000071985
1858.14000071965
1858.14000071949
1858.14000071938
1858.14000071931
1858.14000071928
1858.1400007193
1858.14000071937
1858.14000071949
1858.14000071964
1858.14000071984
1858.14000072007
1858.14000072035
1858.14000072101
1858.14000072682
1858.14000079276
1858.14000124533
1858.14000129481
1858.1400013206
1858.14000127025
1858.14000080856
1858.14000074109
1858.1400007349
1858.1400007339
1858.14000073323
1858.14000073257
1858.14000073189
1858.14000073121
1858.14000073052
1858.14000072985
1858.14000072918
1858.14000072852
1858.14000072788
1858.14000072725
1858.14000072664
1858.14000072604
1858.14000072546
1858.1400007249
1858.14000072436
1858.14000072384
1858.14000072334
1858.14000072286
1858.1400007224
1858.14000072196
1858.14000072155
1858.14000072116
1858.1400007208
1858.14000072047
1858.14000072017
1858.1400007199
1858.14000071967
1858.14000071947
1858.14000071932
1858.1400007192
1858.14000071913
1858.14000071911
1858.14000071913
1858.14000071921
1858.14000071932
1858.14000071948
1858.14000071968
1858.14000071991
1858.1400007202
1858.14000072087
1858.14000072668
1858.14000079261
1858.14000124511
1858.14000129459
1858.14000132004
1858.1400012697
1858.1400008082
1858.14000074075
1858.14000073454
1858.14000073353
1858.14000073285
1858.14000073218
1858.1400007315
1858.14000073082
1858.14000073013
1858.14000072946
1858.14000072879
1858.14000072814
1858.1400007275
1858.14000072688
1858.14000072627
1858.14000072568
1858.14000072511
1858.14000072456
1858.14000072402
1858.1400007235
1858.14000072301
1858.14000072253
1858.14000072207
1858.14000072164
1858.14000072123
1858.14000072085
1858.14000072049
1858.14000072017
1858.14000071987
1858.1400007196
1858.14000071938
1858.14000071918
1858.14000071903
1858.14000071892
1858.14000071885
1858.14000071883
1858.14000071886
1858.14000071893
1858.14000071905
1858.14000071922
1858.14000071942
1858.14000071967
1858.14000071996
1858.14000072064
1858.14000072647
1858.1400007924
1858.14000124479
1858.14000129426
1858.14000131928
1858.14000126895
1858.14000080771
1858.14000074028
1858.14000073406
1858.14000073302
1858.14000073233
1858.14000073165
1858.14000073097
1858.14000073028
1858.1400007296
1858.14000072892
1858.14000072826
1858.14000072762
1858.14000072699
1858.14000072637
1858.14000072577
1858.14000072519
1858.14000072462
1858.14000072408
1858.14000072355
1858.14000072304
1858.14000072255
1858.14000072208
1858.14000072163
1858.1400007212
1858.1400007208
1858.14000072042
1858.14000072007
1858.14000071975
1858.14000071946
1858.1400007192
1858.14000071897
1858.14000071879
1858.14000071864
1858.14000071853
1858.14000071847
1858.14000071845
1858.14000071848
1858.14000071856
1858.14000071868
1858.14000071886
1858.14000071907
1858.14000071933
1858.14000071964
1858.14000072034
1858.14000072619
1858.14000079211
1858.14000124436
1858.14000129384
1858.14000131833
1858.14000126802
1858.14000080709
1858.14000073968
1858.14000073344
1858.14000073238
1858.14000073167
1858.14000073098
1858.14000073029
1858.1400007296
1858.14000072892
1858.14000072825
1858.14000072759
1858.14000072695
1858.14000072633
1858.14000072572
1858.14000072513
1858.14000072456
1858.14000072401
1858.14000072347
1858.14000072295
1858.14000072245
1858.14000072197
1858.14000072151
1858.14000072107
1858.14000072065
1858.14000072025
1858.14000071988
1858.14000071954
1858.14000071922
1858.14000071894
1858.14000071868
1858.14000071846
1858.14000071828
1858.14000071814
1858.14000071803
1858.14000071797
1858.14000071796
1858.140000718
1858.14000071808
1858.14000071821
1858.1400007184
1858.14000071862
1858.1400007189
1858.14000071924
1858.14000071996
1858.14000072584
1858.14000079176
1858.14000124385
1858.14000129333
1858.1400013172
1858.1400012669
1858.14000080636
1858.14000073897
1858.1400007327
1858.14000073161
1858.14000073088
1858.14000073017
1858.14000072947
1858.14000072877
1858.14000072809
1858.14000072743
1858.14000072678
1858.14000072615
1858.14000072554
1858.14000072494
1858.14000072437
1858.1400007238
1858.14000072326
1858.14000072274
1858.14000072223
1858.14000072174
1858.14000072127
1858.14000072082
1858.14000072039
1858.14000071998
1858.14000071959
1858.14000071923
1858.14000071889
1858.14000071859
1858.14000071831
1858.14000071806
1858.14000071785
1858.14000071767
1858.14000071753
1858.14000071743
1858.14000071738
1858.14000071737
1858.14000071741
1858.1400007175
1858.14000071764
1858.14000071784
1858.14000071808
1858.14000071838
1858.14000071874
1858.1400007195
1858.14000072541
1858.14000079134
1858.14000124324
1858.14000129273
1858.1400013159
1858.14000126561
1858.14000080551
1858.14000073814
1858.14000073183
1858.1400007307
1858.14000072994
1858.14000072922
1858.14000072851
1858.14000072781
1858.14000072713
1858.14000072648
1858.14000072584
1858.14000072522
1858.14000072462
1858.14000072403
1858.14000072347
1858.14000072292
1858.14000072239
1858.14000072188
1858.14000072138
1858.14000072091
1858.14000072045
1858.14000072001
1858.14000071959
1858.14000071919
1858.14000071882
1858.14000071847
1858.14000071814
1858.14000071784
1858.14000071757
1858.14000071733
1858.14000071712
1858.14000071695
1858.14000071682
1858.14000071673
1858.14000071668
1858.14000071668
1858.14000071672
1858.14000071682
1858.14000071697
1858.14000071718
1858.14000071745
1858.14000071777
1858.14000071817
1858.14000071897
1858.14000072492
1858.14000079087
1858.14000124255
1858.14000129205
1858.14000131444
1858.14000126417
1858.14000080454
1858.1400007372
1858.14000073083
1858.14000072967
1858.14000072888
1858.14000072813
1858.14000072741
1858.14000072671
1858.14000072604
1858.14000072539
1858.14000072476
1858.14000072415
1858.14000072357
1858.140000723
1858.14000072245
1858.14000072192
1858.1400007214
1858.1400007209
1858.14000072042
1858.14000071996
1858.14000071952
1858.14000071909
1858.14000071869
1858.1400007183
1858.14000071794
1858.1400007176
1858.14000071728
1858.14000071699
1858.14000071673
1858.1400007165
1858.1400007163
1858.14000071613
1858.14000071601
1858.14000071592
1858.14000071588
1858.14000071588
1858.14000071594
1858.14000071604
1858.14000071621
1858.14000071643
1858.14000071672
1858.14000071707
1858.14000071751
1858.14000071836
1858.14000072437
1858.14000079033
1858.14000124179
1858.14000129131
1858.14000131286
1858.14000126258
1858.14000080347
1858.14000073614
1858.14000072972
1858.1400007285
1858.14000072768
1858.14000072691
1858.14000072618
1858.14000072548
1858.14000072481
1858.14000072417
1858.14000072355
1858.14000072296
1858.14000072239
1858.14000072184
1858.14000072131
1858.14000072079
1858.14000072029
1858.14000071981
1858.14000071935
1858.1400007189
1858.14000071847
1858.14000071806
1858.14000071767
1858.1400007173
1858.14000071695
1858.14000071662
1858.14000071632
1858.14000071604
1858.14000071579
1858.14000071557
1858.14000071537
1858.14000071522
1858.1400007151
1858.14000071502
1858.14000071498
1858.14000071499
1858.14000071505
1858.14000071517
1858.14000071535
1858.14000071559
1858.14000071589
1858.14000071628
1858.14000071676
1858.14000071767
1858.14000072375
1858.14000078975
1858.14000124098
1858.14000129053
1858.14000131115
1858.14000126087
1858.14000080231
1858.14000073498
1858.14000072849
1858.14000072721
1858.14000072635
1858.14000072556
1858.14000072482
1858.14000072412
1858.14000072346
1858.14000072283
1858.14000072223
1858.14000072165
1858.1400007211
1858.14000072056
1858.14000072005
1858.14000071955
1858.14000071907
1858.14000071861
1858.14000071816
1858.14000071774
1858.14000071732
1858.14000071693
1858.14000071655
1858.1400007162
1858.14000071586
1858.14000071555
1858.14000071526
1858.14000071499
1858.14000071475
1858.14000071454
1858.14000071436
1858.14000071421
1858.1400007141
1858.14000071402
1858.14000071399