/*--------------------------------*- C++ -*----------------------------------*\
  =========                 |
  \\      /  F ield         | OpenFOAM: The Open Source CFD Toolbox
   \\    /   O peration     | Website:  https://openfoam.org
    \\  /    A nd           | Version:  10
     \\/     M anipulation  |
\*---------------------------------------------------------------------------*/
FoamFile
{
    format      ascii;
    class       volScalarField;
    location    "1";
    object      k;
}
// * * * * * * * * * * * * * * * * * * * * * * * * * * * * * * * * * * * * * //

dimensions      [0 2 -2 0 0 0 0];

internalField   nonuniform List<scalar> 
2500
(
3.01552934965775e-06
3.63513039977151e-06
4.2870294679807e-06
4.47941168736721e-06
4.52053743705354e-06
4.5279502327896e-06
4.52914377587118e-06
4.52932077095306e-06
4.52934416391218e-06
4.52934821920816e-06
4.52934867183905e-06
4.52934673699207e-06
4.52934595059988e-06
4.5293450601579e-06
4.5293439239405e-06
4.52934286625261e-06
4.52934231381759e-06
4.52934187681073e-06
4.52934147685547e-06
4.52934109803315e-06
4.52934073932459e-06
4.52934039774543e-06
4.52934007729615e-06
4.52933977858465e-06
4.52933950131407e-06
4.52933924273034e-06
4.52933900718427e-06
4.52933879407993e-06
4.52933860468433e-06
4.52933844128177e-06
4.52933830348243e-06
4.52933819260371e-06
4.52933811239362e-06
4.52933806468526e-06
4.52933806153799e-06
4.52933824135562e-06
4.52933882013688e-06
4.52933881731541e-06
4.52933855070994e-06
4.52933924906599e-06
4.52933821129004e-06
4.5293281551442e-06
4.52926948827029e-06
4.52892613258385e-06
4.52703488483751e-06
4.51734000409381e-06
4.47196972240201e-06
4.28401827416928e-06
3.64113937167737e-06
3.0243387765943e-06
5.85437044257471e-06
1.84607188138515e-05
3.74912251293335e-05
4.36681021421969e-05
4.50829681295221e-05
4.5350215066312e-05
4.53946460251213e-05
4.54013820535527e-05
4.54023313507896e-05
4.54024702545312e-05
4.54024746212955e-05
4.5402446677603e-05
4.54024294239989e-05
4.54024082242842e-05
4.54023831852238e-05
4.54023606315594e-05
4.54023469649189e-05
4.54023362548403e-05
4.5402326666729e-05
4.54023177680075e-05
4.54023094727538e-05
4.54023017414513e-05
4.5402294580324e-05
4.54022879743066e-05
4.54022819400818e-05
4.54022764928015e-05
4.54022716429526e-05
4.54022673972411e-05
4.54022637988168e-05
4.54022608567927e-05
4.54022586310853e-05
4.54022571670513e-05
4.54022565350997e-05
4.54022568224812e-05
4.54022584022123e-05
4.54022672536445e-05
4.54022765488324e-05
4.54022742367099e-05
4.54022799971577e-05
4.54022916858305e-05
4.54022455803565e-05
4.54018821613153e-05
4.5399709486731e-05
4.53871930385518e-05
4.53196614301894e-05
4.4982753352695e-05
4.34648809825514e-05
3.75247838989392e-05
1.88569560608722e-05
5.98934156575319e-06
7.53924939021247e-06
5.14763291100443e-05
0.000138689528804488
0.000166977234925494
0.000173862669702425
0.000175240893629144
0.000175481229050825
0.000175519143098572
0.000175524697220564
0.000175525476869384
0.000175525498885023
0.000175525424512125
0.00017552536354651
0.000175525300908737
0.000175525227509966
0.000175525162626966
0.000175525116700884
0.000175525079800424
0.000175525046809148
0.000175525016182745
0.000175524987551393
0.000175524960799007
0.000175524935915822
0.000175524912870285
0.000175524891705676
0.000175524872449061
0.000175524855138134
0.000175524839816439
0.000175524826585576
0.000175524815502866
0.000175524806728558
0.000175524800403927
0.000175524796753196
0.00017552479607249
0.000175524799224682
0.000175524812381616
0.000175524841256134
0.000175524861230749
0.000175524874168299
0.000175524888751477
0.000175524593262797
0.000175522714661947
0.000175511493853729
0.000175447730071167
0.000175109142431985
0.000173456053778654
0.000166229745951677
0.000139038346305692
5.28481808610494e-05
7.77981051777692e-06
8.41082515117563e-06
7.22729824067424e-05
0.000203677293285264
0.000245917568239065
0.000256489071808653
0.000258676719621822
0.000259071393636342
0.000259135770742404
0.000259145520088266
0.000259146898210308
0.00025914698001567
0.000259146911386304
0.000259146841512785
0.000259146769059867
0.000259146686534148
0.000259146613697892
0.000259146558432978
0.000259146512528132
0.000259146470991546
0.000259146432138006
0.000259146395544551
0.000259146361086035
0.000259146328759482
0.000259146298539847
0.000259146270477355
0.000259146244584477
0.000259146220913207
0.0002591461995049
0.00025914618045326
0.000259146163816655
0.000259146149746066
0.000259146138371654
0.000259146129919619
0.000259146124657979
0.000259146123153521
0.000259146128141291
0.000259146149339684
0.000259146152630477
0.000259146171788684
0.000259146140222335
0.000259145735221988
0.000259143116188896
0.000259127117193782
0.000259034882804752
0.000258537597036051
0.000256075079723765
0.000245191494906092
0.000204029757502186
7.35844020733778e-05
8.64837782043102e-06
8.82211957831634e-06
8.35054987152603e-05
0.000241904749573033
0.000292839314720883
0.000305873490136938
0.000308643712202611
0.000309157931455179
0.000309244295718698
0.000309257758116805
0.000309259703241378
0.000309259881613216
0.000309259836451607
0.000309259774236538
0.000309259708233334
0.000309259635363742
0.000309259569888402
0.000309259517020286
0.000309259471479914
0.000309259429620072
0.000309259390092865
0.000309259352563669
0.000309259316940271
0.000309259283248211
0.000309259251484107
0.000309259221706946
0.000309259193932149
0.000309259168218306
0.000309259144594021
0.000309259123140121
0.000309259103900174
0.00030925908699418
0.000309259072519541
0.000309259060656779
0.000309259051600349
0.000309259045703891
0.000309259043983351
0.000309259049472813
0.00030925905157799
0.00030925905440026
0.000309259000730082
0.000309258541699997
0.000309255529576176
0.000309236963507012
0.000309128767750748
0.00030853870571966
0.000305586036317902
0.000292437514898493
0.000242612572440818
8.48559033132745e-05
9.06034990855808e-06
9.00556865934394e-06
8.90361581658942e-05
0.000262574295849323
0.000318617279604905
0.000333198737377098
0.000336360997111151
0.000336961240294776
0.000337064471046456
0.000337080950078624
0.000337083397377204
0.000337083677550255
0.000337083656082479
0.000337083606039534
0.000337083551296736
0.000337083492469024
0.000337083438195695
0.000337083391708115
0.000337083350137718
0.000337083311249976
0.000337083274154585
0.000337083238652794
0.000337083204703649
0.000337083172364652
0.000337083141655054
0.000337083112645394
0.000337083085356197
0.000337083059849258
0.000337083036143264
0.00033708301430583
0.000337082994362916
0.000337082976403483
0.000337082960488415
0.000337082946748182
0.000337082935306544
0.000337082926386436
0.000337082920396716
0.000337082918293318
0.000337082916168132
0.000337082909470701
0.000337082842007899
0.000337082349360707
0.000337079135247076
0.000337059243743212
0.000336942548535885
0.000336301544893023
0.000333073075890803
0.000318632642295454
0.000263873461616376
9.05837924078984e-05
9.25221720546892e-06
9.0842779423784e-06
9.15929728014663e-05
0.000273026149822
0.000331900683671509
0.000347397489002836
0.000350807107697187
0.000351465118944507
0.0003515803687452
0.000351599118857492
0.000351601971432067
0.000351602335450525
0.000351602338762657
0.000351602299962906
0.000351602255457123
0.000351602208577177
0.000351602164109689
0.000351602123967577
0.000351602086803889
0.000351602051437574
0.000351602017371655
0.00035160198453406
0.000351601952932541
0.000351601922651432
0.000351601893728386
0.000351601866243753
0.000351601840222389
0.000351601815727424
0.000351601792771157
0.000351601771410092
0.000351601751655246
0.000351601733571297
0.000351601717188901
0.000351601702597901
0.0003516016898669
0.000351601679132418
0.000351601670555872
0.000351601664385694
0.000351601658624293
0.000351601646055052
0.00035160157005228
0.000351601058233171
0.000351597744884436
0.000351577205324281
0.000351456255712822
0.000350789116838026
0.000347416314665857
0.000332291824822497
0.000274916682430695
9.33641933417397e-05
9.33982972027114e-06
9.11708382366846e-06
9.27219047792089e-05
0.000278033228210596
0.000338395141325985
0.000354404258619658
0.000357961063290927
0.000358655528624497
0.000358778799005661
0.000358799147705242
0.00035880230078573
0.000358802729868215
0.000358802752287728
0.000358802722007531
0.000358802684992566
0.000358802646453502
0.000358802609015876
0.000358802573785542
0.000358802540234899
0.00035880250784171
0.000358802476384235
0.000358802445885491
0.000358802416390463
0.000358802388002557
0.000358802360772056
0.000358802334785993
0.000358802310072279
0.000358802286694262
0.000358802264660053
0.000358802244018176
0.000358802224768861
0.000358802206959945
0.000358802190600804
0.000358802175752745
0.00035880216244659
0.000358802150763746
0.000358802140752178
0.000358802132398327
0.0003588021242294
0.00035880210815688
0.000358802027118839
0.000358801504994913
0.000358798145061764
0.000358777305489901
0.000358654349002608
0.000357974611894893
0.000354530953596801
0.000339066481037617
0.000280384603128804
9.46683059563407e-05
9.37909922660497e-06
9.13044805261725e-06
9.32032345160019e-05
0.000280328875312135
0.000341435848914681
0.000357717887397581
0.000361357823758453
0.000362074060442773
0.000362202381972598
0.000362223790357321
0.000362227152730148
0.000362227628054833
0.000362227663344855
0.000362227638909463
0.000362227606824436
0.00036222757355589
0.00036222754067608
0.000362227508834697
0.00036222747789764
0.000362227447709087
0.000362227418216341
0.000362227389504608
0.000362227361643662
0.00036222733474885
0.000362227308878089
0.000362227284122302
0.000362227260511186
0.00036222723810767
0.000362227216917235
0.000362227196983104
0.000362227178298414
0.000362227160900209
0.000362227144784355
0.000362227129993916
0.000362227116536189
0.000362227104459342
0.000362227093755872
0.000362227084306941
0.000362227074770555
0.000362227056753924
0.000362226972938974
0.000362226445564035
0.000362223064685142
0.000362202093034534
0.000362078238704779
0.000361392748583776
0.000357916138834439
0.000342291353973818
0.000282987932557297
9.52633673626349e-05
9.39640182257002e-06
9.13578986776204e-06
9.34028562965894e-05
0.000281344183015346
0.000342809356663068
0.000359230634318736
0.000362915422649865
0.00036364404748741
0.000363775392266654
0.00036379746658627
0.000363800966488458
0.00036380147250393
0.000363801516641324
0.000363801496082983
0.000363801467110291
0.000363801437045755
0.000363801407012088
0.00036380137742002
0.000363801348306931
0.000363801319702863
0.000363801291649173
0.0003638012642676
0.000363801237642478
0.000363801211895761
0.00036380118708943
0.000363801163316119
0.000363801140606344
0.000363801119022281
0.000363801098567685
0.00036380107928238
0.000363801061155106
0.000363801044216287
0.000363801028453715
0.00036380101389956
0.000363801000547332
0.000363800988426428
0.000363800977501683
0.000363800967609609
0.000363800957434248
0.000363800938470587
0.000363800853276146
0.000363800323410407
0.000363796933541617
0.000363775906380186
0.000363651668637015
0.000362963670066346
0.000359472415454294
0.000343775253871691
0.000284187852534948
9.55286662878486e-05
9.40390468486686e-06
9.13788947324463e-06
9.34837869812026e-05
0.000281780025361121
0.000343411458212247
0.000359901155304895
0.00036360919376007
0.000364344574941112
0.000364477650151904
0.000364500123675154
0.000364503709397847
0.000364504235200979
0.000364504285282889
0.000364504267286815
0.000364504240292085
0.000364504212198865
0.000364504183968337
0.000364504155895104
0.000364504128083008
0.000364504100648367
0.000364504073680441
0.00036450404732018
0.000364504021659811
0.000364503996824153
0.000364503972877053
0.000364503949911523
0.000364503927958274
0.000364503907078504
0.000364503887274891
0.000364503868584925
0.000364503850994775
0.000364503834530774
0.00036450381917609
0.000364503804956467
0.000364503791857784
0.000364503779899243
0.000364503769032414
0.000364503759074813
0.000364503748713063
0.000364503729399181
0.000364503643639686
0.000364503112732149
0.00036449971924455
0.000364478669791465
0.000364354274910045
0.000363665224800683
0.000360167703127765
0.000344439017344583
0.000284726092971847
9.56445791754126e-05
9.40710873178199e-06
9.13870149425299e-06
9.35159638179878e-05
0.000281962471655435
0.000343668791341094
0.000360191033685722
0.000363910711178287
0.00036464964271654
0.00036478367020365
0.000364806373287955
0.000364810010333378
0.000364810548480608
0.000364810602516124
0.000364810586259923
0.000364810560595307
0.000364810533802171
0.000364810506802106
0.000364810479837989
0.000364810453032433
0.00036481042653617
0.000364810400460079
0.000364810374954011
0.000364810350113521
0.000364810326064283
0.000364810302870495
0.000364810280624798
0.000364810259357594
0.000364810239129129
0.000364810219941221
0.000364810201829718
0.000364810184779129
0.000364810168813256
0.000364810153912455
0.000364810140098716
0.000364810127353705
0.000364810115691414
0.00036481010505768
0.000364810095263514
0.000364810084995611
0.000364810065686473
0.000364809979829596
0.000364809448633897
0.00036480605388655
0.000364784995962241
0.00036466053903962
0.000363971062555268
0.000360470941767768
0.00034472892515653
0.000284962013944171
9.56943129408254e-05
9.40845651666173e-06
9.1390103646485e-06
9.35285317713798e-05
0.000282037206789017
0.000343776404434517
0.000360313699252485
0.000364039028567819
0.000364779765794987
0.000364914299432754
0.000364937129738517
0.000364940796328161
0.000364941341983016
0.000364941398675998
0.000364941383654592
0.00036494135895595
0.000364941333104558
0.000364941307028404
0.000364941280951867
0.000364941254992873
0.000364941229309864
0.000364941204021221
0.000364941179279738
0.000364941155181964
0.000364941131853084
0.000364941109357064
0.000364941087785621
0.000364941067168686
0.000364941047565545
0.000364941028977315
0.000364941011438539
0.000364940994932627
0.000364940979481546
0.000364940965063958
0.000364940951699387
0.000364940939367218
0.000364940928078839
0.000364940917779107
0.000364940908280369
0.000364940898272294
0.000364940879166106
0.000364940793464115
0.000364940262358395
0.000364936867363483
0.000364915806506911
0.000364791325954682
0.000364101681227302
0.000360600509270567
0.000344852988400827
0.000285063373931722
9.5715295284691e-05
9.40901456411876e-06
9.13912840149249e-06
9.35333592890329e-05
0.000282067233015413
0.000343820553233463
0.000360364643815908
0.0003640926457328
0.000364834275244128
0.000364969069707862
0.000364991968202386
0.000364995651212235
0.000364996201375044
0.000364996259921403
0.000364996245835237
0.000364996221906806
0.000364996196816579
0.000364996171513466
0.000364996146220802
0.000364996121037455
0.000364996096115702
0.000364996071574222
0.000364996047565613
0.000364996024185959
0.0003649960015593
0.000364995979748853
0.00036499595884523
0.000364995938877756
0.000364995919904689
0.000364995901926535
0.00036499588497672
0.000364995869037784
0.000364995854130274
0.000364995840231643
0.000364995827359638
0.000364995815492346
0.000364995804640257
0.000364995794751025
0.000364995785647525
0.000364995776030915
0.000364995757258587
0.000364995671861286
0.000364995141049682
0.000364991746254576
0.000364970684636774
0.000364846195467815
0.000364156485695321
0.000360654896290742
0.000344905143747055
0.000285106153702039
9.57240036311605e-05
9.40924238633892e-06
9.13918977216601e-06
9.35351999615574e-05
0.000282079078359734
0.0003438383509783
0.000360385447696847
0.00036411468497742
0.000364856744426614
0.000364991669625429
0.000365014603558897
0.000365018295396723
0.000365018848288769
0.000365018908220296
0.00036501889490679
0.000365018871657722
0.000365018847249458
0.00036501882265182
0.000365018798092828
0.000365018773645964
0.000365018749454946
0.000365018725636468
0.000365018702341565
0.000365018679665169
0.000365018657729807
0.000365018636597775
0.000365018616358479
0.000365018597040595
0.000365018578701402
0.000365018561340811
0.00036501854499121
0.000365018529634498
0.000365018515289938
0.000365018501934011
0.000365018489583057
0.000365018478214388
0.000365018467838949
0.000365018458411806
0.000365018449783081
0.000365018440692092
0.000365018422345292
0.000365018337334654
0.000365017806920696
0.000365014412519976
0.000364993350970529
0.000364868858888507
0.000364179124257623
0.000360677370569511
0.000344926723776758
0.000285123916356581
9.57275609355183e-05
9.40934076661624e-06
9.1392766261618e-06
9.35359587518084e-05
0.000282083662317532
0.000343845398789134
0.00036039380387618
0.000364123601522378
0.000364865863682892
0.000365000852814199
0.000365023804660103
0.000365027501129165
0.000365028055796288
0.000365028116922135
0.000365028104360927
0.000365028081823084
0.000365028058133576
0.000365028034267077
0.000365028010443542
0.000365027986729823
0.000365027963269455
0.000365027940177714
0.000365027917603518
0.000365027895640276
0.00036502787440883
0.000365027853970351
0.000365027834412986
0.00036502781576468
0.000365027798081703
0.000365027781363403
0.000365027765641213
0.000365027750896338
0.000365027737146802
0.000365027724368234
0.000365027712575726
0.000365027701746063
0.000365027691891661
0.000365027682981406
0.000365027674925171
0.000365027666581425
0.00036502764876614
0.000365027564202805
0.000365027034252185
0.000365023640343392
0.000365002579183695
0.000364878086315931
0.000364188342187129
0.000360686523583812
0.000344935519583531
0.000285131174193767
9.57290017882448e-05
9.40942630049565e-06
9.13927933596843e-06
9.35361780683794e-05
0.000282085376390896
0.000343848132150252
0.000360397098037505
0.000364127145696948
0.000364869501717145
0.000365004521446896
0.000365027482158087
0.000365031181072006
0.000365031737074284
0.000365031799366991
0.000365031787576567
0.000365031765830846
0.000365031742943873
0.000365031719872842
0.000365031696818251
0.000365031673864732
0.000365031651160875
0.000365031628821373
0.000365031606993101
0.000365031585767942
0.000365031565264978
0.00036503154554433
0.000365031526692907
0.000365031508737909
0.000365031491734559
0.000365031475681681
0.000365031460609599
0.000365031446498705
0.000365031433365658
0.000365031421185055
0.000365031409970549
0.000365031399698323
0.00036503139038237
0.00036503138201148
0.000365031374606655
0.000365031367356101
0.00036503135018477
0.000365031266100702
0.000365030736647996
0.000365027343279735
0.000365006282632783
0.000364881789751511
0.000364192041886115
0.000360690196763403
0.000344939048004465
0.000285134084737827
9.5729603813605e-05
9.40950989908838e-06
9.13927796522257e-06
9.35362401923409e-05
0.000282086007027287
0.00034384915001291
0.000360398355218462
0.000364128514709626
0.000364870913944124
0.00036500594811121
0.000365028913297912
0.000365032613720635
0.000365033171005468
0.000365033234593778
0.000365033223551887
0.000365033202720629
0.000365033180771197
0.000365033158620171
0.000365033136452043
0.00036503311436706
0.000365033092518956
0.000365033071022403
0.000365033050022815
0.00036503302961091
0.000365033009904368
0.000365032990962493
0.000365032972871061
0.000365032955656712
0.000365032939373478
0.000365032924019441
0.000365032909623647
0.000365032896165124
0.000365032883658585
0.000365032872076948
0.000365032861431588
0.000365032851697002
0.000365032842886875
0.000365032835007774
0.000365032828228098
0.000365032822433148
0.000365032805950517
0.000365032722387552
0.000365032193533978
0.000365028800858399
0.000365007740937145
0.000364883248497376
0.000364193499123221
0.000360691642154044
0.000344940434457868
0.000285135220366531
9.57299137295724e-05
9.40952119290966e-06
9.13933600324389e-06
9.35362713870541e-05
0.000282086188337194
0.000343849489345903
0.00036039880272342
0.000364129014255894
0.000364871434153122
0.00036500647555448
0.000365029443364441
0.000365033145025099
0.000365033703762993
0.000365033768876232
0.000365033758147866
0.00036503373824721
0.00036503371731616
0.000365033696166528
0.000365033674966439
0.000365033653824157
0.000365033632896685
0.000365033612298957
0.000365033592175523
0.000365033572616547
0.000365033553738748
0.000365033535600975
0.000365033518288193
0.000365033501826654
0.000365033486269165
0.000365033471613056
0.000365033457885859
0.000365033445064766
0.000365033433161947
0.000365033422147912
0.000365033412031125
0.000365033402783282
0.00036503339441385
0.000365033386926778
0.000365033380523391
0.000365033375129105
0.000365033358927424
0.000365033275755448
0.0003650327475441
0.00036502935570571
0.000365008296698164
0.000364883804940261
0.000364194054730029
0.000360692190485023
0.000344940950257222
0.000285135632756887
9.57299488757466e-05
9.40947788391888e-06
9.13931477087506e-06
9.35362692614695e-05
0.000282086182072034
0.000343849561411173
0.000360398932704447
0.000364129171123937
0.000364871601532184
0.000365006646772526
0.000365029615881644
0.000365033318246526
0.000365033878260135
0.000365033944899662
0.000365033935392726
0.000365033916672135
0.000365033896821728
0.000365033876719367
0.000365033856531735
0.000365033836370793
0.000365033816395141
0.00036503379672016
0.000365033777490098
0.000365033758795201
0.000365033740751512
0.000365033723417774
0.000365033706878571
0.000365033691160152
0.000365033676314039
0.000365033662336802
0.000365033649254488
0.00036503363704202
0.000365033625708506
0.000365033615221576
0.000365033605586325
0.000365033596770984
0.000365033588777617
0.000365033581584471
0.00036503357525632
0.000365033569013548
0.00036503355278062
0.000365033469734007
0.000365032941838462
0.000365029550441942
0.000365008491889141
0.000364884000242516
0.000364194248367173
0.000360692376123862
0.000344941107373837
0.000285135737369214
9.57298399200704e-05
9.40944510184648e-06
9.13927880544401e-06
9.35363017385548e-05
0.000282086062070864
0.000343849527679155
0.000360398940468056
0.000364129195302097
0.000364871631441252
0.000365006678596862
0.000365029648090835
0.000365033350682993
0.000365033911476348
0.000365033979066792
0.000365033971272832
0.000365033953404939
0.000365033934450694
0.000365033915243564
0.000365033895945502
0.000365033876667169
0.000365033857565583
0.000365033838754586
0.000365033820376809
0.000365033802521544
0.000365033785303016
0.00036503376877912
0.000365033753033743
0.000365033738093109
0.000365033724007062
0.000365033710771474
0.000365033698411334
0.000365033686899279
0.000365033676241843
0.000365033666404467
0.000365033657389636
0.000365033649163606
0.000365033641722486
0.000365033635020928
0.000365033628988394
0.00036503362255319
0.000365033606586636
0.000365033523917248
0.000365032996275395
0.000365029605082955
0.000365008546704477
0.000364884054840421
0.000364194300820894
0.000360692420083732
0.000344941131236162
0.000285135715151416
9.57299181840501e-05
9.40945292966327e-06
9.13929666218284e-06
9.35360982700248e-05
0.000282085892897111
0.000343849447127196
0.000360398897487137
0.00036412916524312
0.000364871605293361
0.000365006653614668
0.000365029623411518
0.000365033326295224
0.000365033887733785
0.000365033956090666
0.000365033949063377
0.000365033931719977
0.000365033913525551
0.000365033895109655
0.000365033876621955
0.00036503385816828
0.000365033839901739
0.000365033821932715
0.000365033804401195
0.000365033787394507
0.000365033771023762
0.000365033755345072
0.000365033740441423
0.000365033726339251
0.000365033713086074
0.00036503370067672
0.000365033689135387
0.000365033678432645
0.000365033668573163
0.000365033659520256
0.000365033651274292
0.000365033643800435
0.000365033637091455
0.000365033631091375
0.00036503362566359
0.00036503361962101
0.000365033604248572
0.000365033522250706
0.000365032995128315
0.000365029604410155
0.000365008546516596
0.000364884054852093
0.000364194299457861
0.000360692411561491
0.000344941100275715
0.000285135643292197
9.57300074865755e-05
9.40952218408408e-06
9.13926831379758e-06
9.35358393856122e-05
0.000282085724258595
0.000343849351286439
0.000360398835339971
0.000364129114367781
0.0003648715575719
0.000365006606753592
0.000365029576847697
0.000365033280130317
0.000365033842246935
0.000365033911687196
0.000365033905776049
0.000365033889004787
0.000365033871661623
0.000365033854120592
0.000365033836515892
0.000365033818948661
0.000365033801568974
0.000365033784484351
0.000365033767833083
0.000365033751701435
0.000365033736197013
0.000365033721374259
0.000365033707315628
0.000365033694049017
0.000365033681618732
0.00036503367001771
0.000365033659268467
0.000365033649340324
0.000365033640237115
0.00036503363191758
0.000365033624378209
0.000365033617581574
0.000365033611517921
0.000365033606127053
0.000365033601244945
0.000365033595641906
0.000365033580769825
0.000365033499308873
0.000365032972712013
0.000365029582550926
0.000365008525240125
0.00036488403390582
0.000364194277381893
0.000360692382818206
0.000344941049211309
0.000285135544302516
9.5729850086351e-05
9.4095068430742e-06
9.13916745583663e-06
9.35357071231224e-05
0.000282085572884774
0.000343849253457589
0.000360398766016923
0.000364129054874258
0.000364871500778989
0.000365006550665818
0.000365029521033729
0.000365033224732696
0.000365033787559086
0.000365033858233092
0.000365033853235267
0.000365033837187281
0.000365033820725736
0.000365033804086261
0.000365033787389673
0.000365033770732426
0.000365033754262101
0.000365033738082927
0.000365033722332496
0.000365033707095547
0.000365033692475266
0.000365033678524112
0.000365033665323636
0.000365033652905394
0.000365033641308927
0.00036503363052349
0.000365033620568297
0.00036503361141123
0.000365033603052632
0.000365033595451876
0.000365033588602845
0.000365033582464946
0.000365033577026158
0.000365033572225008
0.000365033567888184
0.000365033562772692
0.000365033548395656
0.000365033467443107
0.000365032941379188
0.000365029551809332
0.000365008495127889
0.000364884004198788
0.000364194246735535
0.000360692346186168
0.000344940992489319
0.000285135441749032
9.57296360575894e-05
9.40946771304103e-06
9.13915292206366e-06
9.35356220516672e-05
0.000282085441177381
0.000343849160484939
0.000360398696519337
0.000364128993839696
0.000364871442092874
0.000365006492585891
0.000365029463204888
0.000365033167315675
0.000365033730911166
0.000365033802684993
0.000365033798577496
0.000365033783277919
0.000365033767696043
0.000365033751953922
0.000365033736161559
0.000365033720410335
0.000365033704845619
0.000365033689567979
0.000365033674716874
0.000365033660371882
0.000365033646631303
0.000365033633546037
0.000365033621195072
0.000365033609604585
0.000365033598815661
0.000365033588818614
0.000365033579630907
0.000365033571220446
0.000365033563585203
0.000365033556683077
0.000365033550505305
0.00036503354500803
0.000365033540175918
0.00036503353594813
0.000365033532150196
0.0003650335275373
0.000365033513647881
0.000365033433177036
0.00036503290763026
0.000365029518652382
0.000365008462614345
0.000364883972137424
0.000364194213923883
0.000360692308197569
0.000344940937687578
0.000285135353379024
9.57295429439834e-05
9.40943513271447e-06
9.13914878917317e-06
9.35355556838456e-05
0.000282085322057886
0.000343849071140508
0.000360398627006953
0.000364128931710745
0.000364871382037538
0.000365006433069302
0.000365029403929051
0.000365033108455759
0.000365033672825813
0.000365033745627896
0.000365033742384765
0.000365033727834847
0.000365033713130844
0.000365033698284303
0.000365033683398228
0.000365033668555908
0.000365033653898736
0.00036503363952083
0.000365033625553271
0.000365033612077759
0.00036503359919363
0.000365033586951656
0.000365033575428495
0.000365033564647491
0.000365033554650335
0.000365033545427679
0.000365033536995931
0.000365033529323009
0.000365033522404806
0.000365033516196809
0.000365033510687973
0.000365033505830993
0.000365033501604936
0.000365033497952147
0.000365033494701863
0.000365033490612648
0.000365033477215884
0.000365033397201711
0.000365032872151987
0.000365029483766569
0.000365008428388942
0.000364883938413446
0.000364194179625001
0.00036069226942816
0.000344940884570179
0.000285135273621263
9.57294800986121e-05
9.40937268666324e-06
9.13914595297304e-06
9.35354963102818e-05
0.000282085210523231
0.000343848985094238
0.000360398558558938
0.000364128869924715
0.000364871322139947
0.000365006373668522
0.00036502934476895
0.00036503304973603
0.000365033614879105
0.000365033688637951
0.000365033686221963
0.000365033672406903
0.000365033658567366
0.000365033644602058
0.000365033630596293
0.000365033616631424
0.000365033602843729
0.00036503358932681
0.000365033576207675
0.000365033563566883
0.000365033551505191
0.000365033540073491
0.000365033529346772
0.00036503351934689
0.000365033510115766
0.000365033501644513
0.000365033493949167
0.000365033486997923
0.000365033480784063
0.000365033475259498
0.000365033470412047
0.000365033466191218
0.000365033462565317
0.000365033459485113
0.00036503345678873
0.000365033453243034
0.000365033440336091
0.000365033360714363
0.000365032836103739
0.000365029448289528
0.000365008393576045
0.00036488390413971
0.000364194144915891
0.000360692230725998
0.000344940833099449
0.000285135199592312
9.57294315785342e-05
9.40936223313187e-06
9.13914345528933e-06
9.35354387066686e-05
0.000282085099868893
0.000343848897871529
0.000360398487826711
0.000364128805463001
0.000364871259463133
0.000365006311469721
0.000365029282821729
0.000365032988283478
0.000365033554196319
0.000365033628814891
0.00036503362717242
0.000365033614057304
0.000365033601048427
0.000365033587931252
0.000365033574777203
0.000365033561661998
0.000365033548716404
0.000365033536033908
0.000365033523739128
0.000365033511911365
0.000365033500651843
0.000365033490011547
0.000365033480064232
0.000365033470831077
0.000365033462354381
0.000365033454626426
0.000365033447664437
0.000365033441437891
0.000365033435935806
0.000365033431102884
0.000365033426928748
0.000365033423362078
0.000365033420348757
0.000365033417859777
0.000365033415749182
0.000365033412801672
0.000365033400398061
0.00036503332106047
0.000365032796799232
0.000365029409534705
0.000365008355505183
0.000364883866675851
0.000364194107191887
0.000360692189454624
0.000344940780100107
0.000285135126447861
9.57293889931717e-05
9.40936001743663e-06
9.13914114150851e-06
9.35353811502452e-05
0.000282084985265098