/*--------------------------------*- C++ -*----------------------------------*\
  =========                 |
  \\      /  F ield         | OpenFOAM: The Open Source CFD Toolbox
   \\    /   O peration     | Website:  https://openfoam.org
    \\  /    A nd           | Version:  10
     \\/     M anipulation  |
\*---------------------------------------------------------------------------*/
FoamFile
{
    format      ascii;
    class       volScalarField;
    location    "1";
    object      nut;
}
// * * * * * * * * * * * * * * * * * * * * * * * * * * * * * * * * * * * * * //

dimensions      [0 2 -1 0 0 0 0];

internalField   nonuniform List<scalar> 
2500
(
2.34790989141668e-11
2.8289534463014e-11
3.3364301343853e-11
3.48617066152728e-11
3.51817909638397e-11
3.52394843028174e-11
3.52487736495623e-11
3.52501514396533e-11
3.52503338028676e-11
3.52503654983249e-11
3.5250369247985e-11
3.52503543396173e-11
3.52503483100251e-11
3.52503415020392e-11
3.52503327700492e-11
3.52503246675912e-11
3.52503204268199e-11
3.52503171066709e-11
3.52503140874613e-11
3.52503112001925e-11
3.5250308474489e-11
3.525030593101e-11
3.52503035197851e-11
3.52503011734061e-11
3.52502990037443e-11
3.52502970615934e-11
3.52502952538145e-11
3.52502936101222e-11
3.52502921667733e-11
3.5250290840861e-11
3.52502897477705e-11
3.5250288868128e-11
3.52502882177126e-11
3.52502878083062e-11
3.52502877173231e-11
3.525028907191e-11
3.52502935246535e-11
3.5250293461394e-11
3.52502912975191e-11
3.5250296650544e-11
3.52502884777122e-11
3.52502101019048e-11
3.52497533806163e-11
3.52470810079618e-11
3.52323614928301e-11
3.51569070007892e-11
3.48037864257252e-11
3.3340857434126e-11
2.83362678012899e-11
2.35476831063923e-11
1.84605327544056e-10
1.31035962486748e-09
2.66181648986608e-09
3.10046736613273e-09
3.20093730617473e-09
3.21991384572791e-09
3.22306871296567e-09
3.22354700874639e-09
3.2236144165872e-09
3.22362428072514e-09
3.22362459353981e-09
3.22362261130451e-09
3.22362138676524e-09
3.22361988231932e-09
3.22361810531023e-09
3.22361650484256e-09
3.22361553440794e-09
3.22361477441535e-09
3.22361409427518e-09
3.22361346325002e-09
3.22361287988528e-09
3.22361233938613e-09
3.22361183308271e-09
3.22361136105507e-09
3.22361092926e-09
3.22361054437438e-09
3.2236102004036e-09
3.22360990161657e-09
3.22360964752359e-09
3.22360943243825e-09
3.22360927185876e-09
3.22360916902874e-09
3.22360912097127e-09
3.22360913388151e-09
3.22360924309092e-09
3.22360987051806e-09
3.22361052958268e-09
3.22361036474126e-09
3.22361077263984e-09
3.22361160154544e-09
3.22360832672953e-09
3.22358252128237e-09
3.22342824979931e-09
3.22253951369228e-09
3.2177443441009e-09
3.19382128398779e-09
3.08603660249786e-09
2.66419729016471e-09
1.33848014464911e-09
1.88856864063379e-10
2.38706935300573e-10
1.46719534368918e-08
2.7454855480047e-06
3.30554635982111e-06
3.44186424527431e-06
3.46914968067557e-06
3.47390766731679e-06
3.47465825667708e-06
3.47476821197244e-06
3.47478364645543e-06
3.47478408443731e-06
3.47478261392883e-06
3.47478140645182e-06
3.47478016650492e-06
3.47477871247244e-06
3.47477742655332e-06
3.4747765166262e-06
3.47477578573129e-06
3.47477513168399e-06
3.4747745254704e-06
3.47477396123848e-06
3.47477343340786e-06
3.47477294179372e-06
3.47477248560997e-06
3.47477206352848e-06
3.47477168292166e-06
3.47477134151691e-06
3.47477103756662e-06
3.4747707751464e-06
3.47477055399545e-06
3.47477037839982e-06
3.47477025347973e-06
3.47477018034559e-06
3.47477016331844e-06
3.47477022406439e-06
3.47477048404482e-06
3.47477105532536e-06
3.47477145055554e-06
3.47477170646208e-06
3.47477199499793e-06
3.47476614513483e-06
3.47472895460279e-06
3.47450681647993e-06
3.4732444800212e-06
3.46654138624822e-06
3.43381443183195e-06
3.29074846498238e-06
2.75239178522456e-06
1.50629400341759e-08
2.46317271688229e-10
2.66645648606201e-10
2.0622976710156e-08
4.03618223922968e-06
4.87328042019242e-06
5.08277911766301e-06
5.12613201593742e-06
5.13395328360703e-06
5.13522904374452e-06
5.13542224637298e-06
5.13544955545123e-06
5.13545117665647e-06
5.13544981817253e-06
5.13544843350917e-06
5.13544699692915e-06
5.13544536070559e-06
5.13544391642242e-06
5.13544282096814e-06
5.13544191128641e-06
5.13544108732783e-06
5.13544031705281e-06
5.135439592386e-06
5.13543890999015e-06
5.13543826961022e-06
5.13543767024453e-06
5.1354371127552e-06
5.13543659987389e-06
5.13543613102777e-06
5.13543570607095e-06
5.13543532810816e-06
5.13543499770666e-06
5.13543471793483e-06
5.13543449230106e-06
5.13543432421946e-06
5.13543421860823e-06
5.13543418793013e-06
5.13543428626009e-06
5.13543470593227e-06
5.13543477096063e-06
5.13543515047101e-06
5.13543452483075e-06
5.13542649893911e-06
5.13537459785298e-06
5.13505754728937e-06
5.13322974423118e-06
5.12337503976304e-06
5.07457515943874e-06
4.85889244233155e-06
4.04316800311684e-06
2.09971783582785e-08
2.74173126403517e-10
2.79782073035642e-10
2.3835025928452e-08
4.7949686877657e-06
5.80459331878104e-06
6.06295594592784e-06
6.11786697725232e-06
6.12805975857459e-06
6.12977165752118e-06
6.13003850696666e-06
6.13007706233568e-06
6.13008059790738e-06
6.13007970324901e-06
6.13007846985795e-06
6.13007716106685e-06
6.13007571618998e-06
6.13007441790177e-06
6.13007336978387e-06
6.13007246706997e-06
6.13007163677144e-06
6.13007085301421e-06
6.13007010907923e-06
6.13006940273923e-06
6.13006873466769e-06
6.13006810466619e-06
6.13006751390437e-06
6.13006696317462e-06
6.13006645323867e-06
6.13006598467517e-06
6.13006555914334e-06
6.1300651772926e-06
6.1300648417593e-06
6.1300645545653e-06
6.13006431905682e-06
6.13006413908619e-06
6.1300640218034e-06
6.13006398727381e-06
6.13006409574406e-06
6.13006413726343e-06
6.13006419302983e-06
6.13006312912167e-06
6.13005403028411e-06
6.12999432439769e-06
6.1296263109303e-06
6.1274816731857e-06
6.11578555768771e-06
6.05725814144805e-06
5.79662922612532e-06
4.80899947419947e-06
2.42204708489116e-08
2.87335854416534e-10
2.85624072385756e-10
2.54153159092286e-08
5.20498487887755e-06
6.31592322482208e-06
6.60497085897183e-06
6.66765616265453e-06
6.67955474612e-06
6.68160108247857e-06
6.68192774515325e-06
6.68197625754783e-06
6.68198181129813e-06
6.68198138574929e-06
6.68198039353958e-06
6.68197930809405e-06
6.68197814168567e-06
6.6819770655973e-06
6.68197614386943e-06
6.68197531962958e-06
6.68197454844297e-06
6.6819738128414e-06
6.68197310884323e-06
6.68197243556525e-06
6.6819717942391e-06
6.68197118519956e-06
6.68197060979035e-06
6.68197006856654e-06
6.68196956265404e-06
6.68196909247043e-06
6.68196865931259e-06
6.68196826364905e-06
6.68196790734719e-06
6.68196759158453e-06
6.68196731892398e-06
6.68196709183748e-06
6.68196691473326e-06
6.68196679568492e-06
6.68196675371155e-06
6.6819667113574e-06
6.68196657839824e-06
6.68196524089968e-06
6.68195547499362e-06
6.68189176169602e-06
6.68149745366348e-06
6.67918421259806e-06
6.66647764039164e-06
6.6024798956653e-06
6.3162278656339e-06
5.23073826341512e-06
2.58570871411747e-08
2.93446441065371e-10
2.88125925376745e-10
2.61455204176723e-08
5.41223957008612e-06
6.57931942083977e-06
6.8865151891753e-06
6.95410462205717e-06
6.96714848612713e-06
6.96943310154715e-06
6.9698047879854e-06
6.96986133490392e-06
6.96986855078988e-06
6.96986861633214e-06
6.96986784701546e-06
6.96986696456183e-06
6.96986603503436e-06
6.96986515332305e-06
6.96986435733414e-06
6.96986362039451e-06
6.96986291905415e-06
6.96986224348017e-06
6.9698615922616e-06
6.9698609655248e-06
6.96986036497284e-06
6.96985979133991e-06
6.96985924620188e-06
6.96985873008902e-06
6.96985824423128e-06
6.96985778888586e-06
6.96985736515827e-06
6.96985697326699e-06
6.96985661450794e-06
6.96985628948264e-06
6.96985599997266e-06
6.9698557473437e-06
6.96985553429445e-06
6.96985536401305e-06
6.96985524144774e-06
6.9698551270035e-06
6.96985487761933e-06
6.96985337078199e-06
6.96984322468713e-06
6.96977754344043e-06
6.96937038423472e-06
6.96697278044652e-06
6.95374797871728e-06
6.88688837187738e-06
6.58707309976807e-06
5.44971591870742e-06
2.66511213842849e-08
2.96231140778514e-10
2.89167590787234e-10
2.6467850940183e-08
5.51150960609693e-06
6.70807635445812e-06
7.02542840996316e-06
7.09593568525419e-06
7.10970221502672e-06
7.11214582920416e-06
7.11254920561435e-06
7.11261170968124e-06
7.11262021535496e-06
7.11262065964063e-06
7.11262005921545e-06
7.11261932526456e-06
7.11261856108342e-06
7.11261781872185e-06
7.11261712009784e-06
7.11261645476496e-06
7.11261581236232e-06
7.11261518849629e-06
7.11261458363112e-06
7.11261399865626e-06
7.11261343562737e-06
7.11261289553891e-06
7.11261238011607e-06
7.11261188991931e-06
7.11261142620138e-06
7.11261098912526e-06
7.1126105796519e-06
7.11261019778758e-06
7.11260984448132e-06
7.11260951991906e-06
7.11260922531589e-06
7.1126089612859e-06
7.11260872944065e-06
7.11260853072687e-06
7.1126083648819e-06
7.1126082027104e-06
7.11260788387e-06
7.11260627720872e-06
7.11259592681313e-06
7.11252932194557e-06
7.11211621459894e-06
7.10967882259675e-06
7.09620425354577e-06
7.0279399037334e-06
6.72138445996327e-06
5.55812139267668e-06
2.7023459248565e-08
2.9747793429909e-10
2.89591695753474e-10
2.66052620646193e-08
5.55701928103118e-06
6.76835593259575e-06
7.09111827535427e-06
7.16327351452678e-06
7.17747162787099e-06
7.18001537303114e-06
7.18043975596781e-06
7.18050640891033e-06
7.18051583125199e-06
7.18051653066588e-06
7.18051604610418e-06
7.180515409881e-06
7.18051475017778e-06
7.18051409816424e-06
7.1805134667201e-06
7.1805128531919e-06
7.18051225449039e-06
7.18051166957225e-06
7.18051110013004e-06
7.18051054754829e-06
7.18051001411536e-06
7.18050950098042e-06
7.18050900994722e-06
7.18050854160623e-06
7.18050809720514e-06
7.18050767685424e-06
7.18050728141084e-06
7.18050691073962e-06
7.18050656557567e-06
7.18050624583749e-06
7.18050595237835e-06
7.1805056853444e-06
7.18050544568994e-06
7.18050523326508e-06
7.18050504571535e-06
7.18050485643773e-06
7.18050449905914e-06
7.18050283735076e-06
7.18049238286063e-06
7.1804253627532e-06
7.18000963701094e-06
7.17755444587935e-06
7.16396582811784e-06
7.09504824769304e-06
6.78531478614385e-06
5.6097303360803e-06
2.71933357929757e-08
2.98026981697372e-10
2.89761162216058e-10
2.66622469496096e-08
5.57714631492784e-06
6.79558369341889e-06
7.12110621803254e-06
7.19415057087739e-06
7.20859425796683e-06
7.21119793377923e-06
7.21163551770399e-06
7.21170489692112e-06
7.21171492764938e-06
7.21171580244324e-06
7.21171539473579e-06
7.21171482020786e-06
7.21171422401728e-06
7.2117136284222e-06
7.21171304156649e-06
7.21171246419383e-06
7.21171189690129e-06
7.21171134051038e-06
7.2117107974366e-06
7.21171026935334e-06
7.21170975867973e-06
7.21170926664585e-06
7.21170879508939e-06
7.2117083446165e-06
7.21170791646063e-06
7.21170751069738e-06
7.21170712811701e-06
7.21170676849696e-06
7.21170643244105e-06
7.21170611970769e-06
7.21170583093473e-06
7.21170556599407e-06
7.21170532546839e-06
7.21170510866033e-06
7.21170491232915e-06
7.21170471038794e-06
7.21170433423947e-06
7.21170264518855e-06
7.21169214132646e-06
7.21162494301123e-06
7.21120811684837e-06
7.2087453251004e-06
7.19510698106874e-06
7.12589908882574e-06
6.81473087368183e-06
5.63351698120194e-06
2.72690685253496e-08
2.98264996671561e-10
2.89827757537578e-10
2.6685348796999e-08
5.58578606867567e-06
6.80751922376281e-06
7.13439803748514e-06
7.20790328167353e-06
7.22248090104562e-06
7.22511887953973e-06
7.22556437695342e-06
7.22563545740368e-06
7.22564588038315e-06
7.22564687301351e-06
7.22564651609655e-06
7.22564598077676e-06
7.22564542366305e-06
7.22564486381138e-06
7.22564430706379e-06
7.22564375548093e-06
7.22564321137049e-06
7.2256426765037e-06
7.22564215367651e-06
7.22564164471885e-06
7.22564115210658e-06
7.22564067710678e-06
7.22564022156463e-06
7.22563978609012e-06
7.22563937189742e-06
7.22563897904066e-06
7.22563860826385e-06
7.22563825929352e-06
7.2256379326523e-06
7.22563762800702e-06
7.22563734586828e-06
7.2256370859565e-06
7.22563684865239e-06
7.22563663299581e-06
7.22563643536928e-06
7.22563622973714e-06
7.22563584665047e-06
7.22563414640314e-06
7.22562362189484e-06
7.22555635185002e-06
7.22513908380626e-06
7.22267317710604e-06
7.20901398834512e-06
7.13968186355878e-06
6.82788874109387e-06
5.64418659370416e-06
2.73021561834278e-08
2.98366622894354e-10
2.89853507213186e-10
2.66945332585635e-08
5.58940262304623e-06
6.8126202490378e-06
7.14014420706024e-06
7.21388017276496e-06
7.22852817130359e-06
7.23118502691067e-06
7.23163507494664e-06
7.23170717277212e-06
7.23171784044738e-06
7.23171891144812e-06
7.23171858901907e-06
7.23171808006511e-06
7.23171754872249e-06
7.23171701326226e-06
7.23171647850102e-06
7.23171594687145e-06
7.23171542136342e-06
7.23171490417672e-06
7.23171439828367e-06
7.23171390558015e-06
7.23171342855891e-06
7.23171296849401e-06
7.23171252722324e-06
7.23171210535047e-06
7.23171170407101e-06
7.23171132342191e-06
7.23171096411463e-06
7.23171062584282e-06
7.23171030907893e-06
7.23171001343403e-06
7.23170973934439e-06
7.23170948644686e-06
7.23170925501889e-06
7.23170904398684e-06
7.23170884960421e-06
7.23170864583687e-06
7.23170826284913e-06
7.23170656067681e-06
7.2316960304625e-06
7.23162873545373e-06
7.23121129949996e-06
7.22874416300596e-06
7.21507652242723e-06
7.14569287634843e-06
6.83363550084776e-06
5.64886318686644e-06
2.73163523314912e-08
2.98409365548172e-10
2.89863297064465e-10
2.66981202111243e-08
5.59088398273007e-06
6.8147533266958e-06
7.14257566537828e-06
7.21642366662642e-06
7.23110745936871e-06
7.23377434843849e-06
7.23422691839597e-06
7.23429960187642e-06
7.23431041837299e-06
7.23431154205051e-06
7.23431124409715e-06
7.23431075429065e-06
7.23431024161577e-06
7.23430972447027e-06
7.23430920730402e-06
7.23430869245668e-06
7.23430818307092e-06
7.23430768149525e-06
7.23430719076027e-06
7.23430671278151e-06
7.23430625004203e-06
7.23430580381128e-06
7.2343053759087e-06
7.23430496692878e-06
7.23430457804786e-06
7.23430420928904e-06
7.23430386133794e-06
7.23430353386639e-06
7.23430322731048e-06
7.23430294124774e-06
7.23430267606555e-06
7.23430243135555e-06
7.23430220734365e-06
7.23430200293675e-06
7.23430181441494e-06
7.23430161580305e-06
7.23430123684369e-06
7.23429953774755e-06
7.23428900932358e-06
7.23422170941607e-06
7.23380421535345e-06
7.23133661051203e-06
7.21766563514782e-06
7.14826115316056e-06
6.83609467292981e-06
5.650872335389e-06
2.73223411932534e-08
2.9842705843763e-10
2.89867033980341e-10
2.66994976110854e-08
5.59147906586677e-06
6.81562833540515e-06
7.14358538014702e-06
7.21748635917486e-06
7.23218783949751e-06
7.23485989890511e-06
7.23531382056619e-06
7.23538682954139e-06
7.23539773539624e-06
7.2353988958109e-06
7.23539861639513e-06
7.23539814185552e-06
7.2353976442688e-06
7.23539714244737e-06
7.2353966408204e-06
7.23539614134965e-06
7.23539564705558e-06
7.23539516029251e-06
7.23539468408714e-06
7.23539422034575e-06
7.23539377152872e-06
7.23539333889057e-06
7.23539292422883e-06
7.235392528126e-06
7.23539215173801e-06
7.23539179507584e-06
7.23539145880295e-06
7.23539114257395e-06
7.23539084679679e-06
7.23539057102503e-06
7.23539031561086e-06
7.23539008012018e-06
7.23538986476114e-06
7.23538966849614e-06
7.23538948781398e-06
7.23538929696731e-06
7.23538892463169e-06
7.23538723158157e-06
7.23537670899486e-06
7.2353094130572e-06
7.23489190392282e-06
7.23242412833832e-06
7.21875186390733e-06
7.14933910842826e-06
6.83712839670205e-06
5.65172023338565e-06
2.73248263777695e-08
2.98434277241155e-10
2.89868973563946e-10
2.67000224012049e-08
5.59171374508439e-06
6.81598098106731e-06
7.14399760923835e-06
7.21792307536789e-06
7.23263307808063e-06
7.23530772900661e-06
7.23576235316475e-06
7.23583553713244e-06
7.23584649708567e-06
7.23584768495612e-06
7.23584742085511e-06
7.2358469597815e-06
7.23584647571295e-06
7.23584598787631e-06
7.23584550079353e-06
7.23584501592314e-06
7.2358445361158e-06
7.23584406368654e-06
7.23584360163095e-06
7.2358431518325e-06
7.23584271672148e-06
7.2358422975342e-06
7.23584189604425e-06
7.23584151282124e-06
7.23584114900167e-06
7.23584080458478e-06
7.23584048021337e-06
7.23584017552942e-06
7.23583989091536e-06
7.23583962590554e-06
7.23583938082427e-06
7.2358391552221e-06
7.23583894931621e-06
7.23583876221599e-06
7.23583859095039e-06
7.23583841052857e-06
7.23583804663408e-06
7.23583636125517e-06
7.23582584655822e-06
7.23575855844772e-06
7.2353410506867e-06
7.23287321742418e-06
7.21920046055689e-06
7.14978445011942e-06
6.83755601897176e-06
5.65207221133487e-06
2.73258411731576e-08
2.98437390464445e-10
2.89871721397528e-10
2.67002383629968e-08
5.59180448020745e-06
6.81612052840113e-06
7.14416308478854e-06
7.21809965738871e-06
7.23281367813132e-06
7.23548959633391e-06
7.23594457555755e-06
7.23601785132494e-06
7.23602884646211e-06
7.23603005800516e-06
7.23602980881529e-06
7.23602936183935e-06
7.23602889201835e-06
7.23602841867531e-06
7.2360279461722e-06
7.23602747583605e-06
7.2360270105139e-06
7.23602655249254e-06
7.23602610472562e-06
7.23602566906637e-06
7.23602524791168e-06
7.2360248424755e-06
7.23602445450646e-06
7.23602408455964e-06
7.23602373375158e-06
7.23602340207026e-06
7.23602309013967e-06
7.23602279758795e-06
7.236022524773e-06
7.23602227121228e-06
7.2360220372054e-06
7.23602182229244e-06
7.23602162671982e-06
7.23602144987087e-06
7.23602128995905e-06
7.23602112435556e-06
7.23602077100337e-06
7.23601909449795e-06
7.23600858899308e-06
7.23594131064341e-06
7.23552381062682e-06
7.23305596185651e-06
7.21938301704661e-06
7.14996572145043e-06
6.83773021677236e-06
5.65221594996792e-06
2.7326251817984e-08
2.9844009622713e-10
2.89871800416126e-10
2.6700300329613e-08
5.59183832497767e-06
6.81617454945322e-06
7.14422821485091e-06
7.21816974174057e-06
7.23288562272423e-06
7.23556214741574e-06
7.23601730236152e-06
7.23609062658764e-06
7.23610164818815e-06
7.23610288285954e-06
7.23610264894729e-06
7.23610221767268e-06
7.23610176376008e-06
7.23610130618588e-06
7.23610084892631e-06
7.23610039366079e-06
7.23609994333652e-06
7.23609950022871e-06
7.23609906725046e-06
7.2360986462247e-06
7.2360982395134e-06
7.23609784830972e-06
7.23609747433768e-06
7.2360971181376e-06
7.23609678080524e-06
7.23609646231822e-06
7.23609616327851e-06
7.23609588329811e-06
7.23609562270795e-06
7.23609538100498e-06
7.23609515846029e-06
7.23609495460211e-06
7.23609476970806e-06
7.23609460355614e-06
7.23609445656275e-06
7.23609431263555e-06
7.23609397205474e-06
7.23609230505655e-06
7.23608180942932e-06
7.23601454180402e-06
7.23559705196999e-06
7.23312920299987e-06
7.21945618445501e-06
7.150038364828e-06
6.8377999980387e-06
5.65227351126276e-06
2.73264230158579e-08
2.98442740605952e-10
2.8987175001055e-10
2.67003174248733e-08
5.59185069253505e-06
6.81619456380151e-06
7.14425296540535e-06
7.21819670738317e-06
7.23291344465406e-06
7.23559025546969e-06
7.23604549911833e-06
7.23611885324775e-06
7.23612990026899e-06
7.23613116062084e-06
7.2361309415452e-06
7.23613052839715e-06
7.23613009306923e-06
7.23612965373264e-06
7.23612921404626e-06
7.23612877599901e-06
7.23612834263998e-06
7.23612791624397e-06
7.23612749969503e-06
7.23612709479299e-06
7.23612670387198e-06
7.23612632810896e-06
7.23612596920545e-06
7.23612562769069e-06
7.2361253046368e-06
7.23612500000665e-06
7.23612471437692e-06
7.23612444733258e-06
7.23612419916594e-06
7.2361239693407e-06
7.23612375808282e-06
7.2361235648871e-06
7.23612339002511e-06
7.23612323362726e-06
7.23612309903185e-06
7.23612298396529e-06
7.23612265704299e-06
7.23612100038149e-06
7.23611051663841e-06
7.23604326275363e-06
7.2356257873235e-06
7.23315794717317e-06
7.21948489905589e-06
7.1500668462622e-06
6.83782731861758e-06
5.65229588802428e-06
2.73265108298165e-08
2.9844309168352e-10
2.89873583880588e-10
2.6700325691207e-08
5.59185415298999e-06
6.81620112750292e-06
7.14426166557143e-06
7.21820643739985e-06
7.23292358391378e-06
7.23560053806594e-06
7.23605583370006e-06
7.2361292123634e-06
7.23614028818545e-06
7.23614157876381e-06
7.23614136590153e-06
7.23614097120002e-06
7.23614055605933e-06
7.23614013657377e-06
7.23613971607775e-06
7.236139296719e-06
7.23613888161141e-06
7.23613847303488e-06
7.23613807385633e-06
7.23613768586457e-06
7.23613731137467e-06
7.23613695155449e-06
7.23613660808952e-06
7.23613628150122e-06
7.23613597283749e-06
7.23613568204625e-06
7.23613540967415e-06
7.23613515526979e-06
7.23613491907508e-06
7.23613470050596e-06
7.23613449973073e-06
7.23613431618867e-06
7.23613415006776e-06
7.23613400144654e-06
7.23613387431607e-06
7.23613376719796e-06
7.23613344585136e-06
7.23613179694735e-06
7.23612132594276e-06
7.23605408866308e-06
7.23563663136377e-06
7.23316880479782e-06
7.21949574044253e-06
7.15007754508644e-06
6.83783738003025e-06
5.65230392787279e-06
2.73265202095397e-08
2.9844171091583e-10
2.89872903520293e-10
2.67003244460862e-08
5.59185389509789e-06
6.81620239309195e-06
7.14426407138583e-06
7.21820937442629e-06
7.2329267289441e-06
7.23560375912755e-06
7.23605908049935e-06
7.2361324731169e-06
7.23614357422424e-06
7.23614489505611e-06
7.23614470640486e-06
7.23614433509506e-06
7.23614394137587e-06
7.23614354265083e-06
7.2361431422257e-06
7.23614274232144e-06
7.23614234608357e-06
7.23614195580081e-06
7.23614157433405e-06
7.23614120347366e-06
7.23614084552132e-06
7.23614050164273e-06
7.23614017351584e-06
7.23613986166205e-06
7.2361395671037e-06
7.23613928977371e-06
7.23613903018927e-06
7.236138787854e-06
7.23613856294907e-06
7.23613835483344e-06
7.23613816360854e-06
7.23613798864503e-06
7.23613782998416e-06
7.23613768719496e-06
7.23613756156168e-06
7.23613743762995e-06
7.23613711567043e-06
7.23613546925843e-06
7.2361250045216e-06
7.23605777601052e-06
7.23564032774385e-06
7.23317250345126e-06
7.21949940642359e-06
7.15008105418296e-06
6.83784033119413e-06
5.65230586656777e-06
2.7326488454755e-08
2.98440664031631e-10
2.89871755869172e-10
2.67003330784162e-08
5.59185138258741e-06
6.81620156143273e-06
7.14426405445242e-06
7.21820968110737e-06
7.23292714887218e-06
7.23560421695295e-06
7.2360595459382e-06
7.23613294305542e-06
7.23614405961643e-06
7.23614539929615e-06
7.23614524459999e-06
7.23614489019249e-06
7.23614451423781e-06
7.23614413325939e-06
7.23614375046915e-06
7.23614336806228e-06
7.23614298915286e-06
7.23614261599901e-06
7.23614225142962e-06
7.23614189721605e-06
7.23614155562393e-06
7.23614122780215e-06
7.23614091541474e-06
7.23614061898269e-06
7.23614033949502e-06
7.23614007687081e-06
7.23613983160626e-06
7.23613960315967e-06
7.23613939166126e-06
7.2361391964265e-06
7.23613901750515e-06
7.23613885422874e-06
7.23613870652048e-06
7.23613857348173e-06
7.23613845371438e-06
7.23613832597423e-06
7.23613800930166e-06
7.23613637037442e-06
7.23612591067415e-06
7.23605868621793e-06
7.23564124142494e-06
7.23317341288949e-06
7.21950027369246e-06
7.15008175474371e-06
6.8378406408262e-06
5.65230529107887e-06
2.73265101425973e-08
2.98440905176705e-10
2.89872315302939e-10
2.67002743590506e-08
5.59184789531409e-06
6.81619980164688e-06
7.14426303159456e-06
7.21820891262956e-06
7.23292645756691e-06
7.23560354868627e-06
7.23605888366006e-06
7.23613228655111e-06
7.23614341589887e-06
7.2361447707695e-06
7.23614463126965e-06
7.2361442872584e-06
7.23614392636549e-06
7.23614356107218e-06
7.23614319434673e-06
7.2361428282885e-06
7.236142465934e-06
7.23614210947283e-06
7.23614176168132e-06
7.23614142429195e-06
7.23614109950853e-06
7.23614078844461e-06
7.23614049274636e-06
7.23614021293892e-06
7.23613994996519e-06
7.23613970372356e-06
7.23613947469454e-06
7.23613926229548e-06
7.23613906661959e-06
7.23613888694024e-06
7.23613872326524e-06
7.23613857490445e-06
7.23613844171496e-06
7.23613832258737e-06
7.23613821481405e-06
7.23613809486323e-06
7.23613778997455e-06
7.23613616436605e-06
7.23612571497077e-06
7.2360584999256e-06
7.23564106476327e-06
7.23317324025081e-06
7.21950007413779e-06
7.1500814149376e-06
6.83783986369183e-06
5.65230373153486e-06
2.73265349814228e-08
2.98443094597524e-10
2.89871409242324e-10
2.67001998209739e-08
5.59184441864774e-06
6.81619773878433e-06
7.14426162879658e-06
7.21820773150125e-06
7.23292533860106e-06
7.2356024467069e-06
7.23605778755788e-06
7.23613119835121e-06
7.23614234113696e-06
7.23614371748138e-06
7.23614360010551e-06
7.236143267435e-06
7.2361429234166e-06
7.23614257546622e-06
7.2361422262455e-06
7.23614187776073e-06
7.23614153298823e-06
7.23614119406079e-06
7.23614086372111e-06
7.23614054368054e-06
7.23614023607339e-06
7.23613994198009e-06
7.23613966303624e-06
7.23613939979593e-06
7.23613915313841e-06
7.23613892292454e-06
7.23613870960151e-06
7.23613851256187e-06
7.23613833188231e-06
7.23613816674552e-06
7.23613801708242e-06
7.23613788215158e-06
7.23613776175997e-06
7.23613765471464e-06
7.23613755776439e-06
7.23613744653298e-06
7.23613715156964e-06
7.23613553661153e-06
7.23612509764157e-06
7.23605789364867e-06
7.23564047005641e-06
7.23317265215667e-06
7.21949946398439e-06
7.15008067428344e-06
6.83783868803031e-06
5.65230163417604e-06
2.73264893978969e-08
2.98442600893438e-10
2.8986820338566e-10
2.67001614276501e-08
5.59184128422085e-06
6.81619563650883e-06
7.14426008374706e-06
7.2182063795305e-06
7.23292403980773e-06
7.23560116182266e-06
7.23605650808613e-06
7.23612992712734e-06
7.23614108397987e-06
7.23614248477881e-06
7.23614238550641e-06
7.23614206717271e-06
7.2361417406306e-06
7.23614141055227e-06
7.2361410793341e-06
7.23614074888941e-06
7.23614042214513e-06
7.23614010116868e-06
7.23613978868889e-06
7.23613948638685e-06
7.23613919630921e-06
7.23613891949706e-06
7.23613865756809e-06
7.23613841114884e-06
7.23613818102413e-06
7.23613796698184e-06
7.23613776940364e-06
7.23613758765364e-06
7.23613742173928e-06
7.23613727085583e-06
7.23613713488251e-06
7.23613701301515e-06
7.23613690501586e-06
7.2361368096664e-06
7.23613672353146e-06
7.23613662197116e-06
7.23613633682788e-06
7.236134731955e-06
7.23612430355725e-06
7.23605711129373e-06
7.23563970019527e-06
7.23317189039505e-06
7.21949868393712e-06
7.15007977724754e-06
6.83783740021589e-06
5.65229946616995e-06
2.73264276495115e-08
2.98441352669633e-10
2.89867735484896e-10
2.67001365052013e-08
5.59183853964469e-06
6.81619363049762e-06
7.14425853523654e-06
7.21820499701044e-06
7.23292270348413e-06
7.23559983744673e-06
7.23605518867234e-06
7.23612861587176e-06
7.23613978796715e-06
7.23614121056586e-06
7.2361411289411e-06
7.23614082544246e-06
7.23614051633798e-06
7.23614020404845e-06
7.23613989075574e-06
7.23613957827266e-06
7.23613926948217e-06
7.23613896637912e-06
7.2361386717293e-06
7.23613838711144e-06
7.23613811447533e-06
7.23613785483112e-06
7.23613760974566e-06
7.23613737973887e-06
7.23613716562612e-06
7.23613696721634e-06
7.23613678485646e-06
7.23613661791103e-06
7.23613646634052e-06
7.23613632931098e-06
7.23613620664921e-06
7.23613609748636e-06
7.23613600151884e-06
7.23613591754102e-06
7.23613584209467e-06
7.23613575050379e-06
7.23613547503335e-06
7.23613387971647e-06
7.23612346157777e-06
7.23605628105844e-06
7.23563888273223e-06
7.23317108196267e-06
7.21949786096639e-06
7.15007885331977e-06
6.83783615046642e-06
5.65229757932541e-06
2.73264004168654e-08
2.98440312183762e-10
2.89867597470318e-10
2.67001169217839e-08
5.59183604460108e-06
6.81619169640941e-06
7.14425698643275e-06
7.21820359279619e-06
7.23292134001837e-06
7.2355984845918e-06
7.23605384057472e-06
7.23612727601368e-06
7.23613846346023e-06
7.23613990644004e-06
7.23613984194831e-06
7.23613955330947e-06
7.23613926160703e-06
7.2361389670711e-06
7.23613867174481e-06
7.23613837728043e-06
7.23613808648209e-06
7.23613780121676e-06
7.2361375240841e-06
7.23613725670485e-06
7.23613700104933e-06
7.23613675812514e-06
7.23613652945286e-06
7.23613631549632e-06
7.23613611708287e-06
7.23613593402808e-06
7.23613576665798e-06
7.23613561433741e-06
7.23613547698557e-06
7.23613535372073e-06
7.23613524432447e-06
7.2361351478596e-06
7.23613506391155e-06
7.23613499133784e-06
7.23613492675372e-06
7.23613484555027e-06
7.23613457985254e-06
7.23613299359542e-06
7.2361225853175e-06
7.23605541655189e-06
7.23563803133501e-06
7.2331702405723e-06
7.21949700851431e-06
7.15007791391414e-06
6.8378349341063e-06
5.65229586320345e-06
2.73263818244158e-08
2.98438324442819e-10
2.89867500583103e-10
2.67000993349128e-08
5.59183369991453e-06
6.81618982770274e-06
7.14425545872964e-06
7.21820219538119e-06
7.23291997968107e-06
7.23559713403402e-06
7.23605249477282e-06
7.23612593893601e-06
7.23613714170316e-06
7.23613860364687e-06
7.23613855555027e-06
7.23613828147784e-06
7.23613800691166e-06
7.23613772984493e-06
7.23613745197004e-06
7.23613717490085e-06
7.23613690134006e-06
7.23613663314434e-06
7.23613637283258e-06
7.2361361220029e-06
7.23613588265371e-06
7.23613565579498e-06
7.23613544291423e-06
7.2361352444457e-06
7.23613506122134e-06
7.23613489306584e-06
7.23613474029785e-06
7.23613460228767e-06
7.23613447890281e-06
7.23613436919061e-06
7.23613427291017e-06
7.23613418906109e-06
7.23613411701557e-06
7.23613405579809e-06
7.23613400220013e-06
7.23613393177732e-06
7.23613367579611e-06
7.23613209732556e-06
7.23612169775964e-06
7.23605454032644e-06
7.23563716829291e-06
7.2331693882851e-06
7.21949614793137e-06
7.15007697584275e-06
6.83783375038961e-06
5.65229426064593e-06
2.73263673211871e-08
2.98437985755617e-10
2.89867414432775e-10
2.67000822532923e-08
5.59183137268087e-06
6.81618793567779e-06
7.14425388574867e-06
7.21820074492807e-06
7.23291856425312e-06
7.23559572801292e-06
7.23605109372366e-06
7.2361245476874e-06
7.23613576571061e-06
7.23613724469461e-06
7.2361372119301e-06
7.23613695173195e-06
7.23613669363188e-06
7.23613643337818e-06
7.23613617238786e-06
7.23613591216304e-06
7.23613565529708e-06
7.23613540364437e-06
7.23613515967639e-06
7.23613492496626e-06
7.23613470152163e-06
7.23613449035428e-06
7.23613429292725e-06
7.23613410966136e-06
7.23613394139604e-06
7.23613378797911e-06
7.23613364975284e-06
7.23613352611292e-06
7.23613341684232e-06
7.23613332084549e-06
7.23613323791731e-06
7.23613316704101e-06
7.23613310714425e-06
7.23613305765246e-06
7.23613301567273e-06
7.23613295711423e-06
7.23613271111733e-06
7.23613113828634e-06
7.23612074565396e-06
7.23605359912655e-06
7.23563624066922e-06
7.23316847276122e-06
7.21949522758536e-06
7.15007598684319e-06
6.8378325363728e-06
5.65229267562366e-06
2.73263545120556e-08
2.9843790834906e-10
2.89867334115493e-10
2.6700065185159e-08
5.59182896715963e-06
6.81618593952458e-06
7.14425219698845e-06