/*--------------------------------*- C++ -*----------------------------------*\
  =========                 |
  \\      /  F ield         | OpenFOAM: The Open Source CFD Toolbox
   \\    /   O peration     | Website:  https://openfoam.org
    \\  /    A nd           | Version:  10
     \\/     M anipulation  |
\*---------------------------------------------------------------------------*/
FoamFile
{
    format      ascii;
    class       volScalarField;
    location    "1";
    object      omega;
}
// * * * * * * * * * * * * * * * * * * * * * * * * * * * * * * * * * * * * * //

dimensions      [0 0 -1 0 0 0 0];

internalField   nonuniform List<scalar> 
2500
(
128434.628632116
128497.356664674
128491.510246191
128490.889353214
128490.827590324
128490.819952992
128490.818457947
128490.817371581
128490.816264092
128490.815773907
128490.814946512
128490.814400172
128490.814069821
128490.81362505
128490.81322117
128490.812750353
128490.8125366
128490.812241618
128490.811900782
128490.81167852
128490.811437934
128490.811019059
128490.810717529
128490.810796298
128490.810839164
128490.810582848
128490.810490279
128490.810436238
128490.810324507
128490.810522094
128490.810597348
128490.810658263
128490.810753647
128490.810892557
128490.811134915
128490.811298479
128490.811486978
128490.811637524
128490.81196185
128490.812260897
128490.812611472
128490.813020699
128490.813520441
128490.814077933
128490.816199158
128490.82554368
128490.896585222
128491.544725073
128497.492937712
128434.664375677
31712.9008163515
14088.2842110757
14084.8271366821
14084.3611576744
14084.3021331769
14084.2945616329
14084.2935934034
14084.2934600817
14084.2934307436
14084.2934227801
14084.293410679
14084.2934028279
14084.293400708
14084.2933974021
14084.2933939455
14084.2933901583
14084.2933905447
14084.2933886462
14084.2933859109
14084.2933824433
14084.2933579449
14084.2933211061
14084.2933117373
14084.2933248153
14084.2933394894
14084.2933312879
14084.2933296551
14084.2933180199
14084.2933119074
14084.2933389892
14084.2933501385
14084.293345254
14084.2933591837
14084.2933919265
14084.2934048293
14084.2934093473
14084.2934132958
14084.2934162591
14084.2934210625
14084.2934254437
14084.2934310257
14084.2934410918
14084.2934814999
14084.2937210562
14084.2952651829
14084.3050856401
14084.3698831604
14084.8367489403
14088.3345459082
31713.6557119958
31583.7048501304
3508.48503789618
50.5154831010792
50.5142620158352
50.5140985560774
50.5140768659537
50.5140740215369
50.5140736535127
50.5140736051939
50.5140736023764
50.5140735711198
50.5140735447803
50.514073553117
50.5140735522524
50.5140735667374
50.5140735880375
50.5140735989861
50.5140736047473
50.5140736183648
50.514073617189
50.5140735798631
50.5140735541029
50.5140735397847
50.5140735392559
50.5140735842796
50.514073575469
50.5140735567102
50.5140735659404
50.5140735731498
50.5140735986264
50.5140736261802
50.5140736220336
50.5140736345731
50.5140736862037
50.5140737102819
50.5140737172648
50.5140737221028
50.5140737249601
50.5140737280303
50.514073730349
50.5140737337263
50.5140737465123
50.5140738309277
50.5140743994203
50.5140781317783
50.5141023844189
50.514266806037
50.5154633334108
3508.49042359218
31584.5107590508
31543.0804708059
3504.48838800031
50.4628585165512
50.4624292130012
50.4623682971655
50.4623600831157
50.4623589902094
50.4623588422156
50.4623588199187
50.4623588280067
50.4623588271347
50.4623588121288
50.4623588121016
50.4623588199488
50.4623588281236
50.4623588370185
50.4623588398018
50.4623588397706
50.462358848009
50.4623588511935
50.462358846314
50.4623588417941
50.4623588395604
50.4623588445788
50.4623588581579
50.462358855884
50.4623588535105
50.4623588605238
50.4623588646625
50.4623588717182
50.46235888094
50.4623588831988
50.4623588889937
50.4623589021866
50.4623589106828
50.4623589157083
50.4623589197479
50.4623589215604
50.4623589229661
50.4623589239269
50.4623589249156
50.4623589284488
50.4623589526405
50.4623591211478
50.4623602663312
50.4623681151838
50.4624248871902
50.4628443203205
3504.49002326858
31543.4920040364
31532.1116989239
3503.47840887303
50.4497037051045
50.4495833968915
50.4495650083648
50.4495624619204
50.4495621183515
50.449562071249
50.4495620647962
50.449562068563
50.4495620691819
50.4495620648613
50.4495620663244
50.4495620703594
50.4495620742439
50.4495620779521
50.449562079416
50.4495620796035
50.449562084229
50.4495620863501
50.4495620866759
50.4495620884941
50.4495620904284
50.4495620935598
50.449562097885
50.4495620993985
50.449562101389
50.4495621037608
50.4495621060436
50.4495621100004
50.44956211351
50.449562115822
50.4495621188461
50.4495621225996
50.4495621259287
50.44956212943
50.4495621322333
50.4495621339533
50.4495621354019
50.4495621359765
50.4495621363493
50.4495621383079
50.4495621463226
50.4495621918411
50.449562498446
50.4495646680246
50.4495808668392
50.449698267269
3503.47868307803
31532.2636186705
31529.4456245315
3503.24813918855
50.4466971488969
50.4466676150708
50.4466627471185
50.4466620512176
50.4466619560996
50.4466619431013
50.4466619417018
50.44666194323
50.4466619439613
50.4466619439228
50.4466619455275
50.4466619476685
50.4466619497183
50.4466619514749
50.4466619530484
50.4466619545078
50.4466619569097
50.4466619588929
50.4466619607736
50.4466619630905
50.4466619651508
50.446661967308
50.4466619699739
50.4466619720298
50.4466619742234
50.4466619761989
50.446661978284
50.4466619808269
50.4466619830427
50.4466619851535
50.4466619873358
50.4466619894485
50.4466619915751
50.4466619939502
50.4466619960481
50.4466619977602
50.446661999244
50.4466620006712
50.4466620021932
50.4466620036235
50.4466620066437
50.4466620190464
50.4466620956469
50.4466626410288
50.4466667564527
50.4466957297333
3503.24813902387
31529.4919641156
31528.8460436181
3503.19945207733
50.4460577338515
50.4460510946201
50.4460499192536
50.4460497451375
50.4460497209638
50.4460497177529
50.4460497177168
50.446049718565
50.4460497193564
50.4460497201863
50.4460497215115
50.4460497230204
50.4460497246047
50.4460497262352
50.446049728012
50.4460497297345
50.4460497316765
50.4460497337023
50.4460497356836
50.4460497378181
50.4460497398791
50.4460497419551
50.4460497441685
50.4460497462476
50.446049748348
50.4460497503724
50.4460497524267
50.4460497545101
50.4460497565228
50.4460497585094
50.4460497604657
50.4460497623497
50.4460497642166
50.4460497661503
50.4460497679807
50.4460497696821
50.4460497712899
50.4460497728996
50.4460497745205
50.4460497760565
50.4460497779796
50.4460497820829
50.4460498010073
50.4460499293892
50.4460508923451
50.4460574700746
3503.19943373162
31528.8584978793
31528.719379817
3503.1897749749
50.4459300774929
50.4459286753781
50.4459284101533
50.4459283692202
50.4459283634215
50.4459283627777
50.4459283630715
50.4459283637474
50.4459283645737
50.4459283655734
50.4459283668118
50.4459283681992
50.4459283697126
50.4459283713283
50.4459283730722
50.4459283748565
50.4459283767417
50.4459283787137
50.4459283807159
50.4459283827647
50.4459283848186
50.4459283868942
50.445928388992
50.4459283910611
50.4459283931228
50.4459283951616
50.4459283971844
50.4459283991788
50.4459284011395
50.4459284030662
50.4459284049602
50.4459284067996
50.4459284085999
50.4459284103902
50.4459284121268
50.445928413809
50.4459284154512
50.4459284170651
50.4459284186664
50.4459284202455
50.4459284219012
50.445928424037
50.4459284294168
50.4459284588456
50.4459286709914
50.445930075985
3503.18976876981
31528.7224536629
31528.6943186033
3503.18798926425
50.4459065436454
50.4459062606856
50.4459062036601
50.4459061943728
50.4459061930382
50.4459061930517
50.4459061934569
50.4459061941172
50.4459061949697
50.4459061960079
50.4459061972281
50.4459061985968
50.4459062000982
50.4459062017143
50.4459062034397
50.4459062052402
50.4459062071184
50.4459062090653
50.4459062110561
50.4459062130813
50.4459062151278
50.4459062171885
50.4459062192534
50.4459062213103
50.4459062233576
50.4459062253835
50.4459062273847
50.4459062293561
50.4459062312923
50.4459062331903
50.4459062350527
50.4459062368691
50.4459062386433
50.4459062403833
50.4459062420802
50.445906243737
50.44590624536
50.4459062469527
50.445906248525
50.4459062500796
50.4459062516411
50.445906253299
50.445906255631
50.4459062629793
50.4459063082532
50.445906595045
3503.18799017083
31528.6950498713
31528.6900352436
3503.18772731783
50.4459031785302
50.4459031230913
50.4459031111021
50.4459031089759
50.4459031087117
50.4459031089176
50.4459031093814
50.4459031100641
50.4459031109413
50.4459031119991
50.4459031132233
50.4459031145946
50.4459031160971
50.4459031177145
50.4459031194338
50.4459031212358
50.44590312311
50.4459031250447
50.4459031270241
50.4459031290367
50.4459031310716
50.4459031331186
50.445903135168
50.4459031372116
50.4459031392425
50.4459031412527
50.4459031432366
50.4459031451896
50.4459031471066
50.4459031489847
50.4459031508232
50.4459031526179
50.4459031543693
50.4459031560795
50.4459031577477
50.4459031593763
50.4459031609694
50.4459031625305
50.4459031640655
50.4459031655788
50.445903167079
50.4459031685865
50.445903170217
50.4459031728346
50.4459031829613
50.44590324006
3503.18773078164
31528.6902244922
31528.6898359273
3503.1877489162
50.4459035660719
50.4459035552203
50.4459035526086
50.4459035520865
50.4459035521111
50.4459035524025
50.4459035529127
50.4459035536261
50.4459035545278
50.4459035556037
50.4459035568389
50.4459035582174
50.4459035597236
50.4459035613422
50.4459035630587
50.4459035648578
50.4459035667264
50.4459035686519
50.445903570621
50.4459035726222
50.4459035746447
50.4459035766783
50.4459035787134
50.4459035807418
50.4459035827562
50.4459035847492
50.4459035867152
50.4459035886491
50.4459035905465
50.4459035924042
50.44590359422
50.4459035959917
50.4459035977188
50.445903599402
50.4459036010417
50.44590360264
50.4459036041999
50.4459036057248
50.4459036072186
50.4459036086853
50.4459036101287
50.4459036115536
50.4459036129801
50.4459036145679
50.445903617551
50.4459036293105
3503.18775311483
31528.6899068226
31528.6904137114
3503.18782172332
50.4459046290291
50.4459046267305
50.4459046260665
50.4459046259436
50.4459046260837
50.4459046264363
50.4459046269901
50.4459046277362
50.4459046286629
50.4459046297572
50.4459046310051
50.4459046323917
50.4459046339021
50.4459046355215
50.4459046372357
50.4459046390304
50.4459046408925
50.4459046428089
50.4459046447676
50.4459046467568
50.445904648766
50.4459046507851
50.4459046528048
50.4459046548168
50.4459046568135
50.4459046587881
50.4459046607348
50.4459046626484
50.4459046645247
50.4459046663601
50.4459046681524
50.4459046698994
50.4459046716005
50.4459046732555
50.4459046748653
50.4459046764313
50.4459046779559
50.4459046794418
50.4459046808921
50.4459046823096
50.445904683696
50.4459046850514
50.4459046863753
50.4459046876886
50.4459046892044
50.4459046922406
3503.18782608854
31528.6904597602
31528.6911354493
3503.18790355919
50.4459058102823
50.4459058096532
50.445905809442
50.4459058094634
50.4459058096798
50.4459058100874
50.4459058106838
50.4459058114629
50.4459058124149
50.4459058135279
50.4459058147888
50.4459058161835
50.445905817698
50.4459058193181
50.4459058210297
50.4459058228194
50.445905824674
50.445905826581
50.4459058285283
50.4459058305047
50.4459058324997
50.4459058345032
50.4459058365063
50.4459058385006
50.4459058404785
50.4459058424335
50.4459058443594
50.4459058462513
50.4459058481049
50.4459058499166
50.4459058516838
50.4459058534046
50.4459058550778
50.4459058567032
50.4459058582812
50.445905859813
50.4459058613003
50.4459058627454
50.4459058641504
50.445905865517
50.4459058668456
50.4459058681341
50.4459058693767
50.4459058705669
50.4459058717263
50.4459058730617
3503.18790793541
31528.6911762567
31528.6918833009
3503.18798696043
50.4459070118486
50.4459070115984
50.4459070115421
50.4459070116518
50.4459070119336
50.4459070123935
50.4459070130318
50.4459070138437
50.4459070148209
50.4459070159526
50.4459070172264
50.4459070186292
50.4459070201477
50.445907021768
50.4459070234767
50.4459070252608
50.4459070271073
50.4459070290041
50.4459070309394
50.445907032902
50.4459070348817
50.4459070368688
50.445907038854
50.4459070408294
50.4459070427874
50.4459070447213
50.4459070466253
50.4459070484942
50.4459070503237
50.4459070521101
50.4459070538508
50.4459070555437
50.4459070571875
50.4459070587816
50.4459070603262
50.4459070618221
50.4459070632705
50.4459070646731
50.4459070660312
50.4459070673459
50.4459070686162
50.4459070698388
50.445907071006
50.4459070721056
50.4459070731249
50.4459070740744
3503.18799130735
31528.6919227969
31528.6926358466
3503.18807063385
50.445908216905
50.4459082167888
50.4459082168239
50.4459082170062
50.4459082173485
50.4459082178584
50.4459082185374
50.4459082193817
50.4459082203838
50.445908221534
50.4459082228207
50.4459082242316
50.4459082257536
50.4459082273739
50.4459082290794
50.4459082308572
50.445908232695
50.4459082345809
50.4459082365033
50.4459082384514
50.445908240415
50.4459082423845
50.445908244351
50.4459082463064
50.4459082482433
50.445908250155
50.4459082520357
50.4459082538803
50.4459082556844
50.4459082574443
50.4459082591571
50.4459082608207
50.4459082624335
50.4459082639949
50.4459082655045
50.445908266963
50.4459082683711
50.4459082697298
50.44590827104
50.4459082723018
50.4459082735137
50.4459082746713
50.4459082757664
50.4459082767853
50.4459082777107
50.4459082785218
3503.18807494029
31528.6926747781
31528.6933892674
3503.18815435886
50.4459094226175
50.4459094225832
50.4459094226916
50.445909422939
50.4459094233378
50.4459094238956
50.445909424614
50.4459094254899
50.4459094265166
50.445909427685
50.4459094289844
50.445909430403
50.4459094319285
50.4459094335484
50.4459094352501
50.4459094370212
50.4459094388498
50.4459094407241
50.4459094426331
50.4459094445658
50.4459094465124
50.4459094484634
50.4459094504101
50.4459094523445
50.4459094542592
50.4459094561477
50.4459094580041
50.4459094598232
50.4459094616006
50.4459094633327
50.4459094650163
50.4459094666493
50.4459094682299
50.4459094697571
50.4459094712305
50.4459094726502
50.4459094740166
50.4459094753304
50.4459094765917
50.4459094778002
50.4459094789537
50.4459094800475
50.4459094810729
50.4459094820169
50.4459094828623
50.4459094835868
3503.18815862055
31528.6934277576
31528.6941428884
3503.18823809781
50.4459106285093
50.445910628541
50.4459106287138
50.4459106290209
50.4459106294728
50.4459106300761
50.4459106308326
50.4459106317392
50.44591063279
50.4459106339764
50.4459106352882
50.4459106367143
50.4459106382429
50.4459106398621
50.4459106415597
50.4459106433238
50.4459106451425
50.4459106470047
50.4459106488994
50.445910650816
50.4459106527449
50.4459106546766
50.4459106566027
50.4459106585152
50.4459106604069
50.4459106622711
50.4459106641021
50.4459106658947
50.4459106676444
50.4459106693474
50.4459106710008
50.4459106726019
50.445910674149
50.4459106756409
50.4459106770768
50.4459106784566
50.4459106797803
50.445910681048
50.4459106822598
50.4459106834146
50.4459106845101
50.4459106855412
50.4459106864996
50.445910687373
50.4459106881459
50.4459106887992
3503.18824231227
31528.6941809458
31528.6948965877
3503.18832184389
50.4459118344957
50.4459118345852
50.4459118348161
50.4459118351783
50.4459118356801
50.4459118363269
50.44591183712
50.4459118380566
50.4459118391308
50.4459118403347
50.4459118416586
50.445911843092
50.4459118446235
50.4459118462416
50.4459118479348
50.4459118496912
50.4459118514998
50.4459118533493
50.4459118552291
50.445911857129
50.4459118590394
50.4459118609512
50.4459118628559
50.4459118647457
50.4459118666133
50.4459118684524
50.4459118702571
50.4459118720221
50.4459118737431
50.4459118754162
50.4459118770381
50.4459118786064
50.445911880119
50.4459118815744
50.4459118829718
50.4459118843106
50.4459118855906
50.4459118868117
50.4459118879733
50.4459118890743
50.4459118901121
50.4459118910818
50.4459118919755
50.445911892782
50.445911893488
50.4459118940778
3503.18832600903
31528.6949342016
31528.6956503383
3503.18840559528
50.445913040554
50.4459130406954
50.4459130409795
50.4459130413928
50.4459130419415
50.4459130426298
50.4459130434582
50.4459130444237
50.4459130455209
50.4459130467419
50.4459130480776
50.4459130495179
50.445913051052
50.4459130526688
50.4459130543572
50.4459130561058
50.4459130579036
50.44591305974
50.4459130616045
50.4459130634871
50.4459130653784
50.4459130672696
50.4459130691522
50.4459130710185
50.4459130728614
50.4459130746746
50.4459130764521
50.4459130781888
50.4459130798802
50.4459130815224
50.4459130831121
50.4459130846465
50.4459130861236
50.4459130875417
50.4459130888996
50.4459130901966
50.4459130914322
50.4459130926058
50.4459130937169
50.4459130947641
50.4459130957447
50.4459130966542
50.4459130974852
50.4459130982281
50.4459130988716
50.4459130994034
3503.18840970931
31528.6956874893
31528.6964041302
3503.18848935112
50.4459142466732
50.4459142468622
50.4459142471952
50.4459142476562
50.4459142482493
50.4459142489772
50.4459142498396
50.4459142508333
50.4459142519527
50.4459142531905
50.4459142545377
50.4459142559847
50.4459142575212
50.4459142591364
50.4459142608196
50.4459142625599
50.4459142643468
50.4459142661695
50.4459142680183
50.4459142698831
50.4459142717549
50.4459142736248
50.4459142754847
50.4459142773269
50.4459142791445
50.445914280931
50.4459142826807
50.4459142843883
50.4459142860494
50.4459142876599
50.4459142892165
50.4459142907164
50.4459142921572
50.4459142935371
50.4459142948548
50.4459142961092
50.4459142972996
50.4459142984254
50.4459142994857
50.445914300479
50.4459143014028
50.4459143022531
50.4459143030235
50.4459143037055
50.44591430429
50.4459143047679
3503.18849341262
31528.6964408081
31528.6971579558
3503.18857311061
50.4459154528423
50.4459154530752
50.4459154534539
50.4459154539598
50.4459154545951
50.445915455361
50.4459154562563
50.4459154572773
50.4459154584185
50.4459154596725
50.4459154610309
50.4459154624844
50.445915464023
50.4459154656365
50.4459154673143
50.4459154690462
50.4459154708216
50.4459154726305
50.445915474463
50.4459154763097
50.4459154781614
50.4459154800096
50.4459154818464
50.445915483664
50.4459154854556
50.4459154872149
50.4459154889362
50.4459154906141
50.4459154922442
50.4459154938224
50.4459154953453
50.4459154968099
50.4459154982137
50.4459154995548
50.4459155008316
50.4459155020428
50.4459155031876
50.4459155042652
50.4459155052744
50.4459155062139
50.4459155070815
50.4459155078736
50.4459155085847
50.4459155092081
50.4459155097367
50.4459155101637
3503.18857711815
31528.6971941464
31528.6979118084
3503.18865687306
50.4459166590523
50.4459166593264
50.4459166597479
50.4459166602965
50.4459166609721
50.4459166617746
50.4459166627017
50.4459166637494
50.4459166649119
50.4459166661819
50.4459166675512
50.445916669011
50.4459166705515
50.4459166721629
50.4459166738352
50.4459166755583
50.4459166773221
50.4459166791168
50.4459166809329
50.445916682761
50.4459166845924
50.4459166864186
50.4459166882317
50.4459166900243
50.4459166917896
50.4459166935212
50.4459166952135
50.4459166968612
50.4459166984599
50.4459167000053
50.4459167014938
50.4459167029226
50.4459167042888
50.4459167055906
50.4459167068259
50.4459167079936
50.4459167090924
50.4459167101213
50.4459167110794
50.4459167119652
50.4459167127769
50.4459167135115
50.4459167141648
50.4459167147314
50.4459167152062
50.4459167155849
3503.18866082564
31528.6979475053
31528.6986656812
3503.18874063769
50.445917865292
50.4459178656053
50.4459178660677
50.4459178666571
50.4459178673716
50.4459178682096
50.4459178691678
50.4459178702415
50.4459178714248
50.4459178727105
50.4459178740906
50.4459178755564
50.4459178770987
50.445917878708
50.4459178803746
50.4459178820887
50.4459178838408
50.4459178856211
50.4459178874205
50.4459178892298
50.4459178910405
50.4459178928444
50.4459178946336
50.4459178964008
50.4459178981394
50.445917899843
50.445917901506
50.4459179031232
50.44591790469
50.4459179062021
50.445917907656
50.4459179090485
50.4459179103768
50.4459179116387
50.4459179128323
50.4459179139559
50.4459179150084
50.4459179159886
50.4459179168954
50.4459179177276
50.4459179184837
50.4459179191616
50.445917919758
50.4459179202693
50.445917920692
50.4459179210242
3503.1887445344
31528.6987008734
31528.6994195679
3503.18882440385
50.445919071553
50.4459190719039
50.4459190724057
50.4459190730346
50.4459190737869
50.4459190746595
50.4459190756481
50.4459190767474
50.4459190779512
50.4459190792523
50.445919080643
50.4459190821147
50.4459190836587
50.4459190852657
50.4459190869265
50.4459190886316
50.4459190903717
50.4459190921376
50.4459190939201
50.4459190957105
50.4459190975004
50.4459190992816
50.4459191010467
50.4459191027884
50.4459191045
50.4459191061754
50.4459191078088
50.4459191093952
50.4459191109298
50.4459191124083
50.4459191138273
50.4459191151832
50.4459191164733
50.4459191176951
50.4459191188466
50.4459191199261
50.445919120932
50.4459191218632
50.4459191227186
50.4459191234974
50.4459191241982
50.4459191248197
50.44591912536
50.4459191258169
50.4459191261887
50.4459191264759
3503.1888282441
31528.6994542511
31528.7001734619
3503.18890817079
50.4459202778242
50.4459202782119
50.4459202787521
50.4459202794196
50.445920280209
50.4459202811156
50.4459202821342
50.4459202832587
50.4459202844829
50.4459202857993
50.4459202872005
50.445920288678
50.4459202902236
50.4459202918283
50.4459202934833
50.4459202951792
50.4459202969073
50.4459202986586
50.4459203004242
50.4459203021956
50.4459203039645
50.4459203057231
50.445920307464
50.44592030918
50.4459203108646
50.4459203125115
50.4459203141153
50.4459203156706
50.4459203171729
50.4459203186178
50.4459203200016
50.4459203213208
50.4459203225725
50.4459203237541
50.4459203248634
50.4459203258984
50.4459203268577
50.4459203277399
50.445920328544
50.4459203292693
50.445920329915
50.4459203304805
50.4459203309651
50.4459203313681
50.4459203316899
50.4459203319324
3503.18891195419
31528.7002076338
31528.700927357
3503.1889919378
50.4459214840965
50.4459214845202
50.4459214850985
50.4459214858041
50.4459214866301
50.4459214875705
50.4459214886189
50.4459214897685
50.4459214910129
50.4459214923445
50.4459214937561
50.4459214952395
50.4459214967867
50.4459214983891
50.4459215000381
50.445921501725
50.4459215034411
50.4459215051777
50.4459215069264
50.4459215086787
50.4459215104268
50.4459215121627
50.4459215138794
50.4459215155697
50.4459215172271
50.4459215188457
50.4459215204197
50.445921521944
50.445921523414
50.4459215248252
50.4459215261738
50.4459215274562
50.4459215286695
50.4459215298109
50.4459215308779
50.4459215318684
50.445921532781
50.4459215336142
50.445921534367
50.4459215350388
50.4459215356295
50.445921536139
50.4459215365681
50.4459215369176
50.4459215371894
50.4459215373878
3503.18899566421
31528.7009610124
31528.7016812459
3503.18907570414
50.4459226903587
50.4459226908188
50.445922691435
50.4459226921788
50.4459226930415
50.4459226940157
50.4459226950937
50.4459226962686
50.445922697533
50.4459226988799
50.4459227003019
50.4459227017912
50.44592270334
50.4459227049401
50.4459227065833
50.4459227082612
50.4459227099654
50.4459227116875
50.4459227134193
50.4459227151527
50.4459227168799
50.4459227185933
50.4459227202858
50.4459227219504
50.4459227235809
50.4459227251711
50.4459227267155
50.4459227282089
50.4459227296466
50.4459227310242
50.4459227323377
50.4459227335836
50.4459227347585
50.4459227358596
50.4459227368845
50.4459227378307
50.4459227386966
50.4459227394808
50.4459227401823
50.4459227408007
50.4459227413362
50.4459227417898
50.4459227421632
50.445922742459
50.4459227426808
50.4459227428347
3503.1890793736
31528.7017143888
31528.7024351226
3503.18915946916
50.4459238966025
50.4459238970994
50.445923897754
50.4459238985365
50.4459238994363
50.4459239004444
50.4459239015524
50.4459239027525
50.4459239040372
50.4459239053994
50.4459239068319
50.4459239083271
50.4459239098776
50.4459239114755
50.445923913113
50.445923914782
50.4459239164744
50.4459239181821
50.4459239198972
50.4459239216117
50.4459239233182
50.4459239250092
50.4459239266777
50.4459239283169
50.4459239299206
50.4459239314826
50.4459239329977
50.4459239344603
50.445923935866
50.4459239372102
50.4459239384888
50.4459239396982
50.4459239408351
50.4459239418962
50.445923942879
50.4459239437811
50.4459239446006
50.4459239453359
50.4459239459861
50.445923946551
50.4459239470313
50.4459239474287
50.4459239477461
50.4459239479876
50.4459239481586
50.4459239482676
3503.18916308206
31528.7024677549
31528.7031889808
3503.18924323212
50.4459251028171
50.4459251033518
50.4459251040461
50.4459251048681
50.4459251058056
50.4459251068483
50.4459251079866
50.4459251092122
50.4459251105174
50.4459251118951
50.4459251133381
50.4459251148394
50.4459251163917
50.4459251179876
50.4459251196195
50.4459251212797
50.4459251229605
50.4459251246539
50.4459251263525
50.4459251280485
50.4459251297346
50.4459251314034
50.4459251330482
50.4459251346623
50.4459251362394
50.4459251377737
50.4459251392595
50.4459251406918
50.4459251420658
50.4459251433769
50.445925144621
50.4459251457943
50.4459251468934
50.4459251479149
50.4459251488561
50.4459251497142
50.4459251504875
50.4459251511741
50.4459251517731
50.4459251522845
50.4459251527093
50.44592515305
50.4459251533107
50.4459251534971
50.4459251536164
50.4459251536791
3503.18924678895
31528.7032211082
31528.7039428141
3503.18932699236
50.4459263089938
50.4459263095679
50.4459263103033
50.4459263111662
50.4459263121427
50.4459263132207
50.4459263143898
50.4459263156413
50.4459263169673
50.4459263183606
50.4459263198144
50.4459263213219
50.4459263228762
50.4459263244702
50.4459263260967
50.4459263277483
50.4459263294177
50.4459263310972
50.4459263327796
50.4459263344573
50.4459263361232
50.4459263377702
50.4459263393917
50.4459263409809
50.4459263425319
50.4459263440388
50.445926345496
50.4459263468983
50.445926348241
50.4459263495195
50.4459263507296
50.4459263518673
50.445926352929
50.4459263539113
50.4459263548112
50.445926355626
50.4459263563533
50.4459263569915
50.4459263575394
50.4459263579972
50.4459263583663
50.4459263586497
50.4459263588527
50.4459263589827
50.4459263590486
50.4459263590636
3503.18933049392
31528.7039744424
31528.7046966161
3503.18941074914
50.4459275151221
50.445927515738
50.4459275165167
50.4459275174224
50.4459275184391
50.4459275195535
50.4459275207543
50.4459275220322
50.4459275233793
50.4459275247886
50.4459275262533
50.4459275277672
50.4459275293236
50.4459275309159
50.4459275325373
50.4459275341806
50.4459275358388
50.4459275375047
50.4459275391712
50.445927540831
50.4459275424772
50.4459275441028
50.4459275457014
50.4459275472663
50.4459275487917
50.4459275502716
50.4459275517006
50.4459275530736
50.4459275543856
50.445927555632
50.4459275568086
50.4459275579114
50.4459275589363
50.44592755988
50.4459275607393
50.445927561511
50.4459275621929
50.445927562783
50.44592756328
50.4459275636842
50.4459275639971
50.4459275642224
50.4459275643666
50.4459275644384
50.445927564449
50.4459275644139
3503.18941419632
31528.7047277539
31528.7054503804
3503.18949450182
50.4459287211935
50.445928721854
50.4459287226789
50.4459287236297
50.4459287246886
50.4459287258407
50.445928727074
50.445928728379
50.4459287297476
50.445928731173
50.4459287326491
50.4459287341695
50.4459287357283
50.4459287373191
50.4459287389354
50.4459287405707
50.4459287422182
50.4459287438708
50.4459287455218
50.4459287471641
50.445928748791
50.4459287503958
50.4459287519719
50.4459287535131
50.4459287550134
50.445928756467
50.4459287578686
50.4459287592128
50.4459287604947
50.4459287617098
50.4459287628537
50.445928763922
50.445928764911
50.4459287658168
50.4459287666361
50.4459287673655
50.4459287680025
50.4459287685448
50.4459287689912
50.4459287693416
50.445928769598
50.4459287697644
50.4459287698482
50.4459287698596
50.4459287698121
50.4459287697241
3503.18949789579
31528.7054810362
31528.7062041004
3503.18957824965
50.4459299271978
50.445929927907
50.4459299287817
50.4459299297805
50.4459299308837
50.445929932075
50.4459299333419
50.4459299346745
50.4459299360651
50.4459299375071
50.4459299389945
50.4459299405218
50.4459299420831
50.4459299436726
50.4459299452844
50.4459299469119
50.445929948549
50.4459299501887
50.4459299518246
50.44592995345
50.4459299550582
50.4459299566426
50.4459299581969
50.4459299597151
50.4459299611909
50.445929962619
50.4459299639937
50.4459299653099
50.4459299665626
50.4459299677472
50.4459299688591
50.445929969894
50.4459299708478
50.4459299717166
50.4459299724966
50.4459299731846
50.4459299737773
50.4459299742724
50.4459299746684
50.4459299749652
50.4459299751645
50.4459299752709
50.4459299752925
50.4459299752411
50.445929975132
50.4459299749872
3503.18958159189
31528.70623429
31528.7069577698
3503.18966199198
50.4459311331266
50.4459311338894
50.4459311348183
50.4459311358687
50.4459311370186
50.4459311382509
50.4459311395524
50.4459311409135
50.4459311423265
50.4459311437852
50.4459311452844
50.4459311468186
50.4459311483827
50.4459311499712
50.4459311515786
50.4459311531988
50.4459311548257
50.4459311564531
50.4459311580745
50.4459311596834
50.4459311612734
50.4459311628381
50.4459311643714
50.4459311658671
50.4459311673194
50.4459311687226
50.4459311700714
50.4459311713605
50.4459311725849
50.4459311737398
50.4459311748207
50.4459311758231
50.4459311767427
50.4459311775754
50.4459311783172
50.4459311789644
50.4459311795137
50.4459311799623
50.4459311803084
50.4459311805515
50.4459311806934
50.4459311807387
50.4459311806961
50.4459311805786
50.4459311804039
50.4459311801975
3503.18966528407
31528.7069875074
31528.7077113817
3503.18974572806
50.4459323389703
50.4459323397931
50.4459323407816
50.4459323418875
50.4459323430869
50.445932344362
50.4459323456994
50.4459323470896
50.4459323485254
50.4459323500013
50.4459323515122
50.4459323530536
50.4459323546207
50.4459323562085
50.4459323578118
50.4459323594249
50.4459323610423
50.4459323626577
50.4459323642651
50.4459323658581
50.4459323674307
50.4459323689765
50.4459323704894
50.4459323719635
50.4459323733931
50.4459323747724
50.4459323760961
50.445932377359
50.445932378556
50.4459323796823
50.4459323807333
50.4459323817043
50.4459323825908
50.4459323833884
50.4459323840931