/*--------------------------------*- C++ -*----------------------------------*\
  =========                 |
  \\      /  F ield         | OpenFOAM: The Open Source CFD Toolbox
   \\    /   O peration     | Website:  https://openfoam.org
    \\  /    A nd           | Version:  10
     \\/     M anipulation  |
\*---------------------------------------------------------------------------*/
FoamFile
{
    format      ascii;
    class       volScalarField;
    location    "1";
    object      p;
}
// * * * * * * * * * * * * * * * * * * * * * * * * * * * * * * * * * * * * * //

dimensions      [1 -1 -2 0 0 0 0];

internalField   nonuniform List<scalar> 
2500
(
100044.595754756
100044.595761185
100044.595763605
100044.595764766
100044.595764953
100044.595764592
100044.595763727
100044.595762404
100044.595760657
100044.595758521
100044.595756027
100044.595753209
100044.5957501
100044.595746734
100044.595743141
100044.595739353
100044.595735399
100044.595731307
100044.595727105
100044.595722818
100044.595718472
100044.595714088
100044.59570969
100044.595705296
100044.595700926
100044.595696597
100044.595692324
100044.595688123
100044.595684005
100044.595679982
100044.595676064
100044.595672258
100044.595668572
100044.595665011
100044.595661578
100044.595658276
100044.595655103
100044.59565206
100044.595649142
100044.595646343
100044.595643656
100044.595641072
100044.595638579
100044.595636166
100044.595633812
100044.595631483
100044.595629152
100044.595626452
100044.595623112
100044.595616276
100044.593508297
100044.593510027
100044.593511915
100044.5935126
100044.593512633
100044.593512248
100044.593511377
100044.593510053
100044.593508306
100044.59350617
100044.593503677
100044.593500861
100044.593497754
100044.593494389
100044.593490799
100044.593487013
100044.593483062
100044.593478973
100044.593474774
100044.593470491
100044.593466147
100044.593461767
100044.593457371
100044.593452981
100044.593448614
100044.593444288
100044.593440019
100044.593435821
100044.593431706
100044.593427686
100044.593423771
100044.593419969
100044.593416286
100044.593412727
100044.593409297
100044.593405998
100044.593402828
100044.593399787
100044.593396871
100044.593394075
100044.59339139
100044.593388809
100044.593386319
100044.593383907
100044.59338156
100044.593379259
100044.593377084
100044.593374857
100044.593372061
100044.59336969
100044.591206369
100044.591206752
100044.591208845
100044.591209656
100044.591209687
100044.591209297
100044.59120842
100044.591207088
100044.591205337
100044.591203197
100044.591200702
100044.591197886
100044.59119478
100044.591191417
100044.591187829
100044.591184046
100044.591180098
100044.591176013
100044.591171818
100044.59116754
100044.591163201
100044.591158826
100044.591154436
100044.591150051
100044.591145689
100044.591141369
100044.591137106
100044.591132914
100044.591128805
100044.591124791
100044.591120882
100044.591117085
100044.591113409
100044.591109856
100044.591106433
100044.591103139
100044.591099976
100044.591096942
100044.591094032
100044.591091243
100044.591088566
100044.591085993
100044.591083511
100044.591081109
100044.59107877
100044.591076472
100044.591074294
100044.591071958
100044.591068948
100044.591068136
100044.588890404
100044.58889058
100044.588892684
100044.5888935
100044.588893532
100044.588893118
100044.58889222
100044.588890873
100044.58888911
100044.588886963
100044.588884464
100044.588881645
100044.588878539
100044.588875178
100044.588871594
100044.588867815
100044.588863873
100044.588859795
100044.588855607
100044.588851336
100044.588847006
100044.588842639
100044.588838258
100044.588833882
100044.58882953
100044.58882522
100044.588820967
100044.588816784
100044.588812686
100044.588808682
100044.588804783
100044.588800997
100044.588797331
100044.58879379
100044.588790377
100044.588787095
100044.588783943
100044.588780921
100044.588778024
100044.588775249
100044.588772586
100044.588770029
100044.588767565
100044.588765184
100044.58876287
100044.588760599
100044.588758425
100044.588756084
100044.588753036
100044.588752518
100044.586570757
100044.586570941
100044.586572777
100044.586573532
100044.586573514
100044.586573046
100044.586572113
100044.586570742
100044.586568962
100044.586566804
100044.586564298
100044.586561477
100044.586558371
100044.586555013
100044.586551433
100044.586547661
100044.586543727
100044.586539657
100044.58653548
100044.58653122
100044.586526901
100044.586522547
100044.586518178
100044.586513815
100044.586509477
100044.58650518
100044.586500941
100044.586496772
100044.586492688
100044.586488699
100044.586484814
100044.586481043
100044.586477391
100044.586473865
100044.586470468
100044.586467201
100044.586464066
100044.58646106
100044.586458182
100044.586455425
100044.586452784
100044.58645025
100044.586447813
100044.586445464
100044.586443191
100044.586440979
100044.586438857
100044.586436567
100044.586433776
100044.586433261
100044.584250329
100044.584250522
100044.58425202
100044.584252661
100044.584252565
100044.584252027
100044.584251047
100044.584249645
100044.584247844
100044.584245672
100044.584243159
100044.584240335
100044.58423723
100044.584233876
100044.584230302
100044.584226539
100044.584222614
100044.584218557
100044.584214392
100044.584210146
100044.584205841
100044.584201502
100044.58419715
100044.584192804
100044.584188482
100044.584184203
100044.58417998
100044.58417583
100044.584171763
100044.584167792
100044.584163926
100044.584160173
100044.58415654
100044.584153033
100044.584149655
100044.584146408
100044.584143293
100044.584140309
100044.584137453
100044.58413472
100044.584132105
100044.5841296
100044.584127198
100044.58412489
100044.58412267
100044.584120533
100044.584118488
100044.584116298
100044.584113849
100044.584113312
100044.58192955
100044.581929737
100044.581930856
100044.581931349
100044.581931164
100044.581930551
100044.581929518
100044.58192808
100044.581926255
100044.581924068
100044.581921546
100044.581918718
100044.581915614
100044.581912265
100044.581908699
100044.581904946
100044.581901034
100044.58189699
100044.581892841
100044.581888612
100044.581884325
100044.581880005
100044.581875671
100044.581871345
100044.581867043
100044.581862784
100044.581858583
100044.581854454
100044.581850409
100044.581846459
100044.581842615
100044.581838884
100044.581835273
100044.581831788
100044.581828433
100044.58182521
100044.581822119
100044.581819161
100044.581816331
100044.581813628
100044.581811044
100044.581808574
100044.581806212
100044.581803953
100044.581801794
100044.581799736
100044.58179778
100044.581795725
100044.581793665
100044.58179312
100044.579608424
100044.579608591
100044.579609381
100044.579609716
100044.579609438
100044.579608749
100044.579607661
100044.579606184
100044.579604332
100044.579602129
100044.579599598
100044.579596767
100044.579593665
100044.579590322
100044.579586765
100044.579583024
100044.579579127
100044.579575099
100044.579570968
100044.579566758
100044.579562492
100044.579558193
100044.579553882
100044.579549578
100044.5795453
100044.579541065
100044.579536888
100044.579532783
100044.579528762
100044.579524838
100044.579521019
100044.579517313
100044.579513728
100044.579510269
100044.579506941
100044.579503745
100044.579500682
100044.579497753
100044.579494954
100044.579492283
100044.579489735
100044.579487305
100044.579484988
100044.579482783
100044.57948069
100044.579478714
100044.57947685
100044.579474943
100044.579473224
100044.579472688
100044.577286952
100044.577287089
100044.577287622
100044.577287801
100044.577287431
100044.577286669
100044.577285527
100044.577284009
100044.577282131
100044.57727991
100044.57727737
100044.577274536
100044.577271437
100044.577268101
100044.577264555
100044.577260828
100044.577256947
100044.577252938
100044.577248827
100044.577244639
100044.577240396
100044.577236121
100044.577231835
100044.577227557
100044.577223306
100044.577219098
100044.577214948
100044.577210871
100044.577206878
100044.577202981
100044.577199191
100044.577195514
100044.577191958
100044.577188528
100044.57718523
100044.577182064
100044.577179033
100044.577176136
100044.577173372
100044.577170738
100044.577168229
100044.577165843
100044.577163576
100044.577161428
100044.577159403
100044.577157508
100044.577155738
100044.57715398
100044.577152529
100044.577152015
100044.574965153
100044.574965255
100044.574965592
100044.574965628
100044.57496517
100044.574964338
100044.574963142
100044.574961585
100044.574959679
100044.574957441
100044.574954891
100044.574952056
100044.57494896
100044.574945632
100044.574942098
100044.574938387
100044.574934524
100044.574930536
100044.574926448
100044.574922284
100044.574918068
100044.57491382
100044.574909562
100044.574905312
100044.57490109
100044.574896912
100044.574892792
100044.574888746
100044.574884784
100044.574880919
100044.574877159
100044.574873514
100044.57486999
100044.574866593
100044.574863327
100044.574860196
100044.574857199
100044.574854338
100044.574851612
100044.574849018
100044.574846552
100044.574844213
100044.574841999
100044.574839911
100044.574837955
100044.57483614
100044.574834463
100044.574832847
100044.5748316
100044.574831117
100044.572643049
100044.572643115
100044.572643304
100044.572643212
100044.57264267
100044.572641772
100044.572640524
100044.572638929
100044.572636996
100044.572634741
100044.572632183
100044.572629346
100044.572626255
100044.572622936
100044.572619416
100044.572615722
100044.57261188
100044.572607915
100044.572603852
100044.572599715
100044.572595526
100044.572591308
100044.57258708
100044.572582862
100044.572578673
100044.572574527
100044.57257044
100044.572566427
100044.572562499
100044.572558668
100044.572554943
100044.572551332
100044.572547843
100044.572544482
100044.572541252
100044.572538157
100044.572535198
100044.572532377
100044.572529691
100044.57252714
100044.572524721
100044.572522432
100044.572520273
100044.572518247
100044.572516361
100044.572514624
100044.572513037
100044.572511552
100044.57251046
100044.572510011
100044.570320663
100044.570320695
100044.57032077
100044.570320565
100044.570319945
100044.570318985
100044.570317689
100044.570316057
100044.570314098
100044.570311826
100044.570309261
100044.570306423
100044.570303337
100044.570300029
100044.570296525
100044.57029285
100044.570289029
100044.570285089
100044.570281053
100044.570276945
100044.570272787
100044.570268601
100044.570264407
100044.570260223
100044.570256068
100044.570251957
100044.570247907
100044.570243929
100044.570240038
100044.570236244
100044.570232556
100044.570228982
100044.570225531
100044.570222208
100044.570219017
100044.570215962
100044.570213044
100044.570210264
100044.570207622
100044.570205117
100044.570202747
100044.570200511
100044.570198409
100044.570196446
100044.570194629
100044.570192969
100044.57019147
100044.570190103
100044.570189132
100044.570188716
100044.567998017
100044.567998018
100044.567998001
100044.567997698
100044.567997007
100044.56799599
100044.567994647
100044.567992981
100044.567990997
100044.567988711
100044.567986138
100044.5679833
100044.567980221
100044.567976926
100044.567973438
100044.567969783
100044.567965987
100044.567962074
100044.567958067
100044.56795399
100044.567949865
100044.567945713
100044.567941554
100044.567937407
100044.567933289
100044.567929216
100044.567925204
100044.567921265
100044.567917413
100044.567913658
100044.56791001
100044.567906477
100044.567903066
100044.567899784
100044.567896634
100044.567893621
100044.567890746
100044.567888011
100044.567885415
100044.567882959
100044.56788064
100044.567878458
100044.567876416
100044.567874516
100044.567872768
100044.567871184
100044.567869768
100044.567868506
100044.567867632
100044.567867249
100044.565675133
100044.565675105
100044.565675014
100044.565674626
100044.565673869
100044.565672799
100044.565671413
100044.565669714
100044.565667708
100044.565665407
100044.565662828
100044.565659993
100044.565656921
100044.565653639
100044.565650169
100044.565646537
100044.565642766
100044.565638881
100044.565634906
100044.565630862
100044.565626772
100044.565622657
100044.565618535
100044.565614427
100044.565610348
100044.565606315
100044.565602344
100044.565598446
100044.565594636
100044.565590923
100044.565587316
100044.565583826
100044.565580458
100044.565577219
100044.565574114
100044.565571145
100044.565568316
100044.565565628
100044.565563081
100044.565560675
100044.565558409
100044.565556285
100044.565554302
100044.565552467
100044.565550787
100044.565549276
100044.56554794
100044.565546773
100044.565545979
100044.565545625
100044.563352032
100044.563351978
100044.563351823
100044.563351361
100044.563350545
100044.563349426
100044.563348
100044.56334627
100044.563344243
100044.563341929
100044.563339346
100044.563336513
100044.563333451
100044.563330182
100044.563326732
100044.563323123
100044.56331938
100044.563315525
100044.563311583
100044.563307574
100044.563303521
100044.563299444
100044.563295362
100044.563291295
100044.563287258
100044.563283268
100044.563279339
100044.563275485
100044.563271718
100044.563268049
100044.563264487
100044.563261041
100044.563257719
100044.563254525
100044.563251466
100044.563248544
100044.563245763
100044.563243124
100044.563240628
100044.563238275
100044.563236065
100044.563233998
100044.563232076
100044.563230306
100044.563228694
100044.563227254
100044.563225994
100044.563224912
100044.563224186
100044.56322386
100044.561028733
100044.561028655
100044.561028446
100044.561027919
100044.56102705
100044.561025884
100044.561024422
100044.561022663
100044.561020616
100044.561018291
100044.561015705
100044.561012875
100044.561009823
100044.561006571
100044.561003141
100044.560999558
100044.560995843
100044.56099202
100044.560988112
100044.56098414
100044.560980126
100044.560976089
100044.560972049
100044.560968024
100044.560964031
100044.560960085
100044.560956201
100044.560952393
100044.560948672
100044.560945049
100044.560941534
100044.560938135
100044.560934859
100044.560931713
100044.560928702
100044.56092583
100044.560923099
100044.560920511
100044.560918067
100044.560915769
100044.560913615
100044.560911608
100044.560909748
100044.560908042
100044.560906498
100044.560905127
100044.560903939
100044.560902934
100044.56090227
100044.560901969
100044.558705257
100044.558705156
100044.5587049
100044.558704315
100044.558703397
100044.55870219
100044.558700693
100044.558698908
100044.558696843
100044.558694508
100044.558691919
100044.558689095
100044.558686054
100044.558682819
100044.558679411
100044.558675853
100044.558672169
100044.558668379
100044.558664507
100044.558660574
100044.5586566
100044.558652605
100044.558648608
100044.558644628
100044.55864068
100044.55863678
100044.558632943
100044.558629182
100044.558625509
100044.558621934
100044.558618467
100044.558615117
100044.558611891
100044.558608794
100044.558605834
100044.558603012
100044.558600333
100044.558597798
100044.558595408
100044.558593166
100044.55859107
100044.558589123
100044.558587326
100044.558585685
100044.558584208
100044.558582905
100044.558581785
100044.558580852
100044.558580242
100044.558579966
100044.556381624
100044.556381502
100044.556381203
100044.556380567
100044.556379604
100044.556378358
100044.556376829
100044.55637502
100044.556372938
100044.556370595
100044.556368005
100044.556365186
100044.556362158
100044.55635894
100044.556355556
100044.556352026
100044.556348372
100044.556344617
100044.556340782
100044.556336889
100044.556332956
100044.556329005
100044.556325054
100044.556321119
100044.556317218
100044.556313366
100044.556309578
100044.556305866
100044.556302242
100044.556298717
100044.5562953
100044.556292
100044.556288825
100044.55628578
100044.556282871
100044.556280102
100044.556277476
100044.556274995
100044.556272662
100044.556270477
100044.556268441
100044.556266555
100044.556264821
100044.556263245
100044.556261834
100044.556260597
100044.556259543
100044.556258676
100044.556258116
100044.556257863
100044.554057853
100044.554057711
100044.554057372
100044.554056689
100044.554055686
100044.554054404
100044.554052846
100044.554051014
100044.554048917
100044.554046567
100044.554043977
100044.554041165
100044.55403815
100044.554034952
100044.554031591
100044.554028089
100044.554024468
100044.554020749
100044.554016952
100044.5540131
100044.55400921
100044.554005304
100044.554001399
100044.553997511
100044.553993659
100044.553989857
100044.553986118
100044.553982456
100044.553978883
100044.553975409
100044.553972044
100044.553968797
100044.553965674
100044.553962682
100044.553959826
100044.553957111
100044.553954539
100044.553952115
100044.553949839
100044.553947712
100044.553945736
100044.553943912
100044.553942242
100044.553940731
100044.553939385
100044.553938213
100044.553937223
100044.553936419
100044.553935906
100044.553935675
100044.551733964
100044.551733803
100044.551733427
100044.551732702
100044.551731661
100044.551730346
100044.55172876
100044.551726907
100044.551724797
100044.55172244
100044.551719851
100044.551717047
100044.551714046
100044.551710868
100044.551707532
100044.551704059
100044.551700472
100044.551696789
100044.551693032
100044.551689221
100044.551685376
100044.551681516
100044.551677658
100044.551673819
100044.551670017
100044.551666265
100044.551662577
100044.551658967
100044.551655446
100044.551652025
100044.551648713
100044.551645519
100044.551642449
100044.551639511
100044.55163671
100044.55163405
100044.551631535
100044.551629167
100044.551626949
100044.551624882
100044.551622967
100044.551621206
100044.5516196
100044.551618154
100044.551616873
100044.551615765
100044.551614836
100044.551614092
100044.551613624
100044.551613415
100044.549409977
100044.549409797
100044.549409386
100044.549408621
100044.549407546
100044.5494062
100044.549404588
100044.549402716
100044.549400593
100044.549398231
100044.549395644
100044.549392849
100044.549389863
100044.549386705
100044.549383394
100044.549379952
100044.549376398
100044.549372753
100044.549369036
100044.549365269
100044.549361469
100044.549357655
100044.549353845
100044.549350057
100044.549346305
100044.549342604
100044.549338969
100044.549335412
100044.549331944
100044.549328576
100044.549325318
100044.549322178
100044.549319164
100044.549316281
100044.549313535
100044.549310932
100044.549308474
100044.549306164
100044.549304005
100044.549301999
100044.549300145
100044.549298447
100044.549296906
100044.549295524
100044.549294308
100044.549293263
100044.549292393
100044.549291707
100044.549291282
100044.549291094
100044.54708591
100044.547085713
100044.547085269
100044.547084466
100044.547083359
100044.547081984
100044.547080347
100044.547078456
100044.547076322
100044.547073956
100044.547071372
100044.547068586
100044.547065615
100044.547062478
100044.547059194
100044.547055783
100044.547052263
100044.547048656
100044.547044981
100044.547041257
100044.547037503
100044.547033737
100044.547029976
100044.547026238
100044.547022537
100044.547018889
100044.547015307
100044.547011803
100044.54700839
100044.547005077
100044.547001874
100044.546998789
100044.54699583
100044.546993003
100044.546990314
100044.546987768
100044.546985367
100044.546983117
100044.546981018
100044.546979072
100044.546977281
100044.546975646
100044.54697417
100044.546972853
100044.546971701
100044.546970718
100044.546969907
100044.546969276
100044.546968893
100044.546968726
100044.544761784
100044.544761569
100044.544761093
100044.544760256
100044.544759117
100044.544757714
100044.544756054
100044.544754147
100044.544752002
100044.544749632
100044.544747051
100044.544744275
100044.544741321
100044.544738205
100044.544734948
100044.544731568
100044.544728083
100044.544724515
100044.544720881
100044.544717201
100044.544713493
100044.544709775
100044.544706064
100044.544702377
100044.544698729
100044.544695133
100044.544691605
100044.544688156
100044.544684797
100044.544681539
100044.544678392
100044.544675363
100044.54467246
100044.54466969
100044.544667058
100044.54466457
100044.544662228
100044.544660036
100044.544657998
100044.544656114
100044.544654386
100044.544652815
100044.544651403
100044.544650151
100044.544649062
100044.544648141
100044.544647388
100044.544646812
100044.54464647
100044.544646324
100044.542437618
100044.542437386
100044.542436879
100044.542436007
100044.542434839
100044.54243341
100044.542431728
100044.542429804
100044.542427649
100044.542425276
100044.542422699
100044.542419934
100044.542416995
100044.542413902
100044.542410672
100044.542407323
100044.542403874
100044.542400344
100044.542396752
100044.542393116
100044.542389455
100044.542385786
100044.542382125
100044.542378489
100044.542374893
100044.542371352
100044.542367877
100044.542364483
100044.542361179
100044.542357977
100044.542354886
100044.542351913
100044.542349067
100044.542346354
100044.54234378
100044.54234135
100044.542339067
100044.542336935
100044.542334957
100044.542333135
100044.54233147
100044.542329963
100044.542328616
100044.542327429
100044.542326404
100044.542325544
100044.542324848
100044.542324326
100044.542324024
100044.542323899
100044.54011343
100044.540113181
100044.540112644
100044.54011174
100044.540110543
100044.540109088
100044.540107385
100044.540105445
100044.540103281
100044.540100905
100044.540098332
100044.540095577
100044.540092655
100044.540089584
100044.540086381
100044.540083063
100044.54007965
100044.540076159
100044.54007261
100044.540069019
100044.540065404
100044.540061784
100044.540058173
100044.540054589
100044.540051046
100044.540047558
100044.540044138
100044.540040798
100044.54003755
100044.540034404
100044.540031368
100044.540028452
100044.540025664
100044.540023008
100044.540020492
100044.54001812
100044.540015896
100044.540013825
100044.540011908
100044.540010147
100044.540008546
100044.540007103
100044.540005821
100044.540004699
100044.540003738
100044.540002938
100044.540002299
100044.540001829
100044.540001569
100044.540001463
100044.53778924
100044.537788976
100044.537788409
100044.537787472
100044.537786247
100044.537784767
100044.537783043
100044.537781088
100044.537778914
100044.537776536
100044.537773968
100044.537771223
100044.537768318
100044.537765269
100044.537762093
100044.537758807
100044.537755429
100044.537751978
100044.53774847
100044.537744923
100044.537741356
100044.537737784
100044.537734224
100044.537730691
100044.537727201
100044.537723766
100044.5377204
100044.537717116
100044.537713923
100044.537710833
100044.537707854
100044.537704994
100044.537702262
100044.537699664
100044.537697206
100044.537694893
100044.537692728
100044.537690717
100044.537688861
100044.537687163
100044.537685624
100044.537684246
100044.537683028
100044.537681971
100044.537681074
100044.537680335
100044.537679753
100044.537679336
100044.537679115
100044.537679029
100044.535465068
100044.535464788
100044.535464192
100044.535463222
100044.53546197
100044.535460465
100044.53545872
100044.535456749
100044.535454567
100044.535452187
100044.535449622
100044.535446888
100044.535444
100044.535440973
100044.535437824
100044.535434569
100044.535431227
100044.535427814
100044.535424348
100044.535420846
100044.535417325
100044.535413801
100044.535410291
100044.53540681
100044.535403372
100044.535399991
100044.535396679
100044.535393449
100044.535390312
100044.535387277
100044.535384354
100044.535381552
100044.535378877
100044.535376336
100044.535373935
100044.53537168
100044.535369575
100044.535367623
100044.535365828
100044.535364192
100044.535362717
100044.535361403
100044.53536025
100044.535359258
100044.535358424
100044.535357746
100044.535357221
100044.535356857
100044.535356677
100044.535356611
100044.533140934
100044.533140637
100044.533140011
100044.533139009
100044.533137729
100044.533136199
100044.533134433
100044.533132447
100044.533130256
100044.533127873
100044.533125313
100044.533122589
100044.533119717
100044.533116712
100044.533113589
100044.533110366
100044.533107059
100044.533103684
100044.53310026
100044.533096802
100044.533093327
100044.533089851
100044.533086391
100044.533082961
100044.533079575
100044.533076246
100044.533072988
100044.533069813
100044.53306673
100044.533063751
100044.533060884
100044.533058137
100044.533055518
100044.533053035
100044.533050691
100044.533048494
100044.533046448
100044.533044556
100044.533042821
100044.533041247
100044.533039835
100044.533038585
100044.533037497
100044.53303657
100044.5330358
100044.533035183
100044.533034715
100044.533034405
100044.533034265
100044.533034219
100044.530816854
100044.530816541
100044.530815886
100044.530814851
100044.530813542
100044.530811986
100044.530810199
100044.530808198
100044.530805997
100044.530803612
100044.530801055
100044.530798342
100044.530795486
100044.530792502
100044.530789406
100044.530786213
100044.53078294
100044.530779604
100044.53077622
100044.530772805
100044.530769376
100044.530765948
100044.530762537
100044.530759157
100044.530755822
100044.530752546
100044.530749342
100044.53074622
100044.530743192
100044.530740267
100044.530737455
100044.530734764
100044.530732201
100044.530729773
100044.530727487
100044.530725347
100044.530723359
100044.530721526
100044.530719851
100044.530718339
100044.530716989
100044.530715803
100044.53071478
100044.530713917
100044.530713212
100044.530712657
100044.530712246
100044.530711991
100044.530711891
100044.530711866
100044.528492849
100044.52849252
100044.528491834
100044.528490765
100044.528489426
100044.528487844
100044.528486036
100044.528484018
100044.528481808
100044.52847942
100044.528476867
100044.528474163
100044.528471322
100044.528468359
100044.528465289
100044.528462127
100044.528458888
100044.528455588
100044.528452245
100044.528448873
100044.528445488
100044.528442107
100044.528438744
100044.528435414
100044.52843213
100044.528428905
100044.528425753
100044.528422684
100044.528419709
100044.528416838
100044.52841408
100044.528411444
100044.528408936
100044.528406564
100044.528404334
100044.528402251
100044.52840032
100044.528398545
100044.52839693
100044.528395478
100044.528394191
100044.528393068
100044.52839211
100044.528391313
100044.528390671
100044.528390179
100044.528389826
100044.528389626
100044.528389568
100044.528389564
100044.526168937
100044.526168592
100044.526167874
100044.52616677
100044.5261654
100044.52616379
100044.526161959
100044.526159925
100044.526157705
100044.526155313
100044.526152762
100044.526150068
100044.526147242
100044.5261443
100044.526141254
100044.526138121
100044.526134915
100044.526131652
100044.526128348
100044.526125018
100044.526121678
100044.526118342
100044.526115027
100044.526111745
100044.526108511
100044.526105337
100044.526102236
100044.526099219
100044.526096296
100044.526093478
100044.526090773
100044.52608819
100044.526085737
100044.526083419
100044.526081244
100044.526079216
100044.526077342
100044.526075625
100044.526074069
100044.526072677
100044.526071451
100044.526070392
100044.526069498
100044.526068765
100044.526068189
100044.526067759
100044.526067467
100044.526067324
100044.526067308
100044.526067325
100044.523845136
100044.523844774
100044.523844024
100044.523842881
100044.523841479
100044.523839841
100044.523837986
100044.523835934
100044.523833703
100044.523831306
100044.523828758
100044.523826072
100044.523823261
100044.523820338
100044.523817317
100044.523814212
100044.523811039
100044.523807811
100044.523804546
100044.523801256
100044.523797959
100044.523794668
100044.523791399
100044.523788164
100044.523784979
100044.523781854
100044.523778803
100044.523775837
100044.523772965
100044.523770199
100044.523767546
100044.523765016
100044.523762615
100044.52376035
100044.523758229
100044.523756256
100044.523754437
100044.523752777
100044.523751278
100044.523749946
100044.52374878
100044.523747784
100044.523746954
100044.523746286
100044.523745775
100044.523745409
100044.523745178
100044.523745094
100044.523745123
100044.523745161
100044.521521464
100044.521521086
100044.521520302
100044.521519117
100044.521517679
100044.521516011
100044.521514131
100044.521512061
100044.521509817
100044.521507416
100044.52150487
100044.521502191
100044.521499393
100044.521496489
100044.521493491
100044.521490414
100044.521487272
100044.521484079
100044.521480851
100044.521477601
100044.521474346
100044.521471098
100044.521467874
100044.521464685
100044.521461547
100044.52145847
100044.521455468
100044.521452551
100044.521449729
100044.521447013
100044.521444411
100044.521441931
100044.521439582
100044.521437369
100044.5214353
100044.521433381
100044.521431616
100044.52143001
100044.521428569
100044.521427294
100044.521426189
100044.521425254
100044.521424488
100044.521423886
100044.52142344
100044.521423139
100044.521422971
100044.52142295
100044.521423025
100044.521423084
100044.519197941
100044.519197546
100044.519196723
100044.519195493
100044.519194017
100044.519192316
100044.51919041
100044.51918832
100044.519186064
100044.519183656
100044.519181111
100044.519178439
100044.519175654
100044.519172768
100044.519169793
100044.519166742
100044.51916363
100044.519160471
100044.519157278
100044.519154067
100044.519150851
100044.519147646
100044.519144465
100044.519141321
100044.519138228
100044.519135198
100044.519132243
100044.519129374
100044.5191266
100044.519123933
100044.51912138
100044.519118949
100044.51911665
100044.519114488
100044.51911247
100044.519110602
100044.519108889
100044.519107338
100044.519105951
100044.519104734
100044.519103687
100044.519102813
100044.51910211
100044.519101573
100044.519101194
100044.519100959
100044.519100857
100044.519100901
100044.519101025
100044.519101106
100044.516874584
100044.51687417
100044.516873305
100044.516872025
100044.516870508
100044.516868771
100044.516866837
100044.516864726
100044.516862455
100044.516860041
100044.516857496
100044.51685483
100044.516852057
100044.516849187
100044.516846234
100044.516843209
100044.516840125
100044.516836998
100044.51683384
100044.516830666
100044.516827489
100044.516824325
100044.516821185
100044.516818085
100044.516815036
100044.516812051
100044.516809141
100044.516806317
100044.51680359
100044.51680097
100044.516798464
100044.516796081
100044.516793829
100044.516791716
100044.516789747
100044.516787929