/*--------------------------------*- C++ -*----------------------------------*\
  =========                 |
  \\      /  F ield         | OpenFOAM: The Open Source CFD Toolbox
   \\    /   O peration     | Website:  https://openfoam.org
    \\  /    A nd           | Version:  10
     \\/     M anipulation  |
\*---------------------------------------------------------------------------*/
FoamFile
{
    format      ascii;
    class       volScalarField;
    location    "1";
    object      p_rgh;
}
// * * * * * * * * * * * * * * * * * * * * * * * * * * * * * * * * * * * * * //

dimensions      [1 -1 -2 0 0 0 0];

internalField   nonuniform List<scalar> 
2500
(
44.709017357367
44.709071179328
44.7090813558025
44.7090833390394
44.709083606358
44.7090832549729
44.7090823909675
44.7090810683731
44.7090793225798
44.7090771862131
44.709074692757
44.7090718752152
44.7090687670134
44.7090654008061
44.7090618082875
44.7090580203076
44.7090540662903
44.7090499747865
44.7090457729646
44.7090414865233
44.7090371400991
44.7090327570477
44.7090283586149
44.7090239646059
44.709019594331
44.7090152655728
44.7090109933051
44.7090067918907
44.7090026742662
44.7089986510255
44.7089947326167
44.7089909270726
44.7089872410725
44.7089836797386
44.7089802466071
44.7089769438753
44.7089737715432
44.708970727952
44.7089678093471
44.7089650103007
44.7089623232896
44.7089597389713
44.7089572463301
44.7089548319927
44.7089524758776
44.7089501351584
44.7089477105183
44.7089441525604
44.7089329203154
44.7088788313704
44.710186196724
44.7102404207253
44.7102709598257
44.7102755077503
44.7102760300913
44.7102757071989
44.7102748448378
44.7102735215303
44.7102717752277
44.7102696390357
44.7102671461325
44.7102643297694
44.7102612231247
44.710257858751
44.7102542683861
44.7102504827199
44.7102465312928
44.7102424425248
44.7102382434969
44.7102339600242
44.7102296168159
44.7102252367913
44.7102208413417
44.7102164507087
44.7102120837662
44.7102077580348
44.7102034889249
44.7101992908138
44.7101951762597
44.7101911562349
44.7101872408675
44.7101834384375
44.7101797553478
44.7101761967642
44.7101727666159
44.7101694667363
44.7101662971691
44.7101632562844
44.7101603403862
44.7101575439592
44.7101548594801
44.7101522776211
44.7101497871772
44.710147374004
44.7101450137561
44.7101426312729
44.7101399191888
44.7101338220382
44.7101020370901
44.7100448124256
44.7106364078354
44.7106645504537
44.7106824915099
44.710686190112
44.7106866075628
44.7106862695655
44.7106853984878
44.7106840682827
44.7106823168288
44.7106801772316
44.7106776825094
44.7106748657388
44.7106717596471
44.7106683967722
44.7106648086774
44.7106610258925
44.7106570779142
44.7106529930315
44.7106487982819
44.7106445194513
44.7106401810161
44.7106358058809
44.710631415699
44.7106270306685
44.7106226693722
44.7106183493015
44.7106140860415
44.7106098936638
44.7106057849451
44.7106017710612
44.7105978617474
44.7105940653273
44.7105903884076
44.7105868361105
44.7105834122194
44.7105801186408
44.7105769555201
44.7105739212275
44.7105710121687
44.7105682228866
44.71056554596
44.7105629721773
44.7105604905519
44.7105580872303
44.7105557395407
44.7105533835274
44.7105508172826
44.7105456513964
44.710526563329
44.7104951274378
44.7107520447316
44.7107625950885
44.7107689836994
44.7107708362018
44.7107710152341
44.7107706213428
44.7107697260362
44.7107683796348
44.7107666167576
44.7107644695352
44.7107619702874
44.7107591515378
44.7107560456643
44.7107526847103
44.7107491000206
44.7107453218196
44.7107413794583
44.7107373010367
44.7107331134175
44.7107288422994
44.7107245119987
44.7107201454492
44.7107157642458
44.7107113884849
44.710707036822
44.7107027264428
44.7106984730344
44.7106942906976
44.7106901921652
44.7106861885841
44.7106822896894
44.7106785037322
44.7106748374499
44.7106712960085
44.7106678831333
44.7106646007887
44.7106614492659
44.7106584269932
44.7106555306091
44.7106527548312
44.7106500925147
44.7106475348846
44.7106450715801
44.7106426900864
44.7106403726939
44.710638083372
44.7106357717421
44.7106324180495
44.7106249936915
44.7106125690334
44.710753368563
44.7107567273779
44.7107595116977
44.7107605628698
44.7107605903584
44.7107601285679
44.7107591959648
44.7107578248542
44.710756045155
44.710753886975
44.7107513813535
44.7107485599117
44.7107454543439
44.7107420961984
44.7107385162963
44.7107347446145
44.7107308101404
44.7107267407846
44.7107225632208
44.710718302973
44.7107139842119
44.7107096297987
44.7107052611827
44.7107008984312
44.710696560127
44.7106922633538
44.7106880237407
44.7106838554319
44.710679771073
44.7106757818256
44.7106718974101
44.7106681261066
44.7106644746382
44.7106609482871
44.710657550735
44.7106542841357
44.7106511488528
44.710648143533
44.7106452650187
44.7106425083766
44.7106398669566
44.7106373326533
44.7106348962116
44.7106325471977
44.7106302730826
44.7106280562439
44.7106258936838
44.7106233150553
44.7106195519737
44.7106152740307
44.7107222136401
44.7107232589769
44.7107249470719
44.7107256626186
44.7107255789597
44.7107250427216
44.710724063043
44.7107226605731
44.7107208598463
44.7107186882204
44.7107161749591
44.7107133504906
44.7107102456648
44.7107068913174
44.7107033177308
44.71069955446
44.7106956301577
44.7106915723998
44.7106874076708
44.7106831612764
44.7106788572128
44.7106745181809
44.7106701655721
44.7106658192788
44.7106614978547
44.7106572182674
44.7106529961166
44.7106488454883
44.7106447790138
44.7106408078253
44.7106369416579
44.710633188748
44.7106295559352
44.7106260485161
44.7106226702745
44.7106194234511
44.7106163085846
44.7106133245543
44.7106104685081
44.710607735964
44.7106051208393
44.7106026160036
44.710600213657
44.7105979060289
44.7105956858577
44.7105935468862
44.7105914913409
44.7105892291584
44.7105865858903
44.7105850112421
44.7106826564559
44.7106830517005
44.7106842068752
44.7106847173563
44.7106845349917
44.7106839220796
44.7106828895339
44.7106814509316
44.7106796259905
44.710677438954
44.7106749171217
44.7106720894808
44.710668985892
44.7106656363758
44.7106620706036
44.7106583175919
44.7106544056005
44.7106503618852
44.7106462126394
44.7106419828924
44.7106376965094
44.7106333759875
44.7106290425727
44.7106247160409
44.7106204148004
44.710616155804
44.7106119545642
44.7106078250945
44.7106037799822
44.7105998303887
44.7105959859909
44.7105922551127
44.7105886445643
44.7105851597153
44.7105818045093
44.7105785812455
44.7105754907243
44.710572532058
44.7105697027728
44.7105669988523
44.7105644150142
44.7105619451468
44.7105595831235
44.7105573240115
44.7105551652348
44.7105531072302
44.7105511480622
44.7105490765098
44.7105469801754
44.7105461748142
44.7106408729014
44.7106410870474
44.7106418837211
44.710642222155
44.7106419448392
44.7106412561552
44.7106401683996
44.7106386910164
44.7106368397945
44.7106346360815
44.7106321051251
44.7106292743993
44.7106261726731
44.7106228290795
44.7106192725769
44.7106155316433
44.7106116340583
44.7106076067139
44.7106034754688
44.7105992651195
44.7105949992401
44.7105907001678
44.7105863889738
44.7105820853176
44.710577807462
44.7105735722871
44.7105693952035
44.710565290181
44.7105612697778
44.7105573450972
44.7105535258743
44.7105498203891
44.7105462355103
44.7105427767383
44.7105394480604
44.7105362519651
44.7105331894563
44.7105302599521
44.7105274613714
44.71052479028
44.7105222421378
44.7105198120116
44.710517495434
44.7105152900767
44.7105131970893
44.7105112208228
44.7105093562277
44.7105074462015
44.7105057204608
44.7105051234394
44.7105983320216
44.7105984789378
44.7105990128475
44.7105991932185
44.7105988235853
44.7105980616616
44.7105969187396
44.7105954016151
44.710593523123
44.7105913021078
44.7105887618382
44.7105859283765
44.7105828292551
44.7105794927047
44.7105759469705
44.7105722198903
44.7105683387781
44.7105643300602
44.710560219246
44.7105560308555
44.710551788201
44.7105475134013
44.7105432273529
44.7105389495409
44.7105346981116
44.7105304898287
44.7105263400299
44.7105222625978
44.7105182700761
44.7105143735098
44.7105105826486
44.7105069058016
44.710503349881
44.7104999204457
44.710496621643
44.7104934560921
44.7104904250446
44.710487528253
44.7104847640439
44.7104821295507
44.710479621077
44.7104772347666
44.7104749677383
44.7104728198319
44.7104707949475
44.7104688998515
44.7104671294073
44.7104653712886
44.7104639188765
44.7104633918789
44.7105553780857
44.7105554821464
44.7105558199546
44.7105558560288
44.7105553976871
44.7105545660452
44.7105533694121
44.7105518128228
44.7105499069148
44.7105476684956
44.710545119131
44.7105422834284
44.710539187814
44.710535859529
44.710532326033
44.710528614567
44.7105247518775
44.7105207639397
44.7105166759284
44.7105125119706
44.7105082951311
44.7105040473252
44.7104997891875
44.7104955400573
44.7104913179646
44.7104871394986
44.7104830199678
44.7104789731529
44.7104750114959
44.7104711461143
44.7104673866852
44.7104637415323
44.7104602176696
44.7104568207287
44.7104535549151
44.7104504231247
44.7104474267981
44.7104445660079
44.7104418395465
44.7104392451292
44.7104367797874
44.7104344407562
44.7104322265222
44.7104301386134
44.7104281828651
44.7104263677902
44.7104246903182
44.7104230745899
44.7104218270688
44.7104213410203
44.7105121021305
44.7105121689674
44.7105123582587
44.7105122657085
44.7105117236497
44.7105108261312
44.7105095780717
44.7105079830944
44.7105060502945
44.7105037948932
44.7105012369284
44.7104983997269
44.71049530858
44.7104919897974
44.7104884700238
44.7104847758892
44.7104809335433
44.7104769684811
44.710472905499
44.7104687683459
44.7104645798245
44.7104603615589
44.7104561339947
44.7104519162531
44.7104477262619
44.7104435804358
44.7104394939961
44.7104354806361
44.7104315527831
44.7104277214676
44.710423996381
44.7104203858762
44.7104168970109
44.7104135355039
44.7104103057063
44.710407210674
44.7104042521096
44.7104014304205
44.7103987448208
44.7103961935791
44.7103937744832
44.7103914856561
44.7103893267486
44.7103873005544
44.7103854142915
44.7103836777387
44.7103820909833
44.7103806058294
44.7103795139701
44.7103790638939
44.7104685408704
44.7104685734666
44.7104686480016
44.7104684427613
44.7104678228061
44.7104668635002
44.7104655667063
44.7104639349418
44.7104619762686
44.7104597046418
44.7104571388336
44.7104543010209
44.7104512154037
44.7104479073896
44.7104444028373
44.7104407276929
44.7104369075387
44.7104329673602
44.7104289315175
44.7104248234536
44.7104206655786
44.7104164793127
44.710412284825
44.7104081010766
44.7104039457772
44.7103998352686
44.710395784612
44.7103918074426
44.7103879160859
44.7103841216012
44.710380433622
44.7103768605448
44.7103734094708
44.7103700862062
44.7103668952332
44.7103638397966
44.7103609218466
44.7103581420815
44.7103555001959
44.7103529949527
44.7103506248095
44.7103483886603
44.7103462870582
44.710344323772
44.7103425068926
44.7103408471739
44.7103393479047
44.710337980534
44.7103370096302
44.7103365940275
44.7104247192765
44.7104247201933
44.7104247035313
44.7104244003713
44.7104237088352
44.7104226919619
44.7104213493003
44.710419682684
44.7104176994617
44.7104154126428
44.710412839966
44.7104100025317
44.7104069235793
44.7104036276141
44.7104001397383
44.7103964851995
44.7103926889831
44.7103887755948
44.7103847689432
44.7103806920786
44.7103765671054
44.7103724151239
44.7103682560992
44.7103641087597
44.710359990655
44.7103559179668
44.7103519056254
44.7103479671932
44.710344114952
44.710340359874
44.710336711636
44.7103331785911
44.7103297679423
44.7103264855541
44.7103233360394
44.7103203228471
44.7103174481308
44.7103147129674
44.7103121173859
44.7103096606443
44.7103073417966
44.7103051604208
44.7103031177248
44.7103012181324
44.7102994702727
44.7102978856274
44.7102964700025
44.7102952081186
44.7102943340724
44.7102939506876
44.7103806592932
44.7103806312662
44.7103805400111
44.710380151897
44.7103793951101
44.7103783248022
44.710376939227
44.7103752398834
44.7103732336254
44.7103709328512
44.7103683543974
44.7103655184183
44.7103624472802
44.7103591646592
44.7103556948568
44.7103520624514
44.710348291861
44.7103444070672
44.710340431513
44.7103363878559
44.7103322978655
44.7103281823511
44.7103240610013
44.7103199523553
44.7103158737445
44.7103118412051
44.71030786958
44.7103039723006
44.710300161576
44.7102964483493
44.7102928422682
44.7102893517149
44.710285983936
44.7102827448834
44.710279639301
44.7102766707976
44.7102738417743
44.7102711535845
44.7102686066646
44.7102662006801
44.7102639352088
44.7102618103381
44.7102598278288
44.7102579924685
44.7102563131193
44.7102548016555
44.7102534656296
44.7102522982896
44.7102515044244
44.7102511508856
44.7103363815258
44.7103363271017
44.7103361729824
44.7103357108572
44.7103348948876
44.7103337751905
44.7103323496412
44.710330619695
44.7103285920748
44.7103262786404
44.7103236955882
44.7103208622138
44.7103178000834
44.7103145320289
44.7103110816533
44.7103074728657
44.7103037294874
44.7102998749615
44.7102959322801
44.7102919236931
44.7102878706355
44.7102837935818
44.7102797119733
44.7102756441163
44.7102716071677
44.7102676169889
44.7102636882628
44.7102598343627
44.7102560674102
44.7102523982903
44.7102488366363
44.7102453908738
44.7102420682495
44.710238874788
44.7102358154079
44.710232893849
44.7102301127306
44.7102274737408
44.7102249775926
44.7102226243733
44.7102204140683
44.7102183472161
44.7102164258977
44.7102146550897
44.7102130436688
44.7102116035239
44.7102103430952
44.7102092610439
44.7102085357474
44.7102082098427
44.7102919064782
44.7102918279124
44.7102916195145
44.7102910924441
44.7102902228071
44.7102890576061
44.7102875949058
44.710285836496
44.710283789158
44.7102814644604
44.710278878003
44.7102760483976
44.7102729963954
44.7102697441296
44.7102663144906
44.710262730674
44.7102590159629
44.7102551932767
44.7102512850979
44.7102473132982
44.7102432989486
44.7102392622037
44.7102352222428
44.7102311971103
44.7102272037882
44.7102232579782
44.7102193741885
44.7102155657194
44.710211844591
44.7102082216588
44.7102047065418
44.7102013076365
44.7101980322477
44.710194886502
44.7101918753906
44.7101890028425
44.7101862716954
44.710183683841
44.7101812403416
44.7101789416483
44.7101767880959
44.7101747804845
44.7101729211863
44.7101712151343
44.710169671016
44.7101683003857
44.7101671118726
44.7101661074266
44.710165442506
44.7101651423436
44.7102472540573
44.7102471530816
44.7102468966332
44.7102463120245
44.7102453937259
44.7102441865572
44.710242689398
44.7102409046347
44.7102388392523
44.7102365046449
44.7102339159756
44.7102310912305
44.710228050506
44.7102248151787
44.7102214074548
44.7102178498899
44.7102141651849
44.7102103757352
44.7102065035724
44.7102025701315
44.7101985961053
44.7101946013572
44.7101906047465
44.7101866241283
44.7101826762228
44.7101787765714
44.7101749395952
44.7101711784344
44.7101675050217
44.7101639301836
44.7101604634809
44.7101571133244
44.710153887092
44.7101507909247
44.7101478299883
44.7101450082992
44.7101423289423
44.7101397939987
44.7101374048507
44.7101351622259
44.7101330667501
44.7101311195001
44.710129322877
44.710127681712
44.7101262042124
44.7101249013795
44.7101237815077
44.7101228485408
44.7101222381607
44.7101219621982
44.7102024442138
44.7102023222687
44.710202022572
44.7102013864351
44.7102004238259
44.7101991779782
44.7101976488484
44.7101958396815
44.7101937578118
44.7101914146187
44.7101888249163
44.7101860061375
44.7101829777093
44.7101797603536
44.7101763756364
44.7101728455164
44.7101691920107
44.7101654370927
44.7101616022555
44.7101577085705
44.7101537763374
44.7101498250559
44.7101458733523
44.7101419388055
44.7101380379318
44.7101341861271
44.7101303975796
44.7101266853861
44.7101230614062
44.7101195363211
44.7101161197352
44.7101128200738
44.7101096446859
44.7101065998286
44.710103690697
44.7101009215403
44.7100982955744
44.7100958151277
44.7100934817863
44.710091296598
44.7100892603776
44.7100873743766
44.7100856409525
44.7100840647036
44.7100826532551
44.7100814167061
44.710080362609
44.7100794962171
44.7100789360993
44.7100786832016
44.7101574965054
44.7101573546097
44.7101570152299
44.7101563324104
44.7101553292741
44.7101540476433
44.7101524888276
44.7101506570616
44.7101485602034
44.7101462096907
44.7101436200173
44.7101408081944
44.7101377930376
44.710134594643
44.7101312339364
44.7101277322217
44.7101241110504
44.71012039177
44.7101165954664
44.7101127427595
44.7101088535564
44.7101049470948
44.7101010416518
44.7100971545588
44.7100933021429
44.7100894995674
44.7100857609475
44.7100820992055
44.7100785261136
44.7100750523241
44.7100716873683
44.7100684396864
44.7100653166417
44.7100623245788
44.7100594687799
44.7100567536108
44.7100541824475
44.7100517578365
44.7100494816113
44.710047355009
44.7100453790481
44.7100435550237
44.7100418852788
44.7100403739605
44.7100390279666
44.7100378563482
44.7100368656393
44.7100360619661
44.7100355490693
44.7100353183341
44.7101124306355
44.710112269735
44.7101118934806
44.710111167893
44.7101101273583
44.71010881252
44.7101072260557
44.7101053733495
44.7101032628561
44.7101009061153
44.7100983174896
44.7100955135247
44.7100925125123
44.710089333923
44.710085998071
44.7100825257075
44.7100789377437
44.7100752550905
44.7100714983535
44.7100676876435
44.71006384262
44.7100599820697
44.7100561240513
44.7100522856199
44.7100484828552
44.7100447307894
44.7100410433341
44.7100374333095
44.7100339124008
44.7100304911728
44.7100271791569
44.7100239847496
44.7100209153577
44.7100179773697
44.7100151761842
44.7100125162397
44.7100100011157
44.7100076335337
44.7100054155017
44.7100033484603
44.7100014335592
44.7099996721954
44.7099980664643
44.7099966200622
44.709995339028
44.7099942311615
44.7099933018908
44.7099925579969
44.7099920899636
44.7099918808381
44.7100672660163
44.7100670867367
44.7100666756742
44.7100659104181
44.710064835177
44.7100634893286
44.7100618769909
44.7100600047997
44.7100578818499
44.710055519914
44.7100529332092
44.7100501379173
44.7100471517915
44.7100439937494
44.7100406834943
44.7100372412096
44.7100336872682
44.7100300420425
44.7100263256725
44.7100225579052
44.7100187579344
44.7100149442558
44.7100111346226
44.7100073458278
44.7100035937619
44.7099998932244
44.709996257996
44.7099927007512
44.709989233088
44.709985865542
44.7099826075428
44.7099794675014
44.7099764528684
44.7099735700467
44.7099708245223
44.7099682208791
44.7099657628132
44.709963453206
44.7099612942839
44.709959287633
44.7099574345193
44.7099557362963
44.7099541948555
44.7099528133549
44.7099515968584
44.7099505518272
44.709949682423
44.7099489959801
44.7099485711806
44.7099483831844
44.7100220222783
44.710021825158
44.7100213810772
44.7100205785973
44.7100194707891
44.710018095735
44.7100164590665
44.7100145686272
44.7100124342833
44.71001006804
44.7100074839982
44.7100046980486
44.7100017274352
44.7099985905224
44.7099953064753
44.7099918948807
44.7099883755582
44.7099847684294
44.7099810931104
44.709977368926
44.7099736147502
44.7099698486854
44.7099660882232
44.7099623498798
44.7099586492986
44.7099550011189
44.7099514189467
44.7099479153549
44.7099445018393
44.7099411888048
44.70993798571
44.7099349009513
44.7099319419212
44.7099291151389
44.7099264261633
44.7099238796509
44.7099214794725
44.7099192286405
44.7099171295413
44.7099151839211
44.7099133931333
44.709911758473
44.70991028157
44.709908964971
44.7099078126485
44.7099068296666
44.7099060189066
44.7099053882412
44.7099050053803
44.7099048382952
44.7099767188629
44.7099765042367
44.70997602836
44.7099751905334
44.7099740518752
44.7099726491724
44.7099709894246
44.7099690817849
44.7099669368909
44.7099645670532
44.7099619863147
44.7099592102168
44.7099562556105
44.7099531403073
44.7099498829048
44.7099465024512
44.7099430182425
44.7099394496618
44.7099358158739
44.7099321358401
44.7099284279684
44.709924710085
44.7099209993467
44.7099173120223
44.7099136635516
44.7099100683554
44.7099065398943
44.7099030905956
44.709899731839
44.7098964740289
44.7098933265079
44.7098902976431
44.709887394929
44.7098846248555
44.7098819930688
44.7098795043566
44.709877162677
44.7098749712168
44.709872932508
44.7098710484279
44.709869320388
44.7098677496106
44.7098663373908
44.7098650856642
44.7098639972683
44.7098630757973
44.7098623227503
44.7098617465526
44.7098614048446
44.7098612585833
44.7099313753133
44.7099311434285
44.7099306366727
44.709929764882
44.7099285966688
44.7099271674379
44.7099254856003
44.7099235615897
44.7099214068294
44.709919033965
44.7099164569954
44.7099136911711
44.7099107529211
44.7099076595769
44.7099044291244
44.7099010801176
44.7098976313137
44.709894101572
44.7098905096791
44.7098868740868
44.7098832128831
44.7098795435595
44.7098758829088
44.7098722470109
44.7098686510435
44.7098651092383
44.7098616349249
44.7098582403269
44.7098549368093
44.7098517346167
44.7098486431205
44.709845670659
44.7098428246827
44.7098401117837
44.7098375376372
44.7098351071618
44.7098328244028
44.7098306927364
44.7098287147965
44.7098268925911
44.7098252275755
44.7098237208847
44.7098223734938
44.7098211866105
44.709820161981
44.7098193015991
44.7098186056683
44.7098180830071
44.7098177819717
44.7098176560685
44.7098860101978
44.7098857616365
44.7098852245399
44.7098843197746
44.7098831229523
44.7098816680518
44.7098799647938
44.7098780250235
44.7098758608918
44.709873485408
44.7098709124984
44.7098681572388
44.709865235578
44.7098621643236
44.7098589610105
44.7098556435958
44.7098522303422
44.7098487396288
44.7098451897473
44.7098415987712
44.7098379843956
44.7098343637481
44.7098307534179
44.7098271691357
44.7098236258462
44.7098201376648
44.7098167176591
44.7098133780382
44.7098101299634
44.7098069836502
44.7098039484117
44.7098010325717
44.7097982435953
44.7097955881181
44.7097930718737
44.7097906998388
44.7097884762625
44.7097864046082
44.7097844876553
44.7097827275138
44.7097811256972
44.7097796832386
44.7097784007346
44.7097772787092
44.7097763177153
44.7097755182331
44.7097748790839
44.7097744094935
44.709774148796
44.7097740426398
44.7098406429577
44.7098403785203
44.7098398117814
44.7098388746235
44.7098376497452
44.7098361696699
44.7098344454862
44.7098324903054
44.7098303170787
44.7098279391794
44.7098253705481
44.7098226259113
44.7098197208688
44.7098166717769
44.7098134955886
44.7098102097661
44.7098068320483
44.7098033802904
44.7097998724057
44.7097963260167
44.7097927584255
44.7097891864687
44.7097856263863
44.7097820936906
44.7097786031081
44.7097751685069
44.7097718028526
44.7097685181652
44.7097653255623
44.7097622351575
44.7097592561768
44.7097563969874
44.7097536650544
44.7097510669992
44.7097486086859
44.7097462951788
44.7097441308142
44.7097421192157
44.7097402632935
44.7097385652742
44.7097370267147
44.7097356485174
44.7097344309295
44.7097333737765
44.7097324764327
44.7097317377775
44.7097311552934
44.7097307387157
44.7097305179923
44.709730431874
44.7097952935001
44.7097950129246
44.7097944167763
44.7097934474441
44.7097921947134
44.709790689667
44.7097889447759
44.7097869743302
44.7097847921395
44.7097824118828
44.7097798475006
44.7097771134577
44.7097742249898
44.7097711979441
44.709768048735
44.7097647943301
44.7097614519589
44.7097580389964
44.7097545728902
44.7097510708554
44.7097475498595
44.7097440263751
44.7097405163222
44.7097370350093
44.7097335969011
44.7097302156908
44.7097269041697
44.709723674212
44.7097205368627
44.7097175021481
44.7097145792795
44.7097117765661
44.7097091014584
44.7097065606795
44.7097041601373
44.7097019049834
44.7096997996705
44.7096978479967
44.7096960529889
44.7096944169898
44.7096929416148
44.7096916276205
44.7096904749778
44.7096894827409
44.7096886490908
44.7096879713645
44.7096874456765
44.7096870822133
44.7096869015368
44.7096868356894
44.7097499808733
44.7097496840433
44.7097490584711
44.7097480567172
44.7097467759304
44.7097452457965
44.7097434801108
44.7097414943564
44.7097393031436
44.709736920413
44.709734360149
44.7097316365544
44.7097287644283
44.7097257591668
44.7097226366895
44.7097194133821
44.7097161060228
44.709712731521
44.7097093068151
44.7097058487707
44.7097023739334
44.709698898514
44.7096954381268
44.7096920077747
44.7096886217332
44.7096852934774
44.7096820356674
44.7096788600757
44.709675777558
44.7096727981407
44.7096699309477
44.7096671842883
44.7096645656566
44.7096620817611
44.7096597385826
44.7096575414325
44.7096554948512
44.7096536027966
44.7096518683829
44.7096502941567
44.7096488817479
44.7096476318548
44.7096465440845
44.7096456167783
44.709644846982
44.709644230461
44.7096437619039
44.7096434519917
44.7096433116239
44.7096432661492
44.7097047235293
44.7097044105612
44.7097037552012
44.7097027203708
44.7097014110041
44.7096998553752
44.7096980685455
44.7096960672061
44.7096938667091
44.7096914812864
44.7096889248496
44.7096862113976
44.7096833552787
44.709680371423
44.7096772752411
44.7096740825946
44.7096708097815
44.7096674731874
44.7096640893724
44.7096606747655
44.709657245563
44.7096538176265
44.7096504062793
44.7096470262768
44.7096436916909
44.7096404157928
44.7096372110973
44.7096340892022
44.709631060934
44.7096281361883
44.7096253240597
44.7096226328576
44.7096200700762
44.7096176424675
44.7096153560997
44.7096132163715
44.7096112279833
44.7096093950095
44.709607720768
44.7096062079072
44.7096048581589
44.7096036721196
44.7096026491054
44.7096017867734
44.7096010810492
44.709600526141
44.7096001153695
44.7095998597943
44.70959976023
44.709599735259
44.7096595405019
44.7096592114249
44.7096585257095
44.7096574566676
44.7096561177605
44.70965453588
44.7096527273243
44.7096507099341
44.7096484997164
44.7096461111942
44.7096435581916
44.7096408544312
44.7096380138682
44.7096350508946
44.7096319804696
44.7096288179309
44.7096255789947
44.7096222796972
44.70961893606
44.7096155641775
44.7096121798677
44.7096087986283
44.7096054355497
44.7096021051257
44.7095988211804
44.7095955968398
44.7095924444147
44.7095893754304
44.7095864005532
44.7095835296641
44.7095807717997
44.7095781352255
44.7095756274794
44.7095732553717
44.7095710250287
44.7095689419511
44.7095670110139
44.7095652364515
44.7095636217418
44.7095621696935
44.7095608821255
44.7095597596199
44.7095588011725
44.7095580038731
44.7095573625265
44.7095568698278
44.709556517686
44.7095563175826
44.7095562595932
44.7095562552277
44.7096144500683
44.7096141049115
44.7096133878222
44.7096122829098
44.7096109130798
44.7096093038563
44.7096074727451
44.7096054386348
44.7096032181289
44.7096008259541
44.7095982758474
44.7095955812401
44.7095927556365
44.7095898129483
44.7095867676107
44.7095836344379
44.7095804286655
44.7095771658205
44.7095738615462
44.7095705315151
44.7095671911666
44.7095638557366
44.7095605399809
44.7095572581457
44.7095540238661
44.7095508500643
44.7095477489202
44.7095447318134
44.7095418093231
44.7095389912574
44.7095362866239
44.709533703659
44.7095312499441
44.7095289323188
44.7095267570112
44.7095247296384
44.7095228552353
44.709521138182
44.7095195822039
44.7095181902696
44.7095169642998
44.7095159048768
44.7095150107925
44.7095142785547
44.7095137019351
44.709513272217
44.7095129798981
44.7095128368528
44.7095128215587
44.7095128379151
44.7095694708114
44.709569109531
44.7095683596854
44.7095672165742
44.7095658139733
44.7095641759515
44.7095623212081
44.7095602695044
44.7095580379828
44.7095556415006
44.7095530936786
44.7095504075551
44.7095475962269
44.7095446731255
44.7095416520751
44.7095385474386
44.7095353739423
44.7095321466331
44.7095288807468
44.7095255915046
44.7095222940843
44.7095190033433
44.7095157337899
44.709512499423
44.7095093136304
44.7095061891887
44.7095031381177
44.7095001716807
44.7094973003695
44.7094945338904
44.7094918812654
44.7094893507019
44.709486949796
44.7094846854452
44.7094825639942
44.7094805911765
44.7094787721726
44.7094771115662
44.7094756133301
44.7094742806221
44.709473115523
44.709472118644
44.7094712886319
44.7094706214702
44.7094701100286
44.709469744208
44.70946951324
44.7094694293774
44.7094694582047
44.7094694956468
44.7095246212702
44.7095242432406
44.7095234584267
44.7095222740463
44.7095208363316
44.7095191677799
44.7095172880508
44.7095152177353
44.7095129743393
44.7095105727785
44.709508026499
44.7095053481462
44.7095025503368
44.7094996459782
44.7094966483564
44.7094935713249
44.7094904291007
44.709487236265
44.7094840076461
44.7094807580725
44.7094775023579
44.7094742550398
44.7094710303936
44.7094678421709
44.709464703541
44.7094616271061
44.7094586247258
44.7094557075761
44.7094528860325
44.7094501697429
44.7094475677004
44.7094450881414
44.7094427386037
44.709440526145
44.7094384571683
44.7094365375378
44.7094347726379
44.7094331672415
44.7094317255833
44.7094304510392
44.7094293459086
44.7094284109044
44.7094276445714
44.7094270425005
44.7094265967171
44.7094262959581
44.7094261282182
44.7094261063321
44.709426181289
44.7094262403116
44.7094799198094
44.7094795241283
44.7094787014212
44.7094774717552
44.7094759959873
44.7094742947957
44.7094723885384
44.7094702984032
44.7094680421724
44.7094656347326
44.7094630891661
44.7094604177837
44.7094576326635
44.7094547461311
44.7094517710066
44.7094487205177
44.7094456084742
44.7094424489478
44.7094392563304
44.7094360451301
44.7094328297535
44.7094296245195
44.7094264433254
44.7094232997624
44.709420206811
44.7094171768404
44.7094142216229
44.7094113521598
44.709408578783
44.7094059111259
44.7094033580652
44.7094009278517
44.7093986281543
44.7093964659871
44.7093944478838
44.7093925798981
44.7093908675888
44.7093893159763
44.7093879295135
44.7093867119111
44.7093856657011
44.7093847917567
44.7093840886373
44.7093835515989
44.7093831720267
44.709382937639
44.7093828354118
44.7093828790967
44.7093830029189
44.7093830843078
44.7094353842258
44.7094349696708
44.7094341049087
44.7094328248641
44.7094313075941
44.7094295712886
44.709427636757
44.709425525507
44.7094232553791
44.7094208411145
44.7094182954606
44.7094156301901
44.7094128568715
44.7094099872338
44.7094070335443
44.7094040085067
44.7094009254215
44.7093977979239
44.7093946399691
44.7093914657016
44.7093882892077
44.7093851244717
44.7093819851871
44.7093788846687
44.7093758357078
44.7093728505133
44.7093699407269
44.7093671172479
44.7093643903063
44.7093617694773
44.7093592636375
44.7093568810233
44.7093546293327
44.7093525156815
44.7093505467055
44.7093487286184