/*--------------------------------*- C++ -*----------------------------------*\
  =========                 |
  \\      /  F ield         | OpenFOAM: The Open Source CFD Toolbox
   \\    /   O peration     | Website:  https://openfoam.org
    \\  /    A nd           | Version:  10
     \\/     M anipulation  |
\*---------------------------------------------------------------------------*/
FoamFile
{
    format      ascii;
    class       surfaceScalarField;
    location    "1";
    object      phi;
}
// * * * * * * * * * * * * * * * * * * * * * * * * * * * * * * * * * * * * * //

dimensions      [1 0 -1 0 0 0 0];

internalField   nonuniform List<scalar> 
4900
(
-9.53710253934367e-12
9.98150528016068e-12
-8.40554154415469e-12
-4.42093622648716e-13
-6.69297565008331e-12
-9.79673790680174e-13
-5.33229788791818e-12
-6.52367730545621e-13
-4.20102304272046e-12
-4.40023406090849e-13
-3.16850650764173e-12
-3.45950011024927e-13
-2.25342741876556e-12
-2.29552794355458e-13
-1.44787619968479e-12
-1.22648315507287e-13
-7.39591597088923e-13
-3.11232125822195e-14
-1.16120235860995e-13
4.48424360382021e-14
4.32949144289414e-13
1.08017001525889e-13
9.16110924424151e-13
1.60906377607196e-13
1.34113857493956e-12
2.04922208188068e-13
1.71395838520626e-12
2.42216309319411e-13
2.0396852837774e-12
2.74053430150588e-13
2.3229238656119e-12
3.01017659392868e-13
2.56768248346612e-12
3.24032349988085e-13
2.77743505863164e-12
3.43588875825656e-13
2.95550833366098e-12
3.60111847312333e-13
3.10486530865619e-12
3.7386588509796e-13
3.22840583181455e-12
3.85170943257241e-13
3.32877992581889e-12
3.9414584699489e-13
3.408715923978e-12
4.00952975123416e-13
3.47064417444241e-12
4.05736097042215e-13
3.51716931378755e-12
4.08543338828218e-13
3.55077057686328e-12
4.09327660038515e-13
3.57398348222258e-12
4.08235583457323e-13
3.58923442546001e-12
4.05192935793322e-13
3.59920157217472e-12
4.00133457158852e-13
3.60635985099098e-12
3.93076549133908e-13
3.61358212471902e-12
3.8379835958827e-13
3.62370366255847e-12
3.72161632665286e-13
3.63990773402726e-12
3.5798614602421e-13
3.66556150967154e-12
3.40927616211707e-13
3.70455187523301e-12
3.20623297131299e-13
3.76118949902348e-12
2.9649397360647e-13
3.84054117149256e-12
2.67905297296275e-13
3.94840042763398e-12
2.33939092467355e-13
4.09171964163577e-12
1.93459478058425e-13
4.27880910603527e-12
1.44791845191791e-13
4.51987025670789e-12
8.58637602736365e-14
4.82729866445763e-12
1.39717203470634e-14
5.21600938163957e-12
-7.365661860906e-14
5.70220485296199e-12
-1.78371477309285e-13
6.298695965548e-12
-2.9560522453389e-13
6.98490384682254e-12
-3.89484459680988e-13
7.86788570763979e-12
-5.84790763800844e-13
9.14955365479836e-12
-9.77037921143517e-13
9.86842391132638e-12
-4.13721539557685e-13
1.00822879542001e-11
-1.41339928895089e-11
2.47350776236156e-11
-1.00005742852328e-11
-3.68743025407302e-12
-9.15298256546399e-12
-9.509118036117e-13
-8.44950623731148e-12
-5.20491265869466e-13
-7.04500407073953e-12
-1.02995850432363e-12
-5.63614921511419e-12
-9.45986967080458e-13
-4.38247723910104e-12
-6.76383925265703e-13
-3.2924517399853e-12
-4.09782156805054e-13
-2.34546902793125e-12
-1.82709012205489e-13
-1.51997668638799e-12
3.78930565355969e-15
-7.9813534446809e-13
1.57012862620891e-13
-1.65690407368196e-13
2.83724558427695e-13
3.89174451094119e-13
3.88531539305057e-13
8.75880652506297e-13
4.76334303993164e-13
1.30237811365385e-12
5.50359343517117e-13
1.6753599634329e-12
6.12549337902353e-13
2.00073887734229e-12
6.64955893816342e-13
2.28356077354358e-12
7.08912858644374e-13
2.52853217671345e-12
7.45475010963273e-13
2.73974707411963e-12
7.75434171225104e-13
2.92121002576399e-12
7.99464970770573e-13
3.07653205196193e-12
8.17959465106567e-13
3.20931774227443e-12
8.31332286181439e-13
3.32284349123944e-12
8.39907450640086e-13
3.4205163442735e-12
8.43826286190733e-13
3.50553856726701e-12
8.43078361702456e-13
3.58125912668696e-12
8.37864467505449e-13
3.6508706326058e-12
8.28085984538009e-13
3.7178483378362e-12
8.13577163700192e-13
3.78557668406803e-12
7.94265581515652e-13
3.85782229442973e-12
7.69716880151196e-13
3.93843474806944e-12
7.39538601779964e-13
4.03178058137245e-12
7.03199451032482e-13
4.1425100699447e-12
6.59913871677678e-13
4.27605382411362e-12
6.08692904300011e-13
4.43846156482e-12
5.48180722062627e-13
4.63699920246947e-12
4.76636855850826e-13
4.88007134577214e-12
3.9179508137231e-13
5.1779272453009e-12
2.90659463950825e-13
5.54308021307016e-12
1.68917987233572e-13
5.99125855538065e-12
2.10187101153981e-14
6.54209988161463e-12
-1.60242594972248e-13
7.21987303689557e-12
-3.82538935387218e-13
8.04929333465265e-12
-6.47521226733776e-13
9.02672566419847e-12
-9.20478060702455e-13
9.98834217637849e-12
-1.00189377925777e-12
1.02148547385917e-11
-4.57760700913732e-13
1.06703431050972e-11
-1.06819085089989e-12
1.44375257774736e-11
-3.80822235356763e-12
2.47666491368369e-11
-1.45671860079825e-11
3.99576977762688e-11
-1.09631637502909e-11
-6.40155154739289e-12
-9.31727142315632e-12
-1.80083075114504e-12
-8.22096501999091e-12
-8.73541971255637e-13
-6.74924820609143e-12
-1.77925145192907e-12
-5.46586313447304e-12
-1.51271478422893e-12
-4.3826227470177e-12
-1.04526627825183e-12
-3.46137496068787e-12
-6.2066672280981e-13
-2.66965760837715e-12
-2.71106410602473e-13
-1.9841402558314e-12
1.15712289415609e-14
-1.3871705293487e-12
2.41052542263734e-13
-8.65229925207964e-13
4.28807515617666e-13
-4.07926518725986e-13
5.83226984800861e-13
-6.67667357804121e-15
7.11320182267777e-13
3.45742523823236e-13
8.1810340129194e-13
6.55125666936799e-13
9.07031613593375e-13
9.26687261544009e-13
9.81044222856921e-13
1.16483852376736e-12
1.04225295783845e-12
1.37363784153462e-12
1.09232445542188e-12
1.55660720087925e-12
1.13250865181388e-12
1.71717716623171e-12
1.16380800869961e-12
1.85835751751163e-12
1.18692643955485e-12
1.98316578397148e-12
1.20248977921235e-12
2.09436766212174e-12
1.21094067779044e-12
2.19479502012882e-12
1.21255336266675e-12
2.2870535815644e-12
1.20739265042027e-12
2.37393799606489e-12
1.19564956668486e-12
2.45810675207211e-12
1.17719979462783e-12
2.54241776512108e-12
1.151840919706e-12
2.6297224038982e-12
1.11934455816786e-12
2.723159798624e-12
1.07914159926268e-12
2.82597462797763e-12
1.03058133644236e-12
2.94185537118838e-12
9.72836525404659e-13
3.07475450059264e-12
9.04717251255355e-13
3.22932965268657e-12
8.24666873696128e-13
3.41076933453612e-12
7.30657799732141e-13
3.62536409093055e-12
6.19943164220806e-13
3.88038006916837e-12
4.89091981892844e-13
4.18478848055154e-12
3.33382362053013e-13
4.54968344863897e-12
1.46038206381247e-13
4.98920860849044e-12
-8.17928063029505e-14
5.52169716351932e-12
-3.62045123357339e-13
6.17223739778355e-12
-7.09385325985821e-13
6.9754248481053e-12
-1.13477087389101e-12
7.97176321006961e-12
-1.60756222048741e-12
9.14769717860473e-12
-1.87053255392045e-12
9.94274312484237e-12
-9.38448309431033e-13
1.13710808887349e-11
-2.16357719177522e-12
1.47014162846867e-11
-6.77330006335437e-12
3.97080540199723e-11
-9.80839371044516e-12
5.04298481010417e-11
-1.12767592705706e-11
-4.05561347428453e-12
-9.37357715867853e-12
-2.96205965957148e-12
-7.67674283103695e-12
-1.88541845680802e-12
-6.17066313211818e-12
-2.62134062700087e-12
-4.97642727324168e-12
-2.04878823355055e-12
-4.00747568650189e-12
-1.35854907046024e-12
-3.1949531663916e-12
-7.81515750630603e-13
-2.49961480674531e-12
-3.21489057490092e-13
-1.89787208133885e-12
4.53983126794497e-14
-1.3735486033006e-12
3.40882317727415e-13
-9.14749569354761e-13
5.81217332287226e-13
-5.12319904939068e-13
7.78130534224197e-13
-1.58820701017485e-13
9.40609471171985e-13
1.52045872160377e-13
1.07520721195711e-12
4.253786685549e-13
1.18664602722028e-12
6.65761445511386e-13
1.27866774206703e-12
8.77071893177008e-13
1.3540605820984e-12
1.06291113252321e-12
1.41501093960557e-12
1.22640061025683e-12
1.46317088252194e-12
1.37057247012551e-12
1.4998550097851e-12
1.4980766546453e-12
1.52604392353929e-12
1.61160983404153e-12
1.54252258720047e-12
1.71360852840828e-12
1.54986700351084e-12
1.8065854128194e-12
1.54846261757831e-12
1.89283667338023e-12
1.53844735629164e-12
1.97484714722062e-12
1.51999252205313e-12
2.05494783744352e-12
1.4929743549595e-12
2.13567324703261e-12
1.45714118432365e-12
2.21955037335856e-12
1.41211820782097e-12
2.30934883114907e-12
1.35723899442072e-12
2.40792051345582e-12
1.29162597262908e-12
2.51853247807044e-12
1.21417680942189e-12
2.64466567892579e-12
1.12335585898891e-12
2.79039859549528e-12
1.01713836932503e-12
2.96027865627846e-12
8.92895397511628e-13
3.15979755273134e-12
7.47026568474137e-13
3.39524277799891e-12
5.75127495297499e-13
3.6743887623948e-12
3.70971684316587e-13
4.00682886728841e-12
1.25644213325198e-13
4.40484813841885e-12
-1.72634906131635e-13
4.88482363390061e-12
-5.40406259282549e-13
5.47074488030128e-12
-1.0001877184894e-12
6.20141318029525e-12
-1.57756840770837e-12
7.14437473410772e-12
-2.26884739768995e-12
8.38868907611887e-12
-2.83447226057261e-12
9.85923193699067e-12
-2.11988024574318e-12
1.16883555530249e-11
-3.68056532617357e-12
9.96149962532917e-12
-4.68903641809557e-12
4.99048786371427e-11
-6.49411468861212e-12
5.75784654935665e-11
-1.04723832635116e-11
7.76983123252334e-13
-8.90640782585431e-12
-3.82522793785303e-12
-7.17195448175535e-12
-2.974806936679e-12
-5.78647247175795e-12
-3.38222331612402e-12
-4.69207580901943e-12
-2.52447034692824e-12
-3.80380053229834e-12
-1.63083188306851e-12
-3.05794459417373e-12
-9.15477952161168e-13
-2.4181920875408e-12
-3.55951622703176e-13
-1.86301805610926e-12
8.64451410373764e-14
-1.37798615239963e-12
4.4112616315484e-13
-9.52603356341453e-13
7.28745321694676e-13
-5.78701213233486e-13
9.63913360612166e-13
-2.49662811756606e-13
1.15740630086273e-12
4.01710879962684e-14
1.31711041204024e-12
2.95448149782631e-13
1.44881735937359e-12
5.20366403817453e-13
1.55699434659334e-12
7.18491111562163e-13
1.64502889868195e-12
8.93168953465296e-13
1.71556116250875e-12
1.0472869787743e-12
1.77062405546073e-12
1.18367583333684e-12
1.8118050083742e-12
1.30481186536246e-12
1.84033372025264e-12
1.41321854335033e-12
1.85714813164626e-12
1.51116201052237e-12
1.86295628072818e-12
1.60100553968971e-12
1.85822925305416e-12
1.68488885997954e-12
1.84318742638209e-12
1.76513528211629e-12
1.81798354548392e-12
1.84392335133927e-12
1.78248852310899e-12
1.92362941024675e-12
1.73640326850848e-12
2.00659498677286e-12
1.67923834437319e-12
2.0954177015377e-12
1.61021241679092e-12
2.19273573094263e-12
1.52826705903958e-12
2.30158245862083e-12
1.43204113044056e-12
2.42517518872161e-12
1.31968718858563e-12
2.56726004355449e-12
1.18877797293674e-12
2.73198858241984e-12
1.03615069765357e-12
2.92432301066249e-12
8.57483856225359e-13
3.14991962592703e-12
6.47508390147286e-13
3.41569994297648e-12
3.98718001854322e-13
3.73007616899329e-12
1.00400559585283e-13
4.10378686552352e-12
-2.61776467641485e-13
4.55111940827129e-12
-7.08405280520301e-13
5.09314331352947e-12
-1.26903865463126e-12
5.76432472177208e-12
-1.98252592742796e-12
6.62589145061111e-12
-2.87016314231127e-12
7.77027273424001e-12
-3.71954278745787e-12
9.32274128362804e-12
-3.40333491783675e-12
1.08950004383595e-11
-4.95901872380503e-12
6.62965917063781e-12
-8.08118714677827e-14
5.67586061504573e-11
-4.81267244296578e-12
6.30329379426535e-11
-8.99522894027372e-12
5.79278342100354e-12
-7.96340234524175e-12
-4.17888973797686e-12
-6.57081454605958e-12
-3.74663244509697e-12
-5.40530461168616e-12
-3.94731414045179e-12
-4.44065676703669e-12
-2.89468289958226e-12
-3.63545647660368e-12
-1.84453833682449e-12
-2.94903666841523e-12
-1.01464403179725e-12
-2.3548527324835e-12
-3.69469531302713e-13
-1.83594275121956e-12
1.39296946823628e-13
-1.38044441481664e-12
5.46722913390095e-13
-9.7951264650871e-13
8.7689806254849e-13
-6.26057793062915e-13
1.14672004750629e-12
-3.14259819152657e-13
1.36845184672463e-12
-3.90486990268898e-14
1.55109186946002e-12
2.03818210531816e-13
1.70130904196814e-12
4.18209509642286e-13
1.82421346630629e-12
6.07436024063626e-13
1.92371374053259e-12
7.74636852890082e-13
2.00285292374389e-12
9.22529568428785e-13
2.06400560783019e-12
1.05379525972776e-12
2.10900876478104e-12
1.17078527128273e-12
2.13931627883647e-12
1.27589697015069e-12
2.15601777751318e-12
1.37128577521548e-12
2.15993821423814e-12
1.45920537048459e-12
2.15163112203578e-12
1.54169502135887e-12
2.13139115819555e-12
1.62096835029058e-12
2.09935968789e-12
1.69909691521549e-12
2.05540166786445e-12
1.77834696232892e-12
1.99917185824875e-12
1.86093347385866e-12
1.93008437875156e-12
1.94932660765662e-12
1.84724249618095e-12
2.04601345290065e-12
1.749432334078e-12
2.15384742324195e-12
1.63506163104232e-12
2.27583789411076e-12
1.50200082875207e-12
2.41546695539979e-12
1.34747462375094e-12
2.57654645686162e-12
1.16786495746521e-12
2.76358787131985e-12
9.58239697163834e-13
2.98166153026219e-12
7.12604538093856e-13
3.23686714896944e-12
4.22412956084471e-13
3.53643062339615e-12
7.5529389936901e-14
3.88935567149909e-12
-3.44375269013618e-13
4.30720383266064e-12
-8.60946502831683e-13
4.80622246841879e-12
-1.50869149551401e-12
5.41111373729874e-12
-2.33482639554808e-12
6.16122086595358e-12
-3.37358110327022e-12
7.10845103440108e-12
-4.42095972980688e-12
8.34337182105478e-12
-4.38224796041359e-12
9.39531232762302e-12
-5.72953346426794e-12
4.91901382989131e-12
4.72667059016106e-12
6.18949191079955e-11
-3.80998213104033e-12
6.74654536499921e-11
-7.3733741477551e-12
1.01609498763335e-11
-6.8850668316475e-12
-4.01708633792281e-12
-5.90402952750715e-12
-4.133175050728e-12
-4.97627260709755e-12
-4.30003928537931e-12
-4.15217167570144e-12
-3.14975868609468e-12
-3.43395527096344e-12
-1.99691975260802e-12
-2.80620193504291e-12
-1.08099121629532e-12
-2.25449716555664e-12
-3.66404234901121e-13
-1.76786879282076e-12
1.98619969109885e-13
-1.33771747948422e-12
6.5204472836646e-13
-9.57172953224031e-13
1.02007543074564e-12
-6.20392536692247e-13
1.3211442598933e-12
-3.2242674973219e-13
1.56860724316102e-12
-5.88167922685938e-14
1.77230440981668e-12
1.7424579757773e-13
1.93959661588027e-12
3.80301325286667e-13
2.07612622639241e-12
5.62415850510817e-13
2.18623563521456e-12
7.23530409919795e-13
2.27332095839015e-12
8.66211420980245e-13
2.34004998479e-12
9.93002743148557e-13
2.38849269914724e-12
1.10615295058161e-12
2.42029228426752e-12
1.20795848519915e-12
2.4366862447438e-12
1.30048205633515e-12
2.43860803657944e-12
1.38589075780009e-12
2.42668582900284e-12
1.46614797913943e-12
2.40127848084748e-12
1.54338198444854e-12
2.36252453135824e-12
1.6195805258698e-12
2.31028175937782e-12
1.69692157174754e-12
2.24416247007883e-12
1.7775171730927e-12
2.1635000979342e-12
1.86372982972542e-12
2.06728640886775e-12
1.95791970436005e-12
1.95417271074743e-12
2.0627806737836e-12
1.82236691775332e-12
2.18112900559334e-12
1.66949252866112e-12
2.31619672024525e-12
1.49248238080357e-12
2.47146872342527e-12
1.2873419225948e-12
2.65100895710029e-12
1.04864895127298e-12
2.85928346067259e-12
7.6984445851965e-13
3.10151765191486e-12
4.41614310100708e-13
3.38364853217998e-12
5.08222341518177e-14
3.71270889499577e-12
-4.20168674939446e-13
4.09700442717536e-12
-9.96766320877296e-13
4.54693993841435e-12
-1.71585842744851e-12
5.07579400408551e-12
-2.62749208261234e-12
5.69938444581428e-12
-3.76680114895497e-12
6.42690105881972e-12
-4.91892768035268e-12
7.25966589058022e-12
-4.97526271555052e-12
7.74071326507521e-12
-5.94584644375174e-12
3.90275929723511e-12
8.87745336179532e-12
6.6000921848227e-11
-3.09567536766139e-12
7.11662829836148e-11
-5.95153999147745e-12
1.37978564403444e-11
-5.86986488227985e-12
-3.46812861890516e-12
-5.23360631930251e-12
-4.19275737375076e-12
-4.5214687895596e-12
-4.45464114063254e-12
-3.83343576547708e-12
-3.28633095278955e-12
-3.20246966988373e-12
-2.07984021671093e-12
-2.63369591220088e-12
-1.10633283853019e-12
-2.12408542966982e-12
-3.39285864053167e-13
-1.66884629708102e-12
2.71339253209556e-13
-1.26290300961722e-12
7.63718757846786e-13
-9.01525279214752e-13
1.16475981679472e-12
-5.802318437522e-13
1.49362913315538e-12
-2.94999002784143e-13
1.76432434514051e-12
-4.20164798945665e-14
1.98723956620445e-12
1.82064004415654e-13
2.17023355384463e-12
3.80447902938506e-13
2.31935048644174e-12
5.55944249514295e-13
2.43928733619596e-12
7.11293719130942e-13
2.53373361275493e-12
8.48913695084266e-13
2.60559860190999e-12
9.71216517870129e-13
2.65716573112118e-12
1.08034470525081e-12
2.69024238033696e-12
1.17850155518908e-12
2.70619900789561e-12
1.26766733256629e-12
2.70606769726198e-12
1.34992757237596e-12
2.69054871904808e-12
1.42717626852412e-12
2.66005419283755e-12
1.501466617068e-12
2.6147236895223e-12
1.57470530528043e-12
2.55441557804182e-12
1.64899274883745e-12
2.47869493690086e-12
1.7263481364735e-12
2.38683109963854e-12
1.80902852995033e-12
2.27771565842157e-12
1.89926848015292e-12
2.14988690848763e-12
1.99961088502696e-12
2.00137705848405e-12
2.11267667685677e-12
1.82960872276023e-12
2.24145070799689e-12
1.63127318940111e-12
2.38908302145096e-12
1.40208965744141e-12
2.55917821797016e-12
1.13626967889001e-12
2.75557168816965e-12
8.26864369868749e-13
2.98257869805713e-12
4.6407376992276e-13
3.24477684787961e-12
3.42176934672964e-14
3.54710495746021e-12
-4.80907930276354e-13
3.89446967706893e-12
-1.10716006117246e-12
4.29140174991773e-12
-1.88134139612795e-12
4.74058452342451e-12
-2.85164630979298e-12
5.23865795556572e-12
-4.04560564703814e-12
5.76367011148001e-12
-5.22562412469161e-12
6.25400880954024e-12
-5.23726490363883e-12
6.28838031126497e-12
-5.72754365958866e-12
3.18443812959989e-12
1.22800647904594e-11
6.93804708542394e-11
-2.54474266618343e-12
7.42930183442207e-11
-4.80795751101912e-12
1.68097432824827e-11
-4.97755523279254e-12
-2.69603372109844e-12
-4.59716164129795e-12
-4.02195762727463e-12
-4.06485598697053e-12
-4.45378795891838e-12
-3.49985989158295e-12
-3.3242151224436e-12
-2.95246958296156e-12
-2.10376344197257e-12
-2.44198325747755e-12
-1.09815450744384e-12
-1.97453290347742e-12
-2.94843391650482e-13
-1.5508588344431e-12
3.50837874166826e-13
-1.16926375904401e-12
8.75097696165784e-13
-8.27136201854255e-13
1.30425805403813e-12
-5.21385231207963e-13
1.65746885875091e-12
-2.48927134158421e-13
1.948903976621e-12
-6.61702957755019e-15
2.18922609145485e-12
2.08419527819004e-13
2.38659409077235e-12
3.99037544572679e-13
2.54732522259076e-12
5.67784583905174e-13
2.67637983506889e-12
7.17197966134107e-13
2.77767914047315e-12
8.49531410293899e-13
2.85433392150251e-12
9.67067070438723e-13
2.9088050461938e-12
1.07184128595131e-12
2.94303993086746e-12
1.16596103770144e-12
2.95852985521977e-12
1.25132045320651e-12
2.95639655824698e-12
1.32992762613614e-12
2.93740114036895e-12
1.40360391238532e-12
2.90200570767126e-12
1.47432355311559e-12
2.85035531246706e-12
1.54392085719369e-12
2.78230370618116e-12
1.6144119060108e-12
2.69737910401502e-12
1.68771994760145e-12
2.5948001645465e-12
1.76599661085108e-12
2.47336617854028e-12
1.85135462234505e-12
2.33152037863579e-12
1.94617966981059e-12
2.1671535878256e-12
2.05289212958016e-12
1.97753194078041e-12
2.1742206579354e-12
1.75916049602512e-12
2.31297904623501e-12
1.5075535787698e-12
2.47230362890467e-12
1.21668845637301e-12
2.65539256511434e-12
8.7939931828972e-13
2.86563749565594e-12
4.85688609983872e-13
3.10625952448758e-12
2.1773232516295e-14
3.38014323626371e-12
-5.3041323037118e-13
3.68898530023773e-12
-1.19601185990778e-12
4.03209971421085e-12
-2.0097376911104e-12
4.40362747198632e-12
-3.01464039371853e-12
4.7868162803025e-12
-4.22588610340636e-12
5.14124677703673e-12
-5.37811561198557e-12
5.37506008443942e-12
-5.25960618461937e-12
5.12112963196508e-12
-5.23914690111704e-12
2.63259896197991e-12
1.50459201891219e-11
7.21919740263057e-11
-2.10656789650802e-12
7.69614045594388e-11
-3.91184017761532e-12
1.93369639561005e-11
-4.2131691566233e-12
-1.81266156989705e-12
-4.01166569889993e-12
-3.69064123340611e-12
-3.62228385579172e-12
-4.32798740053014e-12
-3.16360875864037e-12
-3.27378726792009e-12
-2.69316782121456e-12
-2.06893919564668e-12
-2.23869127864419e-12
-1.05232693885405e-12
-1.81285773994147e-12
-2.27195925513464e-13
-1.42087185308399e-12
4.43669177133922e-13
-1.06398435787863e-12
9.92968813939321e-13
-7.41545997899004e-13
1.44542629105542e-12
-4.51784447699322e-13
1.81950993228191e-12
-1.92538124425591e-13
2.12915887026039e-12
3.8680991585885e-14
2.38502864085269e-12
2.44275796034704e-13
2.5953879216935e-12
4.26748151951454e-13
2.76670377556199e-12
5.88374335481523e-13
2.90411645993273e-12
7.31485533308566e-13
3.01171121969483e-12
8.58170995936425e-13
3.09275908983185e-12
9.70576395506024e-13
3.14986702594488e-12
1.07062391021935e-12
3.18510236472877e-12
1.16032090964481e-12
3.20005943054352e-12
1.24147446797735e-12
3.19593874337376e-12
1.31600823473485e-12
3.17355765867656e-12
1.38566776325089e-12
3.1334213678067e-12
1.45234960721043e-12
3.07568007248414e-12
1.51780601176529e-12
3.00018970820593e-12
1.58396497340914e-12
2.90644515555286e-12
1.6526599991711e-12
2.79361858264303e-12
1.72592611216718e-12
2.66044175262482e-12
1.80574794344281e-12
2.50527658727214e-12
1.89435089625744e-12
2.32590231283223e-12
1.99395861687239e-12
2.11946763819137e-12
2.10703641486608e-12
1.88235572367537e-12
2.23606172375958e-12
1.60995209805238e-12
2.38370116772676e-12
1.29613143639542e-12
2.55253224418358e-12
9.33666515952246e-13
2.74505363146881e-12
5.12636378167237e-13
2.96320079062747e-12
1.95562110785004e-14
3.20797915070212e-12
-5.62901928582593e-13
3.47828510603299e-12
-1.25822980896063e-12
3.76922419673724e-12
-2.0976474497977e-12
4.06877511166868e-12
-3.11713149484076e-12
4.35204729412826e-12
-4.31759322211343e-12
4.57002364531406e-12
-5.40567020121982e-12
4.62321547344467e-12
-5.11332576745934e-12
4.20930870505371e-12
-4.60388872099867e-12
2.19511767326399e-12
1.7321451171925e-11
7.45569678490292e-11
-1.75357614093866e-12
7.9250419551589e-11
-3.21015068536479e-12
2.14790742340679e-11
-3.56455905542693e-12
-9.07193634342195e-13
-3.48230883130383e-12
-3.26804600742396e-12
-3.20269445863741e-12
-4.11916720982929e-12
-2.83302896506303e-12
-3.16102370019282e-12
-2.43128669996919e-12
-1.99227479374247e-12
-2.0292053758498e-12
-9.81106140957494e-13
-1.64360587453661e-12
-1.46343795066239e-13
-1.28297770935062e-12
5.40915884802451e-13
-9.50956209827496e-13
1.10894000799683e-12
-6.48585531967189e-13
1.58013603889178e-12
-3.75285841026471e-13
1.97176730447717e-12
-1.29752185008666e-13
2.29718755584904e-12
8.98787691756615e-14
2.56680211928866e-12
2.85550383178529e-13
2.7888186413323e-12
4.59415947731482e-13
2.9697369796008e-12
6.13486679150043e-13
3.11479226361534e-12
7.49883523006916e-13
3.22817506110092e-12
8.70523651836894e-13
3.31327827828776e-12
9.77415112629143e-13
3.37281820339376e-12
1.0723630037334e-12
3.40896099208962e-12
1.15726992601124e-12
3.42339010532673e-12
1.23385198644678e-12
3.41737169500118e-12
1.30394466248275e-12
3.39177427060758e-12
1.36921196323819e-12
3.34714076267216e-12
1.43146685704375e-12
3.28362703791346e-12
1.49237933942044e-12
3.20109130576049e-12
1.55378420879177e-12
3.0990044029726e-12
1.61741760181814e-12
2.97649765360706e-12
1.68519799415286e-12
2.8322528859103e-12
1.75897961337672e-12
2.66456626299406e-12
1.84082613945238e-12
2.47113489408953e-12
1.93275659160812e-12
2.24903488065066e-12
2.03698227127943e-12
1.99457526760872e-12
2.15564588934959e-12
1.70309549488708e-12
2.29096388793287e-12
1.36848280060154e-12
2.44492781032772e-12
9.8358850599176e-13
2.61920860678122e-12
5.38812153816598e-13
2.81457613672541e-12
2.13144291439056e-14
3.03043065568592e-12
-5.85046136699459e-13
3.26339381003041e-12
-1.3014283657523e-12
3.50547248628823e-12
-2.15473140963197e-12
3.74069495833343e-12
-3.17302933712914e-12
3.94010032578069e-12
-4.34295718979502e-12
4.05283052781948e-12
-5.34549896809692e-12
3.98476597245373e-12
-4.86400464462075e-12
3.49821367948007e-12
-3.91594484011194e-12
1.84262064265032e-12
1.92148539881027e-11
7.65517204223213e-11
-1.46639524082399e-12
8.12296672009374e-11
-2.65451226821888e-12
2.3323106917479e-11
-3.01468825591738e-12
-1.84826846500708e-14
-3.00796417348523e-12
-2.7902180691313e-12
-2.81036584363566e-12
-3.84821303742988e-12
-2.51342600747156e-12
-2.9954203123754e-12
-2.17155537492863e-12
-1.87577222362277e-12
-1.81739274715348e-12
-8.82108341920279e-13
-1.46993400629878e-12
-4.74955147459882e-14
-1.13983406756443e-12
6.48648173746251e-13
-8.32515405315387e-13
1.22975397915589e-12
-5.50390311262757e-13
1.7154687781177e-12
-2.93904724367305e-13
2.12148692820765e-12
-6.25169608215523e-14
2.46030102017286e-12
1.45064175286863e-13
2.74186365605898e-12
3.30349885083848e-13
2.97417681023994e-12
4.95158240623163e-13
3.16367120004907e-12
6.41240833783924e-13
3.31560030646439e-12
7.70511331297005e-13
3.4342041936519e-12
8.8471609122808e-13
3.52296219422368e-12
9.85723723819565e-13
3.58466492824241e-12
1.07521501619843e-12
3.62156487210514e-12
1.15498814215797e-12
3.63541091345114e-12
1.22666178407633e-12
3.62753079524688e-12
1.29197790300532e-12
3.5988369478794e-12
1.35251814536938e-12
3.5499016810417e-12
1.41000668473373e-12
3.48089013497014e-12
1.46602424411256e-12
3.39166598305216e-12
1.52231183779958e-12
3.28167788196002e-12
1.58050754452083e-12
3.15002343675786e-12
1.64240682260955e-12
2.99535648409958e-12
1.70972973597357e-12
2.81592158543756e-12
1.7843808350668e-12
2.60935558948918e-12
1.86817862414711e-12
2.37270622561954e-12
1.96308661697472e-12
2.10225248808538e-12
2.0709275450172e-12
1.79336361647433e-12
2.19349266690781e-12
1.44004267933598e-12
2.33224373272551e-12
1.03532873593431e-12
2.48811666187843e-12
5.70148982205038e-13
2.66088038572209e-12
3.25857833469789e-14
2.84863220549527e-12
-5.9200487248328e-13
3.04628978263451e-12
-1.32203190687531e-12
3.24380257349887e-12
-2.17971462886095e-12
3.42308471141592e-12
-3.18518454347591e-12
3.55403440526057e-12
-4.31186271314282e-12
3.58809475908324e-12
-5.2188138592517e-12
3.44285258100201e-12
-4.55024354956621e-12
2.93788781963e-12
-3.22359645956458e-12
1.55573407919393e-12
2.08176798305812e-11
7.82500654563912e-11
-1.23002930722869e-12
8.29434756125959e-11
-2.20715627492324e-12
2.49162435247349e-11
-2.54700621726378e-12
8.1605409071545e-13
-2.58456273474123e-12
-2.29876244961417e-12
-2.44650510372195e-12
-3.54707632237571e-12
-2.20781662918558e-12
-2.80081400199454e-12
-1.91716111502765e-12
-1.73744077537718e-12
-1.60603982575033e-12
-7.69544037780954e-13
-1.29413657090629e-12
5.74610374654259e-14
-9.93316087713762e-13
7.56352326279279e-13
-7.10219271310689e-13
1.34570941688325e-12
-4.48291465487751e-13
1.84220698613917e-12
-2.08811405666789e-13
2.25974881659102e-12
8.10998847349308e-15
2.60977098308216e-12
2.03259349164571e-13
2.90161488162835e-12
3.77752941187918e-13
3.14296107996744e-12
5.33095314104165e-13
3.34008358154084e-12
6.70794173851657e-13
3.49818373543751e-12
7.92554037251957e-13
3.62151160288534e-12
8.99959151699677e-13
3.71358637713126e-12
9.94733949355133e-13
3.77725202165759e-12
1.07843606241067e-12
3.8148268518836e-12
1.15275312513642e-12
3.8281101106909e-12
1.21920432505963e-12
3.81848086036312e-12
1.27943602845987e-12
3.78688945944921e-12
1.33494420811794e-12
3.73392964358458e-12
1.38735636431026e-12
3.65978390524533e-12
1.43816721963848e-12
3.56431323427705e-12
1.48901781029919e-12
3.44695555073839e-12
1.5414413709499e-12
3.30678189686904e-12
1.59711150546638e-12
3.14243279691322e-12
1.65761757459187e-12
2.95211199460462e-12
1.72470406603237e-12
2.73342300534317e-12
1.80000003140173e-12
2.483416545855e-12
1.88522747629072e-12
2.1983916196955e-12
1.9819138778134e-12
1.87380309931831e-12
2.0914494369981e-12
1.50387455566346e-12
2.21485498606025e-12
1.08187761947306e-12
2.35243345745043e-12
5.99461682106913e-13
2.50312519138468e-12
4.58363025286197e-14
2.66405446528461e-12
-5.91990066407759e-13
2.82898273877509e-12
-1.32947622167442e-12
2.98668673456243e-12
-2.18413727762281e-12
3.11836948333644e-12
-3.16863971547718e-12
3.19473908294016e-12
-4.24481179178741e-12
3.17188513674277e-12
-5.05378321115578e-12
2.98124778014408e-12
-4.21041067495678e-12
2.4891319215292e-12
-2.5653478751812e-12
1.32104416198249e-12
2.21814606953863e-11
7.96949363886011e-11
-1.03293578996644e-12
8.44356405021096e-11
-1.84014854641715e-12
2.6307506692352e-11
-2.14640679766009e-12
1.59263726027358e-12
-2.20666572624401e-12
-1.80667439102381e-12
-2.11053435130148e-12
-3.22568071449846e-12
-1.91764908651134e-12
-2.58205669653868e-12
-1.67012901249867e-12
-1.57773397629716e-12
-1.39711798756647e-12
-6.40688351207905e-13
-1.11791807714094e-12
1.73349941980175e-13
-8.44838737186011e-13
8.7017746563024e-13
-5.85230300098775e-13
1.46376213141337e-12
-3.43251115683881e-13
1.96778501534294e-12
-1.20815375106337e-13
2.39425984294419e-12
8.14384319663976e-14
2.75344610560964e-12
2.63863006504947e-13
3.05396801970748e-12
4.27228464992543e-13
3.30309355138656e-12
5.72749705613768e-13
3.50687740009723e-12
7.01708062994296e-13
3.67040522707345e-12
8.15610782197634e-13
3.79790440618953e-12
9.1588282481515e-13
3.89289721377941e-12
1.00410139039193e-12
3.9582655747428e-12
1.08170501879311e-12
3.996367538918e-12
1.15026743854773e-12
4.00904427293377e-12
1.21120770254825e-12
3.99771503983722e-12
1.26607271995084e-12
3.96336444585866e-12
1.31626762169249e-12
3.90660157412866e-12
1.36332225943261e-12
3.82763057712099e-12
1.40863964197382e-12
3.72630640776839e-12
1.45375986605082e-12
3.60206267221205e-12
1.50011095993897e-12
3.45395116040509e-12
1.54924983304001e-12
3.28060747780468e-12
1.60263026886791e-12
3.08021577429466e-12
1.66183900216513e-12
2.85036555047706e-12
1.72832526577619e-12
2.58813474400018e-12
1.8035896763828e-12
2.28988129835649e-12
1.88889434391899e-12
1.95119226406227e-12
1.98527785669855e-12
1.56659605376789e-12
2.09336032340338e-12
1.12965096412501e-12
2.21295580183301e-12
6.32818502396042e-13
2.34238090693316e-12
6.65819324043229e-14
2.47807436401311e-12
-5.80326270952607e-13
2.61311849497391e-12
-1.3204012314247e-12
2.73584927357909e-12
-2.1666827949241e-12
2.82777381221579e-12
-3.12512693723026e-12
2.86164155819657e-12
-4.14779311610259e-12
2.79918785220623e-12
-4.8618072500186e-12
2.5854476101694e-12
-3.86071267333326e-12
2.12297726141871e-12
-1.95127328329917e-12
1.12677085851809e-12
2.33555946079524e-11