/*--------------------------------*- C++ -*----------------------------------*\
  =========                 |
  \\      /  F ield         | OpenFOAM: The Open Source CFD Toolbox
   \\    /   O peration     | Website:  https://openfoam.org
    \\  /    A nd           | Version:  10
     \\/     M anipulation  |
\*---------------------------------------------------------------------------*/
FoamFile
{
    format      ascii;
    class       volScalarField;
    location    "1";
    object      rho;
}
// * * * * * * * * * * * * * * * * * * * * * * * * * * * * * * * * * * * * * //

dimensions      [1 -3 0 0 0 0 0];

internalField   nonuniform List<scalar> 
2500
(
1.1431313927501
1.14360972151038
1.14368800336462
1.14369629807551
1.14369711064508
1.14369720240774
1.14369721667951
1.14369722391945
1.14369723070591
1.14369723379076
1.14369723876005
1.14369724209899
1.14369724411668
1.14369724677595
1.14369724922411
1.14369725203327
1.1436972533329
1.14369725513034
1.14369725716133
1.14369725848092
1.14369726023648
1.14369726456108
1.14369726748736
1.14369726579204
1.143697264382
1.14369726694236
1.14369726786334
1.14369726822776
1.14369726952253
1.14369726683313
1.14369726594417
1.14369726553838
1.14369726477648
1.14369726361403
1.14369726125923
1.14369726016685
1.14369725896508
1.14369725797368
1.14369725602066
1.14369725417542
1.14369725200502
1.14369724948374
1.14369724628453
1.14369724152809
1.14369721968654
1.14369709865802
1.14369615490438
1.14368749010383
1.14360783504939
1.1431309317265
1.15473510960304
1.15525462942891
1.1555381828697
1.15557641367975
1.15558125646974
1.15558187769601
1.1555819571369
1.1555819680756
1.15558197048271
1.15558197113611
1.15558197212896
1.15558197277314
1.15558197294708
1.15558197321828
1.15558197350193
1.15558197381265
1.15558197378095
1.15558197393673
1.15558197416114
1.15558197444566
1.15558197645569
1.15558197947822
1.15558198024689
1.1555819791739
1.15558197796992
1.1555819786428
1.1555819787768
1.15558197973145
1.15558198023293
1.15558197801098
1.15558197709619
1.15558197749695
1.15558197635405
1.1555819736676
1.15558197260895
1.15558197223824
1.15558197191428
1.15558197167117
1.15558197127706
1.1555819709176
1.1555819704596
1.15558196963368
1.15558196631832
1.15558194666331
1.15558181997147
1.15558101422765
1.15557569778222
1.15553739426764
1.15525050193268
1.15470762287896
1.15945865672718
1.15972815757788
1.15988200850737
1.15991004642674
1.1599137998069
1.15991429785963
1.1599143631737
1.15991437162434
1.15991437273385
1.15991437279855
1.15991437351626
1.15991437412108
1.15991437392965
1.1599143739495
1.15991437361689
1.1599143731278
1.1599143728764
1.1599143727441
1.15991437243142
1.15991437245842
1.1599143733155
1.15991437390701
1.15991437423579
1.15991437424793
1.15991437321409
1.1599143734164
1.15991437384714
1.1599143736352
1.15991437346965
1.15991437288466
1.15991437225196
1.15991437234717
1.15991437205924
1.15991437087369
1.1599143703208
1.15991437016046
1.15991437004936
1.15991436998375
1.15991436991326
1.15991436986001
1.15991436978246
1.15991436948887
1.15991436755051
1.15991435449666
1.15991426879351
1.15991371189984
1.15990993643399
1.15988246239142
1.15972637734121
1.15942907203356
1.16095192522154
1.16105075503207
1.16109157749719
1.16110145535571
1.16110285698365
1.16110304598307
1.16110307113007
1.1611030745353
1.16110307504833
1.16110307486223
1.1611030748823
1.16110307522757
1.1611030752282
1.16110307504764
1.16110307485954
1.16110307465488
1.16110307459084
1.16110307459156
1.161103074402
1.16110307432872
1.161103074441
1.161103074545
1.16110307459639
1.16110307448092
1.16110307416848
1.1611030742208
1.16110307427541
1.16110307411404
1.16110307401881
1.16110307385646
1.16110307364428
1.1611030735923
1.16110307345897
1.16110307315541
1.16110307295992
1.16110307284428
1.16110307275134
1.16110307270963
1.16110307267729
1.16110307265518
1.16110307263243
1.16110307255113
1.1611030719945
1.16110306811727
1.16110304176741
1.16110286117092
1.16110155488928
1.16109190413601
1.16105021326153
1.16093677882313
1.16135577438189
1.16138546154127
1.16139433330451
1.16139710290671
1.16139752622813
1.16139758484973
1.16139759275902
1.16139759384336
1.16139759399191
1.1613975939052
1.16139759389095
1.16139759399042
1.16139759395673
1.16139759386384
1.16139759377442
1.16139759368905
1.16139759365535
1.16139759365104
1.16139759354455
1.16139759349572
1.16139759348822
1.16139759344636
1.16139759340184
1.16139759332975
1.16139759323018
1.16139759319534
1.16139759314951
1.16139759309491
1.16139759304236
1.16139759295127
1.16139759287048
1.16139759281725
1.16139759274763
1.16139759266122
1.16139759258458
1.16139759250398
1.16139759243945
1.16139759239985
1.1613975923665
1.16139759235327
1.16139759234469
1.1613975922996
1.1613975921151
1.16139759106722
1.16139758400888
1.16139753406309
1.1613971611509
1.16139445848804
1.1613853706437
1.16135017906921
1.16145397658079
1.16146179980027
1.16146355086561
1.16146423084041
1.16146434291824
1.16146435894039
1.16146436113035
1.16146436142962
1.16146436146184
1.16146436142666
1.16146436140982
1.1614643614107
1.16146436137376
1.16146436132447
1.16146436127727
1.16146436123683
1.1614643612006
1.161464361167
1.1614643611117
1.16146436106604
1.16146436102274
1.16146436096939
1.16146436092196
1.16146436087229
1.16146436081091
1.16146436076358
1.16146436071308
1.16146436066759
1.16146436061958
1.16146436056104
1.16146436051002
1.16146436046143
1.16146436041118
1.16146436036254
1.16146436031358
1.16146436025889
1.16146436021059
1.16146436017117
1.16146436013701
1.16146436010415
1.16146436006911
1.16146436003618
1.16146435996664
1.16146435968109
1.16146435791747
1.16146434536081
1.1614642506089
1.16146358353984
1.16146179985487
1.16145226956645
1.16147606383496
1.16147794167875
1.16147827267545
1.16147842553822
1.16147845260006
1.16147845660894
1.16147845716552
1.16147845723945
1.16147845724028
1.16147845722075
1.16147845720253
1.16147845718342
1.16147845715291
1.16147845711817
1.16147845708169
1.16147845704415
1.16147845700324
1.16147845696358
1.16147845691887
1.16147845687222
1.1614784568266
1.16147845677746
1.16147845673001
1.16147845668221
1.16147845663125
1.16147845658338
1.16147845653502
1.16147845648841
1.16147845644111
1.16147845639314
1.1614784563468
1.16147845630106
1.16147845625602
1.16147845621264
1.16147845616966
1.16147845612513
1.16147845608299
1.16147845604382
1.1614784560068
1.16147845596974
1.16147845593242
1.16147845589705
1.16147845585278
1.1614784557583
1.16147845532258
1.16147845236669
1.16147843019544
1.1614782787487
1.16147794776123
1.16147560503855
1.16148072996083
1.16148115010927
1.16148121186374
1.16148124414643
1.16148125025304
1.16148125119549
1.161481251329
1.16148125134383
1.16148125133706
1.1614812513215
1.16148125130247
1.16148125127946
1.16148125125094
1.161481251219
1.16148125118416
1.16148125114695
1.1614812511068
1.16148125106572
1.16148125102232
1.16148125097691
1.16148125093081
1.16148125088364
1.16148125083635
1.16148125078856
1.16148125074026
1.16148125069262
1.16148125064515
1.16148125059821
1.16148125055164
1.16148125050571
1.16148125046057
1.16148125041621
1.1614812503726
1.16148125033025
1.1614812502888
1.16148125024758
1.1614812502076
1.16148125016887
1.16148125013106
1.1614812500939
1.16148125005703
1.16148125002067
1.16148124998255
1.16148124993337
1.16148124980951
1.16148124913193
1.16148124424743
1.16148121189846
1.16148115216657
1.16148061672401
1.16148165318703
1.16148174216122
1.16148175371389
1.16148176022884
1.16148176154181
1.16148176175564
1.16148176178637
1.16148176178606
1.16148176177673
1.16148176176153
1.1614817617419
1.161481761718
1.1614817616899
1.16148176165839
1.16148176162382
1.16148176158661
1.16148176154688
1.16148176150543
1.16148176146218
1.16148176141736
1.16148176137152
1.16148176132489
1.16148176127777
1.16148176123033
1.16148176118278
1.16148176113542
1.16148176108829
1.16148176104164
1.16148176099557
1.16148176095018
1.1614817609056
1.1614817608619
1.16148176081902
1.1614817607772
1.16148176073635
1.16148176069628
1.16148176065721
1.16148176061907
1.1614817605817
1.16148176054503
1.16148176050883
1.16148176047303
1.16148176043708
1.16148176039891
1.16148176034522
1.16148176017603
1.16148175913363
1.16148175253045
1.16148174186063
1.16148162624792
1.16148181098121
1.16148182900954
1.16148183119332
1.16148183246976
1.1614818327458
1.16148183279475
1.16148183280084
1.1614818327961
1.16148183278542
1.1614818327697
1.1614818327495
1.16148183272515
1.16148183269696
1.16148183266539
1.1614818326308
1.16148183259356
1.16148183255397
1.16148183251248
1.16148183246933
1.16148183242478
1.16148183237921
1.16148183233287
1.16148183228602
1.16148183223889
1.1614818321917
1.16148183214465
1.16148183209789
1.16148183205161
1.16148183200593
1.16148183196096
1.16148183191682
1.16148183187358
1.16148183183125
1.16148183178993
1.1614818317496
1.16148183171023
1.16148183167182
1.16148183163432
1.16148183159764
1.1614818315617
1.16148183152636
1.16148183149151
1.16148183145697
1.16148183142226
1.16148183138472
1.16148183132445
1.16148183109129
1.16148182977664
1.16148182786111
1.16148180400948
1.1614818183238
1.1614818218486
1.16148182227044
1.16148182252029
1.16148182258042
1.16148182259244
1.16148182259188
1.16148182258517
1.16148182257342
1.16148182255699
1.16148182253623
1.16148182251146
1.16148182248302
1.16148182245128
1.1614818224166
1.16148182237934
1.16148182233981
1.16148182229839
1.16148182225537
1.16148182221104
1.1614818221657
1.16148182211962
1.16148182207305
1.16148182202623
1.16148182197938
1.16148182193267
1.1614818218863
1.16148182184041
1.16148182179514
1.16148182175061
1.16148182170693
1.16148182166416
1.16148182162235
1.16148182158156
1.16148182154179
1.16148182150304
1.16148182146528
1.16148182142848
1.16148182139257
1.16148182135746
1.16148182132306
1.1614818212893
1.16148182125606
1.16148182122325
1.16148182119041
1.16148182115385
1.16148182108517
1.16148182081441
1.16148182045655
1.16148181571207
1.16148179703888
1.1614817977094
1.16148179779659
1.16148179784951
1.1614817978648
1.16148179786763
1.16148179786441
1.16148179785629
1.16148179784353
1.16148179782636
1.16148179780502
1.16148179777982
1.16148179775109
1.16148179771917
1.16148179768439
1.16148179764711
1.16148179760764
1.16148179756632
1.16148179752344
1.16148179747932
1.16148179743422
1.16148179738842
1.16148179734216
1.16148179729567
1.16148179724917
1.16148179720285
1.16148179715687
1.16148179711141
1.16148179706659
1.16148179702253
1.16148179697933
1.16148179693707
1.1614817968958
1.16148179685558
1.16148179681641
1.16148179677831
1.16148179674124
1.16148179670519
1.16148179667008
1.16148179663587
1.16148179660248
1.16148179656984
1.16148179653792
1.16148179650672
1.16148179647623
1.161481796446
1.1614817964111
1.16148179634119
1.16148179626211
1.16148179534247
1.16148177045086
1.16148177057672
1.16148177059906
1.16148177061354
1.16148177061841
1.16148177061791
1.16148177061293
1.16148177060355
1.16148177058981
1.16148177057188
1.16148177054996
1.16148177052433
1.1614817704953
1.16148177046319
1.16148177042832
1.16148177039102
1.16148177035161
1.1614817703104
1.1614817702677
1.16148177022379
1.16148177017896
1.16148177013345
1.16148177008752
1.16148177004139
1.16148176999527
1.16148176994935
1.16148176990381
1.1614817698588
1.16148176981446
1.1614817697709
1.16148176972822
1.16148176968651
1.16148176964582
1.1614817696062
1.16148176956767
1.16148176953025
1.16148176949392
1.16148176945865
1.1614817694244
1.16148176939113
1.16148176935878
1.16148176932732
1.16148176929673
1.16148176926706
1.16148176923845
1.16148176921105
1.16148176918435
1.16148176915361
1.16148176912579
1.16148176894753
1.16148174290084
1.16148174292505
1.16148174293383
1.16148174293959
1.16148174294089
1.16148174293837
1.16148174293188
1.16148174292129
1.16148174290659
1.1614817428879
1.1614817428654
1.16148174283934
1.16148174281001
1.16148174277771
1.16148174274275
1.16148174270545
1.1614817426661
1.16148174262503
1.16148174258251
1.16148174253884
1.16148174249428
1.16148174244909
1.16148174240351
1.16148174235776
1.16148174231205
1.16148174226657
1.16148174222149
1.16148174217696
1.16148174213312
1.16148174209009
1.16148174204797
1.16148174200684
1.16148174196676
1.16148174192778
1.16148174188994
1.16148174185323
1.16148174181767
1.16148174178323
1.16148174174988
1.16148174171759
1.16148174168632
1.16148174165605
1.1614817416268
1.16148174159865
1.16148174157178
1.16148174154646
1.16148174152299
1.16148174150113
1.16148174148383
1.16148174144583
1.1614817151779
1.16148171518313
1.16148171518825
1.16148171519093
1.16148171519012
1.16148171518592
1.16148171517804
1.1614817151663
1.16148171515067
1.16148171513123
1.16148171510816
1.16148171508167
1.16148171505205
1.16148171501956
1.16148171498452
1.16148171494721
1.16148171490795
1.16148171486701
1.1614817148247
1.16148171478128
1.16148171473702
1.16148171469216
1.16148171464695
1.16148171460161
1.16148171455633
1.16148171451131
1.16148171446671
1.16148171442269
1.16148171437939
1.16148171433692
1.16148171429539
1.16148171425487
1.16148171421543
1.16148171417713
1.16148171413999
1.16148171410404
1.16148171406928
1.1614817140357
1.16148171400328
1.161481713972
1.16148171394183
1.16148171391278
1.16148171388488
1.16148171385822
1.16148171383301
1.16148171380955
1.16148171378825
1.16148171376957
1.16148171375533
1.16148171374368
1.16148168742272
1.16148168742411
1.16148168742757
1.16148168742836
1.16148168742586
1.16148168742016
1.16148168741098
1.16148168739814
1.1614816873816
1.16148168736143
1.16148168733779
1.16148168731089
1.16148168728097
1.16148168724831
1.16148168721319
1.16148168717589
1.16148168713671
1.16148168709593
1.16148168705383
1.16148168701067
1.16148168696672
1.16148168692222
1.1614816868774
1.16148168683248
1.16148168678766
1.16148168674312
1.16148168669904
1.16148168665556
1.16148168661282
1.16148168657093
1.16148168653001
1.16148168649013
1.16148168645136
1.16148168641377
1.16148168637737
1.16148168634221
1.16148168630829
1.1614816862756
1.16148168624414
1.16148168621389
1.16148168618485
1.16148168615703
1.16148168613047
1.16148168610528
1.16148168608167
1.16148168605994
1.16148168604047
1.16148168602379
1.16148168601114
1.16148168600472
1.16148165966017
1.16148165966047
1.16148165966276
1.16148165966203
1.16148165965805
1.16148165965098
1.16148165964057
1.16148165962668
1.16148165960926
1.16148165958839
1.16148165956419
1.16148165953688
1.16148165950668
1.16148165947384
1.16148165943865
1.16148165940137
1.16148165936228
1.16148165932166
1.16148165927979
1.16148165923691
1.16148165919329
1.16148165914916
1.16148165910475
1.16148165906027
1.16148165901592
1.16148165897189
1.16148165892834
1.16148165888541
1.16148165884326
1.16148165880198
1.1614816587617
1.16148165872249
1.16148165868442
1.16148165864755
1.16148165861193
1.16148165857758
1.16148165854452
1.16148165851275
1.16148165848228
1.16148165845309
1.16148165842519
1.1614816583986
1.16148165837338
1.16148165834964
1.16148165832757
1.16148165830746
1.16148165828966
1.16148165827462
1.16148165826317
1.16148165825812
1.16148163189474
1.16148163189447
1.16148163189577
1.16148163189371
1.16148163188839
1.16148163188005
1.1614816318685
1.1614816318536
1.16148163183534
1.16148163181378
1.16148163178905
1.16148163176133
1.16148163173085
1.16148163169784
1.16148163166258
1.16148163162533
1.16148163158634
1.1614816315459
1.16148163150426
1.16148163146168
1.16148163141839
1.16148163137465
1.16148163133066
1.16148163128665
1.16148163124279
1.16148163119928
1.16148163115628
1.16148163111394
1.16148163107239
1.16148163103175
1.16148163099212
1.1614816309536
1.16148163091626
1.16148163088015
1.16148163084532
1.16148163081181
1.16148163077964
1.16148163074881
1.16148163071934
1.16148163069123
1.16148163066448
1.16148163063913
1.16148163061524
1.16148163059291
1.16148163057233
1.16148163055377
1.16148163053751
1.16148163052393
1.16148163051352
1.1614816305091
1.16148160412741
1.16148160412671
1.16148160412712
1.16148160412387
1.16148160411733
1.16148160410781
1.16148160409518
1.16148160407933
1.16148160406026
1.16148160403802
1.16148160401276
1.16148160398465
1.1614816039539
1.16148160392074
1.16148160388541
1.16148160384819
1.16148160380931
1.16148160376905
1.16148160372766
1.16148160368538
1.16148160364245
1.1614816035991
1.16148160355556
1.16148160351202
1.16148160346867
1.1614816034257
1.16148160338327
1.16148160334152
1.16148160330059
1.16148160326061
1.16148160322166
1.16148160318385
1.16148160314725
1.16148160311192
1.16148160307791
1.16148160304526
1.161481603014
1.16148160298414
1.16148160295569
1.16148160292867
1.16148160290308
1.16148160287897
1.1614816028564
1.16148160283546
1.16148160281632
1.16148160279922
1.1614816027844
1.16148160277216
1.16148160276269
1.16148160275875
1.16148157635857
1.16148157635747
1.16148157635708
1.16148157635273
1.16148157634506
1.16148157633445
1.16148157632079
1.16148157630403
1.16148157628417
1.16148157626129
1.16148157623552
1.16148157620702
1.161481576176
1.16148157614269
1.16148157610731
1.16148157607012
1.16148157603137
1.1614815759913
1.16148157595016
1.16148157590819
1.16148157586562
1.16148157582269
1.16148157577959
1.16148157573654
1.16148157569371
1.1614815756513
1.16148157560945
1.16148157556832
1.16148157552803
1.16148157548872
1.16148157545047
1.16148157541339
1.16148157537755
1.16148157534302
1.16148157530984
1.16148157527807
1.16148157524773
1.16148157521885
1.16148157519144
1.16148157516552
1.16148157514111
1.16148157511824
1.16148157509697
1.16148157507739
1.16148157505965
1.16148157504395
1.16148157503049
1.16148157501949
1.1614815750109
1.16148157500738
1.16148154858849
1.16148154858703
1.16148154858589
1.16148154858052
1.16148154857181
1.16148154856016
1.16148154854553
1.1614815485279
1.16148154850728
1.16148154848377
1.1614815484575
1.16148154842863
1.16148154839735
1.16148154836388
1.16148154832846
1.16148154829131
1.16148154825268
1.16148154821281
1.16148154817193
1.16148154813028
1.16148154808809
1.16148154804557
1.16148154800293
1.16148154796038
1.16148154791809
1.16148154787624
1.16148154783499
1.16148154779448
1.16148154775485
1.16148154771622
1.16148154767869
1.16148154764235
1.16148154760729
1.16148154757356
1.16148154754124
1.16148154751037
1.16148154748097
1.16148154745308
1.16148154742672
1.16148154740191
1.16148154737868
1.16148154735704
1.16148154733707
1.16148154731883
1.16148154730246
1.1614815472881
1.16148154727593
1.1614815472661
1.16148154725833
1.1614815472552
1.16148152081741
1.1614815208156
1.16148152081376
1.16148152080745
1.16148152079774
1.16148152078511
1.16148152076955
1.16148152075108
1.16148152072973
1.16148152070561
1.16148152067884
1.1614815206496
1.16148152061807
1.16148152058446
1.16148152054899
1.16148152051189
1.16148152047339
1.16148152043372
1.16148152039311
1.16148152035178
1.16148152030997
1.16148152026788
1.16148152022571
1.16148152018367
1.16148152014192
1.16148152010065
1.16148152006
1.16148152002013
1.16148151998117
1.16148151994323
1.16148151990642
1.16148151987084
1.16148151983657
1.16148151980367
1.16148151977222
1.16148151974224
1.1614815197138
1.16148151968692
1.16148151966162
1.16148151963793
1.16148151961587
1.16148151959547
1.16148151957678
1.16148151955987
1.16148151954483
1.16148151953178
1.16148151952085
1.16148151951213
1.16148151950514
1.16148151950239
1.16148149304559
1.16148149304346
1.16148149304094
1.16148149303373
1.16148149302308
1.16148149300951
1.16148149299306
1.16148149297376
1.1614814929517
1.16148149292698
1.16148149289974
1.16148149287013
1.16148149283836
1.16148149280461
1.1614814927691
1.16148149273205
1.16148149269367
1.16148149265421
1.16148149261387
1.16148149257288
1.16148149253145
1.16148149248979
1.1614814924481
1.16148149240657
1.16148149236537
1.16148149232468
1.16148149228465
1.16148149224543
1.16148149220714
1.1614814921699
1.16148149213383
1.16148149209901
1.16148149206554
1.16148149203348
1.16148149200289
1.16148149197384
1.16148149194636
1.16148149192049
1.16148149189626
1.16148149187369
1.16148149185281
1.16148149183365
1.16148149181624
1.16148149180063
1.1614814917869
1.16148149177513
1.1614814917654
1.16148149175775
1.1614814917515
1.16148149174913
1.16148146527326
1.1614814652708
1.16148146526764
1.16148146525956
1.161481465248
1.16148146523353
1.1614814652162
1.16148146519611
1.16148146517335
1.16148146514804
1.16148146512032
1.16148146509036
1.16148146505835
1.16148146502446
1.16148146498891
1.16148146495191
1.16148146491367
1.16148146487441
1.16148146483435
1.16148146479369
1.16148146475265
1.16148146471143
1.16148146467022
1.1614814646292
1.16148146458856
1.16148146454846
1.16148146450905
1.16148146447048
1.16148146443287
1.16148146439635
1.16148146436101
1.16148146432697
1.1614814642943
1.16148146426308
1.16148146423338
1.16148146420525
1.16148146417873
1.16148146415388
1.16148146413072
1.16148146410928
1.16148146408958
1.16148146407165
1.16148146405552
1.16148146404121
1.16148146402877
1.16148146401825
1.16148146400969
1.16148146400308
1.16148146399757
1.16148146399555
1.16148143750066
1.1614814374979
1.1614814374941
1.16148143748517
1.16148143747274
1.16148143745737
1.16148143743919
1.16148143741832
1.16148143739487
1.16148143736897
1.16148143734079
1.16148143731048
1.16148143727822
1.1614814372442
1.16148143720861
1.16148143717166
1.16148143713356
1.16148143709451
1.16148143705472
1.1614814370144
1.16148143697375
1.16148143693297
1.16148143689224
1.16148143685175
1.16148143681166
1.16148143677215
1.16148143673337
1.16148143669545
1.16148143665852
1.16148143662271
1.16148143658812
1.16148143655486
1.161481436523
1.16148143649262
1.1614814364638
1.1614814364366
1.16148143641106
1.16148143638723
1.16148143636514
1.16148143634483
1.16148143632631
1.16148143630961
1.16148143629475
1.16148143628173
1.16148143627057
1.16148143626129
1.16148143625388
1.1614814362483
1.16148143624351
1.16148143624183
1.16148140972803
1.16148140972496
1.16148140972054
1.16148140971078
1.16148140969747
1.16148140968122
1.1614814096622
1.16148140964055
1.16148140961641
1.16148140958994
1.16148140956129
1.16148140953063
1.16148140949813
1.16148140946398
1.16148140942836
1.16148140939146
1.1614814093535
1.16148140931465
1.16148140927514
1.16148140923516
1.1614814091949
1.16148140915455
1.1614814091143
1.16148140907433
1.16148140903481
1.16148140899589
1.16148140895773
1.16148140892046
1.16148140888422
1.16148140884913
1.16148140881528
1.16148140878279
1.16148140875174
1.16148140872221
1.16148140869428
1.161481408668
1.16148140864343
1.16148140862062
1.16148140859961
1.16148140858043
1.1614814085631
1.16148140854763
1.16148140853403
1.1614814085223
1.16148140851242
1.16148140850437
1.16148140849811
1.16148140849354
1.16148140848947
1.16148140848813
1.16148138195562
1.16148138195226
1.16148138194721
1.16148138193662
1.16148138192243
1.16148138190531
1.16148138188544
1.16148138186301
1.16148138183819
1.16148138181114
1.16148138178203
1.16148138175102
1.16148138171828
1.16148138168399
1.16148138164833
1.16148138161148
1.16148138157365
1.16148138153502
1.16148138149578
1.16148138145613
1.16148138141626
1.16148138137635
1.16148138133658
1.16148138129713
1.16148138125816
1.16148138121983
1.16148138118229
1.16148138114568
1.16148138111012
1.16148138107574
1.16148138104264
1.16148138101092
1.16148138098067
1.16148138095199
1.16148138092494
1.16148138089958
1.16148138087599
1.1614813808542
1.16148138083426
1.16148138081621
1.16148138080006
1.16148138078582
1.16148138077349
1.16148138076305
1.16148138075445
1.16148138074764
1.16148138074253
1.16148138073899
1.16148138073563
1.16148138073465
1.16148135418366
1.16148135417999
1.16148135417431
1.16148135416287
1.1614813541478
1.16148135412978
1.16148135410906
1.16148135408585
1.16148135406034
1.16148135403271
1.16148135400313
1.16148135397177
1.16148135393879
1.16148135390436
1.16148135386866
1.16148135383187
1.16148135379417
1.16148135375574
1.16148135371677
1.16148135367745
1.16148135363797
1.16148135359849
1.1614813535592
1.16148135352026
1.16148135348185
1.16148135344411
1.16148135340718
1.16148135337122
1.16148135333634
1.16148135330266
1.1614813532703
1.16148135323935
1.16148135320991
1.16148135318206
1.16148135315589
1.16148135313145
1.16148135310883
1.16148135308805
1.16148135306919
1.16148135305226
1.16148135303729
1.16148135302428
1.16148135301322
1.16148135300407
1.16148135299677
1.1614813529912
1.16148135298727
1.16148135298476
1.16148135298213
1.1614813529815
1.16148132641239
1.1614813264084
1.16148132640208
1.16148132638977
1.16148132637378
1.16148132635486
1.16148132633327
1.16148132630926
1.16148132628306
1.16148132625484
1.16148132622479
1.16148132619307
1.16148132615984
1.16148132612528
1.16148132608954
1.16148132605279
1.16148132601522
1.16148132597699
1.16148132593829
1.1614813258993
1.16148132586019
1.16148132582114
1.16148132578232
1.1614813257439
1.16148132570603
1.16148132566887
1.16148132563256
1.16148132559723
1.16148132556302
1.16148132553004
1.16148132549841
1.16148132546822
1.16148132543957
1.16148132541256
1.16148132538726
1.16148132536374
1.16148132534207
1.16148132532231
1.1614813253045
1.16148132528869
1.1614813252749
1.16148132526313
1.16148132525335
1.1614813252455
1.1614813252395
1.16148132523521
1.16148132523246
1.16148132523102
1.16148132522914
1.16148132522887
1.16148129864204
1.16148129863772
1.16148129863073
1.16148129861751
1.16148129860058
1.16148129858071
1.16148129855823
1.16148129853341
1.16148129850649
1.16148129847767
1.16148129844714
1.16148129841506
1.16148129838159
1.16148129834688
1.16148129831109
1.16148129827439
1.16148129823694
1.16148129819892
1.16148129816048
1.16148129812181
1.16148129808308
1.16148129804445
1.16148129800609
1.16148129796817
1.16148129793084
1.16148129789424
1.16148129785853
1.16148129782384
1.16148129779029
1.161481297758
1.16148129772709
1.16148129769765
1.16148129766979
1.16148129764359
1.16148129761915
1.16148129759653
1.16148129757581
1.16148129755705
1.16148129754031
1.16148129752561
1.161481297513
1.16148129750246
1.16148129749396
1.16148129748743
1.16148129748276
1.16148129747977
1.16148129747825
1.1614812974779
1.16148129747679
1.1614812974769
1.16148127087284
1.16148127086819
1.16148127086049
1.16148127084631
1.16148127082838
1.16148127080753
1.16148127078411
1.16148127075846
1.16148127073081
1.16148127070139
1.16148127067037
1.16148127063792
1.1614812706042
1.16148127056934
1.16148127053351
1.16148127049685
1.16148127045952
1.16148127042168
1.1614812703835
1.16148127034514
1.16148127030677
1.16148127026856
1.16148127023066
1.16148127019323
1.16148127015642
1.16148127012039
1.16148127008527
1.16148127005119
1.16148127001829
1.16148126998668
1.16148126995647
1.16148126992777
1.16148126990068
1.1614812698753
1.1614812698517
1.16148126982997
1.16148126981018
1.16148126979241
1.16148126977671
1.16148126976313
1.16148126975169
1.16148126974238
1.16148126973518
1.16148126972999
1.16148126972667
1.16148126972502
1.16148126972477
1.16148126972558
1.16148126972528
1.16148126972577
1.16148124310503
1.16148124310002
1.16148124309156
1.16148124307635
1.16148124305736
1.16148124303547
1.16148124301109
1.16148124298456
1.16148124295616
1.16148124292612
1.16148124289461
1.16148124286179
1.1614812428278
1.1614812427928
1.16148124275691
1.16148124272028
1.16148124268306
1.16148124264541
1.16148124260748
1.16148124256943
1.16148124253142
1.1614812424936
1.16148124245615
1.1614812424192
1.16148124238291
1.16148124234742
1.16148124231288
1.16148124227941
1.16148124224714
1.16148124221619
1.16148124218668
1.1614812421587
1.16148124213236
1.16148124210777
1.16148124208499
1.16148124206414
1.16148124204528
1.16148124202848
1.16148124201382
1.16148124200133
1.16148124199105
1.16148124198298
1.16148124197708
1.16148124197325
1.16148124197132
1.16148124197106
1.16148124197215
1.16148124197418
1.16148124197473
1.16148124197563
1.16148121533885
1.16148121533345
1.16148121532418
1.16148121530785
1.16148121528771
1.16148121526471
1.16148121523931
1.16148121521188
1.16148121518271
1.16148121515203
1.16148121512001
1.16148121508681
1.16148121505257
1.1614812150174
1.16148121498145
1.16148121494486
1.16148121490775
1.16148121487027
1.16148121483258
1.16148121479483
1.16148121475716
1.16148121471974
1.16148121468271
1.16148121464623
1.16148121461044
1.16148121457549
1.16148121454151
1.16148121450863
1.16148121447698
1.16148121444667
1.16148121441783
1.16148121439056
1.16148121436496
1.16148121434113
1.16148121431917
1.16148121429916
1.1614812142812
1.16148121426537
1.16148121425172
1.16148121424032
1.1614812142312
1.16148121422437
1.16148121421978
1.16148121421733
1.16148121421683
1.16148121421802
1.16148121422053
1.16148121422386
1.16148121422533
1.16148121422667
1.16148118757453
1.16148118756872
1.16148118755854
1.16148118754097
1.16148118751959
1.1614811874954
1.16148118746893
1.16148118744055
1.16148118741059
1.16148118737925
1.16148118734672
1.16148118731313
1.16148118727861
1.16148118724329
1.16148118720728
1.1614811871707
1.16148118713369
1.16148118709639
1.16148118705893
1.16148118702146
1.16148118698413
1.16148118694709
1.16148118691048
1.16148118687445
1.16148118683915
1.16148118680471
1.16148118677127
1.16148118673896
1.16148118670791
1.16148118667823
1.16148118665004
1.16148118662345
1.16148118659856
1.16148118657548
1.16148118655431
1.16148118653514
1.16148118651806
1.16148118650315
1.16148118649051
1.16148118648018
1.16148118647221
1.16148118646661
1.16148118646334
1.1614811864623
1.16148118646328
1.16148118646599
1.16148118647001
1.16148118647476
1.16148118647724
1.16148118647905
1.16148115981234
1.16148115980605
1.16148115979485
1.16148115977591
1.16148115975315
1.16148115972769
1.16148115970007
1.16148115967071
1.16148115963992
1.16148115960791
1.16148115957486
1.16148115954087
1.16148115950609
1.1614811594706
1.16148115943452
1.16148115939796
1.16148115936104
1.1614811593239
1.16148115928666
1.16148115924947
1.16148115921246
1.16148115917578
1.16148115913958
1.16148115910398
1.16148115906915
1.16148115903521
1.1614811590023
1.16148115897054
1.16148115894006
1.16148115891098
1.16148115888342
1.16148115885749
1.16148115883329
1.16148115881094
1.16148115879053
1.16148115877216
1.16148115875594