/*--------------------------------*- C++ -*----------------------------------*\
  =========                 |
  \\      /  F ield         | OpenFOAM: The Open Source CFD Toolbox
   \\    /   O peration     | Website:  https://openfoam.org
    \\  /    A nd           | Version:  10
     \\/     M anipulation  |
\*---------------------------------------------------------------------------*/
FoamFile
{
    format      ascii;
    class       volScalarField;
    location    "1";
    object      T;
}
// * * * * * * * * * * * * * * * * * * * * * * * * * * * * * * * * * * * * * //

dimensions      [0 0 0 1 0 0 0];

internalField   nonuniform List<scalar> 
2500
(
304.815905545366
304.688412587646
304.667557633249
304.665348026677
304.665131575745
304.665107135852
304.665103336358
304.665101408095
304.665099598857
304.665098774069
304.66509744584
304.665096550612
304.665096006185
304.665095289814
304.66509462877
304.665093870763
304.665093514184
304.665093024405
304.66509247192
304.665092108534
304.665091628693
304.665090464251
304.665089672126
304.665090111025
304.665090473881
304.665089779083
304.665089521048
304.665089411367
304.665089053987
304.665089758097
304.665089982781
304.665090078959
304.665090270213
304.665090568388
304.665091184406
304.665091464337
304.665091773595
304.665092026969
304.665092536627
304.665093017642
304.665093585275
304.665094246303
304.66509508775
304.665096343734
304.665102150531
304.665134378826
304.66538576942
304.667693960632
304.688914789202
304.816028072356
301.75286063989
301.617161909466
301.543149146721
301.533172975256
301.531909321603
301.5317472262
301.531726499559
301.531723645598
301.531723016074
301.531722842564
301.531722579049
301.53172240523
301.531722352963
301.531722274297
301.531722191483
301.53172210082
301.531722098823
301.531722047325
301.53172197743
301.531721891453
301.53172135491
301.53172055393
301.531720340892
301.5317206083
301.531720909839
301.531720721648
301.531720674124
301.531720412558
301.531720269373
301.531720836985
301.531721063699
301.531720947341
301.531721233991
301.531721923625
301.531722188723
301.531722274521
301.531722348302
301.531722401147
301.531722493511
301.531722576902
301.53172268601
301.531722891049
301.531723745504
301.53172886326
301.531761910249
301.531972145281
301.533359388068
301.543354540266
301.618239132933
301.760043180664
300.523535147328
300.453698657731
300.413845412013
300.406583670882
300.40561158799
300.405482601933
300.405465688486
300.405463500123
300.405463211296
300.405463191491
300.405463001144
300.405462838766
300.40546288147
300.405462868442
300.405462945807
300.405463062919
300.405463117797
300.40546314125
300.405463210941
300.40546319226
300.405462958281
300.405462792845
300.405462695285
300.405462679627
300.405462934822
300.405462869874
300.40546274582
300.405462788312
300.405462818918
300.405462958319
300.405463110259
300.40546307388
300.405463136948
300.405463432706
300.405463564828
300.405463595489
300.405463613584
300.405463620058
300.405463627922
300.405463631389
300.405463641164
300.405463706828
300.40546419831
300.405467568307
300.405489753274
300.405633971035
300.406611768163
300.413727460313
300.454159472024
300.531203089508
300.136981142385
300.111433184475
300.100881673714
300.098328631582
300.097966374067
300.09791752967
300.097911032263
300.097910152294
300.097910018119
300.097910063093
300.097910053384
300.097909958365
300.097909951301
300.097909990065
300.097910029894
300.097910073234
300.097910079559
300.097910068576
300.097910106294
300.097910113565
300.097910072569
300.097910033475
300.097910007812
300.097910025176
300.097910093407
300.097910067371
300.0979100408
300.097910070149
300.097910082537
300.097910112436
300.097910155403
300.097910157167
300.097910180175
300.097910247401
300.097910286914
300.097910305996
300.097910319407
300.097910319739
300.097910317781
300.097910313259
300.097910308927
300.097910319677
300.097910453139
300.097911444586
300.097918243876
300.097964909006
300.098302517465
300.100796856453
300.11157282723
300.140896543976
300.032604534047
300.024935150318
300.022643306194
300.02192784805
300.021818498728
300.021803359122
300.021801317781
300.021801037633
300.021800997544
300.021801016713
300.021801015789
300.021800984255
300.021800986009
300.021801002072
300.021801016368
300.021801028854
300.021801027331
300.021801017654
300.021801033899
300.021801034863
300.021801024844
300.021801023469
300.021801022623
300.021801028797
300.021801042032
300.021801038558
300.02180103798
300.021801039771
300.021801041168
300.021801052686
300.021801061735
300.02180106387
300.021801070458
300.021801081609
300.021801090459
300.021801100548
300.021801106684
300.02180110655
300.021801104941
300.02180109823
300.021801090356
300.021801091883
300.02180112931
300.021801389548
300.021803202085
300.021816093062
300.021912414434
300.022610576008
300.024958237844
300.034049676859
300.007229291811
300.005208546936
300.004756258734
300.004580631469
300.004551687943
300.004547553045
300.004546988935
300.00454691138
300.004546901173
300.004546906898
300.004546906544
300.004546900402
300.004546902945
300.004546907708
300.00454691107
300.004546911938
300.004546911067
300.004546908961
300.004546911995
300.00454691216
300.004546911414
300.004546913036
300.004546912974
300.004546913395
300.004546916804
300.004546916602
300.004546917281
300.004546916767
300.004546917045
300.004546920213
300.00454692163
300.004546922633
300.004546924285
300.004546925752
300.00454692753
300.004546931007
300.00454693304
300.004546932962
300.004546931676
300.004546930163
300.004546929271
300.004546927829
300.00454693576
300.004546999312
300.004547444342
300.004550676705
300.004575139164
300.004747428769
300.005208139838
300.007669825439
300.001517032136
300.001032001599
300.000946515965
300.00090704059
300.000900055965
300.000899023592
300.000898881026
300.000898861412
300.000898859114
300.000898860646
300.000898860536
300.000898859474
300.000898860295
300.000898861258
300.000898861828
300.000898861935
300.000898862272
300.000898861741
300.000898862059
300.000898862502
300.000898862387
300.000898862961
300.000898862947
300.000898862931
300.000898863701
300.000898863692
300.000898863876
300.000898863715
300.000898863875
300.000898864381
300.000898864663
300.000898865006
300.000898865395
300.00089886559
300.000898865917
300.000898866869
300.000898867421
300.000898867398
300.000898866982
300.000898866705
300.000898866573
300.00089886596
300.000898867608
300.000898882101
300.000898984517
300.000899737516
300.000905453121
300.000944558589
300.001030039171
300.001635143617
300.000304645489
300.000196127463
300.000180183167
300.00017185131
300.000170278418
300.000170037514
300.000170003823
300.000169999182
300.000169998625
300.000169998965
300.000169998939
300.000169998795
300.000169999034
300.000169999231
300.000169999352
300.000169999361
300.000169999504
300.000169999354
300.000169999357
300.000169999511
300.000169999558
300.000169999668
300.000169999661
300.000169999699
300.000169999841
300.000169999836
300.000169999859
300.000169999857
300.000169999906
300.000169999963
300.000170000021
300.000170000096
300.00017000021
300.000170000239
300.000170000277
300.000170000491
300.00017000061
300.00017000061
300.00017000055
300.000170000467
300.000170000413
300.000170000284
300.000170000612
300.000170003738
300.000170026031
300.000170191136
300.00017144253
300.000179787318
300.000195206606
300.000333502835
300.000059020652
300.000036041506
300.000033062379
300.000031384808
300.000031049229
300.000030995935
300.000030988369
300.000030987322
300.000030987192
300.000030987261
300.000030987255
300.000030987242
300.000030987303
300.000030987342
300.000030987367
300.000030987367
300.000030987405
300.000030987368
300.000030987356
300.000030987398
300.000030987421
300.000030987441
300.000030987448
300.000030987461
300.000030987476
300.000030987473
300.000030987487
300.00003098749
300.000030987497
300.000030987509
300.000030987517
300.000030987523
300.000030987555
300.00003098756
300.000030987562
300.000030987606
300.000030987628
300.000030987629
300.000030987623
300.000030987603
300.00003098759
300.000030987564
300.000030987627
300.00003098827
300.000030992893
300.000031027285
300.000031287131
300.00003298328
300.000035731837
300.00006559021
300.000011098778
300.000006443841
300.000005883471
300.000005557845
300.000005489299
300.000005478013
300.000005476381
300.000005476153
300.000005476124
300.000005476138
300.000005476138
300.000005476137
300.000005476149
300.000005476155
300.00000547616
300.00000547616
300.000005476169
300.00000547616
300.000005476157
300.000005476167
300.000005476172
300.000005476176
300.000005476179
300.000005476181
300.000005476181
300.00000547618
300.000005476184
300.000005476185
300.000005476186
300.000005476189
300.000005476189
300.000005476189
300.000005476196
300.000005476197
300.000005476197
300.000005476205
300.000005476209
300.000005476209
300.000005476209
300.000005476205
300.000005476203
300.000005476197
300.00000547621
300.000005476337
300.000005477257
300.000005484114
300.000005535737
300.000005867017
300.000006355602
300.000012513387
300.000002035997
300.000001126814
300.00000102066
300.000000959247
300.000000945737
300.000000943432
300.000000943091
300.000000943043
300.000000943037
300.000000943039
300.000000943039
300.000000943038
300.000000943039
300.00000094304
300.000000943041
300.000000943041
300.000000943042
300.00000094304
300.000000943039
300.000000943041
300.000000943042
300.000000943042
300.000000943043
300.000000943044
300.000000943043
300.000000943042
300.000000943043
300.000000943043
300.000000943043
300.000000943044
300.000000943043
300.000000943043
300.000000943044
300.000000943044
300.000000943044
300.000000943046
300.000000943046
300.000000943046
300.000000943046
300.000000943046
300.000000943045
300.000000943044
300.000000943047
300.000000943072
300.000000943249
300.000000944566
300.000000954449
300.00000101705
300.00000110421
300.000002327173
300.000000366394
300.000000194136
300.000000173734
300.000000162384
300.000000159796
300.000000159339
300.00000015927
300.000000159259
300.000000159257
300.000000159257
300.000000159257
300.000000159256
300.000000159256
300.000000159256
300.000000159255
300.000000159255
300.000000159255
300.000000159254
300.000000159254
300.000000159254
300.000000159254
300.000000159253
300.000000159253
300.000000159253
300.000000159253
300.000000159252
300.000000159252
300.000000159252
300.000000159252
300.000000159252
300.000000159251
300.000000159251
300.000000159251
300.000000159251
300.000000159251
300.000000159251
300.000000159251
300.000000159251
300.000000159251
300.000000159251
300.000000159252
300.000000159252
300.000000159252
300.000000159257
300.000000159291
300.000000159537
300.000000161373
300.00000017291
300.000000188767
300.000000424127
300.000000065601
300.000000033769
300.000000029569
300.000000027468
300.00000002698
300.000000026891
300.000000026877
300.000000026874
300.000000026873
300.000000026873
300.000000026872
300.000000026872
300.000000026871
300.000000026871
300.00000002687
300.00000002687
300.000000026869
300.000000026869
300.000000026868
300.000000026868
300.000000026868
300.000000026867
300.000000026867
300.000000026867
300.000000026866
300.000000026866
300.000000026866
300.000000026865
300.000000026865
300.000000026865
300.000000026865
300.000000026864
300.000000026864
300.000000026864
300.000000026864
300.000000026864
300.000000026864
300.000000026864
300.000000026864
300.000000026864
300.000000026864
300.000000026865
300.000000026865
300.000000026866
300.000000026873
300.000000026918
300.000000027255
300.000000029373
300.000000032557
300.000000076683
300.000000012445
300.000000006659
300.000000005506
300.000000005079
300.000000004985
300.000000004967
300.000000004963
300.000000004962
300.000000004962
300.000000004961
300.00000000496
300.00000000496
300.000000004959
300.000000004959
300.000000004958
300.000000004958
300.000000004957
300.000000004957
300.000000004956
300.000000004956
300.000000004955
300.000000004955
300.000000004955
300.000000004954
300.000000004954
300.000000004953
300.000000004953
300.000000004953
300.000000004953
300.000000004952
300.000000004952
300.000000004952
300.000000004952
300.000000004952
300.000000004951
300.000000004951
300.000000004951
300.000000004951
300.000000004951
300.000000004952
300.000000004952
300.000000004952
300.000000004952
300.000000004953
300.000000004955
300.000000004964
300.000000005028
300.000000005453
300.000000006386
300.000000014503
300.000000003209
300.000000002144
300.000000001559
300.000000001429
300.000000001406
300.000000001402
300.000000001401
300.0000000014
300.000000001399
300.000000001399
300.000000001398
300.000000001397
300.000000001397
300.000000001396
300.000000001396
300.000000001395
300.000000001395
300.000000001394
300.000000001394
300.000000001393
300.000000001393
300.000000001392
300.000000001392
300.000000001391
300.000000001391
300.000000001391
300.00000000139
300.00000000139
300.00000000139
300.000000001389
300.000000001389
300.000000001389
300.000000001389
300.000000001389
300.000000001389
300.000000001388
300.000000001388
300.000000001388
300.000000001389
300.000000001389
300.000000001389
300.000000001389
300.000000001389
300.00000000139
300.000000001391
300.000000001393
300.000000001409
300.000000001537
300.000000002072
300.000000003568
300.000000001629
300.000000001402
300.000000000921
300.000000000843
300.000000000834
300.000000000832
300.000000000831
300.000000000831
300.00000000083
300.000000000829
300.000000000829
300.000000000828
300.000000000827
300.000000000827
300.000000000826
300.000000000826
300.000000000825
300.000000000825
300.000000000824
300.000000000824
300.000000000823
300.000000000823
300.000000000822
300.000000000822
300.000000000822
300.000000000821
300.000000000821
300.00000000082
300.00000000082
300.00000000082
300.00000000082
300.000000000819
300.000000000819
300.000000000819
300.000000000819
300.000000000819
300.000000000819
300.000000000819
300.000000000819
300.000000000819
300.000000000819
300.000000000819
300.00000000082
300.00000000082
300.000000000821
300.000000000822
300.00000000083
300.000000000906
300.000000001371
300.000000001675
300.000000001363
300.000000001282
300.00000000082
300.000000000751
300.000000000745
300.000000000743
300.000000000742
300.000000000742
300.000000000741
300.00000000074
300.00000000074
300.000000000739
300.000000000738
300.000000000738
300.000000000737
300.000000000737
300.000000000736
300.000000000736
300.000000000735
300.000000000735
300.000000000734
300.000000000734
300.000000000733
300.000000000733
300.000000000732
300.000000000732
300.000000000732
300.000000000731
300.000000000731
300.000000000731
300.00000000073
300.00000000073
300.00000000073
300.00000000073
300.00000000073
300.00000000073
300.000000000729
300.000000000729
300.00000000073
300.00000000073
300.00000000073
300.00000000073
300.00000000073
300.000000000731
300.000000000731
300.000000000732
300.000000000739
300.000000000806
300.000000001259
300.000000001352
300.00000000132
300.000000001264
300.000000000805
300.000000000738
300.000000000731
300.00000000073
300.000000000729
300.000000000729
300.000000000728
300.000000000727
300.000000000727
300.000000000726
300.000000000725
300.000000000725
300.000000000724
300.000000000724
300.000000000723
300.000000000723
300.000000000722
300.000000000721
300.000000000721
300.00000000072
300.00000000072
300.00000000072
300.000000000719
300.000000000719
300.000000000718
300.000000000718
300.000000000718
300.000000000717
300.000000000717
300.000000000717
300.000000000717
300.000000000717
300.000000000716
300.000000000716
300.000000000716
300.000000000716
300.000000000716
300.000000000716
300.000000000717
300.000000000717
300.000000000717
300.000000000717
300.000000000718
300.000000000719
300.000000000725
300.000000000791
300.000000001241
300.000000001298
300.000000001313
300.000000001262
300.000000000804
300.000000000736
300.00000000073
300.000000000729
300.000000000728
300.000000000728
300.000000000727
300.000000000726
300.000000000725
300.000000000725
300.000000000724
300.000000000724
300.000000000723
300.000000000722
300.000000000722
300.000000000721
300.000000000721
300.00000000072
300.00000000072
300.000000000719
300.000000000719
300.000000000718
300.000000000718
300.000000000717
300.000000000717
300.000000000717
300.000000000716
300.000000000716
300.000000000716
300.000000000715
300.000000000715
300.000000000715
300.000000000715
300.000000000715
300.000000000715
300.000000000715
300.000000000715
300.000000000715
300.000000000715
300.000000000715
300.000000000715
300.000000000716
300.000000000716
300.000000000717
300.000000000723
300.000000000789
300.000000001239
300.00000000129
300.000000001313
300.000000001263
300.000000000804
300.000000000737
300.00000000073
300.000000000729
300.000000000729
300.000000000728
300.000000000727
300.000000000727
300.000000000726
300.000000000725
300.000000000725
300.000000000724
300.000000000723
300.000000000723
300.000000000722
300.000000000722
300.000000000721
300.00000000072
300.00000000072
300.000000000719
300.000000000719
300.000000000719
300.000000000718
300.000000000718
300.000000000717
300.000000000717
300.000000000717
300.000000000716
300.000000000716
300.000000000716
300.000000000715
300.000000000715
300.000000000715
300.000000000715
300.000000000715
300.000000000715
300.000000000715
300.000000000715
300.000000000715
300.000000000715
300.000000000716
300.000000000716
300.000000000716
300.000000000717
300.000000000723
300.000000000789
300.000000001239
300.000000001289
300.000000001314
300.000000001264
300.000000000804
300.000000000737
300.000000000731
300.00000000073
300.000000000729
300.000000000729
300.000000000728
300.000000000727
300.000000000727
300.000000000726
300.000000000725
300.000000000725
300.000000000724
300.000000000723
300.000000000723
300.000000000722
300.000000000722
300.000000000721
300.00000000072
300.00000000072
300.00000000072
300.000000000719
300.000000000719
300.000000000718
300.000000000718
300.000000000717
300.000000000717
300.000000000717
300.000000000716
300.000000000716
300.000000000716
300.000000000716
300.000000000716
300.000000000715
300.000000000715
300.000000000715
300.000000000715
300.000000000715
300.000000000716
300.000000000716
300.000000000716
300.000000000716
300.000000000717
300.000000000717
300.000000000723
300.000000000789
300.000000001239
300.000000001289
300.000000001315
300.000000001264
300.000000000805
300.000000000738
300.000000000731
300.00000000073
300.00000000073
300.000000000729
300.000000000728
300.000000000728
300.000000000727
300.000000000726
300.000000000726
300.000000000725
300.000000000724
300.000000000724
300.000000000723
300.000000000723
300.000000000722
300.000000000721
300.000000000721
300.00000000072
300.00000000072
300.000000000719
300.000000000719
300.000000000719
300.000000000718
300.000000000718
300.000000000717
300.000000000717
300.000000000717
300.000000000717
300.000000000716
300.000000000716
300.000000000716
300.000000000716
300.000000000716
300.000000000716
300.000000000716
300.000000000716
300.000000000716
300.000000000716
300.000000000716
300.000000000717
300.000000000717
300.000000000718
300.000000000723
300.000000000789
300.00000000124
300.000000001289
300.000000001315
300.000000001265
300.000000000805
300.000000000738
300.000000000732
300.000000000731
300.00000000073
300.000000000729
300.000000000729
300.000000000728
300.000000000727
300.000000000727
300.000000000726
300.000000000725
300.000000000725
300.000000000724
300.000000000724
300.000000000723
300.000000000722
300.000000000722
300.000000000721
300.000000000721
300.00000000072
300.00000000072
300.000000000719
300.000000000719
300.000000000718
300.000000000718
300.000000000718
300.000000000717
300.000000000717
300.000000000717
300.000000000717
300.000000000716
300.000000000716
300.000000000716
300.000000000716
300.000000000716
300.000000000716
300.000000000716
300.000000000716
300.000000000716
300.000000000717
300.000000000717
300.000000000717
300.000000000718
300.000000000724
300.000000000789
300.00000000124
300.000000001289
300.000000001315
300.000000001265
300.000000000805
300.000000000738
300.000000000732
300.000000000731
300.00000000073
300.00000000073
300.000000000729
300.000000000728
300.000000000728
300.000000000727
300.000000000726
300.000000000726
300.000000000725
300.000000000724
300.000000000724
300.000000000723
300.000000000723
300.000000000722
300.000000000721
300.000000000721
300.00000000072
300.00000000072
300.000000000719
300.000000000719
300.000000000719
300.000000000718
300.000000000718
300.000000000717
300.000000000717
300.000000000717
300.000000000717
300.000000000717
300.000000000716
300.000000000716
300.000000000716
300.000000000716
300.000000000716
300.000000000716
300.000000000716
300.000000000717
300.000000000717
300.000000000717
300.000000000717
300.000000000718
300.000000000724
300.000000000789
300.00000000124
300.000000001289
300.000000001315
300.000000001265
300.000000000805
300.000000000738
300.000000000732
300.000000000731
300.00000000073
300.00000000073
300.000000000729
300.000000000728
300.000000000728
300.000000000727
300.000000000726
300.000000000726
300.000000000725
300.000000000724
300.000000000724
300.000000000723
300.000000000723
300.000000000722
300.000000000721
300.000000000721
300.00000000072
300.00000000072
300.000000000719
300.000000000719
300.000000000719
300.000000000718
300.000000000718
300.000000000718
300.000000000717
300.000000000717
300.000000000717
300.000000000717
300.000000000716
300.000000000716
300.000000000716
300.000000000716
300.000000000716
300.000000000716
300.000000000716
300.000000000717
300.000000000717
300.000000000717
300.000000000717
300.000000000718
300.000000000724
300.000000000789
300.00000000124
300.000000001289
300.000000001315
300.000000001265
300.000000000805
300.000000000738
300.000000000732
300.000000000731
300.00000000073
300.00000000073
300.000000000729
300.000000000728
300.000000000728
300.000000000727
300.000000000726
300.000000000726
300.000000000725
300.000000000724
300.000000000724
300.000000000723
300.000000000722
300.000000000722
300.000000000721
300.000000000721
300.00000000072
300.00000000072
300.000000000719
300.000000000719
300.000000000719
300.000000000718
300.000000000718
300.000000000717
300.000000000717
300.000000000717
300.000000000717
300.000000000716
300.000000000716
300.000000000716
300.000000000716
300.000000000716
300.000000000716
300.000000000716
300.000000000716
300.000000000716
300.000000000717
300.000000000717
300.000000000717
300.000000000718
300.000000000724
300.000000000789
300.00000000124
300.000000001289
300.000000001315
300.000000001265
300.000000000805
300.000000000738
300.000000000732
300.000000000731
300.00000000073
300.000000000729
300.000000000729
300.000000000728
300.000000000727
300.000000000727
300.000000000726
300.000000000725
300.000000000725
300.000000000724
300.000000000723
300.000000000723
300.000000000722
300.000000000722
300.000000000721
300.000000000721
300.00000000072
300.00000000072
300.000000000719
300.000000000719
300.000000000718
300.000000000718
300.000000000718
300.000000000717
300.000000000717
300.000000000717
300.000000000717
300.000000000716
300.000000000716
300.000000000716
300.000000000716
300.000000000716
300.000000000716
300.000000000716
300.000000000716
300.000000000716
300.000000000717
300.000000000717
300.000000000717
300.000000000718
300.000000000724
300.000000000789
300.00000000124
300.000000001289
300.000000001314
300.000000001264
300.000000000805
300.000000000737
300.000000000731
300.00000000073
300.00000000073
300.000000000729
300.000000000728
300.000000000728
300.000000000727
300.000000000726
300.000000000726
300.000000000725
300.000000000724
300.000000000724
300.000000000723
300.000000000722
300.000000000722
300.000000000721
300.000000000721
300.00000000072
300.00000000072
300.000000000719
300.000000000719
300.000000000718
300.000000000718
300.000000000718
300.000000000717
300.000000000717
300.000000000717
300.000000000716
300.000000000716
300.000000000716
300.000000000716
300.000000000716
300.000000000716
300.000000000716
300.000000000716
300.000000000716
300.000000000716
300.000000000716
300.000000000716
300.000000000717
300.000000000717
300.000000000717
300.000000000723
300.000000000789
300.000000001239
300.000000001289
300.000000001313
300.000000001263
300.000000000804
300.000000000737
300.000000000731
300.00000000073
300.000000000729
300.000000000728
300.000000000728
300.000000000727
300.000000000726
300.000000000726
300.000000000725
300.000000000724
300.000000000724
300.000000000723
300.000000000723
300.000000000722
300.000000000721
300.000000000721
300.00000000072
300.00000000072
300.000000000719
300.000000000719
300.000000000718
300.000000000718
300.000000000718
300.000000000717
300.000000000717
300.000000000717
300.000000000716
300.000000000716
300.000000000716
300.000000000716
300.000000000715
300.000000000715
300.000000000715
300.000000000715
300.000000000715
300.000000000715
300.000000000715
300.000000000716
300.000000000716
300.000000000716
300.000000000716
300.000000000717
300.000000000723
300.000000000789
300.000000001239
300.000000001288
300.000000001313
300.000000001262
300.000000000804
300.000000000736
300.00000000073
300.000000000729
300.000000000728
300.000000000728
300.000000000727
300.000000000726
300.000000000726
300.000000000725
300.000000000724
300.000000000724
300.000000000723
300.000000000723
300.000000000722
300.000000000721
300.000000000721
300.00000000072
300.00000000072
300.000000000719
300.000000000719
300.000000000718
300.000000000718
300.000000000717
300.000000000717
300.000000000717
300.000000000716
300.000000000716
300.000000000716
300.000000000715
300.000000000715
300.000000000715
300.000000000715
300.000000000715
300.000000000715
300.000000000715
300.000000000715
300.000000000715
300.000000000715
300.000000000715
300.000000000715
300.000000000716
300.000000000716
300.000000000717
300.000000000723
300.000000000788
300.000000001238
300.000000001288
300.000000001311
300.000000001261
300.000000000803
300.000000000736
300.000000000729
300.000000000728
300.000000000728
300.000000000727
300.000000000726
300.000000000726
300.000000000725
300.000000000724
300.000000000724
300.000000000723
300.000000000722
300.000000000722
300.000000000721
300.000000000721
300.00000000072
300.00000000072
300.000000000719
300.000000000719
300.000000000718
300.000000000718
300.000000000717
300.000000000717
300.000000000716
300.000000000716
300.000000000716
300.000000000715
300.000000000715
300.000000000715
300.000000000715
300.000000000715
300.000000000714
300.000000000714
300.000000000714
300.000000000714
300.000000000714
300.000000000714
300.000000000714
300.000000000715
300.000000000715
300.000000000715
300.000000000716
300.000000000716
300.000000000722
300.000000000788
300.000000001238
300.000000001287
300.00000000131
300.00000000126
300.000000000802
300.000000000735
300.000000000729
300.000000000727
300.000000000727
300.000000000726
300.000000000725
300.000000000725
300.000000000724
300.000000000723
300.000000000723
300.000000000722
300.000000000721
300.000000000721
300.00000000072
300.00000000072
300.000000000719
300.000000000719
300.000000000718
300.000000000718
300.000000000717
300.000000000717
300.000000000716
300.000000000716
300.000000000716
300.000000000715
300.000000000715
300.000000000715
300.000000000714
300.000000000714
300.000000000714
300.000000000714
300.000000000714
300.000000000714
300.000000000713
300.000000000713
300.000000000714
300.000000000714
300.000000000714
300.000000000714
300.000000000714
300.000000000715
300.000000000715
300.000000000716
300.000000000722
300.000000000787
300.000000001237
300.000000001286
300.000000001309
300.000000001259
300.000000000801
300.000000000734
300.000000000728
300.000000000726
300.000000000726
300.000000000725
300.000000000724
300.000000000724
300.000000000723
300.000000000722
300.000000000722
300.000000000721
300.00000000072
300.00000000072
300.000000000719
300.000000000719
300.000000000718
300.000000000718
300.000000000717
300.000000000717
300.000000000716
300.000000000716
300.000000000715
300.000000000715
300.000000000715
300.000000000714
300.000000000714
300.000000000714
300.000000000714
300.000000000713
300.000000000713
300.000000000713
300.000000000713
300.000000000713
300.000000000713
300.000000000713
300.000000000713
300.000000000713
300.000000000713
300.000000000713
300.000000000714
300.000000000714
300.000000000714
300.000000000715
300.000000000721
300.000000000787
300.000000001236
300.000000001286
300.000000001307
300.000000001257
300.0000000008
300.000000000733
300.000000000727
300.000000000725
300.000000000724
300.000000000724
300.000000000723
300.000000000722
300.000000000722
300.000000000721
300.00000000072
300.00000000072
300.000000000719
300.000000000719
300.000000000718
300.000000000718
300.000000000717
300.000000000717
300.000000000716
300.000000000716
300.000000000715
300.000000000715
300.000000000715
300.000000000714
300.000000000714
300.000000000713
300.000000000713
300.000000000713
300.000000000713
300.000000000712
300.000000000712
300.000000000712
300.000000000712
300.000000000712
300.000000000712
300.000000000712
300.000000000712
300.000000000712
300.000000000712
300.000000000712
300.000000000713
300.000000000713
300.000000000714
300.000000000715
300.000000000721
300.000000000786
300.000000001235
300.000000001285
300.000000001305
300.000000001255
300.000000000799
300.000000000732
300.000000000725
300.000000000724
300.000000000723
300.000000000722
300.000000000722
300.000000000721
300.00000000072
300.00000000072
300.000000000719
300.000000000718
300.000000000718
300.000000000717
300.000000000717
300.000000000716
300.000000000716
300.000000000715
300.000000000715
300.000000000715
300.000000000714
300.000000000714
300.000000000713
300.000000000713
300.000000000713
300.000000000712
300.000000000712
300.000000000712
300.000000000712
300.000000000711
300.000000000711
300.000000000711
300.000000000711