/*--------------------------------*- C++ -*----------------------------------*\
  =========                 |
  \\      /  F ield         | OpenFOAM: The Open Source CFD Toolbox
   \\    /   O peration     | Website:  https://openfoam.org
    \\  /    A nd           | Version:  10
     \\/     M anipulation  |
\*---------------------------------------------------------------------------*/
FoamFile
{
    format      ascii;
    class       volVectorField;
    location    "1";
    object      U;
}
// * * * * * * * * * * * * * * * * * * * * * * * * * * * * * * * * * * * * * //

dimensions      [0 1 -1 0 0 0 0];

internalField   nonuniform List<vector> 
2500
(
(-4.08015713973431e-06 1.82225853349224e-05 7.42456359895423e-25)
(-4.44745371919533e-06 2.21919171005686e-05 8.43852987268117e-24)
(-3.4481334365146e-06 2.35639784741587e-05 7.95356421646196e-25)
(-3.07374674647943e-06 2.38486870631414e-05 -5.58357368121515e-26)
(-2.45706264815079e-06 2.39305032655172e-05 -3.13377090272266e-24)
(-1.9490800183874e-06 2.39440882176846e-05 4.99352183514964e-27)
(-1.48304502736658e-06 2.39544403314027e-05 5.62421588886052e-29)
(-1.07317356316518e-06 2.39637756741712e-05 6.2151464809146e-27)
(-7.13961793713084e-07 2.39721588059191e-05 5.1354001858113e-25)
(-3.98621143288873e-07 2.39795579472586e-05 2.42566425258742e-24)
(-1.21180925864934e-07 2.39860195224802e-05 1.14514926771884e-24)
(1.23046500618314e-07 2.39916992478102e-05 2.11731899723568e-24)
(3.38127683521767e-07 2.39967264978754e-05 9.0970599836693e-24)
(5.2744838592708e-07 2.40012061264649e-05 1.14527193592656e-24)
(6.93663998509789e-07 2.40052096044973e-05 1.32926508569147e-24)
(8.39126952541751e-07 2.40087930020089e-05 8.25249415138442e-25)
(9.6589991834097e-07 2.40120180724076e-05 1.72508091771867e-24)
(1.07578376084902e-06 2.4014920115341e-05 1.73156448126397e-24)
(1.17038628284458e-06 2.40175177310583e-05 1.17941892450038e-24)
(1.25120136223958e-06 2.40198139370794e-05 7.29998156766692e-24)
(1.31962534226521e-06 2.40218791104161e-05 7.69908637578504e-25)
(1.37695560679092e-06 2.40237379302138e-05 4.92292145265102e-25)
(1.42445957662952e-06 2.40253155053736e-05 1.30944182555649e-24)
(1.46335527172052e-06 2.40266456069352e-05 4.21100382783777e-25)
(1.49481293072258e-06 2.40277561210337e-05 8.4100822157461e-25)
(1.52002918152456e-06 2.40286175429971e-05 7.22166882175089e-24)
(1.54019091987758e-06 2.40292690488932e-05 8.42073659498936e-25)
(1.55646730931451e-06 2.40296962516405e-05 3.49919282655155e-25)
(1.57005621603799e-06 2.4029879840383e-05 -4.59622769369765e-24)
(1.58219179125673e-06 2.40298269857474e-05 4.81815613476806e-25)
(1.59415530679993e-06 2.40295492911734e-05 -6.49708319465082e-26)
(1.60728374292094e-06 2.40289986584734e-05 7.110665652061e-26)
(1.623028996778e-06 2.40281602338791e-05 -7.23391133834888e-26)
(1.64297182744617e-06 2.4027017566258e-05 -6.5150565533455e-26)
(1.66885022426903e-06 2.40255446154097e-05 4.69152554694098e-25)
(1.7026250411695e-06 2.40236901281922e-05 -5.35987822321106e-24)
(1.74656412788721e-06 2.40213996993441e-05 -6.81201149761093e-24)
(1.80328256821012e-06 2.40185938375422e-05 -7.57534110286324e-25)
(1.87587501815442e-06 2.40151943384526e-05 -2.1420817300959e-26)
(1.96805397221242e-06 2.40110674949483e-05 1.49660623838211e-24)
(2.08436943289426e-06 2.40060668975908e-05 -2.68488314395785e-24)
(2.23043401824258e-06 2.40000099075867e-05 4.2143773228911e-24)
(2.4132358719098e-06 2.39927235574329e-05 2.37756662431169e-24)
(2.64096106121802e-06 2.39840435882536e-05 -3.04724115877825e-24)
(2.92123130541065e-06 2.39735449885241e-05 -7.53532265049468e-24)
(3.24004886309755e-06 2.39583968045098e-05 3.95719778295498e-24)
(3.65277813661972e-06 2.38747733724705e-05 4.57741840251897e-24)
(3.84583508958339e-06 2.35814988560518e-05 -1.5582166219066e-24)
(4.71782554431635e-06 2.21843176032757e-05 4.78109228673461e-24)
(4.17810791245229e-06 1.82593405854799e-05 -1.07957082350699e-24)
(-6.25788228351814e-06 5.93093885707837e-05 2.39875587174348e-25)
(-2.82864902793883e-06 6.4749423001116e-05 9.20182763236156e-24)
(-4.03539536436593e-06 6.21381938274391e-05 2.50799463729641e-25)
(-4.51022084566552e-06 6.16937574159118e-05 -1.01552758527131e-24)
(-3.84073555025209e-06 6.15762655231409e-05 -1.79868248476635e-23)
(-3.19016410142693e-06 6.15815894130195e-05 9.82567032130598e-25)
(-2.55921710393186e-06 6.16262133295961e-05 3.72387564389102e-26)
(-2.00819849104564e-06 6.16731136505687e-05 5.01417618968811e-26)
(-1.53073641425487e-06 6.17141258881695e-05 2.96238077370227e-24)
(-1.11572402654557e-06 6.17481774471383e-05 4.33824395945202e-24)
(-7.53409672034496e-07 6.17764286008619e-05 -1.7204355911243e-24)
(-4.36074643883116e-07 6.18000000197026e-05 4.20105907274552e-24)
(-1.57468548190836e-07 6.1819433620952e-05 6.3166513348508e-24)
(8.74777683487614e-08 6.18358314149407e-05 -2.55866441386325e-24)
(3.02839319702873e-07 6.18497341759363e-05 3.83226862759911e-24)
(4.92073600964584e-07 6.18613760930924e-05 1.52868849392838e-25)
(6.58147428589145e-07 6.18712075115692e-05 2.25803482391496e-24)
(8.03636496343925e-07 6.18794585903338e-05 3.94755448574728e-24)
(9.3081235304798e-07 6.18863158549276e-05 2.68907846513642e-25)
(1.04173322438021e-06 6.1891937286027e-05 6.8955078317148e-24)
(1.13830259438347e-06 6.18964237739491e-05 2.41718263555636e-25)
(1.22227660753455e-06 6.18998777252183e-05 2.90411504762797e-24)
(1.29530680877158e-06 6.19023796556704e-05 2.23067477047803e-24)
(1.35903446374087e-06 6.1903928438111e-05 1.24927023987397e-25)
(1.41500552184868e-06 6.19045833346238e-05 2.13049300076609e-24)
(1.4647451306853e-06 6.19043927150308e-05 4.15677273818133e-24)
(1.50979329478074e-06 6.19033445798951e-05 2.09061552713072e-24)
(1.55166128854764e-06 6.19014231731113e-05 -2.70262448275701e-24)
(1.59190455478086e-06 6.18986248870386e-05 2.18227816293397e-24)
(1.63217643684911e-06 6.18949148754124e-05 2.02357622546539e-24)
(1.67415159438598e-06 6.18902344729599e-05 -2.72910704618385e-24)
(1.71957385310926e-06 6.188448418297e-05 1.88875581107419e-24)
(1.77042454670527e-06 6.18775911624978e-05 -2.83765232989321e-24)
(1.82884814669762e-06 6.18694053258112e-05 -1.98844841478415e-24)
(1.89722168379203e-06 6.18597387331788e-05 2.01407742933246e-24)
(1.97824774003068e-06 6.18483582065871e-05 2.08819009283984e-24)
(2.0750828579374e-06 6.18349464488215e-05 -3.98208891233427e-24)
(2.19143067198647e-06 6.18190845195447e-05 -1.78685245806972e-25)
(2.33171840893337e-06 6.18002322123932e-05 -1.31826396267053e-24)
(2.50133645215885e-06 6.17776128681453e-05 1.18428591411375e-23)
(2.70702915861842e-06 6.17502651125217e-05 -1.73125407909244e-24)
(2.95729397104997e-06 6.17169421210947e-05 -1.14187588455378e-24)
(3.26290788370264e-06 6.16765466484491e-05 2.45717224289159e-23)
(3.63638915657231e-06 6.16295830283955e-05 -1.36471405216507e-24)
(4.08596416058135e-06 6.15840588498383e-05 -2.39755897452746e-24)
(4.55092035735951e-06 6.15798906469494e-05 3.05657650773038e-23)
(5.01635071702239e-06 6.17071950390901e-05 -3.82102905627027e-25)
(4.37452905431922e-06 6.21101196820561e-05 -3.17063564182659e-25)
(3.12225817081762e-06 6.46855414865798e-05 3.53098408841869e-23)
(6.36106080898152e-06 5.91640807801696e-05 -1.664460242142e-25)
(-6.69713575265142e-06 6.63741665614737e-05 1.09317265720464e-24)
(-3.41417817139479e-06 6.12365655295213e-05 2.9532288684467e-23)
(-4.51151508842915e-06 5.11118819984228e-05 1.13176246058556e-24)
(-4.47094793669774e-06 4.91604511046645e-05 5.94091746048099e-25)
(-3.62409613023152e-06 4.86111637356229e-05 1.55287752984753e-23)
(-3.00479858233837e-06 4.85855100930427e-05 1.51910579837254e-23)
(-2.45202382579227e-06 4.86633703710278e-05 4.88736198078591e-25)
(-1.98445877125332e-06 4.87460061350355e-05 6.89568719581134e-25)
(-1.58483191904347e-06 4.88169534676912e-05 1.96619096374111e-23)
(-1.24007120559437e-06 4.88754464769236e-05 1.52874933004026e-23)
(-9.40564657387657e-07 4.8923376865634e-05 -1.40987503286415e-23)
(-6.78911083553104e-07 4.89629759157759e-05 6.44405607203139e-25)
(-4.49490323238952e-07 4.8995911653834e-05 1.45787604258077e-23)
(-2.47883228953195e-07 4.90235176614541e-05 -1.82724292233171e-23)
(-7.03915614528272e-08 4.90467842366329e-05 1.5737306523393e-23)
(8.60442711054733e-08 4.90664277661136e-05 4.13114469726319e-25)
(2.23970047685559e-07 4.90830322305682e-05 8.98829160368206e-25)
(3.45629276716327e-07 4.90970018228022e-05 1.63995880015898e-23)
(4.52989585377096e-07 4.91086699386199e-05 1.09410990785436e-24)
(5.47823542407182e-07 4.91182823656544e-05 1.98290948902926e-23)
(6.31738100925699e-07 4.91260106069876e-05 1.35884211090762e-24)
(7.06222588821778e-07 4.91320437853557e-05 1.91808288988992e-23)
(7.72664320742347e-07 4.91365444487817e-05 1.16943868204402e-24)
(8.32404983393475e-07 4.913950468338e-05 4.86923007218552e-25)
(8.8676989323739e-07 4.91409981357978e-05 1.46110398094684e-23)
(9.37000910911258e-07 4.91410872561158e-05 1.58031855737507e-24)
(9.84344460503872e-07 4.9139749590797e-05 1.39552005801451e-23)
(1.03008907970764e-06 4.91369809504756e-05 -1.86788183521484e-23)
(1.07551100984403e-06 4.91327567852685e-05 2.9002593113219e-25)
(1.12195713339107e-06 4.91270224326516e-05 1.39491153176384e-23)
(1.17084362948752e-06 4.91196213835981e-05 -1.82234392220305e-23)
(1.22365090145778e-06 4.9110452576838e-05 1.32461246040058e-23)
(1.28202078547899e-06 4.90993600332591e-05 -1.91873699669642e-23)
(1.34776119974029e-06 4.90860764192812e-05 -1.4795229717279e-23)
(1.42290053518415e-06 4.90702881807128e-05 1.41244003803911e-23)
(1.50973653730583e-06 4.90515696007485e-05 9.5000796997509e-25)
(1.61097646085051e-06 4.90293676792496e-05 -6.29004688394524e-25)
(1.729799935478e-06 4.90029680212532e-05 -4.74579034257815e-25)
(1.87002025136777e-06 4.89714149682497e-05 -1.40190759478006e-23)
(2.0363423577021e-06 4.89333588614473e-05 1.654917460293e-23)
(2.23470882296164e-06 4.88870349953074e-05 2.13844920653965e-25)
(2.47276276864601e-06 4.88301797513648e-05 9.07325743564893e-26)
(2.76075445230341e-06 4.87603587923348e-05 1.86707888569055e-23)
(3.11265060884657e-06 4.86782082745687e-05 8.51226992722489e-26)
(3.54671880804058e-06 4.86019127862801e-05 4.26066076477501e-26)
(4.04335114252495e-06 4.86386310611602e-05 2.11073826766494e-23)
(4.74617217187388e-06 4.92146902554646e-05 2.1962696351459e-25)
(4.7077781445888e-06 5.10860862302033e-05 8.13270634667151e-25)
(3.51979407619496e-06 6.12085171680192e-05 3.54575232972592e-23)
(6.63865602834836e-06 6.61716314694921e-05 1.39135342271732e-25)
(-3.45800184319469e-06 5.42951478028048e-05 3.66985488772064e-25)
(-4.42243049060498e-06 4.500314349059e-05 1.36228485464464e-23)
(-5.01444865162804e-06 3.53198611349897e-05 3.66837169085133e-25)
(-4.26617502701004e-06 3.39279615571457e-05 4.60348827510198e-26)
(-3.33735821125393e-06 3.34301747298414e-05 2.29351071248319e-24)
(-2.72755527010304e-06 3.3471745182381e-05 1.84543241596695e-24)
(-2.22670220008974e-06 3.35999450829969e-05 4.62703395459509e-26)
(-1.81265948520486e-06 3.37188044602399e-05 4.69324773041202e-26)
(-1.46140160454675e-06 3.38167311007049e-05 2.68273817326379e-24)
(-1.15886894076388e-06 3.38960372382452e-05 4.74591412825479e-24)
(-8.95937039731511e-07 3.3960575166939e-05 -1.59663509444173e-24)
(-6.6603163010589e-07 3.40135619676795e-05 3.03204616415349e-24)
(-4.64247352353811e-07 3.40573634151356e-05 4.78856323417004e-24)
(-2.86709182242471e-07 3.40938393579673e-05 -2.3531068041361e-24)
(-1.30213278266007e-07 3.41243973241952e-05 4.44814028782697e-24)
(7.90640023395927e-09 3.41499998656568e-05 1.54064738872501e-25)
(1.29891691011016e-07 3.41714371437532e-05 3.03209875769618e-24)
(2.37712771110065e-07 3.41892975075401e-05 4.56057133079661e-24)
(3.33106202778984e-07 3.42040412246724e-05 1.99578040599574e-25)
(4.17637702958835e-07 3.42160123472477e-05 7.04688193513099e-24)
(4.92724713264818e-07 3.42254893219125e-05 1.68397310973175e-25)
(5.59689341019255e-07 3.42326594201816e-05 2.62877401011533e-24)
(6.19763881901294e-07 3.42376976165844e-05 3.00022521659856e-24)
(6.74134590045402e-07 3.42407343045738e-05 1.22187124937006e-25)
(7.23967843398474e-07 3.42418469137247e-05 1.86968600280229e-24)
(7.70361714280032e-07 3.42410402921145e-05 3.04641809749415e-24)
(8.14424633683077e-07 3.42383724279237e-05 1.83253686569087e-24)
(8.57291808166297e-07 3.42338006522665e-05 -2.42914770289108e-24)
(9.00094219119019e-07 3.4227276145444e-05 2.95542437081442e-24)
(9.44016059653698e-07 3.42187203695862e-05 1.83184237267836e-24)
(9.90309317071711e-07 3.42079770487086e-05 -2.45967696210992e-24)
(1.04029020682304e-06 3.41948628764479e-05 1.70127372904797e-24)
(1.09539930937785e-06 3.4179142931038e-05 -2.56044437729167e-24)
(1.15722720653935e-06 3.41604806897439e-05 -1.79301329516311e-24)
(1.22755615861433e-06 3.41384417665392e-05 1.82275188710371e-24)
(1.30839749811209e-06 3.41124581294341e-05 2.92421335083473e-24)
(1.40212385084312e-06 3.40817527446537e-05 -2.87871559504884e-24)
(1.5114893489946e-06 3.40453822383836e-05 -1.20781756896104e-25)
(1.63978330079108e-06 3.40020097619786e-05 -1.74323846164606e-24)
(1.79108177649389e-06 3.39497377283782e-05 2.01707816141405e-24)
(1.97051100311063e-06 3.38861032598821e-05 -2.60515992414057e-24)
(2.18475931148485e-06 3.38077713248519e-05 -2.95264312673179e-24)
(2.44317968295989e-06 3.37106475732384e-05 1.91919671135262e-24)
(2.75992650600705e-06 3.35920237385078e-05 -2.98324695897835e-24)
(3.15853539178884e-06 3.3464244024889e-05 -2.9827835138985e-24)
(3.65881182616586e-06 3.34284946982219e-05 2.15273882211292e-24)
(4.45869261142504e-06 3.39338529454135e-05 -2.99758410402414e-24)
(5.17583923509377e-06 3.52124839851596e-05 -4.65583743013554e-24)
(4.53723512617251e-06 4.49246662836828e-05 4.88956870206735e-24)
(3.41586707249221e-06 5.43031681651621e-05 -8.2200897581198e-24)
(-1.64710768368472e-06 4.92556533178089e-05 2.68566849407317e-26)
(-4.39591315799885e-06 3.9410619240456e-05 1.4484682617503e-24)
(-4.84904548535838e-06 2.9736844232885e-05 2.69959924161246e-26)
(-3.99744378394004e-06 2.85980803328552e-05 -2.47090178797551e-26)
(-3.13551255947932e-06 2.82440820058933e-05 -6.76329144062387e-25)
(-2.56240928177037e-06 2.83726746062821e-05 1.05894867657986e-25)
(-2.10233979721276e-06 2.8554601018263e-05 1.10233956675089e-27)
(-1.72230522199091e-06 2.87086898921098e-05 1.42946386895999e-27)
(-1.3994594315791e-06 2.88318050247293e-05 1.36996674476375e-25)
(-1.12069343045967e-06 2.89302679920583e-05 4.367501591511e-25)
(-8.77746246088037e-07 2.90098606198453e-05 -1.17245343636056e-25)
(-6.64781446016587e-07 2.90748820639976e-05 3.04144089800889e-25)
(-4.77454263832955e-07 2.91284447222343e-05 4.33191704428115e-25)
(-3.12306888663453e-07 2.9172877473373e-05 -1.15592259153878e-25)
(-1.66480798375389e-07 2.92099015664386e-05 3.41193722753217e-25)
(-3.75665069407905e-08 2.92407641878086e-05 1.20734458675681e-26)
(7.64874602143494e-08 2.92664369617071e-05 3.05434688697463e-25)
(1.77486742909032e-07 2.92876590859272e-05 3.46479979803347e-25)
(2.67032303403825e-07 2.9305007511041e-05 1.27868651670864e-26)
(3.46578762482917e-07 2.93189116603062e-05 4.14107881703383e-25)
(4.17441814088451e-07 2.9329723224369e-05 6.82297883644407e-27)
(4.80850001567604e-07 2.93376988745072e-05 1.19434783785465e-25)
(5.37966690441928e-07 2.93430450197731e-05 2.98199334963945e-25)
(5.89897498340248e-07 2.93459156207751e-05 6.03936566084035e-27)
(6.37715041135545e-07 2.93464132719776e-05 1.19307812360753e-25)
(6.82465000294678e-07 2.93445672555177e-05 2.99586420066453e-25)
(7.25182556667467e-07 2.93404277415729e-05 1.09157934446484e-25)
(7.66917577636912e-07 2.93339545864477e-05 -1.07885268506265e-25)
(8.08739318987695e-07 2.93250795639943e-05 2.98158099841898e-25)
(8.51746321449119e-07 2.93136945377229e-05 1.19967286879314e-25)
(8.97103202936075e-07 2.9299631076159e-05 -1.12491680181692e-25)
(9.46039901252196e-07 2.92826408639017e-05 1.12494998412048e-25)
(9.99896233075404e-07 2.92624340586206e-05 -1.04548332349496e-25)
(1.06013623764904e-06 2.92385978359688e-05 -1.0863367885774e-25)
(1.12840138477499e-06 2.92105819655053e-05 1.13179408561136e-25)
(1.20654131583916e-06 2.91776881717814e-05 2.9349174064828e-25)
(1.29670164042812e-06 2.91389659086291e-05 -2.92777517823945e-25)
(1.4013663085787e-06 2.9093224061031e-05 -5.06300931653331e-27)
(1.52348426774131e-06 2.90388133766006e-05 -7.23545746698677e-26)
(1.66664157539018e-06 2.89733773508106e-05 9.14948261915833e-25)
(1.8353361789675e-06 2.88937835584489e-05 -1.56766272196723e-25)
(2.03542154844711e-06 2.87956618819034e-05 -2.7677942898457e-25)
(2.27510796475387e-06 2.86730520105617e-05 7.76608402966642e-25)
(2.5670725380994e-06 2.8519468575141e-05 -2.81937756848823e-25)
(2.93289036165777e-06 2.83385822255088e-05 -2.76474639437189e-25)
(3.40327577434622e-06 2.82133441253302e-05 9.11171948333654e-25)
(4.14723493823636e-06 2.85547242833526e-05 -2.75349307023131e-25)
(4.98684587148311e-06 2.95350834397921e-05 -2.7603378674494e-25)
(4.54521129160786e-06 3.92732809787181e-05 1.78978439994515e-24)
(1.64952501962218e-06 4.9214062397299e-05 -9.458553981049e-25)
(-1.04775186913928e-06 4.8261972784541e-05 1.81601675055772e-26)
(-3.8159542661099e-06 3.85531271741359e-05 4.2111846656636e-25)
(-4.25417212463504e-06 2.77643666355123e-05 1.76989034483728e-26)
(-3.63064046459141e-06 2.66270634875915e-05 7.90328189053823e-27)
(-2.9197967127093e-06 2.63701575164377e-05 1.50475381466721e-25)
(-2.41377089983472e-06 2.65649546466443e-05 3.42258480267037e-25)
(-1.999308545377e-06 2.67919577937552e-05 1.04798425439177e-26)
(-1.65107485851716e-06 2.69767499171127e-05 1.04844969596504e-26)
(-1.35218826813714e-06 2.71220793726389e-05 2.58121855253255e-25)
(-1.09228179700043e-06 2.72374960318631e-05 3.42992102240889e-25)
(-8.64565304746617e-07 2.73304721688666e-05 -2.30227243602231e-25)
(-6.64135573951899e-07 2.7406266991499e-05 3.70014721324925e-26)
(-4.87260950276048e-07 2.74685998413881e-05 2.71633699899147e-25)
(-3.30909178684721e-07 2.75201998803732e-05 -2.23049557868278e-25)
(-1.92541675701654e-07 2.75630662114648e-05 3.50333252204205e-25)
(-6.99804333280639e-08 2.75986825770609e-05 1.14950231627444e-26)
(3.8654215549754e-08 2.76281770999794e-05 4.18470754807533e-26)
(1.35035691992219e-07 2.76524213957774e-05 2.76319959289345e-25)
(2.20654216665498e-07 2.76720870244488e-05 1.79013030246763e-26)
(2.9687511963076e-07 2.76876965390991e-05 2.29665772982934e-25)
(3.64943888980885e-07 2.76996519396131e-05 1.35279868567684e-26)
(4.2602645253375e-07 2.770827504569e-05 1.98876121334138e-25)
(4.81222261848535e-07 2.77138063139344e-05 2.26516129685488e-26)
(5.31584297208988e-07 2.77164258856733e-05 6.53407349295658e-27)
(5.78135506380585e-07 2.77162498028314e-05 1.98905250394165e-25)
(6.21867853652555e-07 2.77133432547537e-05 3.35086828628179e-26)
(6.63774261627954e-07 2.7707731242799e-05 1.30290531329355e-25)
(7.04849940877141e-07 2.76993875573352e-05 -1.94312528490745e-25)
(7.46110601195869e-07 2.76882290820282e-05 2.34295388477324e-26)
(7.88607495646778e-07 2.7674123589029e-05 1.92485864483536e-25)
(8.33440626192204e-07 2.76568651142697e-05 -1.85728056037132e-25)
(8.81772264835256e-07 2.76361791748537e-05 1.88320380774595e-25)
(9.34866247680069e-07 2.76117069970129e-05 -1.34945607448882e-25)
(9.94095387770863e-07 2.75829732416383e-05 -1.6592404335977e-25)
(1.06099047121043e-06 2.75493351949081e-05 1.62523853821098e-25)
(1.13726139530261e-06 2.750998365799e-05 2.80852413221602e-26)
(1.22486543874658e-06 2.74637933507732e-05 -2.03363308012297e-26)
(1.32604412441521e-06 2.74094061011513e-05 -2.96688858518309e-27)
(1.44342380763326e-06 2.73448853938739e-05 -1.44878607335869e-25)
(1.58012869628285e-06 2.72674910644912e-05 2.67496626206324e-25)
(1.7399941699314e-06 2.71735649383052e-05 -3.10963000326526e-27)
(1.92788635883334e-06 2.70578435459259e-05 -1.33689509271273e-26)
(2.15042148269018e-06 2.69128581345794e-05 2.47669161744437e-25)
(2.41741382772698e-06 2.67291760004952e-05 -1.33689004868232e-26)
(2.74464032387045e-06 2.65045810150964e-05 -1.19785266205834e-26)
(3.15649846093503e-06 2.63119684792499e-05 3.01332960764861e-25)
(3.76191197342945e-06 2.65371359835806e-05 -1.15568735691076e-26)
(4.37057985469452e-06 2.7464431970892e-05 -5.51688053820571e-27)
(3.97350999343881e-06 3.83734741386514e-05 5.12451484502435e-25)
(1.06869354594435e-06 4.81164642086154e-05 -4.74928198161077e-26)
(-8.11348766890798e-07 4.86806018907054e-05 1.46425907587818e-26)
(-3.1213985713312e-06 3.90660633814746e-05 3.55671831073511e-25)
(-3.5610813683382e-06 2.71941168485148e-05 1.40974174572204e-26)
(-3.21906314706562e-06 2.59494858210935e-05 8.07590488508312e-28)
(-2.67471817843964e-06 2.57268481570717e-05 1.19762228259058e-26)
(-2.24846137548335e-06 2.59606110576173e-05 4.23816093825172e-26)
(-1.8833089195004e-06 2.62202424142237e-05 1.29051656160266e-27)
(-1.56743628847062e-06 2.64296948275213e-05 1.37160865712644e-27)
(-1.29147221696817e-06 2.65938477637863e-05 4.9436783877849e-26)
(-1.04871895666478e-06 2.67240666606011e-05 2.05360424671618e-25)
(-8.34319744602817e-07 2.68289583349585e-05 -2.75515993643178e-26)
(-6.44512680495683e-07 2.69144742785348e-05 1.59398522499089e-25)
(-4.7627952202954e-07 2.69848056498174e-05 1.99853741582913e-25)
(-3.27064180586566e-07 2.70429877189338e-05 -2.8919742037475e-26)
(-1.94667883887512e-07 2.70912590745111e-05 1.31571693099361e-25)
(-7.71539326257355e-08 2.71312759946043e-05 1.0196339332958e-26)
(2.71838130248257e-08 2.71643203919847e-05 1.28078843170759e-25)
(1.19884714483052e-07 2.71913661862455e-05 1.68532694912848e-25)
(2.02338299461421e-07 2.72131699832315e-05 1.21374762562466e-26)
(2.75827366225858e-07 2.72303386293098e-05 1.4792877923745e-25)
(3.41530007680044e-07 2.72433283725149e-05 6.36442893094004e-27)
(4.00556619250289e-07 2.72525094298461e-05 2.77992598722873e-26)
(4.53961880900767e-07 2.7258152110877e-05 7.67211300870121e-26)
(5.02751090866334e-07 2.72604679648783e-05 2.07887350227523e-27)
(5.47901109113827e-07 2.72595931278785e-05 2.94148268056831e-26)
(5.90373543446019e-07 2.72556000914654e-05 1.00006199454113e-25)
(6.31119306682712e-07 2.72485242125318e-05 1.81721070453051e-26)
(6.71095464022668e-07 2.72383294552833e-05 -2.23044537303087e-26)
(7.11279322827323e-07 2.7224924784837e-05 9.87158482653318e-26)
(7.5266906621113e-07 2.72081536518981e-05 2.87666897899741e-26)
(7.96321463155333e-07 2.71877826418115e-05 -2.4870166140162e-26)
(8.4334386241135e-07 2.71635041513534e-05 2.49107714574747e-26)
(8.9493103605596e-07 2.71349184672188e-05 -1.55548531949661e-26)
(9.52373361653239e-07 2.71014699817428e-05 -2.08320194366925e-26)
(1.01709707648885e-06 2.70624487778748e-05 2.33977112574983e-26)
(1.09067545459221e-06 2.70169422157455e-05 7.45556409250314e-26)
(1.17488732921531e-06 2.69637026592215e-05 -5.77614615731847e-26)
(1.27173449664954e-06 2.69012077745253e-05 -2.51593841089731e-27)
(1.38349749322565e-06 2.68273100708566e-05 -9.87888532994915e-27)
(1.51281326417345e-06 2.67389802857949e-05 3.35884397384558e-26)
(1.66278190613353e-06 2.6632149238572e-05 -6.24041155013392e-26)
(1.83712849483429e-06 2.65009454130252e-05 -8.51443709383313e-26)
(2.040529870059e-06 2.63369223844294e-05 2.32727977255047e-26)
(2.27926577681748e-06 2.61290371161935e-05 -6.28875652598875e-26)
(2.56222411311731e-06 2.58727042844148e-05 -6.24604523967924e-26)
(2.90181410107942e-06 2.56391472426529e-05 3.63113319550827e-26)
(3.35080159595099e-06 2.58120569270009e-05 -8.60339451748187e-26)
(3.66421622711621e-06 2.67994442355186e-05 -1.04056310412359e-25)
(3.27074111965948e-06 3.88466444933015e-05 7.570547200899e-26)
(8.3971816623106e-07 4.84462634674861e-05 -2.28075206147459e-25)
(-6.64939196084704e-07 4.94374480408578e-05 2.36132251419128e-27)
(-2.50776452990952e-06 3.98363252562503e-05 1.1409075747062e-25)
(-2.93994713431698e-06 2.71129097279422e-05 2.29331419962602e-27)
(-2.81255142548974e-06 2.57172717700702e-05 -5.78546720520299e-27)
(-2.41639857932261e-06 2.5484189763396e-05 -1.22528119212582e-25)
(-2.0695895799514e-06 2.57332878347213e-05 2.3773860724617e-26)
(-1.7542792015938e-06 2.60128085670505e-05 5.76781595260445e-28)
(-1.47129597220856e-06 2.62401235941987e-05 6.3871651928208e-28)
(-1.2183283360859e-06 2.64192151892255e-05 3.05848795137405e-26)
(-9.92454363675528e-07 2.65618407953335e-05 5.51261677501151e-26)
(-7.90915349683202e-07 2.66770575707173e-05 -2.7556331178957e-26)
(-6.11198840081719e-07 2.67711990400063e-05 2.62677239443173e-26)
(-4.51063784449579e-07 2.68487408271144e-05 4.4401053036625e-26)
(-3.08468209465171e-07 2.69129343487707e-05 -2.69208947039943e-26)
(-1.81575258513622e-07 2.69661766867192e-05 4.37450718610594e-26)
(-6.86982725334672e-08 2.70102770830951e-05 1.94457960274761e-27)
(3.16865285620005e-08 2.7046621134355e-05 2.14917008054034e-26)
(1.20975041997408e-07 2.70762744473515e-05 4.4922887530372e-26)
(2.00458974288157e-07 2.71000795863429e-05 2.26352330908591e-27)
(2.71338126101741e-07 2.71186972786859e-05 3.49627153940627e-26)
(3.34723961766169e-07 2.71326414476264e-05 1.30314557004389e-27)
(3.9167341691247e-07 2.71423184401941e-05 1.48034315708208e-26)
(4.43190264074467e-07 2.71480367793029e-05 5.87913014200444e-27)
(4.90243726658092e-07 2.71500278546228e-05 3.50245248348887e-28)
(5.33770390810797e-07 2.71484469515116e-05 1.57232592529926e-26)
(5.7469491951234e-07 2.7143384860758e-05 1.34702081831592e-26)
(6.13938915261072e-07 2.713486954575e-05 1.47599523974834e-26)
(6.52417336678381e-07 2.7122865010221e-05 -1.41050401706542e-26)
(6.91068552757507e-07 2.71072668185788e-05 1.28122847696895e-26)
(7.30857579854158e-07 2.70879090611208e-05 9.46166167758671e-27)
(7.72790346857515e-07 2.70645279614575e-05 -8.8059072940156e-27)
(8.1792089619404e-07 2.70367913168104e-05 8.79990250373461e-27)
(8.67375782621133e-07 2.7004251745976e-05 -1.46938314423347e-26)
(9.22364434521282e-07 2.69662864490157e-05 -1.46980129829938e-26)
(9.84213880843581e-07 2.69221402467616e-05 1.47018487827098e-26)
(1.05436034355515e-06 2.68708110171438e-05 1.28090394852839e-26)
(1.13439494155561e-06 2.68109587905996e-05 -9.83564582920293e-27)
(1.22606659890084e-06 2.67409365503791e-05 -2.92744328810603e-28)
(1.33130956072748e-06 2.66584511755677e-05 -5.21648042273113e-28)
(1.45224014278694e-06 2.65602845307447e-05 7.48521573630182e-26)
(1.59118202784474e-06 2.64421140321096e-05 -7.55976071114461e-27)
(1.75063962716989e-06 2.62977884402342e-05 -9.5839755049638e-27)
(1.93326756501472e-06 2.61184845413007e-05 4.52769443502619e-26)
(2.14179723082847e-06 2.58928646756361e-05 -9.58469381160155e-27)
(2.37867656238366e-06 2.56168015690543e-05 -7.57736492161892e-27)
(2.64480632783326e-06 2.53652815215627e-05 6.10338639162762e-26)
(2.9524739794537e-06 2.55335747801303e-05 -7.55552024392783e-27)
(3.03598401693456e-06 2.66351038319499e-05 -1.00964291015092e-26)
(2.64467133047423e-06 3.95730208024395e-05 6.85244358531251e-26)
(6.9677488632191e-07 4.91298693852696e-05 -1.81526324621573e-26)
(-5.50711134964902e-07 5.0184415558597e-05 1.33341379933376e-26)
(-2.01620169704216e-06 4.05577742953204e-05 3.67622720046008e-25)
(-2.42746913402324e-06 2.72127722959057e-05 1.29216199065074e-26)
(-2.43667723213952e-06 2.56600803174981e-05 6.62650595586219e-27)
(-2.15972437295377e-06 2.53905407634648e-05 1.60928579397822e-25)
(-1.88489479940508e-06 2.56373195385689e-05 1.4148025848892e-25)
(-1.61714033378736e-06 2.59256803132501e-05 7.22243201357789e-27)
(-1.36662797768956e-06 2.61643024895104e-05 7.16177707518824e-27)
(-1.13672265252255e-06 2.63543880367961e-05 1.85723966188677e-25)
(-9.27863370101063e-07 2.65069152325603e-05 1.58403743702728e-25)
(-7.39297832447273e-07 2.66307966832991e-05 -1.49957485655328e-25)
(-5.69745170464783e-07 2.67324169036475e-05 -1.38038582550678e-27)
(-4.17754727751492e-07 2.68163556020955e-05 8.92447752891003e-26)
(-2.81815987230127e-07 2.68859680574235e-05 -1.35203386937009e-25)
(-1.6045561859345e-07 2.69437529009031e-05 1.66644489253488e-25)
(-5.22470397503742e-08 2.69916153014896e-05 7.01915794611161e-27)
(4.41386908648974e-08 2.70310133336633e-05 7.06303342055391e-27)
(1.29963732369535e-07 2.70630975867326e-05 1.26572668044475e-25)
(2.06409316448184e-07 2.70887709143825e-05 9.22749464508952e-27)
(2.74587799352086e-07 2.71087377851815e-05 9.63517160351604e-26)
(3.3554374878855e-07 2.71235649491047e-05 7.06231492232855e-27)
(3.90278328819363e-07 2.71336918722343e-05 8.96952642050033e-26)
(4.39752021307255e-07 2.71394596415888e-05 3.61321332020649e-27)
(4.84886642248565e-07 2.71411169753793e-05 3.89031660304667e-27)
(5.26581795686409e-07 2.71388383166326e-05 9.70849348210162e-26)
(5.65728400270392e-07 2.71327294312705e-05 7.99054986640764e-27)
(6.0320690651885e-07 2.71228127249297e-05 8.616247077643e-26)
(6.39901098227167e-07 2.71090508625693e-05 -8.6078535054256e-26)
(6.76716232769883e-07 2.70913409298558e-05 -6.69436207492313e-28)
(7.14568578250278e-07 2.70694920509283e-05 5.65654545772362e-26)
(7.54414769416625e-07 2.70432171908702e-05 -5.44031284364853e-26)
(7.97259103293638e-07 2.70121650205865e-05 4.19178920600957e-26)
(8.44162483357759e-07 2.69758404399344e-05 -7.97536530094334e-26)
(8.9624857491261e-07 2.69335915115546e-05 -7.57531939985773e-26)
(9.54738024633153e-07 2.6884601479421e-05 7.16178021645386e-26)
(1.02092879704149e-06 2.68278151932965e-05 4.12686120287129e-27)
(1.09622483247886e-06 2.67618087790297e-05 -6.13088390287517e-28)
(1.18212210166019e-06 2.66848792238561e-05 -9.65378613646451e-28)
(1.28019319425801e-06 2.65946361289468e-05 -3.34530901111622e-26)
(1.39202802566015e-06 2.64877814374064e-05 8.11903013127535e-26)
(1.519183331939e-06 2.63599332115688e-05 3.05354805326464e-27)
(1.66296651796909e-06 2.62049246216726e-05 1.16744076023316e-27)
(1.82413558259009e-06 2.60141397288676e-05 4.76581856745856e-26)
(2.00227712433591e-06 2.57769871683066e-05 1.1673946417475e-27)
(2.19461819459001e-06 2.54916403497305e-05 2.54536268969039e-27)
(2.39336209587572e-06 2.52395711259983e-05 7.01271639936549e-26)
(2.58598701095004e-06 2.54325784150685e-05 2.58838165037117e-27)
(2.52009651452018e-06 2.66653131144955e-05 4.12020564628359e-27)
(2.14194900656425e-06 4.0246224762024e-05 1.05978846331286e-25)