/*--------------------------------*- C++ -*----------------------------------*\
  =========                 |
  \\      /  F ield         | OpenFOAM: The Open Source CFD Toolbox
   \\    /   O peration     | Website:  https://openfoam.org
    \\  /    A nd           | Version:  10
     \\/     M anipulation  |
\*---------------------------------------------------------------------------*/
FoamFile
{
    format      ascii;
    class       volScalarField;
    location    "1";
    object      wallHeatFlux;
}
// * * * * * * * * * * * * * * * * * * * * * * * * * * * * * * * * * * * * * //

dimensions      [1 0 -3 0 0 0 0];

internalField   uniform 0;

boundaryField
{
    back
    {
        type            calculated;
        value           uniform 0;
    }
    bottom
    {
        type            calculated;
        value           nonuniform List<scalar> 
50
(
733.162169046071
766.418429939125
771.855451853144
772.42880238918
772.483220281405
772.488132321699
772.488324379425
772.48781131315
772.4871643844
772.486894938385
772.486390615249
772.486069596735
772.485875208603
772.485601599479
772.485360065657
772.485069210348
772.484942186974
772.484767733834
772.484556613701
772.484417908897
772.484335976976
772.484457720751
772.484506408493
772.484299575823
772.484085409105
772.484141977999
772.484161606457
772.484136942706
772.484198833706
772.48400597276
772.483960714996
772.483989495773
772.484008192398
772.484024422095
772.483984663849
772.484061405036
772.48416174586
772.484235299378
772.48443188933
772.484603891321
772.484804039723
772.485040226259
772.485303561755
772.485349786535
772.484745355676
772.476910368453
772.412417744844
771.812636102212
766.278785544915
733.122615914367
)
;
    }
    left
    {
        type            calculated;
        value           uniform 0;
    }
    front
    {
        type            calculated;
        value           uniform 0;
    }
    right
    {
        type            calculated;
        value           uniform 0;
    }
    top
    {
        type            calculated;
        value           uniform 0;
    }
}


// ************************************************************************* //
