/*--------------------------------*- C++ -*----------------------------------*\
  =========                 |
  \\      /  F ield         | OpenFOAM: The Open Source CFD Toolbox
   \\    /   O peration     | Website:  https://openfoam.org
    \\  /    A nd           | Version:  10
     \\/     M anipulation  |
\*---------------------------------------------------------------------------*/
FoamFile
{
    format      ascii;
    class       volScalarField;
    location    "9.8";
    object      alphat;
}
// * * * * * * * * * * * * * * * * * * * * * * * * * * * * * * * * * * * * * //

dimensions      [1 -1 -1 0 0 0 0];

internalField   nonuniform List<scalar> 
2500
(
4.59356840745379e-15
9.06350289245354e-14
3.89747398765751e-13
6.83834889791421e-13
9.49204946868305e-13
1.17691600149517e-12
1.36314650938165e-12
1.50839430531973e-12
1.61649461243931e-12
1.6933234547311e-12
1.7455119809013e-12
1.77942720055379e-12
1.80053443546137e-12
1.81312821440343e-12
1.82034015487874e-12
1.82430847401179e-12
1.82640884806853e-12
1.82747933211169e-12
1.82800518555056e-12
1.82825433700408e-12
1.82836823719627e-12
1.82841843745737e-12
1.82843967856152e-12
1.82844811732003e-12
1.82845081458034e-12
1.82845027669386e-12
1.82844623631148e-12
1.82843555762059e-12
1.82841014819401e-12
1.82835208898354e-12
1.82822372798184e-12
1.82794902333936e-12
1.827380255017e-12
1.8262418619856e-12
1.82404137112608e-12
1.81993779127181e-12
1.81256318946989e-12
1.79980629909288e-12
1.77858991574014e-12
1.74470499499872e-12
1.69279540752135e-12
1.61660332865027e-12
1.50956530670272e-12
1.36577803815455e-12
1.18123212108065e-12
9.55072731659846e-13
6.90560365850304e-13
3.95798287736171e-13
9.29627285892272e-14
4.77545841636241e-15
4.56785838622069e-13
2.36383618250008e-11
1.03752943760674e-10
1.8213704976314e-10
2.52915929177438e-10
3.13731605675878e-10
3.63553495961593e-10
4.02490762997587e-10
4.31538402449374e-10
4.52238308594262e-10
4.66340952802863e-10
4.75535100827374e-10
4.81276762761778e-10
4.84715017529171e-10
4.86691464348539e-10
4.87783294895211e-10
4.88363547827144e-10
4.886605231864e-10
4.88807033461508e-10
4.88876756288518e-10
4.88908773260594e-10
4.88922950682284e-10
4.88928979461734e-10
4.88931387788501e-10
4.88932163013688e-10
4.88932013810287e-10
4.88930866286011e-10
4.88927837975104e-10
4.88920658532455e-10
4.88904320158427e-10
4.88868345083821e-10
4.88791663504405e-10
4.88633526337728e-10
4.88318255227934e-10
4.87711191542488e-10
4.86583382859546e-10
4.84564033017146e-10
4.81083307321365e-10
4.753141874072e-10
4.66130219312497e-10
4.52103991640948e-10
4.31574973379514e-10
4.02809665970436e-10
3.64258018095357e-10
3.14878405897687e-10
2.54467443786293e-10
1.83908609562947e-10
1.05341299029622e-10
2.42348777891708e-11
4.74260269031308e-13
1.62612667842479e-12
4.26279956303875e-10
1.47269973190235e-07
2.58300152464564e-07
3.5806803492233e-07
4.43563685032264e-07
5.13482110762565e-07
5.68076857652569e-07
6.08801536753069e-07
6.37840849142422e-07
6.57649436583423e-07
6.70585928639957e-07
6.7868189677991e-07
6.83541859367774e-07
6.86343111718424e-07
6.87895073195189e-07
6.88722390734023e-07
6.89147170448074e-07
6.89357428896052e-07
6.89457834459547e-07
6.89504107403876e-07
6.89524675605246e-07
6.89533458208551e-07
6.89536983411617e-07
6.89538126857047e-07
6.8953791874439e-07
6.89536257298637e-07
6.89531872375913e-07
6.89521499955067e-07
6.89497957335294e-07
6.89446256983007e-07
6.89336345937272e-07
6.89110266839628e-07
6.88660690785901e-07
6.87797185107188e-07
6.86196872311827e-07
6.83338247134158e-07
6.78421867413175e-07
6.70289988799833e-07
6.57368210030566e-07
6.37662826026654e-07
6.08852429790008e-07
5.68504629543219e-07
5.14423752221263e-07
4.45094161289807e-07
3.60136408821664e-07
2.60657632727613e-07
1.49373960299086e-07
4.36159040777549e-10
1.67951221331765e-12
2.88807388385208e-12
7.62441427248642e-10
2.64657377789998e-07
4.63054333273153e-07
6.40527691269552e-07
7.92069028111878e-07
9.15648361098464e-07
1.01193721608573e-06
1.08365592217123e-06
1.13474802853976e-06
1.16958306242705e-06
1.19233074480266e-06
1.20656958439348e-06
1.21512069192115e-06
1.22005245223944e-06
1.22278678967661e-06
1.22424565725777e-06
1.22499542129229e-06
1.2253669339248e-06
1.22554454940055e-06
1.22562650952076e-06
1.22566299248965e-06
1.2256785970012e-06
1.22568487567668e-06
1.22568692643776e-06
1.22568658371712e-06
1.22568368550491e-06
1.22567601014387e-06
1.22565783637898e-06
1.22561656214361e-06
1.22552587711534e-06
1.22533300149691e-06
1.22493611363883e-06
1.22414660183207e-06
1.22262973818499e-06
1.21981788010001e-06
1.21479398288225e-06
1.20615181767278e-06
1.19185377857754e-06
1.16912614812412e-06
1.13444997510015e-06
1.08371406701544e-06
1.01258385846458e-06
9.17098306771681e-07
7.94438375802999e-07
6.43731072338428e-07
4.66688851710198e-07
2.67858498407643e-07
7.77073814044513e-10
2.96554273281081e-12
4.1442114140323e-12
1.09465984158974e-09
3.79517624344092e-07
6.62451648670262e-07
9.14568537192883e-07
1.12917148066691e-06
1.30374465999085e-06
1.4395149095822e-06
1.54050988011788e-06
1.6123997443276e-06
1.66139438610751e-06
1.6933852505775e-06
1.71341283155457e-06
1.725444516193e-06
1.73238714229084e-06
1.73623879423221e-06
1.73829530758838e-06
1.73935310939247e-06
1.73987774716359e-06
1.74012883057414e-06
1.74024482681292e-06
1.74029652883531e-06
1.74031867849808e-06
1.74032761182277e-06
1.74033054907239e-06
1.740330100871e-06
1.74032606310292e-06
1.74031533012818e-06
1.74028988918217e-06
1.74023207101179e-06
1.74010496104517e-06
1.73983446571623e-06
1.73927757717783e-06
1.73816928339756e-06
1.73603910330029e-06
1.73208892680856e-06
1.72502897317798e-06
1.71288069187151e-06
1.69277559104344e-06
1.6608052959624e-06
1.61200338679457e-06
1.54055108005489e-06
1.44028164889183e-06
1.30550248139376e-06
1.13206166569402e-06
9.18478904600669e-07
6.66872412859336e-07
3.83377496872571e-07
1.11221365069818e-09
4.23773904893877e-12
5.36447042016778e-12
1.41710076377755e-09
4.90325400154861e-07
8.53963594590802e-07
1.17686488089367e-06
1.45094740795929e-06
1.67341883043597e-06
1.84616173372862e-06
1.97451649702774e-06
2.0658187089803e-06
2.12802229107851e-06
2.16863552480965e-06
2.19406520739707e-06
2.20934739880248e-06
2.21816988090882e-06
2.22306736210617e-06
2.22568410287948e-06
2.22703113688705e-06
2.22769982047759e-06
2.2280201609072e-06
2.22816831918651e-06
2.22823444262602e-06
2.22826281614347e-06
2.22827428676487e-06
2.22827808204446e-06
2.22827755504872e-06
2.22827247475184e-06
2.22825892030783e-06
2.22822675951416e-06
2.22815362503683e-06
2.22799275657274e-06
2.22765024914011e-06
2.22694477447375e-06
2.22554017652077e-06
2.22283946981378e-06
2.21782964354295e-06
2.20887315138891e-06
2.19345711266174e-06
2.16793661389596e-06
2.12734149403286e-06
2.06534751385346e-06
1.97452712007e-06
1.84697389783473e-06
1.67532628050032e-06
1.45410403238644e-06
1.18114072239618e-06
8.58787474592131e-07
4.94520711006758e-07
1.43631277813181e-09
5.46852266858527e-12
6.53056044307891e-12
1.72522873243358e-09
5.95738770624878e-07
1.03541119040161e-06
1.4245958521088e-06
1.75410996237317e-06
2.02105948380116e-06
2.22804716117116e-06
2.38170046465969e-06
2.49093540969466e-06
2.56533673997845e-06
2.61391318016026e-06
2.64433444914063e-06
2.66262253928565e-06
2.67318524632639e-06
2.67905210801452e-06
2.68218888969168e-06
2.68380485697579e-06
2.68460772851998e-06
2.68499272316492e-06
2.68517097918926e-06
2.68525063756843e-06
2.68528487388828e-06
2.68529874760783e-06
2.68530336574351e-06
2.68530278423387e-06
2.6852967580521e-06
2.685280621711e-06
2.68524230057045e-06
2.68515511183214e-06
2.68496323970377e-06
2.6845545394168e-06
2.68371237164422e-06
2.682034974966e-06
2.67880863599382e-06
2.67282194775568e-06
2.66211615609941e-06
2.64368460767715e-06
2.61316441413744e-06
2.564602475868e-06
2.49041512641656e-06
2.3816773887239e-06
2.22885314749854e-06
2.02299804126656e-06
1.75733762203582e-06
1.4289734359279e-06
1.04034527596619e-06
6.00028715232136e-07
1.74517714351638e-09
6.64099826144967e-12
7.62878153515092e-12
2.01551111685112e-09
6.94679826982356e-07
1.20508924735192e-06
1.65560296445601e-06
2.03619056727291e-06
2.34399476321343e-06
2.58236994061862e-06
2.75917942786994e-06
2.88481680537426e-06
2.97037287569915e-06
3.02623329727325e-06
3.06122300529507e-06
3.08226451461732e-06
3.09442300326558e-06
3.10117992991991e-06
3.10479490950898e-06
3.10665858535797e-06
3.10758528734899e-06
3.10803007325863e-06
3.10823623215091e-06
3.10832847585572e-06
3.108368184583e-06
3.10838431436256e-06
3.10838971488424e-06
3.1083891002238e-06
3.10838222272816e-06
3.10836374338663e-06
3.10831982336204e-06
3.1082198522074e-06
3.1079997627096e-06
3.1075307742491e-06
3.10656401605845e-06
3.10463780306439e-06
3.1009317447488e-06
3.09405303984921e-06
3.08174914038255e-06
3.06056158727285e-06
3.02547020290624e-06
2.96962127036829e-06
2.88427541107936e-06
2.75912966544681e-06
2.58314033621871e-06
2.34588399077064e-06
2.03934993115169e-06
1.65989092055675e-06
1.20992064945304e-06
6.98890379407681e-07
2.03552034746775e-09
7.74243691147038e-12
8.64916981655e-12
2.28535848659358e-09
7.86368048002691e-07
1.3618093451066e-06
1.86843347958145e-06
2.29557865173784e-06
2.64052741380828e-06
2.90738904939596e-06
3.1051918935794e-06
3.24569223087248e-06
3.34135571847409e-06
3.40381845151955e-06
3.44295172026416e-06
3.4664928061328e-06
3.48010156724007e-06
3.4876684548644e-06
3.49171924377408e-06
3.49380904976215e-06
3.49484900876961e-06
3.49534859821643e-06
3.49558039649023e-06
3.49568423983114e-06
3.49572901231634e-06
3.49574724219059e-06
3.49575338038714e-06
3.49575275121229e-06
3.49574511328719e-06
3.49572452483875e-06
3.49567555838879e-06
3.49556406035023e-06
3.49531851164181e-06
3.49479509453249e-06
3.49371578306355e-06
3.4915646546396e-06
3.48742471674782e-06
3.47973884213145e-06
3.46598825029375e-06
3.44230494033818e-06
3.40307270585582e-06
3.34062063383806e-06
3.24515944152678e-06
3.10513153206376e-06
2.90811471831e-06
2.64232186598484e-06
2.298581777327e-06
1.8725059409837e-06
1.36639567103206e-06
7.90381448963596e-07
2.30495057510508e-09
8.76365486274904e-12
9.58517444150589e-12
2.53306349206784e-09
8.70311507125134e-07
1.50487229134559e-06
2.06229030895572e-06
2.53145010695805e-06
2.90984514872734e-06
3.20231999623836e-06
3.41898325911039e-06
3.57283229190111e-06
3.67757432592381e-06
3.74596985986193e-06
3.78882914071118e-06
3.81462002653269e-06
3.8295356238293e-06
3.8378333297329e-06
3.84227793419574e-06
3.84457242539406e-06
3.84571509529275e-06
3.8462644926737e-06
3.84651965219795e-06
3.84663409720937e-06
3.84668351637797e-06
3.84670368481029e-06
3.84671051297893e-06
3.84670988540967e-06
3.84670157313923e-06
3.84667910100176e-06
3.84662562262819e-06
3.84650381535018e-06
3.84623548797758e-06
3.84566334797202e-06
3.84448322544407e-06
3.84213053478939e-06
3.83760157171194e-06
3.82919165706219e-06
3.81414289342522e-06
3.78821936907243e-06
3.74526929374535e-06
3.67688709515348e-06
3.57233877845595e-06
3.41893581709994e-06
3.20300917248452e-06
2.91152979280043e-06
2.53425385995756e-06
2.06607823948697e-06
1.50913150849194e-06
8.74057335715168e-07
2.5519259915321e-09
9.69877089694261e-12
1.04332893823958e-11
2.75770538824834e-09
9.46274600139793e-07
1.63400407079346e-06
2.23693680836861e-06
2.74364494581693e-06
3.1518764342681e-06
3.46717397098538e-06
3.70063290358471e-06
3.86636757978764e-06
3.97919491702919e-06
4.05287691698361e-06
4.0990588378582e-06
4.12685792908331e-06
4.142941389322e-06
4.15189307177393e-06
4.15669061730887e-06
4.15916886020441e-06
4.1604039122893e-06
4.16099820626935e-06
4.16127447721304e-06
4.16139853278818e-06
4.16145218132068e-06
4.16147412447395e-06
4.16148159270707e-06
4.16148097985039e-06
4.16147207449416e-06
4.16144793310471e-06
4.16139045284269e-06
4.16125950032734e-06
4.16097096076295e-06
4.16035556913278e-06
4.15908591143972e-06
4.15655411405108e-06
4.15167930715326e-06
4.14262546492554e-06
4.12642179031249e-06
4.09850474778345e-06
4.05224552696344e-06
3.97858402180698e-06
3.8659440033802e-06
3.70062731027355e-06
3.46784870354159e-06
3.15346111351389e-06
2.7462432336113e-06
2.24041824103726e-06
1.63790397476125e-06
9.49721446859396e-07
2.77566478374036e-09
1.05448589385446e-11
1.11926274570547e-11
2.95903854631497e-09
1.01423850720337e-06
1.74928327315785e-06
2.39259420116051e-06
2.93253964432338e-06
3.36714310147629e-06
3.70259566864683e-06
3.9508813797056e-06
4.12710850569523e-06
4.24707580099554e-06
4.32542897381965e-06
4.37454923834874e-06
4.40412607999995e-06
4.4212446204166e-06
4.43077671380269e-06
4.43588797689733e-06
4.43852982929394e-06
4.43984729452232e-06
4.4404817277702e-06
4.44077692153313e-06
4.4409096184421e-06
4.44096708527036e-06
4.44099063979664e-06
4.44099869666169e-06
4.44099810891617e-06
4.440988686414e-06
4.44096307763484e-06
4.44090207671565e-06
4.44076307856282e-06
4.4404567540559e-06
4.43980329138092e-06
4.4384547877231e-06
4.43576519386954e-06
4.43058556230549e-06
4.42096395834397e-06
4.40374167605029e-06
4.37406598193486e-06
4.32488694987316e-06
4.24656653328956e-06
4.1267844791475e-06
3.95094979020436e-06
3.70328798415677e-06
3.36865659719252e-06
2.93495519681414e-06
2.39578415198883e-06
1.75283100188596e-06
1.01738602922134e-06
2.97603538653038e-09
1.13015259428437e-11
1.18644896792138e-11
3.13738235765377e-09
1.07436299253126e-06
1.85107388287273e-06
2.52984930122959e-06
3.0989345537407e-06
3.55663211376516e-06
3.90972350181497e-06
4.17098240183345e-06
4.35639163608438e-06
4.48260996020526e-06
4.56505551629672e-06
4.61675231800292e-06
4.64788966884254e-06
4.66591791887616e-06
4.67596083026987e-06
4.68134862245762e-06
4.68413493817957e-06
4.68552531259345e-06
4.68619533423417e-06
4.68650734866895e-06
4.68664775119155e-06
4.68670863669919e-06
4.68673364212225e-06
4.6867422355875e-06
4.68674168086532e-06
4.68673181146882e-06
4.68670492360411e-06
4.68664085168158e-06
4.68649483606152e-06
4.68617299793977e-06
4.68548631632078e-06
4.68406898741812e-06
4.68124159238794e-06
4.67579565499541e-06
4.66567786203371e-06
4.64756513052922e-06
4.61635172615817e-06
4.56461929695948e-06
4.48222411256701e-06
4.35619471315533e-06
4.17115804001741e-06
3.91047160214316e-06
3.55811627223656e-06
3.10121084746862e-06
2.53278997399774e-06
1.85430589084128e-06
1.0772343964728e-06
3.15344720103916e-09
1.19704806602448e-11
1.24519577698522e-11
3.29351850087458e-09
1.12695183346322e-06
1.93996631123044e-06
2.64957529491331e-06
3.2439587278035e-06
3.72168835514016e-06
4.09007363368158e-06
4.36258072001758e-06
4.55595336988717e-06
4.68759595804426e-06
4.77359530582579e-06
4.82753165316604e-06
4.86002691260474e-06
4.87884776502896e-06
4.88933636649226e-06
4.89496581006978e-06
4.89787858836743e-06
4.89933291141374e-06
4.90003421674522e-06
4.90036105564127e-06
4.90050827085121e-06
4.90057219119111e-06
4.90059849187179e-06
4.90060757018277e-06
4.90060705413427e-06
4.90059680227676e-06
4.90056880949718e-06
4.90050208295617e-06
4.90035000222554e-06
4.9000147552682e-06
4.89929935386267e-06
4.89782249821993e-06
4.89487586940342e-06
4.88919941746253e-06
4.87865197694544e-06
4.85976799974491e-06
4.82722246366239e-06
4.77327767921723e-06
4.68735158880499e-06
4.55590815530654e-06
4.36289591184376e-06
4.09091838443665e-06
3.72319264127861e-06
3.2461525020783e-06
2.65232703805489e-06
1.94293914913801e-06
1.12958692802244e-06
3.30874890644423e-09
1.25551263201888e-11
1.29595107441247e-11
3.42859428446479e-09
1.1724211198523e-06
2.01672457153993e-06
2.75286192946368e-06
3.36898703547849e-06
3.86392204537708e-06
4.2454404313244e-06
4.52760772256903e-06
4.7278222584613e-06
4.86412810290231e-06
4.95318517130121e-06
5.00905036830568e-06
5.04271650150306e-06
5.06222167598921e-06
5.07309563805649e-06
5.07893435733457e-06
5.08195684906034e-06
5.08346676063182e-06
5.08419532080013e-06
5.08453510884539e-06
5.08468829394684e-06
5.08475488456264e-06
5.08478233136073e-06
5.08479184380275e-06
5.08479137010637e-06
5.08478079440023e-06
5.08475185648229e-06
5.08468285755461e-06
5.08452558586891e-06
5.0841788623251e-06
5.08343887318614e-06
5.08191103514997e-06
5.07886224342338e-06
5.07298820012351e-06
5.06207234741407e-06
5.04252685954763e-06
5.00883848875783e-06
4.95299544139924e-06
4.8640394177945e-06
4.72794971562066e-06
4.52809224755999e-06
4.24642233406437e-06
3.86549878627444e-06
3.37116171961162e-06
2.75549527424471e-06
2.01950674144285e-06
1.17487010398117e-06
3.44313348505678e-09
1.30601802550693e-11
1.33926579405266e-11
3.54402927838612e-09
1.21126914817892e-06
2.08223691137322e-06
2.84095098191942e-06
3.47556412958334e-06
3.98512426262662e-06
4.37780596156526e-06
4.668186747073e-06
4.87422148900128e-06
5.01449707495557e-06
5.10615945349714e-06
5.16366985154097e-06
5.19833588038275e-06
5.21842623750132e-06
5.22963022434125e-06
5.23564846299856e-06
5.23876523874858e-06
5.240323017388e-06
5.24107510009074e-06
5.24142609375093e-06
5.24158446164644e-06
5.24165338006386e-06
5.24168183169548e-06
5.24169172926475e-06
5.24169129991218e-06
5.24168045324905e-06
5.24165071561502e-06
5.241579792214e-06
5.24141812489159e-06
5.24106168257746e-06
5.24030086548966e-06
5.23872982238203e-06
5.23559441233484e-06
5.22955276831442e-06
5.21832430138061e-06
5.19821731641907e-06
5.16355866337776e-06
5.10610368682881e-06
5.01457445602343e-06
4.87453850046427e-06
4.66886659697606e-06
4.37896274047069e-06
3.98682475538571e-06
3.47778438911208e-06
2.84353997854884e-06
2.08490199069885e-06
1.21358728225734e-06
3.55804723306889e-09
1.34913133590762e-11
1.37575849597513e-11
3.64142418080275e-09
1.24404732207457e-06
2.13746857886957e-06
2.91517491553376e-06
3.56533246989656e-06
4.08718717391373e-06
4.48925465622756e-06
4.78654387095908e-06
4.99747704778792e-06
5.14109635753689e-06
5.23495532906948e-06
5.29385439325107e-06
5.32936547733284e-06
5.3499510958322e-06
5.36143482855198e-06
5.36760549617196e-06
5.37080247776288e-06
5.37240106056985e-06
5.37317324198173e-06
5.37353383634093e-06
5.37369665942044e-06
5.37376758728316e-06
5.37379691139343e-06
5.37380714737474e-06
5.37380676299322e-06
5.3737956927759e-06
5.37376528674838e-06
5.37369275299063e-06
5.37352740758671e-06
5.37316283190789e-06
5.37238457787805e-06
5.37077734541934e-06
5.36756934276317e-06
5.36138716439805e-06
5.34989644952633e-06
5.32931825509615e-06
5.29384509861092e-06
5.23503668861278e-06
5.14134655477963e-06
4.99799625748361e-06
4.78744046288056e-06
4.49061952853831e-06
4.08905874888572e-06
3.567659978864e-06
2.91779187950119e-06
2.14008972190034e-06
1.24629058367013e-06
3.65510157945196e-09
1.38548055008989e-11
1.40608159400805e-11
3.72247301289647e-09
1.27133226035292e-06
2.18341683839016e-06
2.97689866902606e-06
3.6399641539311e-06
4.17202854948097e-06
4.58189257697711e-06
4.88492350072066e-06
5.09993080229729e-06
5.24633365720699e-06
5.34202316222834e-06
5.40208087310103e-06
5.43829799120078e-06
5.45929801344842e-06
5.4710162035808e-06
5.47731485205134e-06
5.48057930743109e-06
5.48221229159004e-06
5.48300145936413e-06
5.48337019077678e-06
5.48353680281971e-06
5.4836094471139e-06
5.48363952101284e-06
5.4836500514361e-06
5.48364971161423e-06
5.48363846005208e-06
5.48360750339553e-06
5.48353364083406e-06
5.4833652599079e-06
5.48299396978128e-06
5.48220131306947e-06
5.4805641687951e-06
5.47729612426319e-06
5.47099763324919e-06
5.45928974482789e-06
5.43832114082882e-06
5.40217287974043e-06
5.34224232364638e-06
5.24676013923697e-06
5.10066073826481e-06
4.88605334733699e-06
4.58349321378335e-06
4.1741125981386e-06
3.64245460277786e-06
2.9796103475961e-06
2.18606267287519e-06
1.27355402148117e-06
3.73598856426674e-09
1.41572193557322e-11
1.43089002767929e-11
3.78888103574049e-09
1.29369979040071e-06
2.22106920179167e-06
3.02746571668009e-06
3.70109779725269e-06
4.24152186963095e-06
4.65777263412609e-06
4.96551014657701e-06
5.18385991206185e-06
5.33254873842984e-06
5.42974332076586e-06
5.49075493918936e-06
5.52755418603539e-06
5.54889643913613e-06
5.5608085958972e-06
5.56721332724576e-06
5.57053382945559e-06
5.57219545553588e-06
5.57299880288493e-06
5.57337434741236e-06
5.57354414355406e-06
5.57361823698459e-06
5.57364894801546e-06
5.57365973196898e-06
5.57365943554317e-06
5.57364804004138e-06
5.57361663777963e-06
5.57354169734471e-06
5.57337085290076e-06
5.5729941104526e-06
5.57218974885781e-06
5.57052827288943e-06
5.56721134128475e-06
5.56081806277282e-06
5.54893305184509e-06
5.52764582138518e-06
5.49094627288258e-06
5.43009895607419e-06
5.33315218158644e-06
5.18480536185966e-06
4.96688494619688e-06
4.6596307624621e-06
4.24385277403298e-06
3.7037990594665e-06
3.0303307916065e-06
2.22380104821269e-06
1.29594848388393e-06
3.80240209178686e-09
1.44050995718427e-11
1.4508132522764e-11
3.84229090534507e-09
1.31170157019159e-06
2.25136598676075e-06
3.06814977133471e-06
3.75028202599548e-06
4.29743372978081e-06
4.71882757324998e-06
5.03035827702221e-06
5.2514045209819e-06
5.40193966617901e-06
5.50035147694222e-06
5.56213571726015e-06
5.59940724121235e-06
5.62102764776948e-06
5.6330977663603e-06
5.6395890756646e-06
5.64295542756098e-06
5.64464054537883e-06
5.64545555656246e-06
5.64583672431049e-06
5.64600915911501e-06
5.64608445962633e-06
5.64611570518559e-06
5.64612670499073e-06
5.64612645031415e-06
5.64611494395185e-06
5.64608318946357e-06
5.64600739406813e-06
5.64583459356722e-06
5.64545351737282e-06
5.64463984018052e-06
5.64295897208045e-06
5.63960302387196e-06
5.63313399805876e-06
5.62110727996175e-06
5.59956487532242e-06
5.56242344661811e-06
5.50084078227067e-06
5.40271854713155e-06
5.25256710897765e-06
5.03198535202832e-06
4.72095912263225e-06
4.30003856840916e-06
3.75323333200581e-06
3.07121753219419e-06
2.25423624792621e-06
1.31401924673567e-06
3.85596719699508e-09
1.4604704756968e-11
1.46643121292184e-11
3.88421898008933e-09
1.3258449125211e-06
2.27516806196461e-06
3.10011319926095e-06
3.78892681119963e-06
4.34136989935425e-06
4.76681218358661e-06
5.08133178208851e-06
5.30450531487543e-06
5.45649907894832e-06
5.5558740418677e-06
5.61827071552416e-06
5.65591733328596e-06
5.6777591319913e-06
5.68995527382743e-06
5.69651583278828e-06
5.69991896029525e-06
5.7016229786173e-06
5.70244740639116e-06
5.7028331319673e-06
5.70300771568498e-06
5.70308400514866e-06
5.70311569233154e-06
5.70312687356744e-06
5.70312665874024e-06
5.70311507081842e-06
5.7030830471743e-06
5.7030065949282e-06
5.70283228869312e-06
5.70244787013063e-06
5.70162699286232e-06
5.69993110272015e-06
5.69654486441491e-06
5.69001691423931e-06
5.67787976154641e-06
5.65613818023391e-06
5.61865137007828e-06
5.55649327897232e-06
5.45745032425813e-06
5.30588421238358e-06
5.08321476726165e-06
4.76922784255572e-06
4.344268755399e-06
3.79215871944503e-06
3.10342315676787e-06
2.27821956487958e-06
1.32826653602906e-06
3.89817900569633e-09
1.47617778593581e-11
1.47825461123426e-11
3.91600271448051e-09
1.33657608833945e-06
2.29323018057953e-06
3.1243726405697e-06
3.81826321418628e-06
4.37473066787814e-06
4.80325541533895e-06
5.1200537757446e-06
5.34485170790584e-06
5.49796128003596e-06
5.59807453815768e-06
5.66094174106889e-06
5.6988772726763e-06
5.72089007337014e-06
5.73318385170951e-06
5.73979824001658e-06
5.74323005750587e-06
5.74494887937293e-06
5.74578071523831e-06
5.74617004470966e-06
5.74634633787168e-06
5.74642342002281e-06
5.74645546493209e-06
5.74646679631845e-06
5.74646661938841e-06
5.74645497605404e-06
5.74642275757195e-06
5.74634582550829e-06
5.74617041530899e-06
5.74578353756648e-06
5.74495734241985e-06
5.74325031389189e-06
5.73984153262617e-06
5.73326957872252e-06
5.72104970295761e-06
5.69915852409249e-06
5.66141170252384e-06
5.59881955668711e-06
5.49908092078526e-06
5.34644439766815e-06
5.12219344297749e-06
4.80596144193856e-06
4.37793733731275e-06
3.82179813405148e-06
3.12795480949852e-06
2.29649621183157e-06
1.33912938050764e-06
3.93035215429783e-09
1.48813571927686e-11
1.48670943533001e-11
3.93875916956802e-09
1.34426711724066e-06
2.3061798877591e-06
3.14177180250018e-06
3.83931150373434e-06
4.39867544160851e-06
4.82942237741308e-06
5.14786671934945e-06
5.37384064991376e-06
5.5277601476859e-06
5.62841091819448e-06
5.69162183990512e-06
5.72976921048206e-06
5.75190791035617e-06
5.76427389607881e-06
5.7709282883988e-06
5.77438154022869e-06
5.7761114858429e-06
5.77694892402048e-06
5.77734099877303e-06
5.77751860530243e-06
5.7775963029609e-06
5.77762862969256e-06
5.77764008283142e-06
5.77763994196291e-06
5.7776282668674e-06
5.77759592083232e-06
5.77751866904822e-06
5.77734251763278e-06
5.77695397678507e-06
5.7761241575968e-06
5.77440948043188e-06
5.77098510781391e-06
5.76438252115889e-06
5.75210472547946e-06
5.73010827460309e-06
5.69217768586143e-06
5.62927762448791e-06
5.52904392513344e-06
5.37564366262599e-06
5.1502618192688e-06
4.83242149887518e-06
4.40219832694659e-06
3.84316451107689e-06
3.14564736777085e-06
2.30968464566068e-06
1.34697274588985e-06
3.95358061037621e-09
1.49676273180729e-11
1.49212545457709e-11
3.95335395306256e-09
1.34920583554787e-06
2.31450165299089e-06
3.15296097098935e-06
3.85285711839518e-06
4.41409601673393e-06
4.8462856128074e-06
5.1658022469235e-06
5.39254542672163e-06
5.54699723185177e-06
5.64800319436581e-06
5.7114426264738e-06
5.74973178138401e-06
5.77195536933561e-06
5.78437043196356e-06
5.79105224867483e-06
5.79452033108215e-06
5.79625805039817e-06
5.79709944654085e-06
5.79749348454063e-06
5.79767204359712e-06
5.79775019529392e-06
5.79778273464632e-06
5.7977942836488e-06
5.79779417725118e-06
5.79778249225694e-06
5.79775008077345e-06
5.79767265687673e-06
5.79749609819051e-06
5.79710662580965e-06
5.79627473632668e-06
5.79455560588374e-06
5.79112199610896e-06
5.78450097875549e-06
5.77218786380811e-06
5.75012647432802e-06
5.71208140827395e-06
5.64898793549544e-06
5.54844110415356e-06
5.39455497235656e-06
5.16845025428921e-06
4.84957785765113e-06
4.41793900196887e-06
3.85703681543024e-06
3.15714306212957e-06
2.31826084947474e-06
1.35207774494329e-06
3.96870719621638e-09
1.50238066293836e-11
1.49472823841481e-11
3.96037953753034e-09
1.35158892506112e-06
2.3185257159967e-06
3.1583825758147e-06
3.8594336280689e-06
4.4215975719861e-06
4.85450463770694e-06
5.17455965305048e-06
5.40169340633949e-06
5.55641899154083e-06
5.65761034242706e-06
5.72117097257955e-06
5.75953666156772e-06
5.78180694589808e-06
5.79424955204735e-06
5.80094708797458e-06
5.80442386078497e-06
5.80616624232855e-06
5.8070100716878e-06
5.8074053496081e-06
5.80758452874455e-06
5.80766298659624e-06
5.80769567572314e-06
5.80770729736375e-06
5.80770722427486e-06
5.80769554971755e-06
5.80766313063726e-06
5.80758567282657e-06
5.80740902052245e-06
5.80701930451588e-06
5.8061868054267e-06
5.80446622273002e-06
5.80102933545829e-06
5.79440131473194e-06
5.78207401452524e-06
5.75998534867207e-06
5.72189042139494e-06
5.65871019259112e-06
5.55801951787387e-06
5.40390585741994e-06
5.17745734717408e-06
4.85808799745302e-06
4.42576073306014e-06
3.86394284978595e-06
3.16287690322537e-06
2.32254709166225e-06
1.3546346286823e-06
3.97630182479299e-09
1.50520674782111e-11
1.49463402544005e-11
3.96014114299819e-09
1.35151740381699e-06
2.31842099259221e-06
3.15826214057446e-06
3.85931224081012e-06
4.42148702967618e-06
4.85441339078283e-06
5.17449263917355e-06
5.40165226100277e-06
5.55640263490987e-06
5.65761581734375e-06
5.72119433587426e-06
5.75957377884178e-06
5.78185403783407e-06
5.79430349975734e-06
5.80100552048308e-06
5.80448509741524e-06
5.80622916256566e-06
5.8070739679817e-06
5.80746979601717e-06
5.8076492790439e-06
5.80772790289272e-06
5.80776068250796e-06
5.80777235506744e-06
5.8077723145104e-06
5.80776067028227e-06
5.80772830001749e-06
5.80765094313854e-06
5.80747450325127e-06
5.80708521422098e-06
5.80625352743319e-06
5.80453440890802e-06
5.80110002564054e-06
5.79447606828055e-06
5.78215501699795e-06
5.76007543640016e-06
5.72199295118755e-06
5.65882868828487e-06
5.55815706192904e-06
5.40406426505804e-06
5.17763624461094e-06
4.85828398798914e-06
4.42596683502216e-06
3.86414830664894e-06
3.16306731561158e-06
2.32270466826479e-06
1.35473825057406e-06
3.97664742945298e-09
1.5053484831668e-11
1.49184763826698e-11
3.95265107273721e-09
1.34899476683733e-06
2.31419194032137e-06
3.15260403139952e-06
3.85249665827986e-06
4.41376722184093e-06
4.8460138899335e-06
5.16560260110625e-06
5.392422993464e-06
5.54694897385788e-06
5.64802038216557e-06
5.71151352946469e-06
5.74984402644998e-06
5.77209762333692e-06
5.78453332638087e-06
5.79122865275571e-06
5.79470518552463e-06
5.79644797983597e-06
5.79729231851634e-06
5.79768801487802e-06
5.79786748980781e-06
5.79794614155785e-06
5.79797895333664e-06
5.79799065558996e-06
5.79799064714694e-06
5.79797905364112e-06
5.79794678971269e-06
5.79786967089487e-06
5.79769375393089e-06
5.79730557079739e-06
5.79647613290279e-06
5.79476141947815e-06
5.79133536006717e-06
5.78472658842994e-06
5.77243229358558e-06
5.7503982444798e-06
5.71239058222219e-06
5.6493450429728e-06
5.54885529778596e-06
5.39503153669904e-06
5.16898784157391e-06
4.85016601216602e-06
4.41855653276057e-06
3.85765131926759e-06
3.15771143820909e-06
2.31873017819375e-06
1.35238565135539e-06
3.96973210448495e-09
1.50280047389336e-11
1.48626311176971e-11
3.9376301824122e-09
1.34392726194983e-06
2.30567878742629e-06
3.1411916022922e-06
3.83872314053625e-06
4.39813691392452e-06
4.82897623053031e-06
5.14753860624647e-06
5.37363989412958e-06
5.52768236281449e-06
5.62844204564797e-06
5.69174262013748e-06
5.72995914890274e-06
5.75214813901854e-06
5.76454876401802e-06
5.77122585370702e-06
5.77469331468501e-06
5.77643179874063e-06
5.77727418915225e-06
5.77766905495029e-06
5.77784820241494e-06
5.77792674082388e-06
5.77795952516342e-06
5.77797123562527e-06
5.77797125929625e-06
5.77795973820686e-06
5.77792764148296e-06
5.77785090522766e-06
5.77767583737147e-06
5.77728947162843e-06
5.77646378527025e-06
5.77475654824131e-06
5.77134488240227e-06
5.76476288312228e-06
5.75251668752605e-06
5.73056606992561e-06
5.69269805749705e-06
5.62987797601767e-06
5.52973918861327e-06
5.37644210385955e-06
5.15116043629291e-06
4.83340198556724e-06
4.40322456072805e-06
3.84418207153683e-06
3.14658479562529e-06
2.31045533445169e-06
1.34747604217155e-06
3.95524963942182e-09
1.4974452051044e-11
1.47766585421241e-11
3.91451381149902e-09
1.33612594125828e-06
2.29256098511519e-06