/*--------------------------------*- C++ -*----------------------------------*\
  =========                 |
  \\      /  F ield         | OpenFOAM: The Open Source CFD Toolbox
   \\    /   O peration     | Website:  https://openfoam.org
    \\  /    A nd           | Version:  10
     \\/     M anipulation  |
\*---------------------------------------------------------------------------*/
FoamFile
{
    format      ascii;
    class       volScalarField;
    location    "9.8";
    object      h;
}
// * * * * * * * * * * * * * * * * * * * * * * * * * * * * * * * * * * * * * //

dimensions      [0 2 -2 0 0 0 0];

internalField   nonuniform List<scalar> 
2500
(
5985.71210283245
5984.96893895845
5977.88303892523
5971.60495785028
5967.10531082457
5964.12110545222
5962.21329940364
5961.02129881637
5960.29364768889
5959.8621089447
5959.61254517003
5959.47320343346
5959.39795548156
5959.35814301255
5959.33763040245
5959.32706366337
5959.32199741361
5959.31927700856
5959.31764051548
5959.31674136654
5959.31615636305
5959.3157389646
5959.31543364473
5959.31525219936
5959.31508245087
5959.31496296667
5959.31493680514
5959.31496889995
5959.31508026031
5959.31530573331
5959.31571962314
5959.31654565739
5959.31795865636
5959.32067712992
5959.32605740004
5959.33677321596
5959.35789310933
5959.3985420282
5959.47578160598
5959.61680701912
5959.8673544363
5960.29955549028
5961.02447116236
5962.2099620616
5964.11017127021
5967.08737585886
5971.59590419523
5977.90782960105
5985.00894692543
5985.64146854716
5349.52372806039
5337.00219162052
5315.88777360546
5297.96998130737
5285.0730915329
5276.41558763753
5270.79643655274
5267.2289020225
5265.01352963079
5263.67319208078
5262.88509056386
5262.43622849747
5262.18881420316
5262.05662396768
5261.98817618486
5261.95370651688
5261.93695202618
5261.9288622287
5261.92491830867
5261.92302039159
5261.92205402685
5261.92151399986
5261.92118548701
5261.92098963505
5261.9208396971
5261.92073856647
5261.92071067835
5261.92075056516
5261.920905407
5261.92129188104
5261.92216446631
5261.92409304884
5261.92816156419
5261.93672690844
5261.95445826581
5261.99036419734
5262.06115777006
5262.19668483378
5262.44867683709
5262.90215077537
5263.693496614
5265.03376158757
5267.24170286266
5270.79245803288
5276.38962968102
5285.03608450531
5297.9711727315
5316.00157060677
5337.18842323469
5349.13143832098
4667.87455860626
4641.43851677163
4609.19812615641
4583.02270560481
4564.42033590979
4552.00697433803
4543.97906470353
4538.89354187209
4535.73849879961
4533.82887781427
4532.70506949992
4532.06382253751
4531.70952361836
4531.51995693547
4531.42173411137
4531.37239468151
4531.34840689587
4531.33700358022
4531.33165285815
4531.32917869114
4531.3280127242
4531.32742872219
4531.32711100291
4531.32693034549
4531.32680790651
4531.32672895417
4531.32670437182
4531.3267463532
4531.32692183481
4531.32739349509
4531.32852272345
4531.33110316799
4531.33676494927
4531.34888244369
4531.37416215407
4531.42551997753
4531.52686762157
4531.72084502238
4532.08082826032
4532.72797683237
4533.85611237161
4535.76561817269
4538.91181260028
4543.97759288924
4551.98162580513
4564.39475011923
4583.07972928703
4609.46661657409
4641.91114326961
4667.66920033831
4008.93270842237
3972.09201442555
3934.49925090711
3905.24981162438
3884.93968476833
3871.63613503825
3863.17711466448
3857.90077957242
3854.67206461283
3852.74115868863
3851.6168313453
3850.98125198208
3850.63300364982
3850.4481402523
3850.35307972762
3850.30570978563
3850.28284813981
3850.2721056648
3850.26715926201
3850.26492197283
3850.26390437918
3850.26341945279
3850.26316912604
3850.26303090599
3850.26294228862
3850.2628849474
3850.26286126473
3850.26288486109
3850.26301956831
3850.26341617069
3850.26440778653
3850.26673744762
3850.27197027372
3850.28332702952
3850.30726991741
3850.35636833021
3850.45411768248
3850.64284855066
3850.99615032811
3851.63728203865
3852.76622977551
3854.69833072541
3857.92134141726
3863.18380099406
3871.62975153285
3884.95570421189
3905.3968423201
3934.95439182011
3972.92538537774
4009.36191110609
3424.79148427418
3383.4356478121
3345.79342068877
3317.65049801762
3298.59188117242
3286.362936865
3278.73101179963
3274.04956352996
3271.22615484228
3269.55830692947
3268.59724208622
3268.05873418417
3267.76589142969
3267.61147086519
3267.53254259281
3267.49344257033
3267.47467881912
3267.4659318095
3267.46195479302
3267.46018659602
3267.45940449018
3267.45904671637
3267.45887021874
3267.45877616939
3267.45871840567
3267.45868028568
3267.45866170684
3267.45866845617
3267.45875367077
3267.45904377035
3267.45980131969
3267.46162829312
3267.46580987115
3267.47498457668
3267.49448441532
3267.53477078599
3267.6155631219
3267.77271901422
3268.0692229567
3268.61196031848
3269.57692033967
3271.24662901
3274.06759378271
3278.74226347973
3286.37344497014
3298.64499383767
3317.86945058079
3346.39123476044
3384.58107077908
3425.95620920917
2944.95579619822
2904.82032875782
2871.16967411532
2846.91742938562
2830.90552475771
2820.84831048778
2814.69109085142
2810.97781700826
2808.77042327737
2807.481926429
2806.74665324149
2806.33790940759
2806.11706087643
2806.00122635375
2805.94229196946
2805.91322111966
2805.89932935203
2805.89289177444
2805.88999326898
2805.8887240529
2805.88817729724
2805.88793738677
2805.88782471674
2805.88776744808
2805.88773386532
2805.88771080897
2805.88769684398
2805.88769449481
2805.88774059533
2805.8879293161
2805.88845263563
2805.8897499644
2805.89277168862
2805.89946370031
2805.91377906475
2805.94353009399
2806.0035441353
2806.12099680215
2806.34407283822
2806.75551118969
2807.49347651754
2808.78369381988
2810.99062553636
2814.70218209735
2820.86696076416
2830.9770817325
2847.16655940703
2871.82518329792
2906.13390810352
2946.6818855552
2577.03416048395
2542.18497378578
2514.76716339626
2495.66088360379
2483.35894175916
2475.79588291133
2471.25404892436
2468.56090807829
2466.98245295744
2466.07153814654
2465.55639263125
2465.27202230787
2465.1192064841
2465.03939427786
2464.99892604147
2464.9790248177
2464.96954476097
2464.96517211359
2464.96321964166
2464.96237705371
2464.96202400568
2464.96187640656
2464.96181121137
2464.96178027254
2464.96176336663
2464.96175090126
2464.96174109608
2464.96173549385
2464.96175563735
2464.96186623849
2464.96219893194
2464.96304948255
2464.96506576854
2464.96956941647
2464.97925499775
2464.99947925062
2465.04046473683
2465.12107178047
2465.27501922812
2465.56082208646
2466.07749520865
2466.98954923109
2468.56822820896
2471.26201336798
2475.81441219313
2483.42975935186
2495.89805518078
2515.39244099034
2543.49382615362
2579.01417782361
2312.20832186705
2284.59288191811
2263.963551638
2250.02561591687
2241.26789499115
2235.99690960802
2232.89158329303
2231.08080733519
2230.03411679537
2229.43665370868
2229.10158732696
2228.91777487463
2228.81944730558
2228.76826322119
2228.74237485521
2228.72967043406
2228.72363267347
2228.72085852624
2228.71962913741
2228.71910627899
2228.71889386577
2228.71881031699
2228.71877628717
2228.7187618421
2228.71875515852
2228.71874943409
2228.71874304007
2228.71873741306
2228.71874324938
2228.7188017383
2228.71899817857
2228.71951888637
2228.72077627336
2228.72360808366
2228.72972594562
2228.7425483029
2228.76862650847
2228.82011390073
2228.91889561431
2229.10331357182
2229.43905508715
2230.03703215459
2231.08387721202
2232.89571594161
2236.01069948282
2241.32571222253
2250.22277449821
2264.49569755427
2285.75561519563
2314.13942313027
2132.43509258562
2112.20299755255
2097.73555467452
2088.23555226557
2082.40541919039
2078.96887816546
2076.98224100612
2075.84280393046
2075.19306759906
2074.82608335217
2074.62187732205
2074.51047713666
2074.45111390846
2074.42029144873
2074.4047284151
2074.39710149596
2074.39348295749
2074.39182588975
2074.39109678829
2074.39079127912
2074.39067150596
2074.39062805124
2074.39061212037
2074.39060667508
2074.39060561769
2074.39060380907
2074.39059994305
2074.39059556772
2074.39059561151
2074.39062331395
2074.3907310986
2074.39103110383
2074.39176991525
2074.39344760504
2074.3970866188
2074.40473579504
2074.42033410647
2074.45122122722
2074.51069665527
2074.62226100577
2074.82664488238
2075.1936938646
2075.84328727994
2076.98331849168
2078.97691232574
2082.44608600615
2088.38216045642
2098.1465442839
2113.14031390767
2134.10478401959
2016.88212069352
2003.05026136269
1993.525735312
1987.43422432802
1983.77955289115
1981.66876195442
1980.47106392665
1979.79526959381
1979.4150439201
1979.20247488905
1979.08506360202
1979.02133495174
1978.98748477197
1978.96994284961
1978.96109505932
1978.95676244193
1978.95470935316
1978.95377195954
1978.9533623938
1978.95319337127
1978.95312962369
1978.95310867831
1978.95310316319
1978.95310256824
1978.95310319412
1978.9531030013
1978.95310081939
1978.95309761047
1978.95309582535
1978.95310756283
1978.95316296976
1978.95332663419
1978.95373816619
1978.95468054559
1978.95673201328
1978.96105361466
1978.96988238256
1978.98740133951
1979.02123064271
1979.08493970591
1979.20230422572
1979.41470748574
1979.79456030607
1980.47034929039
1981.67215932611
1983.80462491792
1987.53322294295
1993.81732839449
2003.74474559537
2018.19229187313
1946.30604021689
1937.41947719098
1931.49943166999
1927.80462745588
1925.63538579685
1924.40710392908
1923.72281172156
1923.34290528241
1923.13197309699
1923.01522714303
1922.95119691639
1922.91660228626
1922.89827701387
1922.88879357623
1922.88401297618
1922.88167270035
1922.88056464731
1922.88006013125
1922.87984126097
1922.87975238457
1922.87972026062
1922.87971173545
1922.87971107231
1922.87971186731
1922.87971280745
1922.87971291604
1922.87971180483
1922.8797095712
1922.87970766645
1922.8797118595
1922.87973863856
1922.87982360607
1922.88004200339
1922.88054640631
1922.88164807758
1922.88397240936
1922.88872590495
1922.89817057463
1922.91644567694
1922.95097358354
1923.01489374167
1923.13140840973
1923.34188752833
1923.72139694719
1924.40763531581
1925.64894291046
1927.86593222087
1931.69124350711
1937.89704174255
1947.2531580781
1905.21681004707
1899.82110946971
1896.33047066323
1894.20079370435
1892.97602281563
1892.29573080859
1891.92348928616
1891.72011733726
1891.60868020162
1891.54761048569
1891.51434385134
1891.49644662918
1891.48698799094
1891.48209762479
1891.47963266139
1891.47842585773
1891.47785478376
1891.47759545552
1891.47748379679
1891.47743928361
1891.47742423831
1891.47742134111
1891.47742196773
1891.4774230425
1891.47742386168
1891.47742408869
1891.47742353544
1891.47742206729
1891.47742060804
1891.4774216856
1891.47743387288
1891.4774760092
1891.47758690207
1891.47784523982
1891.47841119399
1891.47960637118
1891.48205146373
1891.48691229971
1891.49633017482
1891.5141689139
1891.54733530119
1891.6081976358
1891.71921898208
1891.92205641559
1892.29492373433
1892.98232268094
1894.23582605828
1896.44830141633
1900.12824636612
1905.85427060138
1882.34816190048
1879.2375346522
1877.27712893467
1876.10603244783
1875.44565725994
1875.08561679664
1874.89205568708
1874.78797451731
1874.7316891784
1874.70114604898
1874.68461846541
1874.67576196216
1874.6710903839
1874.66867634184
1874.66745922313
1874.66686308716
1874.66658107946
1874.66645335841
1874.66639881447
1874.66637751798
1874.66637095875
1874.66637027951
1874.66637101918
1874.66637190404
1874.66637249761
1874.66637271441
1874.66637244246
1874.66637153898
1874.66637052216
1874.66637057521
1874.66637586339
1874.66639585372
1874.66644992885
1874.66657699731
1874.6668561426
1874.66744585648
1874.66865188806
1874.67104910941
1874.67569653347
1874.68451583756
1874.70097397989
1874.73136470073
1874.78732715283
1874.89090966753
1875.08445119391
1875.44800025428
1876.12456724888
1877.34511771279
1879.42343422868
1882.75080556497
1870.14881582068
1868.43937404801
1867.38698326639
1866.77052118135
1866.42933469532
1866.24662897782
1866.15008708501
1866.09898814175
1866.07171630217
1866.05706236256
1866.04918450628
1866.04497884546
1866.04276407831
1866.04161981092
1866.04104253892
1866.04075959335
1866.04062576303
1866.04056531645
1866.04053973294
1866.04053002158
1866.04052736764
1866.04052736061
1866.04052790364
1866.04052850339
1866.04052888547
1866.04052904319
1866.0405289109
1866.04052839073
1866.04052775156
1866.04052755496
1866.04052973301
1866.04053886386
1866.04056427337
1866.04062449195
1866.04075710606
1866.04103721603
1866.04160951471
1866.04274612382
1866.0449494585
1866.04913576225
1866.05697263205
1866.0715279685
1866.09857702836
1866.14928953808
1866.24558605955
1866.42983705366
1866.77960248694
1867.42400453565
1868.54582141695
1870.38898524339
1863.89615254734
1862.99757435499
1862.45589718435
1862.14432767111
1861.97491142468
1861.88574443743
1861.83941740108
1861.81527782068
1861.80256339185
1861.79579885436
1861.79218582251
1861.79026384861
1861.78925308421
1861.78873080676
1861.78846708283
1861.78833769582
1861.78827649737
1861.78824893379
1861.78823737909
1861.78823314189
1861.78823213009
1861.78823226209
1861.78823261976
1861.78823298206
1861.788233207
1861.78823330527
1861.78823324169
1861.78823295986
1861.78823259177
1861.78823240379
1861.78823325609
1861.78823728368
1861.788248824
1861.78827639993
1861.78833725628
1861.78846571123
1861.78872774687
1861.78924739063
1861.79025397783
1861.79216758173
1861.79575915742
1861.80246566309
1861.81503982808
1861.83891465252
1861.88497893601
1861.97473013449
1862.14843225826
1862.47499427406
1863.05549361598
1864.03212570251
1860.81017653896
1860.35700752738
1860.08895117779
1859.93735373686
1859.85628936111
1859.81432641994
1859.79288043926
1859.78187757832
1859.776158585
1859.77314607668
1859.77154745085
1859.77069996562
1859.7702547752
1859.77002464645
1859.76990830505
1859.76985115802
1859.76982412474
1859.76981198413
1859.76980694609
1859.76980517179
1859.76980481308
1859.76980492957
1859.76980514032
1859.76980534147
1859.76980546456
1859.7698055198
1859.76980548974
1859.76980534496
1859.76980514754
1859.76980502069
1859.76980533837
1859.76980706247
1859.76981214244
1859.76982437706
1859.76985142337
1859.76990844582
1859.77002451727
1859.77025421642
1859.77069854149
1859.77154319217
1859.7731316896
1859.77611253635
1859.78174957648
1859.79258708568
1859.81382899079
1859.8559598867
1859.93904680389
1860.098312514
1860.38706812147
1860.88355619883
1859.34053383575
1859.12068301639
1858.99283453887
1858.92165636922
1858.88418996668
1858.8651014624
1858.85550083698
1858.85065015461
1858.84816215864
1858.84686472568
1858.84618068612
1858.84581925579
1858.8456295666
1858.845531447
1858.84548177078
1858.84545733508
1858.84544577257
1858.84544059475
1858.84543846842
1858.84543775297
1858.84543763681
1858.8454377107
1858.84543782446
1858.84543792871
1858.8454379919
1858.84543802061
1858.84543800668
1858.84543793585
1858.84543783629
1858.84543776459
1858.84543787793
1858.84543859567
1858.84544076903
1858.84544604111
1858.84545770998
1858.8454822712
1858.84553213317
1858.84563054298
1858.84582052138
1858.84618141943
1858.84686112891
1858.8481423462
1858.85058538648
1858.85534021463
1858.86480555836
1858.88390919302
1858.92227772453
1858.99720611543
1859.13561442313
1859.37841847779
1858.66390803062
1858.56105932928
1858.5021611185
1858.46984319788
1858.45308184302
1858.44467081936
1858.44050558874
1858.43843266566
1858.43738346343
1858.43684186228
1858.43655817513
1858.43640876422
1858.43633040454
1858.43628983442
1858.43626925914
1858.43625912116
1858.43625432154
1858.43625217785
1858.43625130655
1858.43625102607
1858.43625099232
1858.43625103364
1858.43625109072
1858.4362511415
1858.43625117207
1858.43625118602
1858.43625117973
1858.43625114665
1858.43625109918
1858.43625106234
1858.43625110159
1858.43625139429
1858.43625230056
1858.43625451234
1858.43625941053
1858.43626969818
1858.43629051696
1858.43633147309
1858.43641033147
1858.43655994263
1858.436841964
1858.43737569679
1858.43840154687
1858.4404222737
1858.44450667096
1858.45289173533
1858.47003305881
1858.50410952401
1858.56817803923
1858.68267887766
1858.36221306044
1858.31571774577
1858.28945709458
1858.27523992301
1858.26796788345
1858.26437097661
1858.26261622993
1858.26175579469
1858.26132602506
1858.2611064387
1858.26099217345
1858.26093218112
1858.26090073345
1858.26088443209
1858.26087614791
1858.2608720577
1858.26087011929
1858.2608692551
1858.26086890711
1858.26086879971
1858.2608687908
1858.26086881088
1858.2608688375
1858.26086886072
1858.26086887461
1858.26086888093
1858.26086887818
1858.26086886348
1858.26086884211
1858.26086882481
1858.26086883865
1858.26086895634
1858.26086932598
1858.26087023174
1858.26087223666
1858.26087643574
1858.26088490176
1858.26090149385
1858.26093333863
1858.26099363968
1858.2611073416
1858.26132328394
1858.2617414905
1858.26257499853
1858.26428506002
1858.26785450275
1858.27527718983
1858.29028695333
1858.31898380758
1858.37116338752
1858.23172219143
1858.21137013354
1858.20001782053
1858.19394756549
1858.19088260045
1858.18938718763
1858.18866808446
1858.18832055032
1858.18814923733
1858.1880626038
1858.18801781849
1858.18799437595
1858.18798209058
1858.1879757123
1858.18797246271
1858.18797085386
1858.18797008973
1858.18796974893
1858.18796961232
1858.18796957093
1858.18796956818
1858.18796957693
1858.18796958826
1858.18796959805
1858.18796960385
1858.18796960648
1858.18796960533
1858.18796959918
1858.18796959025
1858.18796958302
1858.18796958855
1858.18796963584
1858.18796978419
1858.18797014759
1858.18797094995
1858.18797262386
1858.18797598378
1858.18798253982
1858.18799507475
1858.18801875074
1858.18806337936
1858.18814839206
1858.18831421811
1858.18864850731
1858.18934441096
1858.19082061035
1858.19394141496
1858.20035577352
1858.21281548826
1858.23583931006
1858.1768889335
1858.16824782793
1858.16348191685
1858.16096248209
1858.15970562884
1858.15910026535
1858.15881314898
1858.15867633316
1858.15860976499
1858.15857644619
1858.1585593344
1858.15855040265
1858.15854572118
1858.15854328533
1858.15854203997
1858.1585414207
1858.15854112508
1858.15854099239
1858.15854093869
1858.15854092178
1858.15854091998
1858.15854092297
1858.15854092704
1858.1585409306
1858.15854093268
1858.1585409336
1858.15854093314
1858.15854093083
1858.15854092756
1858.15854092515
1858.15854092811
1858.15854094765
1858.15854100699
1858.1585411508
1858.15854146609
1858.15854211978
1858.15854342429
1858.1585459562
1858.15855077501
1858.15855984731
1858.15857693164
1858.15860955416
1858.15867361626
1858.15880418911
1858.15907988294
1858.15967391955
1858.1609498575
1858.16361347426
1858.16886606252
1858.17871998049
1858.15447216326
1858.15090766386
1858.14896170808
1858.14794379006
1858.1474416439
1858.14720270123
1858.14709085229
1858.1470382766
1858.147013021
1858.14700050807
1858.14699412242
1858.14699079726
1858.14698905272
1858.14698814174
1858.14698767327
1858.14698743834
1858.14698732475
1858.14698727265
1858.14698725064
1858.14698724269
1858.14698724067
1858.1469872408
1858.1469872416
1858.14698724239
1858.14698724282
1858.146987243
1858.14698724283
1858.14698724218
1858.14698724137
1858.14698724117
1858.14698724334
1858.14698725215
1858.1469872765
1858.14698733352
1858.14698745626
1858.14698770774
1858.14698820512
1858.14698916353
1858.14699097688
1858.14699437636
1858.14700076634
1858.14701298884
1858.14703713869
1858.14708688321
1858.14719336215
1858.14742628294
1858.14793426789
1858.14901059282
1858.15116374345
1858.15526104937
1858.14554449456
1858.1441138128
1858.14334001783
1858.14293917264
1858.14274347622
1858.14265140654
1858.14260884064
1858.14258909166
1858.14257972147
1858.14257512418
1858.14257279143
1858.14257157815
1858.14257093966
1858.14257060385
1858.14257042911
1858.14257033979
1858.1425702952
1858.14257027355
1858.14257026332
1858.14257025858
1858.14257025632
1858.14257025516
1858.14257025452
1858.14257025413
1858.14257025385
1858.1425702537
1858.14257025366
1858.14257025371
1858.14257025395
1858.14257025469
1858.14257025662
1858.14257026137
1858.14257027226
1858.14257029572
1858.14257034408
1858.14257044062
1858.14257062836
1858.14257098583
1858.14257165625
1858.14257290529
1858.14257524546
1858.14257972449
1858.14258862183
1858.14260713143
1858.1426472747
1858.14273637124
1858.14293354923
1858.14335730427
1858.14421670398
1858.14587434249
1858.14207655587
1858.14151706214
1858.14121705291
1858.14106304516
1858.14098857912
1858.14095391273
1858.14093807017
1858.14093080898
1858.14092740309
1858.14092574636
1858.14092490886
1858.14092447234
1858.1409242406
1858.1409241167
1858.14092405043
1858.14092401502
1858.140923996
1858.1409239856
1858.14092397966
1858.14092397604
1858.14092397364
1858.14092397193
1858.1409239707
1858.14092396982
1858.14092396925
1858.14092396897
1858.140923969
1858.14092396932
1858.14092396999
1858.14092397111
1858.14092397298
1858.1409239762
1858.140923982
1858.14092399277
1858.14092401301
1858.14092405116
1858.14092412271
1858.14092425573
1858.1409245012
1858.14092495356
1858.1409257957
1858.14092740509
1858.14093061443
1858.14093735047
1858.14095214032
1858.14098542222
1858.14106011536
1858.14122283696
1858.14155722624
1858.14221061725
1858.14076111955
1858.14054767089
1858.14043415349
1858.14037638524
1858.14034870489
1858.14033594301
1858.1403301712
1858.14032755382
1858.14032633747
1858.14032574885
1858.14032545073
1858.14032529354
1858.14032520808
1858.14032516053
1858.14032513346
1858.14032511758
1858.14032510785
1858.14032510153
1858.14032509714
1858.14032509392
1858.14032509144
1858.14032508952
1858.14032508806
1858.140325087
1858.14032508631
1858.14032508599
1858.14032508605
1858.14032508648
1858.1403250873
1858.14032508858
1858.14032509043
1858.14032509308
1858.14032509699
1858.14032510304
1858.14032511286
1858.14032512946
1858.1403251583
1858.14032520925
1858.14032530007
1858.14032546364
1858.1403257638
1858.14032633358
1858.14032747024
1858.14032987178
1858.1403352019
1858.1403473504
1858.14037497894
1858.14043596578
1858.14056292482
1858.14081416264
1858.14027336965
1858.14019384315
1858.1401519067
1858.14013075746
1858.14012071246
1858.14011612086
1858.1401140613
1858.14011313393
1858.14011270442
1858.14011249559
1858.14011238791
1858.14011232905
1858.1401122951
1858.1401122745
1858.14011226132
1858.14011225239
1858.14011224597
1858.14011224112
1858.1401122373
1858.14011223423
1858.14011223174
1858.14011222975
1858.1401122282
1858.14011222708
1858.14011222635
1858.14011222603
1858.14011222609
1858.14011222656
1858.14011222745
1858.14011222878
1858.14011223061
1858.14011223304
1858.14011223625
1858.14011224057
1858.14011224659
1858.14011225538
1858.14011226884
1858.14011229037
1858.14011232605
1858.14011238708
1858.14011249528
1858.14011269648
1858.14011309433
1858.14011393552
1858.140115816
1858.14012014806
1858.14013012213
1858.14015242804
1858.14019948752
1858.14029382846
1858.14009640511
1858.14006744359
1858.14005233104
1858.1400447951
1858.14004124971
1858.14003963995
1858.14003892018
1858.14003859526
1858.14003844276
1858.14003836622
1858.14003832441
1858.14003829946
1858.14003828328
1858.14003827202
1858.14003826368
1858.1400382572
1858.14003825198
1858.14003824767
1858.14003824408
1858.14003824108
1858.1400382386
1858.1400382366
1858.14003823504
1858.1400382339
1858.14003823317
1858.14003823284
1858.14003823292
1858.1400382334
1858.1400382343
1858.14003823564
1858.14003823745
1858.14003823979
1858.14003824273
1858.14003824642
1858.14003825106
1858.14003825706
1858.14003826506
1858.14003827624
1858.14003829264
1858.14003831799
1858.14003835959
1858.14003843283
1858.14003857288
1858.14003886437
1858.1400395142
1858.14004101936
1858.14004452149
1858.14005246328
1858.14006948158
1858.14010410711
1858.14003352144
1858.14002320896
1858.140017921
1858.14001533456
1858.14001413346
1858.14001358934
1858.14001334328
1858.1400132288
1858.14001317186
1858.14001314046
1858.14001312096
1858.14001310746
1858.14001309732
1858.14001308925
1858.14001308259
1858.14001307698
1858.14001307221
1858.14001306812
1858.14001306464
1858.1400130617
1858.14001305925
1858.14001305727
1858.14001305572
1858.14001305459
1858.14001305387
1858.14001305355
1858.14001305363
1858.14001305411
1858.14001305501
1858.14001305634
1858.14001305813
1858.14001306041
1858.14001306324
1858.14001306667
1858.14001307081
1858.1400130758
1858.14001308189
1858.14001308948
1858.14001309926
1858.14001311245
1858.14001313142
1858.14001316117
1858.14001321317
1858.14001331509
1858.14001353518
1858.14001403985
1858.1400152212
1858.14001794791
1858.14002392856
1858.14003635485
1858.140011618
1858.14000803164
1858.14000626418
1858.14000543911
1858.14000506597
1858.14000489485
1858.14000481282
1858.14000477029
1858.14000474557
1858.14000472922
1858.14000471709
1858.14000470739
1858.14000469925
1858.14000469228
1858.14000468623
1858.14000468096
1858.14000467638
1858.14000467241
1858.14000466901
1858.14000466612
1858.14000466372
1858.14000466177
1858.14000466025
1858.14000465914
1858.14000465843
1858.14000465812
1858.1400046582
1858.14000465868
1858.14000465957
1858.14000466088
1858.14000466265
1858.14000466489
1858.14000466764
1858.14000467095
1858.14000467488
1858.1400046795
1858.1400046849
1858.14000469126
1858.1400046988
1858.14000470793
1858.14000471941
1858.14000473475
1858.14000475737
1858.14000479539
1858.14000486866
1858.14000502676
1858.14000539359
1858.14000626756
1858.14000828123
1858.14001263778
1858.14000413473
1858.14000292319
1858.14000239094
1858.1400021796
1858.14000209269
1858.14000204925
1858.14000202266
1858.14000200406
1858.14000198987
1858.14000197834
1858.14000196857
1858.14000196008
1858.14000195262
1858.14000194603
1858.14000194023
1858.14000193513
1858.14000193066
1858.14000192679
1858.14000192346
1858.14000192064
1858.14000191829
1858.14000191638
1858.14000191489
1858.14000191381
1858.14000191312
1858.14000191282
1858.1400019129
1858.14000191338
1858.14000191425
1858.14000191554
1858.14000191727
1858.14000191947
1858.14000192217
1858.1400019254
1858.14000192921
1858.14000193366
1858.14000193881
1858.14000194473
1858.14000195152
1858.14000195934
1858.14000196843
1858.14000197917
1858.14000199235
1858.14000200945
1858.14000203384
1858.14000207465
1858.14000216178
1858.14000239143
1858.14000300927
1858.14000449433
1858.14000162668
1858.14000123681
1858.14000112902
1858.14000112683
1858.14000113641
1858.14000113538
1858.14000112682
1858.14000111578
1858.14000110479
1858.14000109468
1858.14000108559
1858.14000107748
1858.14000107026
1858.14000106384
1858.14000105817
1858.14000105318
1858.14000104882
1858.14000104504
1858.14000104179
1858.14000103904
1858.14000103675
1858.14000103489
1858.14000103344
1858.14000103239
1858.14000103172
1858.14000103143
1858.14000103152
1858.14000103198
1858.14000103284
1858.14000103411
1858.1400010358
1858.14000103795
1858.14000104059
1858.14000104375
1858.14000104748
1858.14000105182
1858.14000105684
1858.14000106258
1858.14000106913
1858.14000107655
1858.14000108494
1858.14000109435
1858.14000110471
1858.14000111538
1858.14000112417
1858.14000112652
1858.14000112004
1858.14000113057
1858.14000126738
1858.14000175125
1858.1400008034
1858.1400006924
1858.14000072725
1858.14000079428
1858.14000083508
1858.1400008473
1858.14000084407
1858.14000083507
1858.14000082485
1858.14000081503
1858.14000080609
1858.14000079808
1858.14000079096
1858.14000078465
1858.14000077909
1858.14000077421
1858.14000076995
1858.14000076627
1858.1400007631
1858.14000076043
1858.1400007582
1858.1400007564
1858.140000755
1858.14000075399
1858.14000075334
1858.14000075306
1858.14000075315
1858.14000075361
1858.14000075444
1858.14000075568
1858.14000075733
1858.14000075942
1858.140000762
1858.14000076509
1858.14000076873
1858.14000077299
1858.14000077792
1858.14000078357
1858.14000079002
1858.14000079733
1858.14000080558
1858.14000081473
1858.14000082448
1858.1400008335
1858.14000083785
1858.1400008284
1858.14000079188
1858.14000073
1858.14000070464
1858.14000084611
1858.14000054089
1858.14000052281
1858.14000060414
1858.14000069277
1858.14000074262
1858.14000075821
1858.14000075601
1858.1400007472
1858.14000073693
1858.14000072705
1858.14000071808
1858.1400007101
1858.14000070304
1858.14000069683
1858.14000069138
1858.14000068661
1858.14000068247
1858.14000067889
1858.14000067582
1858.14000067323
1858.14000067109
1858.14000066935
1858.140000668
1858.14000066702
1858.1400006664
1858.14000066614
1858.14000066623
1858.14000066667
1858.14000066749
1858.14000066869
1858.14000067029
1858.14000067232
1858.14000067483
1858.14000067783
1858.14000068139
1858.14000068556
1858.14000069039
1858.14000069597
1858.14000070236
1858.14000070966
1858.14000071794
1858.14000072718
1858.14000073703
1858.140000746
1858.14000074962
1858.14000073733
1858.14000069221
1858.1400006077
1858.14000052922
1858.14000055574
1858.14000046242
1858.14000047475
1858.1400005702
1858.14000066432
1858.14000071567
1858.14000073123
1858.14000072859
1858.14000071933
1858.14000070873
1858.14000069867
1858.14000068963
1858.14000068166
1858.14000067468
1858.14000066857
1858.14000066324
1858.1400006586
1858.14000065458
1858.14000065112
1858.14000064817
1858.14000064568
1858.14000064361
1858.14000064194
1858.14000064065
1858.14000063971
1858.14000063912
1858.14000063887
1858.14000063896
1858.1400006394
1858.14000064019
1858.14000064135
1858.14000064289
1858.14000064486
1858.14000064729
1858.1400006502
1858.14000065366
1858.14000065773
1858.14000066247
1858.14000066796
1858.1400006743
1858.1400006816
1858.14000068995
1858.14000069939
1858.14000070957
1858.14000071903
1858.14000072321
1858.14000071111
1858.14000066464
1858.14000057428
1858.14000047945
1858.14000046805
1858.14000044414
1858.14000046617
1858.14000056481
1858.14000065883
1858.14000070896
1858.14000072325
1858.1400007196
1858.14000070967
1858.14000069866
1858.14000068839
1858.14000067929
1858.14000067135
1858.14000066446
1858.14000065847
1858.14000065328
1858.14000064878
1858.14000064491
1858.14000064158
1858.14000063874
1858.14000063635
1858.14000063438
1858.14000063279
1858.14000063156
1858.14000063067
1858.14000063011
1858.14000062987
1858.14000062996
1858.14000063039
1858.14000063115
1858.14000063226
1858.14000063375
1858.14000063564
1858.14000063798
1858.1400006408
1858.14000064415
1858.1400006481
1858.14000065272