/*--------------------------------*- C++ -*----------------------------------*\
  =========                 |
  \\      /  F ield         | OpenFOAM: The Open Source CFD Toolbox
   \\    /   O peration     | Website:  https://openfoam.org
    \\  /    A nd           | Version:  10
     \\/     M anipulation  |
\*---------------------------------------------------------------------------*/
FoamFile
{
    format      ascii;
    class       volScalarField;
    location    "9.8";
    object      k;
}
// * * * * * * * * * * * * * * * * * * * * * * * * * * * * * * * * * * * * * //

dimensions      [0 2 -2 0 0 0 0];

internalField   nonuniform List<scalar> 
2500
(
5.11950474077724e-10
1.01018248080833e-08
4.34380367822565e-08
7.62119967777535e-08
1.0578434808252e-07
1.31159519007782e-07
1.51912097965866e-07
1.68097743528303e-07
1.80143889401916e-07
1.8870533317208e-07
1.94520999248996e-07
1.98300382436944e-07
2.006525021412e-07
2.0205591529485e-07
2.02859594594475e-07
2.03301814005981e-07
2.03535874949187e-07
2.03655167010927e-07
2.03713766358613e-07
2.03741530795578e-07
2.03754223135536e-07
2.03759816928987e-07
2.03762183641903e-07
2.03763123824415e-07
2.03763424180678e-07
2.03763364078527e-07
2.03762913784484e-07
2.03761723790914e-07
2.03758892301563e-07
2.03752422448325e-07
2.037381183568e-07
2.0370750616638e-07
2.03644124027499e-07
2.0351726410927e-07
2.03272046471651e-07
2.02814753591204e-07
2.01992947852453e-07
2.00571358247955e-07
1.98207077234016e-07
1.94431072202846e-07
1.8864649185971e-07
1.80156010086029e-07
1.68228243880432e-07
1.52205357743959e-07
1.31640513617114e-07
1.06438273495707e-07
7.69615328963636e-08
4.41124247153777e-08
1.03612632629521e-08
5.32221789458395e-10
1.26717371299563e-08
2.91422245029866e-07
1.2789264791426e-06
2.24487613750087e-06
3.11697637775668e-06
3.86625882426247e-06
4.48007166227117e-06
4.95977967953072e-06
5.31764819448069e-06
5.57267454346048e-06
5.74642365469499e-06
5.85970004403398e-06
5.9304410621676e-06
5.97280311833425e-06
5.99715479175848e-06
6.01060728777383e-06
6.01775667101463e-06
6.02141576744164e-06
6.02322095335348e-06
6.02408002305522e-06
6.02447450718439e-06
6.0246491840979e-06
6.02472345946143e-06
6.02475312781192e-06
6.02476267443063e-06
6.02476083190439e-06
6.02474669067784e-06
6.0247093765377e-06
6.02462091550411e-06
6.02441960464392e-06
6.02397634393089e-06
6.02303152769557e-06
6.02108307680517e-06
6.0171985536375e-06
6.00971883899392e-06
5.99582306609515e-06
5.97094281979028e-06
5.92805755065166e-06
5.85697835468272e-06
5.74382756275497e-06
5.57102017473184e-06
5.31809954732133e-06
4.96370984757138e-06
4.4887533750619e-06
3.88039070960075e-06
3.13609673037433e-06
2.26671098963081e-06
1.29850655218669e-06
2.98776673954486e-07
1.31564630147421e-08
4.49089932249252e-08
1.30784369539528e-06
6.5049736183155e-06
1.14072568438963e-05
1.5811350498527e-05
1.95850160086539e-05
2.26709818477765e-05
2.50805801738325e-05
2.68780159069594e-05
2.81597204827874e-05
2.90340253553898e-05
2.96050230301761e-05
2.99623739354666e-05
3.01768933947802e-05
3.03005430413136e-05
3.03690488785641e-05
3.04055683229623e-05
3.04243191240885e-05
3.04336004968832e-05
3.04380326842017e-05
3.0440075298453e-05
3.04409832219104e-05
3.04413708907107e-05
3.04415264844155e-05
3.044157694047e-05
3.04415677369462e-05
3.04414943828833e-05
3.0441300806692e-05
3.04408429224927e-05
3.04398036625727e-05
3.04375214329604e-05
3.04326696209898e-05
3.04226898638642e-05
3.04028445020164e-05
3.03647276886741e-05
3.02940876468129e-05
3.01679057270557e-05
2.99508964183893e-05
2.95919611909348e-05
2.9021614088882e-05
2.81518660723937e-05
2.68802675826681e-05
2.50994693099567e-05
2.27125564675111e-05
1.96525890525063e-05
1.59026818185056e-05
1.15113740808758e-05
6.59791922215639e-06
1.33815727508194e-06
4.6383287200682e-08
7.94151381154225e-08
2.32891437329677e-06
1.16382026687062e-05
2.03587036862656e-05
2.81577484947137e-05
3.48164874127562e-05
4.02463427863202e-05
4.44770688573418e-05
4.7628264100468e-05
4.98732019776784e-05
5.14038521274137e-05
5.24034063074364e-05
5.30290871502561e-05
5.34048457357179e-05
5.36215641732065e-05
5.37417220975038e-05
5.38058315061849e-05
5.38387799656963e-05
5.38551062594744e-05
5.3862911698291e-05
5.38665134994323e-05
5.3868116760467e-05
5.38688024927374e-05
5.38690783925964e-05
5.38691684924502e-05
5.38691534094466e-05
5.38690260240693e-05
5.38686886989066e-05
5.38678900064075e-05
5.38660761369516e-05
5.38620908652573e-05
5.385361477313e-05
5.38361733350772e-05
5.38014781711195e-05
5.37348202060703e-05
5.3611255840449e-05
5.33904888994911e-05
5.30107296215887e-05
5.23824485997302e-05
5.1383777408542e-05
4.98601105020748e-05
4.76308279008129e-05
4.45054963755619e-05
4.03100753722317e-05
3.4920633891135e-05
2.829857287146e-05
2.05185192593529e-05
1.17790060121184e-05
2.37362274759305e-06
8.15455772089637e-08
1.13517648998231e-07
3.33073098914049e-06
1.66244330964174e-05
2.90127135830279e-05
4.00493753348595e-05
4.94429421791932e-05
5.70840860001194e-05
6.30267981540273e-05
6.74474391229035e-05
7.05941822940163e-05
7.27388067963348e-05
7.41391600863374e-05
7.50158550188409e-05
7.55425436516668e-05
7.58464626645678e-05
7.60150740279993e-05
7.61051017565238e-05
7.6151409460405e-05
7.61743768638012e-05
7.61853687705113e-05
7.61904468607168e-05
7.61927102702777e-05
7.61936799258454e-05
7.61940709924346e-05
7.61941995604124e-05
7.61941799183164e-05
7.6194003129613e-05
7.61935332277869e-05
7.61924194291108e-05
7.61898882116464e-05
7.61843235339385e-05
7.61724817748216e-05
7.61481024888309e-05
7.60995843875279e-05
7.60063317900729e-05
7.58334074675097e-05
7.55243525983325e-05
7.49925605059037e-05
7.41124733361041e-05
7.27130224504133e-05
7.05768376235725e-05
6.74492520842408e-05
6.30603760880021e-05
5.71610559549927e-05
4.9569497923074e-05
4.02206262271917e-05
2.92063674865125e-05
1.67935776996128e-05
3.38416771536973e-06
1.16080437406975e-07
1.46477609208707e-07
4.29820696633824e-06
2.14109927156418e-05
3.72839649075317e-05
5.13763599170367e-05
6.33372933401447e-05
7.304572238609e-05
8.05840724712396e-05
8.61854374274767e-05
9.01699081518273e-05
9.28845499273849e-05
9.46569924323321e-05
9.57668118380353e-05
9.64337767849581e-05
9.68188234544543e-05
9.70325703683905e-05
9.71467770887003e-05
9.72055683595954e-05
9.723475323016e-05
9.72487346485639e-05
9.72552011166552e-05
9.72580871214263e-05
9.72593254976102e-05
9.72598261310048e-05
9.72599917659439e-05
9.72599687487712e-05
9.72597469947366e-05
9.72591553681857e-05
9.72577516419455e-05
9.72545595861128e-05
9.72475383281756e-05
9.72325893814194e-05
9.72017987313636e-05
9.71404950697695e-05
9.70226236708746e-05
9.68039735448011e-05
9.64130782734875e-05
9.57402721420682e-05
9.46264901023895e-05
9.28548397376588e-05
9.0149348076177e-05
8.61859086790292e-05
8.06195298765462e-05
7.31289890769259e-05
6.34750953107146e-05
5.15630473647514e-05
3.74946368226131e-05
2.1594282596293e-05
4.35651676064583e-06
1.49320474870172e-07
1.77884232185885e-07
5.22024576490874e-06
2.59527727997129e-05
4.51009610517913e-05
6.2048206083288e-05
7.63963505682902e-05
8.80200939987308e-05
9.70329788044066e-05
0.000103723600818777
0.000108480153128799
0.000111719947323509
0.000113835228005406
0.000115159949654578
0.000115956329035228
0.000116416300218415
0.000116671784651178
0.000116808383063641
0.000116878754485278
0.000116913717745616
0.000116930483473691
0.000116938246187026
0.000116941715166919
0.00011694320609603
0.00011694381026764
0.000116944011372718
0.000116943986038523
0.000116943723592846
0.000116943020856564
0.000116941352000061
0.000116937555047037
0.00011692919934143
0.000116911401247205
0.000116874726699404
0.000116801680150546
0.000116661181707511
0.00011640047911689
0.000115934277037404
0.000115131650681858
0.000113802621702275
0.000111687973532448
0.000108457499089349
0.000103722600732124
9.70680847673481e-05
8.81045256573604e-05
7.65369334862539e-05
6.22389007377054e-05
4.53159536172689e-05
2.61397682618769e-05
5.28065200111653e-06
1.8089479079896e-07
2.07434166494247e-07
6.08819161168541e-06
3.02127953990989e-05
5.24065184609972e-05
7.19941287379801e-05
8.85409405611898e-05
0.000101923283617662
0.000112287138393055
0.000119974372232096
0.000125436827668042
0.00012915666679396
0.000131585408867334
0.000133106729933294
0.000134021601957657
0.000134550248653381
0.000134844038809999
0.000135001218238958
0.00013508225122317
0.00013512254453719
0.000135141884038002
0.000135150847950495
0.000135154858772487
0.000135156585337967
0.000135157286672418
0.000135157521489341
0.00013515749475784
0.000135157195708122
0.000135156392193154
0.000135154482488791
0.000135150135643056
0.000135140565992303
0.000135120174125778
0.00013507813913222
0.000134994386989131
0.00013483324738942
0.000134534162232465
0.000133999193015964
0.000133077971038698
0.000131552229295067
0.000129123987243601
0.000125413288903604
0.000119972210785939
0.000112320639178111
0.00010200543517775
8.8678329251821e-05
7.21806187794767e-05
5.26166936273993e-05
3.03960266310105e-05
6.14868025667028e-06
2.10527263722112e-07
2.34899431189835e-07
6.89542589688784e-06
3.41627987341436e-05
5.91584150739958e-05
8.11635561739129e-05
9.97161965848989e-05
0.000114698697454791
0.000126289624943719
0.000134881098806334
0.000140983708540139
0.000145138863820339
0.00014785195570315
0.000149551731989076
0.000150574256981222
0.000151165365953725
0.000151494041610014
0.000151669992304807
0.000151760765649358
0.000151805937668797
0.00015182763805385
0.000151837706566845
0.00015184221717165
0.000151844161940359
0.000151844953786865
0.000151845220410961
0.00015184519307964
0.000151844861306801
0.000151843967000897
0.000151841840042726
0.000151836996924562
0.000151826331121159
0.000151803595727161
0.000151756714362587
0.000151663277372903
0.000151483454329452
0.000151149610250363
0.000150552340601446
0.000149523637871157
0.000147819562899676
0.000145106934231305
0.000140960566199955
0.000134878477426391
0.000126321146570487
0.000114776645326952
9.98466527882741e-05
8.13404832338502e-05
5.93577075620642e-05
3.43372496285823e-05
6.95458273933056e-06
2.38011321270601e-07
2.60120587705398e-07
7.6372748439422e-06
3.77834942462892e-05
6.53295230564163e-05
8.952598587723e-05
0.00010989112042774
0.000126316375660019
0.00013901208526883
0.000148417020757293
0.000155095341619796
0.000159642030604843
0.000162610984621302
0.000164471451135766
0.000165591003176442
0.000166238473036131
0.000166598668045321
0.000166791604111131
0.000166891205932225
0.000166940808278647
0.000166964657191132
0.000166975733483709
0.000166980701468324
0.000166982846726678
0.000166983722228831
0.000166984018637335
0.000166983991394616
0.000166983630560181
0.000166982655050984
0.000166980333576235
0.000166975045988653
0.000166963398076311
0.000166938561910521
0.000166887333764044
0.000166785205535529
0.000166588607497277
0.00016622354154294
0.000165570290968501
0.000164444981118947
0.00016258057322675
0.000159612198060792
0.000155073918206277
0.000148414960982829
0.000139042001620706
0.000126389505458692
0.000110012834790246
8.96904384677868e-05
6.55144672424486e-05
3.79461881563133e-05
7.69418138823873e-06
2.63205633748342e-07
2.8300402899481e-07
8.31095850395226e-06
4.10644358112127e-05
7.09073350653642e-05
9.70701036671427e-05
0.000119057332126184
0.000136771449241171
0.000150452983534739
0.000160583370384528
0.000167775046127063
0.000172670940696785
0.000175868215485468
0.000177872185631216
0.000179078472028799
0.000179776382641999
0.000180164823932041
0.0001803730044957
0.000180480543315978
0.000180534136182289
0.00018055992452148
0.000180571912822864
0.000180577296007775
0.000180579624000046
0.000180580576189368
0.000180580900262638
0.000180580873668825
0.000180580487233672
0.000180579439653652
0.000180576945386475
0.000180571262914582
0.00018055874222944
0.00018053203838647
0.000180476943864057
0.000180367081131257
0.00018015554792548
0.000179762673554605
0.000179059546396333
0.000177848141641768
0.000175840817126495
0.000172644431598109
0.000167756665312325
0.000160583127069528
0.000150482261558664
0.000136840212986313
0.000119170082271348
9.72211864309212e-05
7.1076599664805e-05
4.12140672777064e-05
8.36510964528077e-06
2.86032162076658e-07
3.03518394110542e-07
8.91549639660882e-06
4.40035214235931e-05
7.58929339551707e-05
0.000103802237474884
0.000127227091860201
0.000146081832920509
0.000160635059306706
0.000171406670391961
0.000179052108277586
0.000184256776200797
0.000187656058210499
0.000189787098563593
0.000191070265246051
0.000191812939315503
0.000192226481700123
0.000192448229929249
0.000192562844714373
0.000192620001977785
0.000192647526411095
0.000192660333188893
0.000192666090157705
0.000192668583320957
0.000192669605220742
0.000192669954763849
0.000192669929265167
0.000192669520475091
0.000192668409452327
0.000192665762963684
0.000192659732617019
0.000192646442935193
0.000192618092919038
0.000192559589071775
0.000192442903052091
0.000192218188693065
0.000191800762933155
0.000191053588061759
0.000189766132689273
0.000187632542692156
0.000184234681720164
0.000179038050254692
0.000171409637792376
0.000160665094073212
0.0001461474937915
0.000127331888983482
0.000103940637221488
7.60468704129451e-05
4.41401136161676e-05
8.96672565501596e-06
3.06472767878448e-07
3.21688944758901e-07
9.45155025276825e-06
4.66061769055023e-05
8.02994955118788e-05
0.000109744259325878
0.000134430720616329
0.000154285285957799
0.000169602132720519
0.000180935364430696
0.000188978296370756
0.000194453568782276
0.000198030007637069
0.000200272584896661
0.000201623305575567
0.000202405361094297
0.000202841017142631
0.000203074736694581
0.00020319560560883
0.000203255919333798
0.000203284984533713
0.000203298519566622
0.000203304610162147
0.000203307251348284
0.000203308336073156
0.000203308708854503
0.000203308684791205
0.000203308256660988
0.000203307090276646
0.000203304310864935
0.000203297976774997
0.000203284015593382
0.000203254227689562
0.000203192744690717
0.000203070093774212
0.00020283385190633
0.000202394947521581
0.000201609227220844
0.000200255207352483
0.000198011084556995
0.000194436830755889
0.000188969753727495
0.00018094298314748
0.000169634584263856
0.000154349666987771
0.000134529464418673
0.000109871826717816
8.04397097566778e-05
4.67307603247694e-05
9.49995826654264e-06
3.24563608419418e-07
3.3758999583679e-07
9.92120902273886e-06
4.88842892545777e-05
8.41504343513034e-05
0.000114931071593008
0.000140713570731544
0.000161436000262502
0.000177415420436318
0.000189235945816597
0.000197623864525086
0.000203334122391572
0.00020706451531998
0.000209404112250686
0.000210813659347367
0.0002116300517053
0.000212085015957866
0.000212329204456944
0.000212455552118085
0.000212518636333717
0.000212549056880405
0.000212563234185641
0.000212569619947984
0.000212572392624891
0.000212573533471827
0.000212573927262767
0.000212573904878327
0.000212573460182748
0.000212572245937659
0.000212569351535877
0.000212562754721288
0.000212548212698441
0.000212517180704748
0.000212453119091184
0.000212325303093883
0.000212079075508697
0.000211621558987228
0.000210802428455381
0.00020939070049526
0.000207050737572147
0.000203323522307127
0.000197621903131829
0.000189249617676278
0.000177452062766868
0.0001615012509586
0.000140808729355834
0.000115050434800039
8.42793930114012e-05
4.89986049593296e-05
9.96709527775247e-06
3.40387582167411e-07
3.51335902109739e-07
1.03277311186384e-05
5.08549684960299e-05
8.74773157181612e-05
0.000119407828288455
0.000146132714847794
0.000167600895724068
0.000184149549776674
0.000196388776807253
0.000205073240772449
0.000210985615605252
0.000214848537524924
0.00021727173557629
0.000218732031411651
0.000219578084228418
0.000220049751206857
0.000220303010432036
0.0002204341134892
0.000220499607145022
0.00022053120904328
0.00022054594763143
0.000220552592163059
0.000220555480587038
0.000220556671115309
0.00022055708372574
0.000220557063178909
0.000220556604448751
0.000220555349242033
0.000220552356355508
0.000220545534564802
0.000220530495143392
0.000220498397503703
0.000220432126272517
0.000220299882430921
0.000220045090996358
0.000219571606975044
0.000218723805529353
0.000217262545116088
0.000214840307818158
0.000210981768789183
0.000205078769279233
0.000196409793357153
0.000184192140343026
0.000167669287638259
0.000146227042902488
0.000119522051810605
8.75979973280029e-05
5.09612021538329e-05
1.03715305921839e-05
3.54065399794485e-07
3.63071221549716e-07
1.06752618130486e-05
5.25392185444558e-05
9.03176558517422e-05
0.000123227041849166
0.000150753522283161
0.000172855804528695
0.000189888461795244
0.00020248379551517
0.00021142060097735
0.000217505088008356
0.000221480965781669
0.000223975493271071
0.000225479140745547
0.000226350564919759
0.000226836540611703
0.000227097583202857
0.000227232774125122
0.000227300343162056
0.000227332964937819
0.000227348189376526
0.000227355058624433
0.000227358047978629
0.000227359282075689
0.000227359711385459
0.000227359692762267
0.000227359222285453
0.000227357932407799
0.000227354856086953
0.000227347843725551
0.000227332382950036
0.000227299382318027
0.000227231237931478
0.00022709523874198
0.000226833180937272
0.000226346143414843
0.000225473998003308
0.000223970670455411
0.000221478546886178
0.000217508444425773
0.000211434351410303
0.00020251328411694
0.000189938637217044
0.000172929563509061
0.000150849826135121
0.00012333934003094
9.04332554898722e-05
5.26397716832398e-05
1.07174885846495e-05
3.65745920568197e-07
3.7296067014176e-07
1.09685434931915e-05
5.39605930544577e-05
9.27127253229877e-05
0.000126445715587359
0.000154646280723207
0.000177281714994339
0.000194721382949821
0.000207616296709538
0.000216765519462409
0.000222995004645737
0.000227066136080976
0.000229620882123411
0.000231161174894892
0.000232054075817306
0.000232552182572635
0.00023281983520166
0.000232958504238484
0.000233027842748607
0.00023306133610859
0.000233076976885168
0.000233084039334744
0.000233087115830264
0.000233088387763419
0.000233088831749106
0.000233088815076608
0.000233088334906021
0.000233087016044771
0.000233083869893594
0.000233076698038228
0.000233060884571949
0.000233027127812229
0.000232957414123622
0.000232818267048351
0.000232550115141035
0.000232051705535129
0.000231159126631926
0.000229620478970007
0.00022706966505231
0.000223005856949834
0.000216788040172886
0.000207655186348675
0.000194780584191116
0.000177362894356558
0.000154747236110869
0.000126559226166862
9.28264178163302e-05
5.40578961676776e-05
1.10097430645127e-05
3.75596360754382e-07
3.81179403095074e-07
1.12126342098785e-05
5.5143901057937e-05
9.47054519357584e-05
0.000129122619874956
0.000157882996306884
0.000180961218848418
0.00019873901727204
0.00021188294420087
0.000221208858146494
0.00022755906316585
0.000231709583192787
0.000234314578731075
0.000235885491612016
0.000236796364904363
0.000237304639912008
0.000237577842989878
0.000237719438328128
0.00023779026880932
0.000237824498861853
0.000237840492540462
0.000237847719316942
0.00023785087025416
0.000237852174705828
0.000237852631461662
0.000237852616721955
0.000237852128686853
0.000237850785945716
0.000237847582166325
0.000237840278664768
0.000237824174002273
0.000237789792617528
0.00023771878169191
0.000237577030674746
0.000237303834426691
0.000236796006254705
0.000235886495725321
0.000234318569509187
0.000231719089294192
0.000227577561773017
0.000221240519027611
0.000211931951145263
0.00019880844465222
0.000181051614099353
0.000157991019046388
0.000129240238442042
9.48202148189501e-05
5.52402704240663e-05
1.12533455629117e-05
3.83792883631152e-07
3.87904045975892e-07
1.14126468412669e-05
5.61140136195876e-05
9.63384987793528e-05
0.000131315804090215
0.000160534475743927
0.000183975274112712
0.00020203007754366
0.000215378137985023
0.000224849020715011
0.000231298372483439
0.000235514170465135
0.000238160538733986
0.000239756699627829
0.000240682416123919
0.000241199103841147
0.000241476907944234
0.00024162093414759
0.000241693006888721
0.000241727851939831
0.000241744141118257
0.00024175150599635
0.000241754719786034
0.000241756051871685
0.000241756519623814
0.000241756506766408
0.0002417560124885
0.000241754650420846
0.000241751399892506
0.000241743989544492
0.000241727648406474
0.000241692759362652
0.000241620693132635
0.000241476821803725
0.000241199514465541
0.000240684004194279
0.000239760674295936
0.000238168837800824
0.000235529596086512
0.00023132454672751
0.000224890029436687
0.000215437769675261
0.00020211067351776
0.000184076376635798
0.00016065164243287
0.000131440076122847
9.64569921769963e-05
5.62115506357081e-05
1.1453374427293e-05
3.90511963216556e-07
3.93304766844883e-07
1.15735174520248e-05
5.68948066457192e-05
9.76525684313609e-05
0.000133080405926815
0.000162667759595367
0.000186400358333404
0.000204678234464303
0.000218190818314741
0.0002277786563057
0.000234308089069339
0.000238576682305571
0.000241256561769214
0.000242873206907109
0.000243810987857783
0.000244334526916306
0.00024461608620159
0.000244762101063944
0.000244835192723399
0.000244870543675913
0.000244887076753316
0.000244894556079655
0.000244897822224801
0.000244899177494914
0.000244899654609347
0.000244899643562806
0.000244899144476563
0.000244897767131762
0.000244894479521119
0.000244886984332776
0.000244870455226501
0.000244835162135616
0.000244762254806869
0.000244616691202506
0.000244336098459406
0.000243814441889022
0.000242880044256637
0.000241269041975259
0.000238597905830769
0.000234341872881618
0.000227829083336562
0.000218261392377562
0.000204770689998439
0.000186513342681793
0.000162795771878177
0.000133213469408974
9.77770654556436e-05
5.69953355537803e-05
1.1614712466178e-05
3.9592277967104e-07
3.9753855415362e-07
1.16998078599944e-05
5.7508260108788e-05
9.86849617742509e-05
0.000134466791762507
0.000164343944150037
0.000188306052470032
0.000206759526405735
0.000220401751075667
0.00023008185843163
0.000236674557559982
0.000240984926711257
0.000243691369959073
0.000245324284480133
0.000246271668133756
0.000246800673348546
0.000247085236282436
0.00024723284625802
0.000247306757712257
0.000247342517102237
0.00024735924787205
0.000247366820405938
0.000247370129446196
0.000247371503871432
0.000247371988855311
0.000247371979537227
0.000247371476913433
0.000247370087894263
0.000247366771793354
0.000247359211295222
0.000247342537216869
0.000247306931829366
0.000247233372933319
0.000247086495523507
0.000246803346989199
0.000246276900416771
0.00024533386367264
0.00024370788077473
0.0002410117859976
0.000236715817636115
0.000230141667836382
0.000220483425181161
0.000206864305127352
0.000188431789760933
0.000164484127502853
0.000134610360480954
9.88173200974652e-05
5.76132975984509e-05
1.17418574471364e-05
4.00180782198119e-07
4.00743747798956e-07
1.17955440688629e-05
5.79737197853241e-05
9.94683985100722e-05
0.000135519035333804
0.000165616399240506
0.000189753063023943
0.000208340237702305
0.000222081302839395
0.000231831867919067
0.000238472964808074
0.00024281535723969
0.000245542209519674
0.000247187655572292
0.00024814245637454
0.00024867569653718
0.000248962594299575
0.00024911144869291
0.000249186002245687
0.000249222082959048
0.000249238970046571
0.000249246616727024
0.000249249960149832
0.000249251350091331
0.000249251841587939
0.000249251833913636
0.000249251328886349
0.000249249931416167
0.000249246594503376
0.000249238986121256
0.000249222205376982
0.000249186369328666
0.000249112327309607
0.000248964472107848
0.000248679414929184
0.000248149380275878
0.00024719985479604
0.000245562594003479
0.000242847672268894
0.000238521529000837
0.000231900950517632
0.000222174110475305
0.000208457611060337
0.000189892151660882
0.000165769725668701
0.000135674411177319
9.96100619533984e-05
5.80844683399193e-05
1.18387665947079e-05
4.03422444257652e-07
4.03035781734227e-07
1.18640896777427e-05
5.83073171022513e-05
0.000100030090692621
0.000136273722444483
0.000166529367123981
0.00019079166578585
0.000209475227777384
0.00022328768727707
0.000233089261221234
0.000239765488586525
0.000244131195583988
0.000246872956644055
0.000248527591197173
0.000249487852867119
0.000250024225019437
0.000250312857952649
0.00025046264205868
0.000250537678102991
0.000250574001816113
0.000250591007979931
0.000250598711627554
0.000250602081747921
0.000250603483913431
0.000250603980691035
0.000250603974580893
0.000250603468175966
0.000250602065173177
0.000250598714392522
0.000250591073860179
0.000250574220978776
0.000250538227737792
0.000250463853959412
0.000250315322483416
0.000250028936610549
0.000249496389683695
0.000248542298035541
0.00024689706635112
0.000244168788795929
0.000239821172176246
0.000233167466536509
0.000223391574256113
0.000209605314069141
0.000190944470229268
0.000166696490540823
0.000136441824305172
0.000100182108860857
5.8424673209984e-05
1.19087339241595e-05
4.05761155925877e-07
4.04504033064797e-07
1.19080515299876e-05
5.85215348616881e-05
0.000100391048916211
0.000136759055023415
0.000167116911176227
0.000191460536741071
0.000210206674496136
0.00022406564494189
0.000233900585262146
0.00024059990158665
0.000244981015119096
0.000247732687867795
0.000249393472345812
0.000250357416052667
0.000250895916924655
0.000251185739395423
0.000251336166780006
0.000251411540009692
0.000251448035400024
0.00025146512671989
0.000251472871683451
0.000251476261497757
0.000251477672885697
0.000251478173821384
0.000251478169206409
0.000251477662372109
0.00025147625653046
0.000251472898284339
0.000251465240086442
0.00025144834679939
0.000251412263758535
0.000251337696817524
0.000251188764676522
0.000250901579365811
0.000250367500454196
0.000249410592073791
0.000247760394901374
0.000245023728069801
0.000240662529260647
0.000233987748904457
0.000224180501734706
0.000210349474961144
0.000191627225460362
0.000167298204701837
0.000136940452391996
0.000100554103314171
5.86461033629688e-05
1.19542976352959e-05
4.07284143591143e-07
4.05209643188414e-07
1.1929214033521e-05
5.86249032617478e-05
0.000100565595972126
0.000136994221713855
0.000167402172915229
0.000191785923171697
0.000210563181816174
0.000224445505020699
0.000234297386799617
0.000241008578560133
0.000245397733459298
0.000248154663263944
0.000249818767461692
0.00025078473665492
0.000251324432244141
0.000251614936544869
0.000251765740880235
0.000251841316336261
0.0002518779172684
0.000251895062370285
0.000251902834230014
0.000251906237323869
0.000251907655208307
0.000251908159294679
0.000251908156124464
0.000251907649742842
0.000251906243571624
0.000251902883854353
0.000251895221595479
0.000251878317740508
0.000251842208256602
0.000251767578321266
0.00025161850401328
0.00025133101492069
0.000250796320704004
0.000249838229176431
0.000248185869214539
0.000245445439243422
0.000241078001074412
0.000234393351429204
0.000224571191932189
0.00021071860933878
0.000191966499462358
0.000167597759517631
0.000137189162278256
0.00010074002234812
5.87570100568037e-05
1.19771741786711e-05
4.08050288841176e-07
4.05184119903743e-07
1.19284964714648e-05
5.86218036027949e-05
0.000100561058032583
0.000136989003892784
0.00016739691514894
0.000191781136882978
0.000210559233291932
0.000224442608214015
0.000234295612471267
0.000241007879733609
0.000245397981765805
0.000248155687597144
0.000249820388444567
0.000250786790329475
0.000251326783310391
0.000251617482151209
0.000251768408121469
0.00025184405660695
0.000251880699876977
0.000251897868840758
0.000251905653882012
0.00025190906417611
0.000251910485985524
0.000251910992280515
0.000251910990521362
0.000251910485455241
0.000251909081401324
0.000251905726061799
0.000251898073016126
0.000251881187680421
0.000251845113428334
0.000251770546997856
0.000251621581293982
0.000251334268436418
0.000250799845241977
0.000249842147743264
0.0002481903273805
0.000245450589806164
0.000241083977663152
0.000234400232676398
0.000224578961486283
0.000210727119690231
0.000191975447565317
0.000167606678560438
0.000137197427421614
0.000100746861628362
5.87615072024535e-05
1.19782157047971e-05
4.08088729415671e-07
4.04428769104715e-07
1.19059358694687e-05
5.8512387343248e-05
0.000100377628231588
0.000136743590669452
0.0001671012981151
0.000191446300351495
0.000210194916054277
0.000224057014645363
0.000233895305334073
0.00024059783987374
0.000244981792678508
0.00024773579567349
0.000249398373573429
0.000250363619038229
0.000250903015254753
0.000251193423742497
0.000251344217679568
0.000251419811046059
0.000251456434073168
0.000251473597326397
0.000251481382016799
0.000251484793521261
0.000251486216725827
0.000251486724308805
0.000251486723942592
0.000251486221076518
0.000251484821634856
0.000251481476621035
0.000251473846256715
0.000251457008888308
0.000251421032179903
0.000251346656816448
0.000251198052151526
0.000250911397958802
0.000250378135295612
0.000249422412673397
0.000247773837667389
0.000245039249585072
0.000240680526305775
0.000234008450392854
0.000224203848796519
0.000210375013553776
0.000191654035787128
0.000167324880539267
0.0001369651234527
0.000100574473422195
5.86594663040535e-05
1.19573863176557e-05
4.07398001181846e-07
4.02914863806712e-07
1.18606913913865e-05
5.82925879403786e-05
0.00010000837640649
0.000136248584944983
0.000166503882001399
0.000190768347424702
0.00020945592037719
0.000223273502493489
0.000233080602609784
0.00023976216522582
0.000244132597196775
0.000246878247507988
0.000248535882133652
0.000249498325335926
0.000250036200073465
0.000250325817561631
0.00025047621801835
0.000250551624431754
0.000250588162954742
0.000250605290183211
0.000250613060670228
0.000250616467258697
0.000250617889273156
0.0002506183972122
0.000250618398238925
0.000250617898513877
0.000250616506324617
0.00025061317790422
0.000250605584369441
0.000250588825829233
0.00025055301184137
0.000250478960761772
0.000250330980408535
0.000250045487448674
0.000249514311056965
0.000248562207216952
0.000246919689420735
0.000244194880401935
0.00023985137965146
0.000233202147920872
0.000223430598679036
0.000209647886655428
0.000190989023131702
0.000166740662089405
0.000136482513674205
0.000100215558220066
5.84465156037566e-05
1.19137636537944e-05
4.05946246062497e-07
4.00584229484667e-07
1.17910621935631e-05
5.79542097833418e-05
9.94393987640364e-05
0.000135485201989973