/*--------------------------------*- C++ -*----------------------------------*\
  =========                 |
  \\      /  F ield         | OpenFOAM: The Open Source CFD Toolbox
   \\    /   O peration     | Website:  https://openfoam.org
    \\  /    A nd           | Version:  10
     \\/     M anipulation  |
\*---------------------------------------------------------------------------*/
FoamFile
{
    format      ascii;
    class       volScalarField;
    location    "9.8";
    object      nut;
}
// * * * * * * * * * * * * * * * * * * * * * * * * * * * * * * * * * * * * * //

dimensions      [0 2 -1 0 0 0 0];

internalField   nonuniform List<scalar> 
2500
(
4.00643651433451e-15
7.90502227589511e-14
3.39922702308061e-13
5.96402250666791e-13
8.27830862681841e-13
1.02641465651819e-12
1.18882300417985e-12
1.31549091655763e-12
1.40976328643571e-12
1.47676450465909e-12
1.52227740209367e-12
1.55185447587277e-12
1.57026189852126e-12
1.58124483765075e-12
1.58753432685317e-12
1.59099507710221e-12
1.59282680492177e-12
1.59376036903182e-12
1.59421896177511e-12
1.59443624419532e-12
1.5945355744729e-12
1.59457935237065e-12
1.59459787532511e-12
1.59460523389122e-12
1.59460758530873e-12
1.59460711558952e-12
1.59460359180092e-12
1.59459427899091e-12
1.59457211979422e-12
1.59452148703764e-12
1.59440954447143e-12
1.59416997651561e-12
1.59367395617042e-12
1.59268116804335e-12
1.59076212914228e-12
1.58718341763178e-12
1.58075207321355e-12
1.56962688741231e-12
1.55112428534527e-12
1.52157364333655e-12
1.47630401470393e-12
1.40985812634757e-12
1.31651217625322e-12
1.19111799168005e-12
1.0301788036549e-12
8.32948289572043e-13
6.0226781399239e-13
3.45200083136276e-13
8.10804106647236e-14
4.16507709269869e-15
3.97571480669947e-13
2.05732132062657e-11
9.0293209933574e-11
1.58499329606627e-10
2.20083222294181e-10
2.72996253698437e-10
3.16343366579542e-10
3.50220239355554e-10
3.7549280071605e-10
3.93502597229034e-10
4.05772571757648e-10
4.13771973989351e-10
4.18767561280202e-10
4.217590655886e-10
4.23478711619993e-10
4.24428684366176e-10
4.24933549117646e-10
4.25191941213696e-10
4.25319416823791e-10
4.25380081206747e-10
4.25407938376195e-10
4.2542027364089e-10
4.25425518927001e-10
4.25427614180133e-10
4.25428288507578e-10
4.25428158541944e-10
4.25427160022394e-10
4.25424525092655e-10
4.25418278352244e-10
4.25404062591391e-10
4.25372761277956e-10
4.2530604200765e-10
4.25168449812908e-10
4.24894138931735e-10
4.24365947038397e-10
4.23384671075858e-10
4.2162769758121e-10
4.18599243036441e-10
4.13579769991161e-10
4.0558923104841e-10
3.93385751276775e-10
3.75524646967166e-10
3.50497741876922e-10
3.16956397128541e-10
2.73994128430921e-10
2.21433297533858e-10
1.60040977255782e-10
9.16755441784359e-11
2.1092392785635e-11
4.12780123143111e-13
1.41216250792108e-12
3.70158274999699e-10
1.27867658459107e-07
2.24250685881807e-07
3.10848014791854e-07
3.85053251941248e-07
4.45736975807323e-07
4.93120635382431e-07
5.28466317282397e-07
5.53670230429576e-07
5.70862730892342e-07
5.82090830951239e-07
5.89117713252727e-07
5.93335947081107e-07
5.95767330197651e-07
5.97114384481883e-07
5.97832474741858e-07
5.9820117431723e-07
5.98383674656021e-07
5.98470824934999e-07
5.98510988992986e-07
5.98528841681011e-07
5.98536464627984e-07
5.98539524258065e-07
5.98540516563149e-07
5.98540335759448e-07
5.98538893524521e-07
5.98535087358033e-07
5.98526084120004e-07
5.9850564932324e-07
5.98460774034241e-07
5.98365372910552e-07
5.98169140367987e-07
5.97778918201366e-07
5.97029418038868e-07
5.9564039722777e-07
5.93159218708592e-07
5.88892021331408e-07
5.81833977901433e-07
5.70618659399287e-07
5.53515749151198e-07
5.28510541808765e-07
4.93491993575417e-07
4.46554381705626e-07
3.8638181104089e-07
3.12643596738989e-07
2.26297442431193e-07
1.29694566988593e-07
3.78737322008286e-10
1.45852264109124e-12
2.50262989130375e-12
6.60605352452483e-10
2.29279802619581e-07
4.01117745586636e-07
5.54815718237477e-07
6.86048519262705e-07
7.93064318957571e-07
8.76447087304852e-07
9.38553253746185e-07
9.82797816793959e-07
1.01296445604419e-06
1.03266383745481e-06
1.04499473156699e-06
1.05240009675622e-06
1.05667109852563e-06
1.05903910618484e-06
1.06030253175405e-06
1.06095185462239e-06
1.06127359934757e-06
1.06142742186083e-06
1.06149840284199e-06
1.06152999854658e-06
1.06154351252506e-06
1.06154894991649e-06
1.06155072574253e-06
1.06155042871618e-06
1.06154791853124e-06
1.06154127108836e-06
1.06152553150998e-06
1.06148978584579e-06
1.06141124824994e-06
1.06124420945846e-06
1.06090048859777e-06
1.06021674286958e-06
1.05890309145802e-06
1.05646795019004e-06
1.0521171590763e-06
1.0446329429748e-06
1.03225079323884e-06
1.01256879530524e-06
9.82539755880863e-07
9.38603694214362e-07
8.77007209002139e-07
7.94320168101654e-07
6.88100709094363e-07
5.57590469514689e-07
4.04266319014243e-07
2.32053367599052e-07
6.73285202417998e-10
2.56976333781301e-12
3.58421023231347e-12
9.46610803289445e-10
3.28148357919229e-07
5.72732867360082e-07
7.90654669918514e-07
9.76141871408353e-07
1.12702781843574e-06
1.24437576640908e-06
1.3316675441751e-06
1.39380383469347e-06
1.4361516262008e-06
1.46380274044594e-06
1.48111362804482e-06
1.49151333334178e-06
1.49751430620502e-06
1.50084356669568e-06
1.50262116960678e-06
1.50353551359679e-06
1.50398900239661e-06
1.50420603569242e-06
1.50430630153282e-06
1.50435099213204e-06
1.50437013791565e-06
1.50437785961265e-06
1.50438039834943e-06
1.50438001072477e-06
1.504376520296e-06
1.5043672425077e-06
1.50434525121213e-06
1.50429527334245e-06
1.5041854004268e-06
1.50395158732939e-06
1.50347022126499e-06
1.50251223300776e-06
1.50067095456169e-06
1.49725653307309e-06
1.49115414870195e-06
1.48065366760532e-06
1.46327578685167e-06
1.43564247147274e-06
1.39346129773522e-06
1.33170324882407e-06
1.24503864148757e-06
1.12854741684009e-06
9.78640401547416e-07
7.9403536531993e-07
5.76555324669615e-07
3.31486435307617e-07
9.61794156822375e-10
3.66511370956289e-12
4.63222748288794e-12
1.2235060259201e-09
4.23293340808128e-07
7.37159662062119e-07
1.0158411598899e-06
1.25238086748042e-06
1.44437698180685e-06
1.59345688448606e-06
1.70422984717378e-06
1.78302632594478e-06
1.83671031779044e-06
1.87176134122584e-06
1.89370845759616e-06
1.90689786130513e-06
1.91451221274796e-06
1.91873906584499e-06
1.92099749785034e-06
1.92216008774385e-06
1.92273721296977e-06
1.92301369208561e-06
1.92314156464892e-06
1.92319863454466e-06
1.92322312313148e-06
1.92323302310926e-06
1.92323629861755e-06
1.92323584361859e-06
1.92323145870389e-06
1.92321975979064e-06
1.92319200196606e-06
1.92312888048808e-06
1.92299003756114e-06
1.9226944261895e-06
1.9220855472125e-06
1.92087327524655e-06
1.91854237456217e-06
1.91421856021706e-06
1.90648855080892e-06
1.89318363269509e-06
1.8711581454967e-06
1.83612277109997e-06
1.78261970139628e-06
1.70423909087539e-06
1.59415794613896e-06
1.44602341108413e-06
1.25510557574687e-06
1.01953220368257e-06
7.41324349498856e-07
4.26916039128032e-07
1.24009881196594e-09
4.72210369336219e-12
5.63228708799837e-12
1.48775322648375e-09
5.13689458402455e-07
8.92750627330987e-07
1.22826277922273e-06
1.51232646691037e-06
1.74245391527769e-06
1.92089094952229e-06
2.05335103731077e-06
2.14751999762129e-06
2.2116601372797e-06
2.25353734184661e-06
2.27976332748459e-06
2.29552945444155e-06
2.30463558281468e-06
2.30969343327788e-06
2.31239767688122e-06
2.31379081855338e-06
2.31448298386997e-06
2.31481489314764e-06
2.31496857044746e-06
2.31503724525686e-06
2.31506676094232e-06
2.31507872166584e-06
2.31508270297315e-06
2.31508220154021e-06
2.31507700610821e-06
2.31506309442884e-06
2.31503005674829e-06
2.3149548895008e-06
2.31478947318252e-06
2.31443712660213e-06
2.31371108328602e-06
2.31226498244324e-06
2.30948353030199e-06
2.30432237611588e-06
2.29509289393189e-06
2.27920309294142e-06
2.25289182930538e-06
2.21102713677516e-06
2.1470714861029e-06
2.0533311909629e-06
1.92158587001991e-06
1.74412528618769e-06
1.51510932450462e-06
1.23203734792624e-06
8.97005591467632e-07
5.17389633132216e-07
1.50496228686854e-09
5.72757181984007e-12
6.57368007843711e-12
1.73659617407573e-09
5.98506177352051e-07
1.03820495885953e-06
1.42628881517927e-06
1.75413136814402e-06
2.01927682320787e-06
2.22461609311528e-06
2.37692267361413e-06
2.48514932564774e-06
2.55884946897412e-06
2.60696924990473e-06
2.63711051229015e-06
2.65523640717244e-06
2.6657101859484e-06
2.67153087047197e-06
2.67464496374823e-06
2.67625041433758e-06
2.67704871663846e-06
2.67743187559255e-06
2.67760947056979e-06
2.67768893374252e-06
2.677723140771e-06
2.67773703574189e-06
2.67774168799562e-06
2.67774115844175e-06
2.67773523372354e-06
2.67771931452972e-06
2.67768147940272e-06
2.67759535914781e-06
2.67740576342194e-06
2.67700175501058e-06
2.67616894629519e-06
2.6745096232026e-06
2.67131707029386e-06
2.66539148016578e-06
2.65479243795082e-06
2.63654073524925e-06
2.60631188675617e-06
2.55820200769507e-06
2.48468295682685e-06
2.37687982824669e-06
2.22527978304492e-06
2.02090436025204e-06
1.75685316780356e-06
1.42998312936792e-06
1.04236797539942e-06
6.02134869688057e-07
1.75384320096932e-09
6.67165899858214e-12
7.44850347328819e-12
1.96797600832385e-09
6.77127558028449e-07
1.17259289626876e-06
1.6087930916018e-06
1.97655898808591e-06
2.27355477617622e-06
2.50331931681797e-06
2.67362570613052e-06
2.79459560594553e-06
2.87696152957651e-06
2.93074187424136e-06
2.96443565801069e-06
2.98470459862731e-06
2.9964218004295e-06
3.00293693289607e-06
3.00642468924468e-06
3.00822402823964e-06
3.00911944187248e-06
3.00954959311991e-06
3.00974917384902e-06
3.00983858414939e-06
3.00987713379754e-06
3.00989282994888e-06
3.00989811502118e-06
3.00989757327379e-06
3.00989099686273e-06
3.00987326984426e-06
3.00983110896856e-06
3.00973510769708e-06
3.00952368750994e-06
3.00907302021907e-06
3.00814372360072e-06
3.00629158523825e-06
3.00272707042843e-06
2.9961094885196e-06
2.98427016856989e-06
2.96387877136268e-06
2.93009977748628e-06
2.87632861342899e-06
2.79413687056054e-06
2.67357373934003e-06
2.50394413608004e-06
2.27509984886225e-06
1.9791448179905e-06
1.6122998549464e-06
1.17654254765929e-06
6.80584353860375e-07
1.98485338615913e-09
7.54713763877214e-12
8.25141069809003e-12
2.18049117104107e-09
7.49150823448056e-07
1.29534485769443e-06
1.77513053782232e-06
2.17894779640613e-06
2.50464169352747e-06
2.75638248338568e-06
2.94287069699718e-06
3.07529322193034e-06
3.16544804473443e-06
3.22431837150826e-06
3.2612088431262e-06
3.28340798113035e-06
3.29624638228177e-06
3.30338852794302e-06
3.30721416800714e-06
3.30918912515226e-06
3.310172665867e-06
3.31064555400586e-06
3.31086518010098e-06
3.31096368762273e-06
3.31100622476963e-06
3.31102358460167e-06
3.31102946190747e-06
3.31102892172946e-06
3.31102176697624e-06
3.31100242420416e-06
3.31095639304452e-06
3.31085154840162e-06
3.31062058808055e-06
3.3101281243261e-06
3.30911234654143e-06
3.30708729467131e-06
3.30318904349417e-06
3.29595031480581e-06
3.28299729142773e-06
3.26068398544456e-06
3.22371536281831e-06
3.16485651404379e-06
3.07486843155465e-06
2.94282985826818e-06
2.75697568224221e-06
2.50609174061977e-06
2.18136115372994e-06
1.77839117293896e-06
1.29901147914058e-06
7.52375903121658e-07
2.19673329544665e-09
8.34923664822913e-12
8.97940925539243e-12
2.37334883493014e-09
8.14371113334606e-07
1.4062190839245e-06
1.92508736371966e-06
2.36114613098338e-06
2.71245882687502e-06
2.9837955209475e-06
3.18470438657331e-06
3.32733165989344e-06
3.42442826301131e-06
3.48783735336654e-06
3.5275805191908e-06
3.55150383389696e-06
3.56534493002659e-06
3.57304856802187e-06
3.57717724096764e-06
3.57930996865742e-06
3.58037283087179e-06
3.58088426910498e-06
3.58112202279744e-06
3.58122878281363e-06
3.58127495182012e-06
3.58129383573396e-06
3.58130026277952e-06
3.58129973536678e-06
3.58129207155553e-06
3.58127129585995e-06
3.58122182930172e-06
3.58110913384467e-06
3.58086082192248e-06
3.58033122736412e-06
3.57923858414648e-06
3.57705976836956e-06
3.57286460553305e-06
3.56507305038206e-06
3.55112849948206e-06
3.52710367742401e-06
3.48729398797819e-06
3.42390253431416e-06
3.32696713339918e-06
3.18469956709419e-06
2.98437617512142e-06
2.71382256595104e-06
2.36338218875595e-06
1.92808353957152e-06
1.40957561649425e-06
8.17338015987809e-07
2.38880891582827e-09
9.07546009832686e-12
9.63162049558183e-12
2.54630346153755e-09
8.72759535843875e-07
1.50526021009201e-06
2.05882161457436e-06
2.52343768655368e-06
2.89740850367366e-06
3.18606148085591e-06
3.39970859662015e-06
3.55135021129102e-06
3.65458089057137e-06
3.72200306119648e-06
3.76427060621963e-06
3.789721220798e-06
3.80445157993289e-06
3.81265386760336e-06
3.81705206823835e-06
3.8193253613484e-06
3.82045902998863e-06
3.82100495500902e-06
3.82125896708535e-06
3.82137315185505e-06
3.821422601686e-06
3.82144287021262e-06
3.82144980310173e-06
3.82144929735351e-06
3.82144118934616e-06
3.82141915314364e-06
3.82136666224045e-06
3.82124705526932e-06
3.82098346522571e-06
3.82042116547993e-06
3.81926078846818e-06
3.8169464141398e-06
3.81248938282718e-06
3.8042100717551e-06
3.789390443174e-06
3.76385476633552e-06
3.72153665173293e-06
3.65414266692729e-06
3.55107138529728e-06
3.39976745798057e-06
3.1866572047221e-06
2.89871084480348e-06
2.52551625226606e-06
2.06156660276604e-06
1.50831320996461e-06
8.7546834350308e-07
2.56093214430337e-09
9.72535176097777e-12
1.02090053052697e-11
2.69958703448037e-09
9.24438658058825e-07
1.59275553782377e-06
2.17680271504772e-06
2.66646755882291e-06
3.06028988151639e-06
3.36410479261515e-06
3.5889032205238e-06
3.74843738995998e-06
3.85704116192668e-06
3.92798094673655e-06
3.97246315954825e-06
3.99925511689467e-06
4.01476742483719e-06
4.02340879339028e-06
4.02804469040163e-06
4.03044216112161e-06
4.03163850160134e-06
4.03221501832637e-06
4.03248348961037e-06
4.03260429829998e-06
4.03265668696224e-06
4.03267820277426e-06
4.03268559698949e-06
4.03268511968427e-06
4.03267662760426e-06
4.03265349205384e-06
4.032598361652e-06
4.03247272319039e-06
4.03219579914356e-06
4.03160494740012e-06
4.03038541404942e-06
4.02795259682068e-06
4.02326666899953e-06
4.01456086886308e-06
3.99897586908337e-06
3.97211847160614e-06
3.92760560296894e-06
3.85670915978449e-06
3.74826794638041e-06
3.58905434375216e-06
3.36474848510083e-06
3.06156690809567e-06
2.66842617759622e-06
2.17933302676688e-06
1.59553661549996e-06
9.26909574786098e-07
2.71341183799698e-09
1.0300220840405e-11
1.07140688702025e-11
2.83383420619786e-09
9.69657070390417e-07
1.66919130505289e-06
2.27975249420859e-06
2.79117129863183e-06
3.2022190363104e-06
3.51918489106497e-06
3.7536553474262e-06
3.9200370137268e-06
4.03330492844373e-06
4.10730049624345e-06
4.15370841863055e-06
4.18166799833613e-06
4.19786184224165e-06
4.20688644860556e-06
4.21173013678294e-06
4.21423635081505e-06
4.21548768017815e-06
4.21609109769899e-06
4.21637231662871e-06
4.21649898364941e-06
4.21655398204356e-06
4.21657661170327e-06
4.21658442287573e-06
4.21658397885912e-06
4.21657515794639e-06
4.21655107237083e-06
4.2164936594617e-06
4.21636280604324e-06
4.21607435263651e-06
4.21545880655304e-06
4.21418808967408e-06
4.21165274995009e-06
4.20676861478462e-06
4.19769338203854e-06
4.18144522419665e-06
4.15344238531793e-06
4.10702720331562e-06
4.0330946674224e-06
3.91999810899449e-06
3.75392654269468e-06
3.51991172747907e-06
3.20351334730422e-06
2.79305885915489e-06
2.28212015795592e-06
1.67174925304321e-06
9.7192448995934e-07
2.8469398731531e-09
1.08028470516829e-11
1.11505528075239e-11
2.95000392932967e-09
1.00876347738898e-06
1.73520926372571e-06
2.36858761155414e-06
2.89870643673596e-06
3.32455241413351e-06
3.65281388665682e-06
3.89559291480492e-06
4.06785914496296e-06
4.1851378217534e-06
4.26176326523363e-06
4.30983014837213e-06
4.33879677228203e-06
4.3555791888338e-06
4.36493523770408e-06
4.36995892123696e-06
4.37255949878351e-06
4.37385863955309e-06
4.37448549894334e-06
4.37477785549305e-06
4.37490965727729e-06
4.37496695242259e-06
4.37499056788962e-06
4.37499875248004e-06
4.37499834490903e-06
4.37498924547936e-06
4.37496434704114e-06
4.37490497976341e-06
4.37476966184606e-06
4.3744713379313e-06
4.37383464495312e-06
4.37252008009854e-06
4.36989687380468e-06
4.36484279717387e-06
4.35545070522032e-06
4.33863360266412e-06
4.30964784530023e-06
4.26160001984941e-06
4.18506151606783e-06
4.06796880966922e-06
3.89600980304214e-06
3.6536587214324e-06
3.32590905028062e-06
2.90057754695503e-06
2.37085336409056e-06
1.73760309320135e-06
1.01087067318804e-06
2.962514202549e-09
1.12371753995923e-11
1.15231212470058e-11
3.04929893984628e-09
1.04218056723731e-06
1.79156363133975e-06
2.44436310803006e-06
2.99038582816303e-06
3.42881265485059e-06
3.76667700783014e-06
4.01652140572384e-06
4.19379425284657e-06
4.31448774942853e-06
4.39335431200305e-06
4.44283641768667e-06
4.47266316536527e-06
4.48994896476724e-06
4.49958890646059e-06
4.50476701592991e-06
4.5074486985798e-06
4.50878901573205e-06
4.50943610982888e-06
4.50973810577957e-06
4.5098743659747e-06
4.50993366358269e-06
4.5099581434515e-06
4.50996665935046e-06
4.50996628993511e-06
4.50995695743449e-06
4.50993137108638e-06
4.50987034838495e-06
4.50973124935328e-06
4.50942456536445e-06
4.50876995617685e-06
4.50741822623859e-06
4.50472051058718e-06
4.49952226307625e-06
4.48986125863776e-06
4.47256115258778e-06
4.44274075106277e-06
4.39330633018044e-06
4.31455432826191e-06
4.19406701022541e-06
4.01710634993711e-06
3.76767230217145e-06
3.43027576049052e-06
2.99229614119841e-06
2.4465906861504e-06
1.79385668462113e-06
1.04417513102689e-06
3.061360357338e-09
1.16080077731607e-11
1.18370491258453e-11
3.13308517395024e-09
1.0703791629834e-06
1.83907898623211e-06
2.50821757790155e-06
3.06761318434115e-06
3.51661702462686e-06
3.86255594033006e-06
4.11834362840712e-06
4.29983057172516e-06
4.42340065372135e-06
4.50415693203025e-06
4.55483369936424e-06
4.5853874438684e-06
4.60309931462478e-06
4.61297992087039e-06
4.61828916471834e-06
4.62103984843119e-06
4.6224152694614e-06
4.62307965453803e-06
4.62338991001669e-06
4.62353000303778e-06
4.62359102939107e-06
4.62361625986479e-06
4.62362506690676e-06
4.62362473618525e-06
4.62361521136719e-06
4.62358905001214e-06
4.62352664194659e-06
4.62338437871697e-06
4.62307069770986e-06
4.62240108775123e-06
4.62101822455915e-06
4.61825805832037e-06
4.61293891062594e-06
4.60305229693692e-06
4.58534681385441e-06
4.55482570226851e-06
4.50422693382179e-06
4.4236159235057e-06
4.30027729983347e-06
4.11911505606598e-06
3.86373027601127e-06
3.51822732639805e-06
3.06961577077844e-06
2.51046921233008e-06
1.84133422274496e-06
1.07230928234484e-06
3.14485337789165e-09
1.19206993409409e-11
1.20979226781244e-11
3.20281379842951e-09
1.09385338613086e-06
1.87861011659275e-06
2.56132111207096e-06
3.13182201040637e-06
3.58960970661956e-06
3.94225632945613e-06
4.20298385416979e-06
4.38797593816027e-06
4.51394082040195e-06
4.5962719832804e-06
4.64794558315569e-06
4.67910675875804e-06
4.69717515891724e-06
4.7072574791346e-06
4.71267683060571e-06
4.71548556507962e-06
4.71689058318504e-06
4.71756958243212e-06
4.71788683861135e-06
4.71803019146567e-06
4.71809269455274e-06
4.71811857010948e-06
4.71812763047679e-06
4.71812733809459e-06
4.71811765726043e-06
4.71809102218014e-06
4.71802747089716e-06
4.71788259609737e-06
4.71756313840303e-06
4.71688113727726e-06
4.7154725398128e-06
4.71266071723665e-06
4.70724150124257e-06
4.69716804461061e-06
4.67912667668834e-06
4.64802474560328e-06
4.59646054959405e-06
4.51430776518869e-06
4.38860397442103e-06
4.20395597308993e-06
3.94363351554462e-06
3.5914028192649e-06
3.1339647887335e-06
2.56365423641559e-06
1.88088659167115e-06
1.09576499493462e-06
3.2144426475743e-09
1.21808689127482e-11
1.23113623359813e-11
3.25994864586611e-09
1.11309763292596e-06
1.91100498954663e-06
2.60482741643779e-06
3.18441951134447e-06
3.64939962700285e-06
4.00754120515463e-06
4.27231813396091e-06
4.46018597008552e-06
4.58811763095401e-06
4.67174371554628e-06
4.72423802797181e-06
4.75590004929043e-06
4.77426289448987e-06
4.78451209778321e-06
4.79002271983056e-06
4.79287967536926e-06
4.79430933616689e-06
4.7950005351238e-06
4.79532365312061e-06
4.79546974548867e-06
4.79553349537524e-06
4.79555991910452e-06
4.79556919760359e-06
4.79556894255935e-06
4.79555913788518e-06
4.79553211942197e-06
4.79546764077409e-06
4.79532064644828e-06
4.79499649776222e-06
4.79430442614987e-06
4.79287489450868e-06
4.79002101111445e-06
4.78452024307313e-06
4.77429439601934e-06
4.75597889222757e-06
4.72440265123159e-06
4.67204970369671e-06
4.58863683264213e-06
4.46099943381066e-06
4.27350100963367e-06
4.00913993604405e-06
3.65140513346935e-06
3.18674367277118e-06
2.60729252205658e-06
1.91335546681359e-06
1.11503240897278e-06
3.27158218154393e-09
1.23941324736418e-11
1.24827764236367e-11
3.30590136333647e-09
1.12858603178175e-06
1.93707182459909e-06
2.63983130694914e-06
3.22673682539149e-06
3.69750529196379e-06
4.06007189428555e-06
4.32811242413161e-06
4.51830026674107e-06
4.64782047040406e-06
4.7324938386523e-06
4.78565290253858e-06
4.81772126355775e-06
4.83632342761182e-06
4.84670853881007e-06
4.85229365120643e-06
4.85519005512612e-06
4.85663992786817e-06
4.85734116221974e-06
4.85766911835609e-06
4.85781748099333e-06
4.85788226943613e-06
4.8579091530668e-06
4.85791861728211e-06
4.85791839815884e-06
4.85790849810264e-06
4.85788117659032e-06
4.85781596235006e-06
4.85766728506827e-06
4.85733940770459e-06
4.8566393211172e-06
4.85519310482593e-06
4.85230565222346e-06
4.84673971250876e-06
4.83639194302881e-06
4.81785689170503e-06
4.78590046443721e-06
4.73291483620565e-06
4.64849061837654e-06
4.51930055565296e-06
4.32951235692004e-06
4.06190587596906e-06
3.699746490825e-06
3.22927612403682e-06
2.64247080309351e-06
1.939541392842e-06
1.13058015841593e-06
3.31766844018517e-09
1.25658672071952e-11
1.26171511245139e-11
3.34197581415549e-09
1.14075482963173e-06
1.95755092371583e-06
2.66733237556319e-06
3.25998648509373e-06
3.73530761886773e-06
4.10135746821095e-06
4.37196961946308e-06
4.56398776440928e-06
4.69476295208598e-06
4.78026500876348e-06
4.83395100543671e-06
4.86634209422123e-06
4.885134742359e-06
4.89562828299105e-06
4.90127297726876e-06
4.90420102265056e-06
4.9056671572485e-06
4.90637649356692e-06
4.90670837122663e-06
4.90685858277407e-06
4.90692422210491e-06
4.90695148570572e-06
4.906961106023e-06
4.90696092118606e-06
4.90695095095693e-06
4.90692339786547e-06
4.90685761847694e-06
4.90670764567511e-06
4.90637689256786e-06
4.90567061109873e-06
4.90421146997368e-06
4.90129795603384e-06
4.89568131830239e-06
4.88523853183402e-06
4.86653211057937e-06
4.83427852000138e-06
4.78079779936955e-06
4.69558140201509e-06
4.56517416559523e-06
4.37358973684768e-06
4.10343589723168e-06
3.73780178979528e-06
3.2627672134875e-06
2.6701802573604e-06
1.96017643181049e-06
1.14283839110097e-06
3.35398700479978e-09
1.27010105628302e-11
1.27188788014039e-11
3.36932237137844e-09
1.14998788682057e-06
1.9730915010801e-06
2.68820511139688e-06
3.28522742377685e-06
3.7640111092977e-06
4.13271310019847e-06
4.40528589077293e-06
4.59870166358038e-06
4.73043688880495e-06
4.81657417222091e-06
4.87066501070523e-06
4.9033046800098e-06
4.92224445769862e-06
4.93282200446116e-06
4.93851301333536e-06
4.94146574348674e-06
4.9429446150083e-06
4.94366032522564e-06
4.94399530366574e-06
4.94414698601392e-06
4.94421330737066e-06
4.94424087875822e-06
4.94425062826453e-06
4.94425047603422e-06
4.94424045812839e-06
4.94421273739911e-06
4.9441465451774e-06
4.94399562252893e-06
4.94366275355235e-06
4.94295189660023e-06
4.9414831720484e-06
4.93855026222619e-06
4.93289576384343e-06
4.9223818027353e-06
4.90354666826939e-06
4.87106936477415e-06
4.81721518494772e-06
4.73140022587786e-06
4.60007201125e-06
4.40712685695887e-06
4.13504136104184e-06
3.76677012238359e-06
3.28826886294498e-06
2.69128720354918e-06
1.97590158897157e-06
1.15218473542537e-06
3.38166860895121e-09
1.28038957289465e-11
1.27916238837687e-11
3.38890198914059e-09
1.15660524031339e-06
1.98423342022591e-06
2.70317534130194e-06
3.30333736302679e-06
3.78461318335632e-06
4.15522714485066e-06
4.42921613766804e-06
4.62364373926591e-06
4.75607582432267e-06
4.84267558325235e-06
4.89706215728831e-06
4.92988409277135e-06
4.94893219406828e-06
4.95957186803401e-06
4.96529729634309e-06
4.96826846859068e-06
4.96975691097837e-06
4.97047744142187e-06
4.97081478190015e-06
4.9709675942687e-06
4.97103444520748e-06
4.97106225907475e-06
4.97107211333678e-06
4.97107199213376e-06
4.97106194690061e-06
4.97103411642473e-06
4.97096764911555e-06
4.97081608872471e-06
4.97048178881241e-06
4.96976781373493e-06
4.96829250829617e-06
4.96534618367552e-06
4.95966532887624e-06
4.94910153348014e-06
4.93017582298933e-06
4.89754040624451e-06
4.84342129593662e-06
4.75718038434893e-06
4.62519504846796e-06
4.43127687773658e-06
4.15780758406396e-06
3.78764426814031e-06
3.30665248422214e-06
2.70650987128439e-06
1.98724890818062e-06
1.15893315886719e-06
3.40165433388941e-09
1.28781222978055e-11
1.28382233702738e-11
3.40145936531309e-09
1.16085452377349e-06
1.99139348644443e-06
2.71280252964066e-06
3.31499204465142e-06
3.79788108652446e-06
4.16973631714417e-06
4.44464791324264e-06
4.63973737904709e-06
4.77262746281059e-06
4.85953282987982e-06
4.91411601484091e-06
4.94705994190713e-06
4.96618108110048e-06
4.97686298094141e-06
4.98261200525204e-06
4.98559593775614e-06
4.98709106865016e-06
4.98781500453295e-06
4.98815403419182e-06
4.98830766611578e-06
4.98837490770956e-06
4.98840290451584e-06
4.98841284125895e-06
4.98841274971461e-06
4.98840269596444e-06
4.98837480917638e-06
4.98830819378064e-06
4.98815628297204e-06
4.98782118156433e-06
4.98710542519624e-06
4.98562628813863e-06
4.98267201583193e-06
4.97697530319064e-06
4.96638111896955e-06
4.94739953507933e-06
4.91466562167102e-06
4.86038009955871e-06
4.773869768209e-06
4.64146638886814e-06
4.44692625450535e-06
4.17256895929016e-06
3.80118758480756e-06
3.31858824921346e-06
2.71640079407834e-06
1.99462789301225e-06
1.1633255100055e-06
3.4146692714166e-09
1.29264590235359e-11
1.28606179172914e-11
3.40750423351696e-09
1.16290495361403e-06
1.9948558246551e-06
2.71746732581175e-06
3.32065053178956e-06
3.80433549153767e-06
4.176808039681e-06
4.45218286387209e-06
4.64760838255571e-06
4.78073402902637e-06
4.86779890576626e-06
4.92248637046851e-06
4.9554961480194e-06
4.97465746510068e-06
4.9853630635658e-06
4.99112561278442e-06
4.99411702255956e-06
4.99561616485785e-06
4.99634219429134e-06
4.99668229078291e-06
4.99683645622586e-06
4.99690396123622e-06
4.99693208690882e-06
4.99694208614987e-06
4.99694202326431e-06
4.99693197849385e-06
4.99690408516892e-06
4.99683744059227e-06
4.99668544923183e-06
4.99635013820198e-06
4.99563385731478e-06
4.99415347070959e-06
4.99119637838825e-06
4.98549363993749e-06
4.9748872505213e-06
4.95588219768789e-06
4.92310538308095e-06
4.86874521509184e-06
4.78211111932849e-06
4.64951197193354e-06
4.4546760352699e-06
4.17989115668457e-06
3.8079174686755e-06
3.32453025894777e-06
2.72133423792858e-06
1.99831580984868e-06
1.16552547215501e-06
3.42120374424e-09
1.2950774847336e-11
1.28598075824823e-11
3.40729919285719e-09
1.16284344224938e-06
1.9947657646185e-06
2.71736376336702e-06
3.32054616360327e-06
3.80424046504019e-06
4.1767296231439e-06
4.45212530349899e-06
4.64757308375269e-06
4.78072006132794e-06
4.86780372382024e-06
4.92250658086264e-06
4.95552819304471e-06
4.97469809273253e-06
4.98540959013119e-06
4.99117599819063e-06
4.99416982069377e-06
4.99567041159783e-06
4.99639728084507e-06
4.99673785066237e-06
4.99689227757544e-06
4.99695992541096e-06
4.99698812894021e-06
4.99699817199199e-06
4.99699813709679e-06
4.99698811842128e-06
4.99696026709653e-06
4.99689370935992e-06
4.99674190075924e-06
4.9964069570917e-06
4.99569137509152e-06
4.9942122482245e-06
4.99125731027916e-06
4.98555806781648e-06
4.97495705473049e-06
4.95595981841673e-06
4.92319370821854e-06
4.86884727606485e-06
4.78222956756778e-06
4.64964836823701e-06
4.45483005665821e-06
4.18005987887376e-06
3.80809488249128e-06
3.32470710701858e-06
2.72149812838357e-06
1.99845143240544e-06
1.16561465372044e-06
3.42150117575085e-09
1.29519946086621e-11
1.28358338360445e-11
3.40085482426202e-09
1.16067299542736e-06
1.99112713950475e-06
2.71249559623252e-06
3.31468212181127e-06
3.79759844011706e-06
4.16950279981098e-06
4.4444764289173e-06
4.63963234106831e-06
4.77258625381567e-06
4.85954793603353e-06
4.91417734103438e-06
4.94715684091384e-06
4.96630380099979e-06
4.97700346052153e-06
4.98276410890184e-06
4.98575531227914e-06
4.98725480978905e-06
4.98798127747403e-06
4.98832173400708e-06
4.98847615395705e-06
4.98854382580025e-06
4.9885720570036e-06
4.98858212560414e-06
4.98858211833979e-06
4.98857214330546e-06
4.9885443834717e-06
4.98847803056102e-06
4.98832667187931e-06
4.98799267971609e-06
4.98727903264398e-06
4.98580369588525e-06
4.98285591970649e-06
4.97716974288756e-06
4.96659175076042e-06
4.94763368924329e-06
4.9149319558605e-06
4.86068767212819e-06
4.77422645195318e-06
4.64187672760333e-06
4.44738908454096e-06
4.17307527930999e-06
3.80171915576917e-06
3.31911718409198e-06
2.71689000109125e-06
1.99503183229706e-06
1.16359050718373e-06
3.41555131738678e-09
1.29300718634557e-11
1.27877849457006e-11
3.38793095030844e-09
1.15631294832622e-06
1.98380248101472e-06
2.70267642133339e-06
3.30283148355732e-06
3.7841502334201e-06
4.15484371850326e-06
4.42893429640382e-06
4.62347149660111e-06
4.75600939963581e-06
4.8427028757091e-06
4.89716659260078e-06
4.93004803514761e-06
4.94913940810166e-06
4.95980888677075e-06
4.96555384446537e-06
4.9685372425556e-06
4.97003303156215e-06
4.97075782297619e-06
4.97109756490129e-06
4.97125170310425e-06
4.97131927743048e-06
4.9713474850258e-06
4.97135756068916e-06
4.97135758105565e-06
4.97134766832807e-06
4.97132005235622e-06
4.97125402860022e-06
4.97110340048611e-06
4.97077097199527e-06
4.97006055272313e-06
4.96859164861027e-06
4.96565625657176e-06
4.95999311451875e-06
4.94945650667061e-06
4.93057022906201e-06
4.89798864943503e-06
4.84393834798995e-06
4.75777908938848e-06
4.62588251354127e-06
4.43205051340312e-06
4.15865163132732e-06
3.78852763690154e-06
3.30752833939035e-06
2.70731671657817e-06
1.98791221472524e-06
1.15936631336879e-06
3.40309070401772e-09
1.28839955048242e-11
1.27138145626455e-11
3.36804173689504e-09
1.14960073014955e-06