/*--------------------------------*- C++ -*----------------------------------*\
  =========                 |
  \\      /  F ield         | OpenFOAM: The Open Source CFD Toolbox
   \\    /   O peration     | Website:  https://openfoam.org
    \\  /    A nd           | Version:  10
     \\/     M anipulation  |
\*---------------------------------------------------------------------------*/
FoamFile
{
    format      ascii;
    class       volScalarField;
    location    "9.8";
    object      omega;
}
// * * * * * * * * * * * * * * * * * * * * * * * * * * * * * * * * * * * * * //

dimensions      [0 0 -1 0 0 0 0];

internalField   nonuniform List<scalar> 
2500
(
127782.000849391
127789.960047133
127787.983819009
127786.232685317
127784.977404468
127784.144716622
127783.612389523
127783.279544172
127783.076162646
127782.95562815
127782.885682636
127782.846600625
127782.825482907
127782.814200389
127782.808323008
127782.805196524
127782.803704878
127782.802840457
127782.802264367
127782.801938501
127782.801711959
127782.801543277
127782.801416539
127782.801343994
127782.801272219
127782.801221978
127782.801212906
127782.801227569
127782.801274525
127782.801363727
127782.801516246
127782.801813659
127782.802272087
127782.803107603
127782.804699564
127782.807795347
127782.813810781
127782.825241111
127782.847001133
127782.88652299
127782.956613812
127783.077402794
127783.279877598
127783.610697774
127784.141112277
127784.971562153
127786.229163055
127787.989836501
127789.970203741
127781.978007411
31872.8524204079
14165.1302646837
14164.1489995036
14163.3162933391
14162.7169271007
14162.3145808195
14162.053438047
14161.8876414947
14161.7846849264
14161.7223944699
14161.6857684681
14161.6649081815
14161.6534099199
14161.6472665471
14161.6440855237
14161.642483589
14161.6417049447
14161.6413289812
14161.6411456919
14161.6410574884
14161.6410125775
14161.6409874803
14161.6409722126
14161.6409631109
14161.6409561427
14161.6409514426
14161.6409501469
14161.6409520009
14161.6409591968
14161.6409771585
14161.641017711
14161.6411073399
14161.6412964196
14161.6416944839
14161.6425185269
14161.6441872098
14161.6474772514
14161.6537756988
14161.6654867038
14161.6865613215
14161.7233380988
14161.7856251825
14161.8882363995
14162.053253153
14162.31337446
14162.7152072502
14163.3163487129
14164.154288076
14165.1389195619
31872.8114003222
31801.5759326722
3533.20129178887
50.8727046127606
50.8683253254734
50.8652130499027
50.8631362283423
50.8617931162534
50.8609422811553
50.8604144256114
50.8600949358233
50.8599069166863
50.8597996326385
50.8597403565303
50.8597086410056
50.8596922077972
50.8596839530426
50.8596799397545
50.8596780319162
50.8596771367097
50.8596767227668
50.8596765276933
50.8596764299858
50.8596763768292
50.859676346604
50.8596763261193
50.8596763129104
50.859676308798
50.8596763158224
50.8596763451822
50.8596764240947
50.8596766130221
50.8596770447462
50.8596779919949
50.8596800193195
50.8596842487539
50.8596928411969
50.8597097972047
50.8597422506664
50.8598024777918
50.8599107492108
50.860099492316
50.8604189628338
50.8609453379529
50.8617928700194
50.8631319874074
50.8652087692748
50.8683348658519
50.8727495326516
3533.2067829657
31801.5544592292
31732.6738529648
3525.42461948079
50.759825051037
50.7549314640542
50.7515334716264
50.7493077168556
50.7478924776508
50.7470097186499
50.7464695374102
50.7461464865404
50.7459583805686
50.7458520447413
50.7457937809292
50.7457628522896
50.745746948151
50.7457390229025
50.7457351980237
50.7457334007476
50.7457325731859
50.745732198874
50.7457320286241
50.7457319474925
50.7457319056111
50.7457318824859
50.7457318676597
50.7457318580664
50.7457318541045
50.7457318580529
50.745731880591
50.7457319469459
50.74573211285
50.7457325026166
50.7457333780988
50.7457352781477
50.7457392839245
50.7457474983557
50.7457638523499
50.7457954280383
50.7458545373191
50.7459618020841
50.7461506810728
50.7464739318773
50.7470131587634
50.7478935963174
50.7493066488704
50.7515361517751
50.7549560630846
50.759901198549
3525.43430194004
31732.7187329098
31671.5933610177
3518.5854393023
50.6613325808851
50.6566241199973
50.6534355118488
50.6513895442864
50.6501126825328
50.6493294512678
50.6488570799281
50.6485780400666
50.6484172487821
50.6483271535284
50.6482781593654
50.6482523239746
50.6482391188482
50.6482325772016
50.6482294379226
50.6482279744986
50.6482273091206
50.6482270132903
50.6482268824388
50.6482268225806
50.6482267930511
50.6482267773159
50.6482267676518
50.6482267612743
50.6482267581663
50.648226759296
50.6482267735538
50.6482268220901
50.6482269488336
50.6482272544978
50.6482279541005
50.6482294890806
50.6482327515113
50.6482394916407
50.6482530086353
50.6482793016614
50.648328908361
50.6484197112262
50.6485811541952
50.6488605053719
50.6493324678322
50.6501145650066
50.6513913023571
50.6534443978905
50.6566607519386
50.6614325983762
3518.59874731462
31671.7151514569
31621.4196625305
3513.02476267408
50.5819266487044
50.577869118929
50.5751902419516
50.5735076163918
50.5724774807148
50.5718562301926
50.5714869214402
50.5712713490355
50.5711483339
50.5710799488679
50.5710429997234
50.5710236199838
50.571013759942
50.5710088962298
50.5710065720599
50.5710054950164
50.5710050100792
50.5710047977312
50.5710047062551
50.5710046661161
50.5710046472653
50.5710046376837
50.5710046320651
50.5710046282079
50.5710046258719
50.5710046254794
50.5710046331931
50.5710046647681
50.5710047523237
50.5710049693754
50.5710054749282
50.5710065945402
50.5710089895805
50.5710139670907
50.5710240077652
50.5710436582293
50.5710809800477
50.5711498158873
50.5712732814326
50.5714891416789
50.5718583731344
50.5724793363468
50.5735107366907
50.5752022138239
50.5779107997193
50.5820363188951
3513.04002439885
31621.6001525062
31582.9483488035
3508.81159051262
50.5222997575705
50.5191031751245
50.5170449946823
50.5157796546174
50.5150197815725
50.5145692047422
50.5143051207755
50.5141527198615
50.5140665332615
50.5140189565826
50.5139933896741
50.5139800366611
50.513973266105
50.5139699365207
50.5139683504539
50.5139676188845
50.5139672922238
50.5139671512531
50.5139670921854
50.5139670674906
50.5139670565827
50.5139670514063
50.5139670485778
50.5139670464925
50.5139670448523
50.5139670439156
50.5139670472865
50.5139670657917
50.5139671214543
50.5139672637576
50.513967601095
50.5139683545819
50.5139699750344
50.5139733586635
50.5139802157586
50.5139937017525
50.5140194579882
50.5140672743382
50.5141537165153
50.5143063080259
50.5145704294456
50.5150211140734
50.5157827546726
50.5170568428513
50.5191428552027
50.5224043698554
3508.82679731748
31583.1553909718
31555.2573321402
3505.81885562759
50.4803401240873
50.478008233139
50.4765430197467
50.4756611557956
50.4751416181483
50.4748386656738
50.4746635487614
50.474563589996
50.4745075315981
50.4744767787894
50.4744603280579
50.4744517646835
50.4744474334183
50.474445307898
50.4744442977461
50.4744438336146
50.4744436279298
50.4744435404517
50.474443504913
50.4744434909343
50.4744434852406
50.4744434828236
50.4744434817054
50.4744434807479
50.4744434796785
50.4744434787375
50.4744434797147
50.4744434895011
50.4744435223678
50.4744436094865
50.4744438198558
50.4744442936351
50.4744453171887
50.4744474624407
50.4744518254674
50.4744604395872
50.4744769662998
50.4745078204132
50.4745639917648
50.4746640365223
50.4748391792867
50.475142309569
50.4756634629221
50.4765526928854
50.4780412188291
50.4804291549458
3505.83236475873
31555.4592593616
31536.459912012
3503.81603623347
50.4525304414036
50.4509410403562
50.4499656280237
50.4493906764016
50.4490583014221
50.4488676675288
50.4487589631774
50.4486975647549
50.4486633999947
50.4486447621466
50.4486348303588
50.4486296735939
50.4486270698128
50.4486257937862
50.4486251883835
50.4486249111457
50.4486247891619
50.4486247380476
50.4486247180082
50.4486247107375
50.4486247080719
50.4486247071607
50.4486247069838
50.4486247066814
50.4486247060349
50.4486247053034
50.4486247053113
50.4486247099469
50.448624727981
50.4486247781747
50.4486249017834
50.4486251824718
50.4486257913005
50.448627071051
50.4486296807347
50.448634848318
50.4486447988778
50.4486634641919
50.4486976587071
50.4487590679605
50.4488677484015
50.4490584816973
50.4493920205659
50.4499724318056
50.4509655686956
50.4525992021655
3503.82692637481
31536.6345046973
31524.377736477
3502.54793294843
50.435096730437
50.4340775881842
50.4334661421903
50.433112995635
50.4329126143862
50.4327995504022
50.4327359366259
50.4327003726962
50.4326807291623
50.4326700670184
50.4326644037012
50.4326614688422
50.432659988558
50.4326592636862
50.4326589201921
50.4326587633599
50.4326586948363
50.4326586665572
50.4326586558913
50.4326586523865
50.4326586514636
50.4326586513639
50.4326586514687
50.4326586514366
50.4326586510718
50.4326586505354
50.4326586502374
50.4326586522019
50.4326586614727
50.4326586888557
50.4326587577086
50.4326589153752
50.4326592585985
50.4326599816275
50.4326614587296
50.4326643897466
50.4326700495713
50.4326807084385
50.4327003441484
50.4327358803439
50.4327994317401
50.4329124948296
50.4331135640394
50.4334703368802
50.4340941511868
50.4351455155223
3502.55600176276
31524.5147356277
31516.9986071029
3501.7854862439
50.4247205467126
50.4241023862901
50.4237394606256
50.4235339625499
50.4234194768381
50.4233559164814
50.4233206264123
50.4233010941976
50.4232903816022
50.4232845937372
50.4232815278212
50.4232799411908
50.4232791413699
50.4232787498282
50.423278564444
50.4232784800348
50.4232784434159
50.4232784285458
50.4232784231708
50.4232784217441
50.423278421633
50.4232784217659
50.4232784219233
50.4232784219416
50.423278421756
50.4232784213827
50.4232784210645
50.4232784217667
50.4232784262478
50.4232784404643
50.4232784770044
50.4232785613949
50.4232787457118
50.4232791345863
50.4232799298728
50.4232815100174
50.4232845675399
50.423290344242
50.4233010384227
50.4233205319422
50.423355746211
50.4234192401443
50.4235340514592
50.4237417288085
50.4241126429098
50.4247526378622
3501.7910347929
31517.0976432799
31512.7027949004
3501.3487321049
50.4188377398201
50.41848143354
50.4182765228762
50.4181627064302
50.4181004284656
50.4180664032737
50.4180477592599
50.4180375419791
50.4180319762987
50.4180289820006
50.4180273995211
50.418026581337
50.4180261689352
50.41802596703
50.4180258714857
50.418025828098
50.4180258094164
50.4180258019687
50.4180257994512
50.4180257989662
50.4180257990709
50.4180257992507
50.4180257993878
50.4180257994259
50.4180257993337
50.4180257990884
50.4180257988447
50.4180257990255
50.4180258010652
50.4180258081156
50.4180258266695
50.4180258698916
50.4180259645797
50.4180261645401
50.4180265736176
50.4180273868615
50.4180289625214
50.4180319470352
50.418037495944
50.418047678529
50.4180662529792
50.4181001887439
50.4181625714075
50.4182775768822
50.4184872946445
50.4188574535389
3501.3523005527
31512.7694515017
31510.3122331469
3501.10966308872
50.4156511621527
50.4154552315006
50.4153447472488
50.4152845105953
50.4152521268181
50.4152347135047
50.4152252966823
50.4152201866639
50.4152174215175
50.4152159397811
50.4152151582033
50.4152147543223
50.4152145506922
50.4152144509555
50.4152144037739
50.4152143824052
50.4152143732793
50.4152143697161
50.4152143686185
50.4152143685047
50.4152143686284
50.4152143687764
50.4152143688758
50.4152143689122
50.4152143688669
50.4152143687161
50.4152143685464
50.4152143685557
50.415214369441
50.4152143727861
50.4152143818337
50.4152144030936
50.4152144497966
50.4152145484592
50.4152147502346
50.4152151513017
50.4152159288386
50.4152174043516
50.4152201578804
50.4152252424002
50.415234605202
50.4152519350878
50.4152843155886
50.4153451392488
50.415458332476
50.4156625370424
3501.1118229496
31510.3543359228
31509.0373159427
3500.98428519222
50.4139976361903
50.4138944988316
50.4138374165509
50.4138068489452
50.4137906970003
50.4137821478965
50.4137775851881
50.413775133517
50.413773815517
50.4137731118924
50.413772741353
50.4137725499128
50.4137724533331
50.4137724059952
50.4137723836049
50.4137723734918
50.4137723692115
50.4137723675866
50.4137723671425
50.4137723671413
50.4137723672322
50.4137723673326
50.4137723673966
50.4137723674231
50.4137723674012
50.4137723673145
50.4137723672078
50.4137723671753
50.4137723675401
50.4137723690681
50.4137723733197
50.4137723833949
50.413772405582
50.4137724524458
50.4137725481937
50.4137727383529
50.4137731069798
50.4137738073661
50.413775118509
50.4137775536835
50.4137820791197
50.4137905635711
50.413806674464
50.4138375006024
50.4138960181865
50.41400383005
3500.98552194343
31509.0624294626
31508.3842186438
3500.92113978478
50.4131737874369
50.4131216602294
50.4130933160231
50.4130783979438
50.4130706472109
50.413066608552
50.4130644813763
50.4130633496447
50.4130627451734
50.4130624236225
50.4130622545198
50.4130621671424
50.4130621230215
50.4130621013752
50.4130620911369
50.4130620865256
50.4130620845926
50.4130620838838
50.4130620837145
50.4130620837366
50.4130620837965
50.4130620838572
50.413062083895
50.4130620839116
50.4130620839011
50.4130620838542
50.4130620837929
50.4130620837617
50.4130620839046
50.4130620845786
50.4130620865096
50.4130620911232
50.4130621013045
50.4130621227952
50.4130621666339
50.413062253571
50.4130624219749
50.4130627421257
50.4130633430075
50.4130644650302
50.4130665687391
50.4130705631029
50.4130782698757
50.4130932856964
50.4131223469525
50.4131769824855
3500.92181271572
31508.3984367931
31508.0622486773
3500.89054029802
50.4127789330506
50.4127535700205
50.4127400075499
50.4127329869564
50.412729398955
50.4127275581384
50.4127266013361
50.4127260973392
50.4127258298891
50.4127256881064
50.4127256136278
50.4127255751289
50.4127255556663
50.4127255461065
50.4127255415845
50.4127255395538
50.4127255387113
50.4127255384146
50.4127255383548
50.4127255383744
50.4127255384098
50.4127255384436
50.4127255384643
50.4127255384737
50.4127255384688
50.4127255384448
50.4127255384119
50.4127255383909
50.4127255384442
50.4127255387327
50.4127255395826
50.4127255416293
50.4127255461538
50.4127255556929
50.4127255751107
50.412725613538
50.4127256878719
50.4127258291807
50.4127260949364
50.4127265936363
50.4127275367274
50.4127293498798
50.4127329037381
50.4127399524311
50.4127538532834
50.4127804992555
3500.89088955503
31508.0699216838
31507.9092919729
3500.87625589896
50.4125966952278
50.4125847867668
50.4125785184659
50.4125753248845
50.4125737186721
50.4125729071465
50.4125724909068
50.4125722738511
50.4125721594163
50.4125720989535
50.4125720672221
50.4125720508093
50.4125720425005
50.4125720384138
50.4125720364804
50.4125720356149
50.4125720352596
50.4125720351403
50.4125720351211
50.4125720351337
50.4125720351529
50.4125720351705
50.4125720351812
50.4125720351862
50.412572035184
50.4125720351723
50.4125720351557
50.4125720351439
50.4125720351629
50.4125720352829
50.4125720356463
50.4125720365279
50.4125720384793
50.4125720425873
50.4125720509275
50.412572067389
50.412572099169
50.412572159543
50.4125722732534
50.4125724875963
50.4125728963148
50.4125736918034
50.4125752753823
50.4125784714949
50.4125848907266
50.4125974266194
3500.87642937865
31507.9132534129
31507.8392577536
3500.86983369953
50.4125157513018
50.4125103443639
50.4125075401241
50.4125061329391
50.412505436095
50.412505089302
50.4125049137794
50.412504823178
50.4125047757244
50.4125047507337
50.4125047376285
50.4125047308444
50.4125047274046
50.4125047257102
50.4125047249086
50.4125047245508
50.4125047244057
50.4125047243593
50.412504724354
50.4125047243612
50.412504724371
50.4125047243796
50.4125047243849
50.4125047243874
50.4125047243865
50.4125047243811
50.4125047243732
50.412504724367
50.4125047243735
50.4125047244223
50.4125047245736
50.412504724943
50.4125047257614
50.4125047274811
50.4125047309619
50.4125047378108
50.4125047509996
50.412504776024
50.4125048231991
50.4125049124841
50.4125050840998
50.4125054221601
50.4125061054802
50.412507508322
50.4125103761323
50.4125160772839
3500.86991640798
31507.8412205456
31507.8084284954
3500.86706296404
50.4124813131467
50.412478934557
50.4124777179269
50.4124771161664
50.412476822607
50.4124766786682
50.4124766067791
50.4124765700521
50.4124765509434
50.412476540913
50.4124765356566
50.412476532933
50.4124765315497
50.4124765308675
50.4124765305447
50.4124765304012
50.4124765303437
50.4124765303264
50.4124765303253
50.412476530329
50.4124765303338
50.4124765303379
50.4124765303404
50.4124765303416
50.4124765303412
50.4124765303389
50.4124765303353
50.4124765303323
50.4124765303345
50.4124765303539
50.4124765304152
50.4124765305659
50.4124765309002
50.4124765316009
50.4124765330148
50.4124765357873
50.4124765411103
50.4124765511926
50.4124765702071
50.4124766063245
50.4124766762791
50.4124768157129
50.4124771017961
50.4124776989616
50.4124789407957
50.41248145199
3500.86710091075
31507.8093643943
31507.7955013391
3500.86593035681
50.4124674978451
50.412466482275
50.4124659695079
50.4124657193358
50.4124655990431
50.4124655409139
50.4124655122651
50.4124654977813
50.4124654902967
50.4124654863812
50.4124654843308
50.4124654832675
50.4124654827268
50.4124654824597
50.4124654823335
50.4124654822777
50.4124654822558
50.4124654822496
50.4124654822496
50.4124654822515
50.4124654822537
50.4124654822556
50.4124654822568
50.4124654822574
50.4124654822573
50.4124654822563
50.4124654822548
50.4124654822534
50.4124654822542
50.4124654822616
50.4124654822858
50.4124654823457
50.4124654824785
50.4124654827566
50.4124654833162
50.4124654844094
50.4124654865017
50.4124654904565
50.4124654979149
50.4124655121277
50.4124655398585
50.4124655957718
50.412465712183
50.4124659591405
50.4124664812497
50.4124675543901
3500.86594714985
31507.7959318507
31507.7904853847
3500.86550909134
50.4124625335609
50.4124621120592
50.4124619017963
50.4124618005318
50.4124617525109
50.4124617296346
50.4124617185091
50.4124617129446
50.4124617100896
50.4124617086017
50.4124617078235
50.4124617074198
50.4124617072144
50.4124617071132
50.4124617070654
50.4124617070446
50.4124617070366
50.4124617070346
50.4124617070348
50.4124617070358
50.4124617070369
50.4124617070377
50.4124617070383
50.4124617070386
50.4124617070386
50.4124617070382
50.4124617070376
50.412461707037
50.4124617070372
50.41246170704
50.4124617070492
50.4124617070721
50.4124617071234
50.4124617072307
50.4124617074462
50.4124617078662
50.4124617086675
50.4124617101792
50.4124617130296
50.4124617184778
50.412461729184
50.4124617510158
50.4124617971257
50.412461896495
50.4124621099508
50.4124625555748
3500.86551627451
31507.7906768503
31507.7888590873
3500.86538737376
50.4124612526199
50.4124610823278
50.4124609983291
50.4124609583666
50.4124609396671
50.4124609308833
50.4124609266687
50.4124609245844
50.4124609235237
50.4124609229736
50.4124609226866
50.4124609225381
50.4124609224627
50.4124609224258
50.4124609224086
50.4124609224013
50.4124609223987
50.4124609223982
50.4124609223986
50.4124609223991
50.4124609223996
50.4124609224
50.4124609224004
50.4124609224006
50.4124609224006
50.4124609224005
50.4124609224002
50.4124609223999
50.4124609223999
50.4124609224009
50.4124609224041
50.4124609224125
50.4124609224314
50.4124609224714
50.4124609225518
50.4124609227085
50.4124609230071
50.4124609235699
50.4124609246315
50.4124609266672
50.4124609306969
50.4124609390071
50.4124609568081
50.412460995763
50.4124610807384
50.4124612608023
3500.8653903493
31507.7889415806
31507.7886432887
3500.8653881877
50.4124614604482
50.4124613933937
50.4124613606638
50.4124613452721
50.4124613381624
50.4124613348694
50.4124613333116
50.412461332551
50.4124613321679
50.4124613319708
50.4124613318688
50.4124613318164
50.4124613317902
50.4124613317777
50.4124613317721
50.41246133177
50.4124613317694
50.4124613317695
50.4124613317698
50.4124613317702
50.4124613317705
50.4124613317708
50.4124613317709
50.4124613317711
50.4124613317712
50.4124613317711
50.412461331771
50.4124613317709
50.4124613317708
50.4124613317709
50.4124613317719
50.4124613317746
50.412461331781
50.412461331795
50.4124613318236
50.4124613318798
50.4124613319874
50.4124613321906
50.4124613325751
50.412461333316
50.4124613347947
50.4124613378804
50.4124613445847
50.4124613594789
50.4124613924568
50.4124614633441
3500.86538938339
31507.7886777812
31507.7889983908
3500.86543776529
50.4124622536313
50.4124622278726
50.4124622154234
50.4124622096339
50.4124622069938
50.4124622057889
50.412462205228
50.4124622049587
50.4124622048253
50.4124622047579
50.4124622047237
50.4124622047067
50.4124622046986
50.4124622046951
50.4124622046939
50.4124622046937
50.4124622046938
50.4124622046942
50.4124622046945
50.4124622046948
50.4124622046951
50.4124622046953
50.4124622046954
50.4124622046955
50.4124622046955
50.4124622046956
50.4124622046955
50.4124622046954
50.4124622046953
50.4124622046951
50.4124622046952
50.4124622046957
50.4124622046974
50.4124622047016
50.4124622047108
50.4124622047296
50.4124622047662
50.4124622048364
50.4124622049707
50.4124622052322
50.4124622057602
50.4124622068773
50.4124622093413
50.4124622148991
50.4124622273862
50.4124622546029
3500.8654382322
31507.7890124107
31507.7895785706
3500.86550625019
50.4124632710141
50.4124632613554
50.4124632567322
50.412463254606
50.4124632536495
50.4124632532204
50.412463253025
50.4124632529337
50.4124632528901
50.4124632528691
50.4124632528592
50.4124632528549
50.4124632528533
50.412463252853
50.4124632528533
50.4124632528538
50.4124632528542
50.4124632528547
50.412463252855
50.4124632528553
50.4124632528555
50.4124632528557
50.4124632528559
50.412463252856
50.412463252856
50.412463252856
50.412463252856
50.4124632528559
50.4124632528557
50.4124632528555
50.4124632528551
50.4124632528549
50.4124632528548
50.4124632528555
50.4124632528575
50.4124632528627
50.4124632528736
50.4124632528959
50.41246325294
50.4124632530282
50.4124632532103
50.4124632536033
50.412463254486
50.4124632565095
50.412463261124
50.4124632713212
3500.86550642768
31507.7895841199
31507.7902452978
3500.86558188692
50.4124643721583
50.4124643686249
50.412464366951
50.4124643661904
50.4124643658538
50.4124643657064
50.4124643656418
50.4124643656134
50.4124643656012
50.4124643655963
50.4124643655948
50.4124643655948
50.4124643655955
50.4124643655963
50.4124643655971
50.4124643655978
50.4124643655984
50.4124643655989
50.4124643655993
50.4124643655996
50.4124643655998
50.4124643655999
50.4124643656001
50.4124643656002
50.4124643656002
50.4124643656002
50.4124643656002
50.4124643656001
50.4124643655999
50.4124643655996
50.4124643655991
50.4124643655986
50.4124643655979
50.4124643655973
50.4124643655969
50.4124643655972
50.4124643655992
50.4124643656046
50.4124643656171
50.4124643656443
50.4124643657037
50.4124643658366
50.4124643661433
50.4124643668605
50.4124643685225
50.4124643722494
3500.86558195277
31507.7902474377
31507.7909445221
3500.86566016598
50.4124655038638
50.412465502607
50.4124655020194
50.4124655017566
50.412465501643
50.4124655015955
50.4124655015765
50.4124655015696
50.4124655015679
50.4124655015683
50.4124655015695
50.4124655015709
50.4124655015723
50.4124655015734
50.4124655015744
50.4124655015752
50.4124655015759
50.4124655015763
50.4124655015767
50.412465501577
50.4124655015773
50.4124655015774
50.4124655015776
50.4124655015777
50.4124655015777
50.4124655015777
50.4124655015777
50.4124655015775
50.4124655015773
50.412465501577
50.4124655015765
50.4124655015758
50.412465501575
50.412465501574
50.4124655015728
50.4124655015715
50.4124655015706
50.4124655015704
50.4124655015722
50.4124655015786
50.4124655015956
50.4124655016376
50.4124655017395
50.4124655019848
50.4124655025652
50.4124655038898
3500.86566018989
31507.7909453292
31507.7916556751
3500.86573939963
50.4124666464716
50.412466646042
50.4124666458456
50.41246664576
50.4124666457247
50.4124666457115
50.4124666457077
50.4124666457078
50.4124666457093
50.4124666457113
50.4124666457132
50.412466645715
50.4124666457165
50.4124666457177
50.4124666457188
50.4124666457195
50.4124666457202
50.4124666457207
50.412466645721
50.4124666457214
50.4124666457216
50.4124666457217
50.4124666457219
50.412466645722
50.412466645722
50.412466645722
50.412466645722
50.4124666457219
50.4124666457216
50.4124666457213
50.4124666457208
50.4124666457202
50.4124666457193
50.4124666457182
50.4124666457168
50.4124666457152
50.4124666457133
50.4124666457115
50.41246664571
50.4124666457097
50.4124666457128
50.4124666457239
50.4124666457548
50.4124666458338
50.4124666460269
50.41246664648
3500.86573940827
31507.7916559731
31507.792371113
3500.86581897086
50.4124677928857
50.41246779275
50.4124677926912
50.4124677926671
50.4124677926583
50.4124677926564
50.4124677926573
50.4124677926593
50.4124677926617
50.4124677926639
50.4124677926659
50.4124677926676
50.4124677926691
50.4124677926703
50.4124677926712
50.412467792672
50.4124677926726
50.4124677926731
50.4124677926735
50.4124677926738
50.4124677926741
50.4124677926742
50.4124677926744
50.4124677926745
50.4124677926745
50.4124677926745
50.4124677926745
50.4124677926743
50.4124677926741
50.4124677926738
50.4124677926733
50.4124677926727
50.4124677926718
50.4124677926707
50.4124677926694
50.4124677926677
50.4124677926658
50.4124677926636
50.4124677926614
50.4124677926593
50.4124677926581
50.4124677926593
50.4124677926666
50.4124677926886
50.4124677927463
50.4124677928902
3500.86581897403
31507.7923712225
31507.7930880586
3500.86589865904
50.4124689406018
50.4124689405681
50.4124689405563
50.4124689405527
50.4124689405524
50.4124689405537
50.4124689405557
50.412468940558
50.4124689405603
50.4124689405623
50.4124689405642
50.4124689405658
50.4124689405671
50.4124689405682
50.4124689405691
50.4124689405698
50.4124689405704
50.4124689405709
50.4124689405713
50.4124689405716
50.4124689405718
50.412468940572
50.4124689405722
50.4124689405723
50.4124689405723
50.4124689405723
50.4124689405723
50.4124689405721
50.4124689405719
50.4124689405716
50.4124689405712
50.4124689405706
50.4124689405698
50.4124689405688
50.4124689405676
50.4124689405661
50.4124689405643
50.4124689405623
50.41246894056
50.4124689405577
50.4124689405556
50.4124689405541
50.4124689405541
50.4124689405573
50.412468940569
50.4124689406058
3500.86589866036
31507.793088099
31507.7938055242
3500.86597838697
50.4124700887544
50.4124700887551
50.4124700887587
50.4124700887614
50.4124700887634
50.4124700887653
50.4124700887672
50.4124700887692
50.4124700887711
50.4124700887729
50.4124700887745
50.4124700887759
50.4124700887771
50.4124700887781
50.412470088779
50.4124700887796
50.4124700887802
50.4124700887806
50.412470088781
50.4124700887813
50.4124700887816
50.4124700887818
50.4124700887819
50.412470088782
50.4124700887821
50.4124700887821
50.412470088782
50.4124700887819
50.4124700887817
50.4124700887814
50.412470088781
50.4124700887805
50.4124700887797
50.4124700887789
50.4124700887778
50.4124700887764
50.4124700887749
50.4124700887732
50.4124700887713
50.4124700887693
50.4124700887673
50.4124700887654
50.4124700887635
50.4124700887611
50.4124700887579
50.4124700887587
3500.8659783876
31507.79380554
31507.7945231658
3500.86605812815
50.4124712370509
50.4124712370624
50.4124712370706
50.4124712370747
50.412471237077
50.4124712370785
50.41247123708
50.4124712370816
50.4124712370831
50.4124712370845
50.4124712370858
50.412471237087
50.412471237088
50.412471237089
50.4124712370897
50.4124712370904
50.4124712370909
50.4124712370913
50.4124712370917
50.412471237092
50.4124712370922
50.4124712370924
50.4124712370926
50.4124712370927
50.4124712370927
50.4124712370927
50.4124712370927
50.4124712370926
50.4124712370924
50.4124712370922
50.4124712370918
50.4124712370913
50.4124712370907
50.4124712370899
50.4124712370889
50.4124712370878
50.4124712370866
50.4124712370852
50.4124712370836
50.4124712370821
50.4124712370806
50.4124712370791
50.4124712370772
50.4124712370735
50.412471237066
50.4124712370553
3500.86605812853
31507.7945231709
31507.7952408661
3500.86613787367
50.4124723853937
50.4124723854082
50.4124723854173
50.4124723854213
50.4124723854231
50.4124723854241
50.412472385425
50.412472385426
50.4124723854272
50.4124723854283
50.4124723854293
50.4124723854303
50.4124723854312
50.412472385432
50.4124723854327
50.4124723854332
50.4124723854338
50.4124723854341
50.4124723854345
50.4124723854348
50.412472385435
50.4124723854352
50.4124723854354
50.4124723854355
50.4124723854355
50.4124723854355
50.4124723854355
50.4124723854354
50.4124723854352
50.412472385435
50.4124723854347
50.4124723854343
50.4124723854337
50.4124723854331
50.4124723854323
50.4124723854314
50.4124723854304
50.4124723854293
50.4124723854282
50.4124723854272
50.4124723854263
50.4124723854254
50.4124723854239
50.4124723854204
50.4124723854121
50.4124723853982
3500.86613787402
31507.7952408693
31507.7959585854
3500.86621762059
50.4124735337512
50.412473533766
50.4124735337747
50.4124735337781
50.4124735337792
50.4124735337796
50.41247353378
50.4124735337805
50.4124735337812
50.412473533782
50.4124735337829
50.4124735337836
50.4124735337844
50.412473533785
50.4124735337857
50.4124735337861
50.4124735337866
50.412473533787
50.4124735337873
50.4124735337876
50.4124735337878
50.412473533788
50.4124735337882
50.4124735337883
50.4124735337884
50.4124735337883
50.4124735337884
50.4124735337883
50.4124735337881
50.4124735337879
50.4124735337877
50.4124735337873
50.4124735337868
50.4124735337863
50.4124735337857
50.412473533785
50.4124735337842
50.4124735337835
50.4124735337828
50.4124735337823
50.4124735337819
50.4124735337816
50.4124735337808
50.412473533778
50.41247353377
50.4124735337559
3500.86621762096
31507.7959585888
31507.796676311
3500.86629736796
50.4124746821133
50.4124746821275
50.4124746821354
50.4124746821381
50.4124746821384
50.4124746821381
50.412474682138
50.4124746821381
50.4124746821384
50.4124746821389
50.4124746821395
50.4124746821401
50.4124746821407
50.4124746821412
50.4124746821418
50.4124746821422
50.4124746821426
50.4124746821429
50.4124746821433
50.4124746821435
50.4124746821438
50.412474682144
50.4124746821441
50.4124746821442
50.4124746821443
50.4124746821443
50.4124746821443
50.4124746821443
50.4124746821442
50.412474682144
50.4124746821437
50.4124746821435
50.4124746821431
50.4124746821427