/*--------------------------------*- C++ -*----------------------------------*\
  =========                 |
  \\      /  F ield         | OpenFOAM: The Open Source CFD Toolbox
   \\    /   O peration     | Website:  https://openfoam.org
    \\  /    A nd           | Version:  10
     \\/     M anipulation  |
\*---------------------------------------------------------------------------*/
FoamFile
{
    format      ascii;
    class       volScalarField;
    location    "9.8";
    object      p;
}
// * * * * * * * * * * * * * * * * * * * * * * * * * * * * * * * * * * * * * //

dimensions      [1 -1 -2 0 0 0 0];

internalField   nonuniform List<scalar> 
2500
(
100106.074400409
100106.074400961
100106.074401755
100106.074402541
100106.074403162
100106.074403624
100106.074403948
100106.074404175
100106.07440433
100106.074404437
100106.07440451
100106.07440456
100106.074404595
100106.074404618
100106.074404635
100106.074404647
100106.074404656
100106.074404662
100106.074404666
100106.07440467
100106.074404672
100106.074404674
100106.074404675
100106.074404675
100106.074404675
100106.074404675
100106.074404674
100106.074404673
100106.074404671
100106.074404669
100106.074404666
100106.074404662
100106.074404657
100106.07440465
100106.07440464
100106.074404628
100106.07440461
100106.074404585
100106.07440455
100106.074404499
100106.074404425
100106.074404317
100106.07440416
100106.074403933
100106.074403607
100106.074403143
100106.074402516
100106.074401722
100106.074400919
100106.074400371
100106.072148956
100106.072149376
100106.072150036
100106.072150719
100106.072151274
100106.072151697
100106.072152001
100106.072152216
100106.072152365
100106.072152468
100106.072152539
100106.072152588
100106.072152621
100106.072152645
100106.072152662
100106.072152674
100106.072152683
100106.072152689
100106.072152693
100106.072152697
100106.072152699
100106.072152701
100106.072152702
100106.072152703
100106.072152703
100106.072152702
100106.072152701
100106.0721527
100106.072152698
100106.072152696
100106.072152693
100106.072152689
100106.072152684
100106.072152677
100106.072152667
100106.072152654
100106.072152637
100106.072152612
100106.072152578
100106.072152528
100106.072152456
100106.072152352
100106.072152202
100106.072151985
100106.07215168
100106.072151254
100106.072150694
100106.072150003
100106.072149336
100106.072148919
100106.069892178
100106.069892504
100106.069892981
100106.069893507
100106.069893945
100106.069894291
100106.069894545
100106.069894728
100106.069894857
100106.069894948
100106.069895011
100106.069895056
100106.069895087
100106.069895109
100106.069895125
100106.069895137
100106.069895145
100106.069895152
100106.069895156
100106.06989516
100106.069895162
100106.069895164
100106.069895165
100106.069895165
100106.069895166
100106.069895165
100106.069895164
100106.069895163
100106.069895161
100106.069895159
100106.069895156
100106.069895152
100106.069895147
100106.06989514
100106.06989513
100106.069895118
100106.069895101
100106.069895078
100106.069895046
100106.069895001
100106.069894936
100106.069894844
100106.069894714
100106.069894529
100106.069894274
100106.069893925
100106.069893482
100106.069892949
100106.069892465
100106.069892139
100106.06763023
100106.067630448
100106.067630739
100106.067631089
100106.067631388
100106.067631634
100106.067631819
100106.067631958
100106.067632058
100106.06763213
100106.067632183
100106.06763222
100106.067632248
100106.067632267
100106.067632282
100106.067632293
100106.067632301
100106.067632307
100106.067632311
100106.067632315
100106.067632317
100106.067632319
100106.06763232
100106.06763232
100106.06763232
100106.06763232
100106.067632319
100106.067632318
100106.067632316
100106.067632314
100106.067632311
100106.067632307
100106.067632302
100106.067632295
100106.067632286
100106.067632275
100106.06763226
100106.067632239
100106.067632211
100106.067632172
100106.067632119
100106.067632046
100106.067631944
100106.067631804
100106.067631617
100106.067631368
100106.067631065
100106.067630709
100106.067630412
100106.067630191
100106.065363555
100106.065363663
100106.065363789
100106.065363973
100106.065364139
100106.065364286
100106.065364403
100106.065364495
100106.065364565
100106.065364618
100106.065364658
100106.065364688
100106.065364711
100106.065364728
100106.065364741
100106.06536475
100106.065364758
100106.065364763
100106.065364768
100106.065364771
100106.065364773
100106.065364775
100106.065364776
100106.065364776
100106.065364776
100106.065364776
100106.065364775
100106.065364774
100106.065364772
100106.06536477
100106.065364767
100106.065364763
100106.065364759
100106.065364752
100106.065364744
100106.065364734
100106.06536472
100106.065364702
100106.065364679
100106.065364648
100106.065364607
100106.065364553
100106.065364482
100106.065364388
100106.065364269
100106.06536412
100106.065363951
100106.065363762
100106.065363631
100106.065363518
100106.063092841
100106.063092852
100106.063092849
100106.063092894
100106.063092947
100106.063093009
100106.063093065
100106.063093116
100106.063093159
100106.063093194
100106.063093222
100106.063093245
100106.063093263
100106.063093277
100106.063093288
100106.063093296
100106.063093303
100106.063093308
100106.063093312
100106.063093315
100106.063093317
100106.063093319
100106.06309332
100106.06309332
100106.06309332
100106.06309332
100106.063093319
100106.063093318
100106.063093316
100106.063093314
100106.063093311
100106.063093308
100106.063093303
100106.063093297
100106.06309329
100106.063093281
100106.063093269
100106.063093255
100106.063093236
100106.063093213
100106.063093184
100106.063093147
100106.063093104
100106.063093052
100106.063092993
100106.06309293
100106.063092875
100106.063092827
100106.063092826
100106.063092809
100106.060818932
100106.060818869
100106.060818778
100106.060818722
100106.06081869
100106.060818686
100106.060818695
100106.060818712
100106.060818732
100106.060818751
100106.060818769
100106.060818785
100106.060818799
100106.06081881
100106.060818819
100106.060818826
100106.060818832
100106.060818836
100106.06081884
100106.060818843
100106.060818845
100106.060818846
100106.060818847
100106.060818847
100106.060818848
100106.060818847
100106.060818847
100106.060818845
100106.060818844
100106.060818842
100106.060818839
100106.060818836
100106.060818832
100106.060818827
100106.06081882
100106.060818812
100106.060818802
100106.060818791
100106.060818777
100106.06081876
100106.060818741
100106.060818721
100106.0608187
100106.060818682
100106.060818672
100106.060818675
100106.060818705
100106.06081876
100106.060818849
100106.060818907
100106.058542661
100106.058542553
100106.058542414
100106.058542293
100106.058542206
100106.058542156
100106.058542131
100106.058542123
100106.058542124
100106.058542132
100106.058542141
100106.058542151
100106.05854216
100106.058542169
100106.058542176
100106.058542182
100106.058542187
100106.058542191
100106.058542194
100106.058542196
100106.058542198
100106.058542199
100106.0585422
100106.058542201
100106.058542201
100106.0585422
100106.0585422
100106.058542199
100106.058542197
100106.058542195
100106.058542193
100106.05854219
100106.058542186
100106.058542182
100106.058542176
100106.058542169
100106.058542162
100106.058542153
100106.058542143
100106.058542132
100106.058542122
100106.058542114
100106.058542111
100106.058542119
100106.058542143
100106.058542193
100106.058542279
100106.0585424
100106.058542539
100106.058542644
100106.056264753
100106.056264627
100106.05626447
100106.056264317
100106.0562642
100106.056264122
100106.056264074
100106.056264049
100106.056264037
100106.056264035
100106.056264037
100106.056264042
100106.056264048
100106.056264054
100106.056264059
100106.056264064
100106.056264068
100106.056264071
100106.056264074
100106.056264076
100106.056264078
100106.056264079
100106.05626408
100106.05626408
100106.05626408
100106.05626408
100106.056264079
100106.056264078
100106.056264077
100106.056264075
100106.056264073
100106.05626407
100106.056264067
100106.056264063
100106.056264058
100106.056264053
100106.056264047
100106.056264041
100106.056264034
100106.056264029
100106.056264026
100106.056264028
100106.056264038
100106.056264063
100106.056264111
100106.056264189
100106.056264305
100106.056264459
100106.056264617
100106.056264743
100106.05398578
100106.053985654
100106.053985501
100106.053985339
100106.053985212
100106.05398512
100106.053985059
100106.053985022
100106.053985002
100106.053984992
100106.053984989
100106.053984989
100106.053984992
100106.053984995
100106.053984999
100106.053985003
100106.053985006
100106.053985008
100106.053985011
100106.053985012
100106.053985014
100106.053985015
100106.053985015
100106.053985016
100106.053985016
100106.053985015
100106.053985015
100106.053985014
100106.053985013
100106.053985011
100106.053985009
100106.053985007
100106.053985004
100106.053985001
100106.053984997
100106.053984993
100106.053984989
100106.053984985
100106.053984981
100106.05398498
100106.053984983
100106.053984992
100106.053985012
100106.053985049
100106.053985109
100106.053985201
100106.05398533
100106.053985493
100106.053985648
100106.053985774
100106.051706152
100106.05170604
100106.051705902
100106.051705747
100106.051705621
100106.051705525
100106.051705458
100106.051705415
100106.051705388
100106.051705373
100106.051705366
100106.051705363
100106.051705363
100106.051705364
100106.051705366
100106.051705368
100106.051705371
100106.051705373
100106.051705374
100106.051705376
100106.051705377
100106.051705378
100106.051705378
100106.051705378
100106.051705378
100106.051705378
100106.051705377
100106.051705377
100106.051705376
100106.051705374
100106.051705373
100106.051705371
100106.051705368
100106.051705366
100106.051705363
100106.05170536
100106.051705357
100106.051705355
100106.051705355
100106.051705357
100106.051705364
100106.051705379
100106.051705405
100106.051705449
100106.051705515
100106.051705611
100106.051705739
100106.051705896
100106.051706036
100106.051706149
100106.049426147
100106.049426054
100106.049425936
100106.049425796
100106.049425678
100106.049425585
100106.049425517
100106.049425471
100106.04942544
100106.049425421
100106.04942541
100106.049425405
100106.049425402
100106.049425402
100106.049425402
100106.049425404
100106.049425405
100106.049425406
100106.049425408
100106.049425409
100106.049425409
100106.04942541
100106.04942541
100106.04942541
100106.04942541
100106.04942541
100106.04942541
100106.049425409
100106.049425408
100106.049425407
100106.049425405
100106.049425404
100106.049425402
100106.0494254
100106.049425398
100106.049425397
100106.049425395
100106.049425395
100106.049425397
100106.049425402
100106.049425413
100106.049425431
100106.049425462
100106.049425508
100106.049425576
100106.04942567
100106.049425789
100106.049425931
100106.049426051
100106.049426145
100106.047145937
100106.047145864
100106.047145767
100106.047145646
100106.04714554
100106.047145452
100106.047145386
100106.047145339
100106.047145306
100106.047145285
100106.047145271
100106.047145263
100106.047145259
100106.047145257
100106.047145256
100106.047145256
100106.047145257
100106.047145258
100106.047145258
100106.047145259
100106.04714526
100106.04714526
100106.04714526
100106.04714526
100106.04714526
100106.04714526
100106.04714526
100106.047145259
100106.047145258
100106.047145257
100106.047145256
100106.047145255
100106.047145254
100106.047145252
100106.047145251
100106.047145251
100106.047145251
100106.047145252
100106.047145256
100106.047145264
100106.047145277
100106.047145298
100106.04714533
100106.047145377
100106.047145443
100106.047145532
100106.047145639
100106.047145762
100106.047145861
100106.047145936
100106.044865625
100106.04486557
100106.044865491
100106.044865388
100106.044865295
100106.044865215
100106.044865153
100106.044865107
100106.044865073
100106.044865051
100106.044865035
100106.044865025
100106.044865019
100106.044865016
100106.044865014
100106.044865013
100106.044865013
100106.044865013
100106.044865014
100106.044865014
100106.044865014
100106.044865014
100106.044865014
100106.044865014
100106.044865014
100106.044865014
100106.044865014
100106.044865013
100106.044865012
100106.044865012
100106.044865011
100106.04486501
100106.044865009
100106.044865008
100106.044865008
100106.044865008
100106.04486501
100106.044865013
100106.044865018
100106.044865028
100106.044865043
100106.044865065
100106.044865098
100106.044865145
100106.044865207
100106.044865288
100106.044865382
100106.044865486
100106.044865566
100106.044865623
100106.042585266
100106.042585225
100106.042585163
100106.042585077
100106.042584996
100106.042584925
100106.042584867
100106.042584822
100106.042584789
100106.042584766
100106.042584749
100106.042584738
100106.042584731
100106.042584726
100106.042584723
100106.042584721
100106.042584721
100106.04258472
100106.04258472
100106.04258472
100106.04258472
100106.04258472
100106.04258472
100106.04258472
100106.04258472
100106.042584719
100106.042584719
100106.042584719
100106.042584718
100106.042584718
100106.042584717
100106.042584716
100106.042584716
100106.042584716
100106.042584716
100106.042584718
100106.04258472
100106.042584724
100106.042584731
100106.042584742
100106.042584758
100106.042584781
100106.042584814
100106.042584859
100106.042584917
100106.042584989
100106.042585071
100106.042585158
100106.042585221
100106.042585263
100106.040304889
100106.040304859
100106.04030481
100106.040304739
100106.04030467
100106.040304606
100106.040304553
100106.040304511
100106.040304479
100106.040304455
100106.040304438
100106.040304426
100106.040304418
100106.040304412
100106.040304408
100106.040304406
100106.040304404
100106.040304403
100106.040304403
100106.040304403
100106.040304402
100106.040304402
100106.040304402
100106.040304402
100106.040304402
100106.040304401
100106.040304401
100106.040304401
100106.0403044
100106.0403044
100106.0403044
100106.040304399
100106.040304399
100106.0403044
100106.040304401
100106.040304403
100106.040304406
100106.040304411
100106.040304419
100106.040304431
100106.040304448
100106.040304472
100106.040304504
100106.040304546
100106.040304599
100106.040304663
100106.040304733
100106.040304805
100106.040304855
100106.040304886
100106.038024508
100106.038024486
100106.038024447
100106.038024389
100106.03802433
100106.038024274
100106.038024226
100106.038024187
100106.038024156
100106.038024132
100106.038024115
100106.038024102
100106.038024093
100106.038024087
100106.038024082
100106.038024079
100106.038024077
100106.038024076
100106.038024075
100106.038024074
100106.038024074
100106.038024073
100106.038024073
100106.038024073
100106.038024073
100106.038024072
100106.038024072
100106.038024072
100106.038024072
100106.038024071
100106.038024071
100106.038024071
100106.038024072
100106.038024073
100106.038024074
100106.038024077
100106.038024081
100106.038024087
100106.038024095
100106.038024108
100106.038024125
100106.038024148
100106.038024179
100106.038024219
100106.038024267
100106.038024323
100106.038024383
100106.038024442
100106.038024482
100106.038024504
100106.035744129
100106.035744113
100106.035744081
100106.035744034
100106.035743983
100106.035743934
100106.035743891
100106.035743855
100106.035743826
100106.035743803
100106.035743785
100106.035743772
100106.035743763
100106.035743756
100106.035743751
100106.035743747
100106.035743745
100106.035743743
100106.035743742
100106.035743741
100106.03574374
100106.03574374
100106.035743739
100106.035743739
100106.035743739
100106.035743738
100106.035743738
100106.035743738
100106.035743738
100106.035743738
100106.035743738
100106.035743738
100106.035743739
100106.03574374
100106.035743742
100106.035743745
100106.03574375
100106.035743757
100106.035743766
100106.035743779
100106.035743796
100106.035743819
100106.035743848
100106.035743884
100106.035743927
100106.035743977
100106.035744027
100106.035744076
100106.035744108
100106.035744124
100106.033463753
100106.033463741
100106.033463716
100106.033463677
100106.033463634
100106.033463591
100106.033463553
100106.033463519
100106.033463492
100106.03346347
100106.033463453
100106.03346344
100106.03346343
100106.033463422
100106.033463417
100106.033463413
100106.03346341
100106.033463408
100106.033463406
100106.033463405
100106.033463404
100106.033463404
100106.033463403
100106.033463403
100106.033463402
100106.033463402
100106.033463402
100106.033463402
100106.033463402
100106.033463402
100106.033463402
100106.033463403
100106.033463404
100106.033463406
100106.033463408
100106.033463412
100106.033463417
100106.033463424
100106.033463433
100106.033463446
100106.033463463
100106.033463485
100106.033463512
100106.033463546
100106.033463584
100106.033463627
100106.03346367
100106.03346371
100106.033463736
100106.033463747
100106.031183381
100106.031183372
100106.031183352
100106.03118332
100106.031183283
100106.031183246
100106.031183212
100106.031183181
100106.031183156
100106.031183135
100106.031183118
100106.031183105
100106.031183095
100106.031183087
100106.031183082
100106.031183077
100106.031183074
100106.031183072
100106.03118307
100106.031183069
100106.031183068
100106.031183067
100106.031183066
100106.031183066
100106.031183065
100106.031183065
100106.031183065
100106.031183065
100106.031183065
100106.031183065
100106.031183066
100106.031183067
100106.031183068
100106.03118307
100106.031183073
100106.031183076
100106.031183082
100106.031183089
100106.031183099
100106.031183111
100106.031183128
100106.031183149
100106.031183174
100106.031183205
100106.031183239
100106.031183277
100106.031183313
100106.031183346
100106.031183366
100106.031183375
100106.028903012
100106.028903006
100106.02890299
100106.028902963
100106.028902932
100106.0289029
100106.028902869
100106.028902842
100106.028902818
100106.028902798
100106.028902782
100106.028902769
100106.028902759
100106.028902752
100106.028902746
100106.028902741
100106.028902738
100106.028902735
100106.028902733
100106.028902732
100106.028902731
100106.02890273
100106.028902729
100106.028902728
100106.028902728
100106.028902728
100106.028902728
100106.028902728
100106.028902728
100106.028902728
100106.028902729
100106.02890273
100106.028902731
100106.028902733
100106.028902736
100106.028902741
100106.028902746
100106.028902754
100106.028902763
100106.028902776
100106.028902791
100106.028902811
100106.028902835
100106.028902862
100106.028902893
100106.028902925
100106.028902956
100106.028902983
100106.028903
100106.028903006
100106.026622647
100106.026622642
100106.026622629
100106.026622607
100106.026622581
100106.026622553
100106.026622526
100106.026622501
100106.026622479
100106.026622461
100106.026622445
100106.026622433
100106.026622423
100106.026622415
100106.026622409
100106.026622405
100106.026622401
100106.026622398
100106.026622396
100106.026622394
100106.026622393
100106.026622392
100106.026622391
100106.026622391
100106.02662239
100106.02662239
100106.02662239
100106.02662239
100106.02662239
100106.026622391
100106.026622392
100106.026622393
100106.026622394
100106.026622397
100106.0266224
100106.026622404
100106.02662241
100106.026622417
100106.026622427
100106.026622439
100106.026622454
100106.026622472
100106.026622494
100106.026622519
100106.026622546
100106.026622574
100106.0266226
100106.026622623
100106.026622636
100106.026622641
100106.024342284
100106.024342281
100106.02434227
100106.024342252
100106.02434223
100106.024342205
100106.024342182
100106.024342159
100106.024342139
100106.024342122
100106.024342108
100106.024342096
100106.024342086
100106.024342079
100106.024342073
100106.024342068
100106.024342064
100106.024342061
100106.024342059
100106.024342057
100106.024342056
100106.024342055
100106.024342054
100106.024342053
100106.024342053
100106.024342053
100106.024342052
100106.024342053
100106.024342053
100106.024342053
100106.024342054
100106.024342056
100106.024342057
100106.02434206
100106.024342063
100106.024342068
100106.024342073
100106.024342081
100106.02434209
100106.024342101
100106.024342116
100106.024342133
100106.024342152
100106.024342175
100106.024342199
100106.024342223
100106.024342245
100106.024342264
100106.024342274
100106.024342278
100106.022061924
100106.022061922
100106.022061913
100106.022061898
100106.022061879
100106.022061858
100106.022061837
100106.022061817
100106.022061799
100106.022061783
100106.02206177
100106.022061758
100106.022061749
100106.022061742
100106.022061736
100106.022061731
100106.022061727
100106.022061724
100106.022061722
100106.02206172
100106.022061718
100106.022061717
100106.022061716
100106.022061716
100106.022061715
100106.022061715
100106.022061715
100106.022061715
100106.022061715
100106.022061716
100106.022061717
100106.022061718
100106.02206172
100106.022061723
100106.022061726
100106.02206173
100106.022061736
100106.022061743
100106.022061752
100106.022061763
100106.022061777
100106.022061792
100106.02206181
100106.02206183
100106.022061851
100106.022061872
100106.022061891
100106.022061906
100106.022061915
100106.022061917
100106.019781565
100106.019781564
100106.019781557
100106.019781544
100106.019781528
100106.01978151
100106.019781492
100106.019781474
100106.019781458
100106.019781443
100106.019781431
100106.01978142
100106.019781411
100106.019781404
100106.019781398
100106.019781393
100106.01978139
100106.019781387
100106.019781384
100106.019781382
100106.019781381
100106.01978138
100106.019781379
100106.019781378
100106.019781377
100106.019781377
100106.019781377
100106.019781377
100106.019781378
100106.019781378
100106.019781379
100106.019781381
100106.019781383
100106.019781385
100106.019781389
100106.019781393
100106.019781399
100106.019781406
100106.019781414
100106.019781425
100106.019781437
100106.019781451
100106.019781467
100106.019781485
100106.019781503
100106.019781521
100106.019781537
100106.01978155
100106.019781557
100106.019781558
100106.017501208
100106.017501207
100106.017501202
100106.017501192
100106.017501178
100106.017501163
100106.017501147
100106.017501131
100106.017501117
100106.017501103
100106.017501092
100106.017501082
100106.017501073
100106.017501066
100106.017501061
100106.017501056
100106.017501052
100106.017501049
100106.017501047
100106.017501045
100106.017501043
100106.017501042
100106.017501041
100106.01750104
100106.01750104
100106.01750104
100106.017501039
100106.01750104
100106.01750104
100106.017501041
100106.017501042
100106.017501043
100106.017501045
100106.017501048
100106.017501051
100106.017501056
100106.017501061
100106.017501068
100106.017501076
100106.017501085
100106.017501097
100106.01750111
100106.017501124
100106.01750114
100106.017501156
100106.017501171
100106.017501185
100106.017501195
100106.0175012
100106.017501201
100106.015220852
100106.015220852
100106.015220848
100106.01522084
100106.015220829
100106.015220815
100106.015220802
100106.015220788
100106.015220775
100106.015220763
100106.015220752
100106.015220743
100106.015220735
100106.015220728
100106.015220723
100106.015220718
100106.015220715
100106.015220711
100106.015220709
100106.015220707
100106.015220705
100106.015220704
100106.015220703
100106.015220703
100106.015220702
100106.015220702
100106.015220702
100106.015220702
100106.015220702
100106.015220703
100106.015220704
100106.015220706
100106.015220708
100106.01522071
100106.015220714
100106.015220718
100106.015220723
100106.015220729
100106.015220737
100106.015220746
100106.015220756
100106.015220768
100106.015220781
100106.015220795
100106.015220809
100106.015220822
100106.015220833
100106.015220841
100106.015220845
100106.015220845
100106.012940498
100106.012940498
100106.012940495
100106.012940488
100106.012940479
100106.012940468
100106.012940456
100106.012940444
100106.012940433
100106.012940422
100106.012940412
100106.012940404
100106.012940396
100106.01294039
100106.012940385
100106.01294038
100106.012940377
100106.012940374
100106.012940371
100106.012940369
100106.012940368
100106.012940366
100106.012940366
100106.012940365
100106.012940364
100106.012940364
100106.012940364
100106.012940364
100106.012940365
100106.012940365
100106.012940366
100106.012940368
100106.01294037
100106.012940372
100106.012940376
100106.01294038
100106.012940385
100106.01294039
100106.012940398
100106.012940406
100106.012940415
100106.012940426
100106.012940437
100106.012940449
100106.012940461
100106.012940472
100106.012940481
100106.012940488
100106.012940491
100106.012940491
100106.010660144
100106.010660145
100106.010660142
100106.010660138
100106.01066013
100106.010660121
100106.010660111
100106.010660101
100106.01066009
100106.010660081
100106.010660072
100106.010660064
100106.010660057
100106.010660051
100106.010660046
100106.010660042
100106.010660039
100106.010660036
100106.010660033
100106.010660032
100106.01066003
100106.010660029
100106.010660028
100106.010660027
100106.010660026
100106.010660026
100106.010660026
100106.010660026
100106.010660027
100106.010660028
100106.010660029
100106.01066003
100106.010660032
100106.010660035
100106.010660038
100106.010660041
100106.010660046
100106.010660052
100106.010660058
100106.010660066
100106.010660074
100106.010660084
100106.010660094
100106.010660104
100106.010660114
100106.010660123
100106.010660131
100106.010660135
100106.010660138
100106.010660137
100106.008379791
100106.008379792
100106.008379791
100106.008379788
100106.008379782
100106.008379774
100106.008379766
100106.008379757
100106.008379748
100106.008379739
100106.008379732
100106.008379724
100106.008379718
100106.008379713
100106.008379708
100106.008379704
100106.008379701
100106.008379698
100106.008379696
100106.008379694
100106.008379692
100106.008379691
100106.00837969
100106.008379689
100106.008379689
100106.008379688
100106.008379688
100106.008379689
100106.008379689
100106.00837969
100106.008379691
100106.008379692
100106.008379694
100106.008379696
100106.008379699
100106.008379703
100106.008379707
100106.008379712
100106.008379718
100106.008379725
100106.008379733
100106.008379741
100106.00837975
100106.008379759
100106.008379767
100106.008379775
100106.00837978
100106.008379784
100106.008379785
100106.008379784
100106.006099438
100106.00609944
100106.00609944
100106.006099438
100106.006099434
100106.006099428
100106.006099421
100106.006099413
100106.006099405
100106.006099398
100106.006099391
100106.006099385
100106.006099379
100106.006099374
100106.00609937
100106.006099366
100106.006099363
100106.00609936
100106.006099358
100106.006099356
100106.006099354
100106.006099353
100106.006099352
100106.006099351
100106.006099351
100106.006099351
100106.006099351
100106.006099351
100106.006099351
100106.006099352
100106.006099353
100106.006099354
100106.006099356
100106.006099358
100106.006099361
100106.006099364
100106.006099368
100106.006099373
100106.006099378
100106.006099385
100106.006099391
100106.006099399
100106.006099406
100106.006099414
100106.006099421
100106.006099426
100106.006099431
100106.006099433
100106.006099433
100106.006099431
100106.003819086
100106.003819089
100106.00381909
100106.003819089
100106.003819086
100106.003819082
100106.003819076
100106.00381907
100106.003819063
100106.003819056
100106.00381905
100106.003819045
100106.003819039
100106.003819035
100106.003819031
100106.003819027
100106.003819024
100106.003819022
100106.00381902
100106.003819018
100106.003819016
100106.003819015
100106.003819014
100106.003819013
100106.003819013
100106.003819013
100106.003819013
100106.003819013
100106.003819013
100106.003819014
100106.003819015
100106.003819016
100106.003819018
100106.00381902
100106.003819023
100106.003819026
100106.003819029
100106.003819034
100106.003819038
100106.003819044
100106.00381905
100106.003819056
100106.003819063
100106.003819069
100106.003819074
100106.003819079
100106.003819082
100106.003819082
100106.003819082
100106.003819079
100106.001538735
100106.001538738
100106.00153874
100106.00153874
100106.001538739
100106.001538735
100106.001538731
100106.001538726
100106.00153872
100106.001538715
100106.00153871
100106.001538704
100106.0015387
100106.001538696
100106.001538692
100106.001538689
100106.001538686
100106.001538684
100106.001538682
100106.00153868
100106.001538678
100106.001538677
100106.001538676
100106.001538676
100106.001538675
100106.001538675
100106.001538675
100106.001538675
100106.001538675
100106.001538676
100106.001538677
100106.001538678
100106.00153868
100106.001538682
100106.001538684
100106.001538687
100106.00153869
100106.001538694
100106.001538698
100106.001538703
100106.001538708
100106.001538714
100106.001538719
100106.001538724
100106.001538728
100106.001538731
100106.001538733
100106.001538733
100106.001538731
100106.001538728
100105.999258384
100105.999258388
100105.99925839
100105.999258392
100105.999258392
100105.99925839
100105.999258387
100105.999258383
100105.999258378
100105.999258373
100105.999258369
100105.999258364
100105.99925836
100105.999258356
100105.999258353
100105.99925835
100105.999258348
100105.999258345
100105.999258343
100105.999258342
100105.99925834
100105.999258339
100105.999258338
100105.999258338
100105.999258337
100105.999258337
100105.999258337
100105.999258337
100105.999258337
100105.999258338
100105.999258339
100105.99925834
100105.999258341
100105.999258343
100105.999258345
100105.999258348
100105.999258351
100105.999258354
100105.999258358
100105.999258362
100105.999258367
100105.999258371
100105.999258375
100105.999258379
100105.999258382
100105.999258384
100105.999258385
100105.999258383
100105.999258381
100105.999258377
100105.996978033
100105.996978038
100105.996978042
100105.996978044
100105.996978045
100105.996978044
100105.996978042
100105.996978039
100105.996978036
100105.996978032
100105.996978028
100105.996978024
100105.99697802
100105.996978017
100105.996978014
100105.996978011
100105.996978009
100105.996978007
100105.996978005
100105.996978004
100105.996978002
100105.996978001
100105.996978
100105.996978
100105.996977999
100105.996977999
100105.996977999
100105.996977999
100105.996977999
100105.996978
100105.996978001
100105.996978002
100105.996978003
100105.996978005
100105.996978007
100105.996978009
100105.996978012
100105.996978015