/*--------------------------------*- C++ -*----------------------------------*\
  =========                 |
  \\      /  F ield         | OpenFOAM: The Open Source CFD Toolbox
   \\    /   O peration     | Website:  https://openfoam.org
    \\  /    A nd           | Version:  10
     \\/     M anipulation  |
\*---------------------------------------------------------------------------*/
FoamFile
{
    format      ascii;
    class       volScalarField;
    location    "9.8";
    object      p_rgh;
}
// * * * * * * * * * * * * * * * * * * * * * * * * * * * * * * * * * * * * * //

dimensions      [1 -1 -2 0 0 0 0];

internalField   nonuniform List<scalar> 
2500
(
106.188001448361
106.188002276351
106.188005705917
106.18800882707
106.188011122096
106.188012693543
106.188013727733
106.188014397587
106.188014823827
106.18801509116
106.188015256965
106.188015358814
106.188015421212
106.188015459906
106.188015484309
106.188015500156
106.188015510619
106.188015517851
106.188015523003
106.188015526641
106.188015529216
106.188015531006
106.188015532156
106.188015532738
106.188015532884
106.188015532578
106.188015531807
106.188015530584
106.188015528809
106.188015526393
106.188015523163
106.188015518841
106.188015513035
106.18801550506
106.188015493695
106.18801547699
106.188015451524
106.188015411622
106.18801534755
106.188015244101
106.188015076914
106.1880148083
106.188014382016
106.188013713429
106.188012680534
106.188011109058
106.188008805562
106.188005663891
106.188002219962
106.188001436603
106.188241316166
106.188246505772
106.188255208006
106.188262717333
106.188268186146
106.188271908555
106.188274353393
106.188275927678
106.188276920875
106.188277534689
106.188277905909
106.188278125861
106.18827825402
106.188278328074
106.188278370886
106.188278396003
106.18827841102
106.188278420421
106.188278426533
106.188278430636
106.18827843343
106.188278435307
106.188278436486
106.188278437112
106.188278437257
106.188278436952
106.188278436195
106.188278434944
106.188278433139
106.188278430622
106.188278427173
106.188278422356
106.188278415473
106.188278405156
106.188278388989
106.188278362562
106.188278318034
106.18827824184
106.188278111018
106.188277888359
106.188277514899
106.188276900051
106.188275908571
106.188274339394
106.188271901148
106.188268180093
106.188262691634
106.188255132278
106.188246394551
106.188241428492
106.188504007339
106.188514644309
106.188527698469
106.188538438029
106.188546136065
106.188551326661
106.18855471359
106.188556881752
106.188558242429
106.18855907867
106.188559580813
106.188559875663
106.188560045324
106.1885601416
106.188560195922
106.188560226743
106.188560244584
106.188560255265
106.188560261944
106.188560266281
106.188560269176
106.188560271083
106.18856027229
106.188560272945
106.188560273076
106.188560272771
106.188560272014
106.188560270763
106.188560268944
106.188560266382
106.188560262832
106.188560257768
106.188560250259
106.188560238574
106.188560219511
106.188560187133
106.188560130802
106.188560031995
106.188559859263
106.188559561197
106.188559056376
106.188558219146
106.188556860754
106.188554698878
106.188551319297
106.188546125792
106.188538390707
106.188527562204
106.188514421068
106.188504048681
106.188763783473
106.188778708354
106.188794010159
106.188806042279
106.188814454552
106.188820015217
106.188823580422
106.188825826874
106.188827217193
106.188828061306
106.18882856275
106.1888288544
106.188829020815
106.188829114559
106.188829167149
106.188829196864
106.188829214021
106.188829224295
106.188829230741
106.188829234918
106.188829237726
106.188829239603
106.188829240768
106.188829241379
106.188829241524
106.188829241219
106.188829240476
106.188829239225
106.18882923745
106.188829234961
106.188829231483
106.188829226594
106.188829219362
106.188829208142
106.18882918985
106.188829158724
106.188829104329
106.188829008257
106.188828839018
106.188828544298
106.188828040089
106.188827194492
106.18882580525
106.188823562858
106.188820000869
106.188814428373
106.188805959464
106.18879379869
106.18877833939
106.18876357282
106.188999266044
106.189016257878
106.189031755319
106.189043434031
106.189051385169
106.189056528296
106.189059763579
106.189061768629
106.189062992387
106.189063727084
106.189064159727
106.189064409802
106.189064552062
106.189064632184
106.18906467731
106.189064703023
106.18906471807
106.189064727252
106.189064733102
106.189064736973
106.189064739592
106.189064741367
106.189064742473
106.18906474307
106.189064743201
106.189064742895
106.189064742139
106.189064740945
106.189064739228
106.189064736842
106.189064733568
106.189064729013
106.189064722406
106.189064712395
106.189064696358
106.189064669466
106.189064622871
106.1890645409
106.189064396429
106.189064143808
106.189063708705
106.189062972291
106.189061748373
106.189059744691
106.189056507865
106.189051344816
106.189043322491
106.189031484595
106.189015758384
106.188998753685
106.189196869833
106.189213619902
106.189227654351
106.189237818631
106.189244553127
106.189248811701
106.189251438147
106.189253038814
106.189254002718
106.189254575671
106.18925491086
106.18925510408
106.189255214122
106.18925527652
106.189255312114
106.189255332822
106.189255345249
106.189255353049
106.189255358171
106.189255361649
106.18925536405
106.189255365694
106.189255366728
106.189255367281
106.189255367382
106.189255367062
106.189255366364
106.1892553652
106.189255363555
106.189255361314
106.189255358273
106.18925535414
106.189255348319
106.189255339748
106.189255326492
106.189255304838
106.189255268124
106.189255204372
106.189255092686
106.189254897603
106.189254560479
106.189253985925
106.189253021192
106.189251419986
106.189248788825
106.189244506226
106.189237695231
106.189227358365
106.189213046018
106.189196118488
106.189351480658
106.189366249964
106.189377830524
106.189385908612
106.189391115433
106.189394331202
106.189396274247
106.189397438342
106.189398130169
106.189398537797
106.189398775212
106.18939891216
106.189398990668
106.189399035778
106.189399062117
106.189399077877
106.189399087743
106.189399094161
106.189399098541
106.189399101582
106.18939910375
106.189399105235
106.189399106181
106.189399106675
106.189399106748
106.189399106457
106.189399105759
106.189399104653
106.189399103125
106.189399101015
106.18939909825
106.189399094554
106.189399089533
106.189399082403
106.189399071838
106.189399055293
106.189399028095
106.18939898198
106.189398902323
106.18939876408
106.189398525268
106.189398116359
106.189397423528
106.189396258123
106.189394309404
106.18939107006
106.189385791091
106.189377546267
106.189365673199
106.189350613669
106.189464910989
106.189476784974
106.189485597803
106.189491526122
106.189495240978
106.189497478394
106.189498800886
106.189499578875
106.18950003499
106.189500301523
106.189500456399
106.189500546112
106.189500598193
106.18950062881
106.189500647248
106.189500658787
106.189500666325
106.189500671491
106.189500675144
106.189500677792
106.189500679684
106.189500681008
106.189500681852
106.189500682274
106.189500682332
106.189500682041
106.189500681372
106.189500680339
106.189500678898
106.189500676977
106.189500674474
106.189500671229
106.189500666937
106.18950066113
106.189500652923
106.189500640729
106.189500621578
106.189500590219
106.189500537308
106.189500446679
106.189500290857
106.189500023393
106.189499566448
106.189498787178
106.189497459694
106.18949520246
106.189491426805
106.189485352952
106.189476266634
106.18946405618
106.189543306129
106.189552120864
106.189558358616
106.189562404834
106.189564865708
106.189566306668
106.189567137131
106.189567615249
106.18956789111
106.189568050831
106.189568143513
106.189568197646
106.189568229704
106.189568249174
106.189568261456
106.189568269576
106.189568275193
106.189568279238
106.189568282251
106.189568284462
106.189568286092
106.189568287242
106.189568287969
106.189568288333
106.189568288362
106.189568288071
106.18956828746
106.189568286485
106.189568285161
106.189568283415
106.189568281188
106.189568278365
106.189568274771
106.189568270114
106.189568263886
106.189568255155
106.189568242247
106.189568222166
106.189568189468
106.189568134665
106.1895680413
106.189567880923
106.189567604524
106.189567125519
106.189566291505
106.18956483595
106.18956232864
106.189558166472
106.189551697462
106.189542557593
106.189594552503
106.189600649115
106.189604780622
106.189607359469
106.189608876055
106.189609733745
106.189610212008
106.189610479167
106.189610629663
106.18961071549
106.189610765126
106.189610794463
106.189610812347
106.189610823756
106.189610831439
106.189610836882
106.189610840927
106.189610844012
106.189610846384
106.189610848203
106.189610849557
106.189610850532
106.189610851143
106.189610851434
106.189610851434
106.189610851128
106.189610850546
106.189610849658
106.18961084848
106.189610846908
106.189610844973
106.189610842557
106.189610839603
106.189610835951
106.189610831323
106.189610825284
106.189610817062
106.189610805086
106.189610786634
106.189610756759
106.189610706599
106.189610620306
106.189610469504
106.189610201924
106.189609721594
106.189608854358
106.189607305409
106.189604641491
106.189600330836
106.189593957126
106.189626347856
106.189630302528
106.189632873691
106.189634409646
106.189635275863
106.189635742048
106.189635988761
106.189636119176
106.18963618901
106.189636227326
106.189636249052
106.189636262032
106.189636270341
106.189636276104
106.189636280396
106.189636283772
106.189636286508
106.189636288735
106.189636290539
106.189636291965
106.189636293057
106.189636293828
106.189636294323
106.189636294541
106.189636294497
106.189636294206
106.189636293668
106.189636292867
106.189636291791
106.189636290452
106.189636288778
106.18963628677
106.189636284413
106.189636281619
106.189636278315
106.189636274386
106.189636269555
106.189636263269
106.18963625445
106.18963624099
106.189636218827
106.189636180163
106.189636110154
106.189635979637
106.189635732022
106.189635260322
106.189634373412
106.189632779642
106.189630080029
106.189625911225
106.189645127408
106.189647545194
106.189649051594
106.189649902706
106.189650354514
106.189650577464
106.189650683067
106.189650731118
106.189650752523
106.18965076207
106.18965076661
106.189650769214
106.189650771194
106.189650773027
106.189650774832
106.189650776563
106.189650778193
106.189650779677
106.189650780929
106.189650781977
106.189650782791
106.189650783374
106.189650783723
106.189650783868
106.189650783796
106.189650783504
106.18965078301
106.189650782297
106.189650781365
106.189650780216
106.189650778848
106.189650777233
106.189650775414
106.189650773391
106.189650771208
106.189650768923
106.18965076661
106.189650764281
106.189650761822
106.189650758752
106.189650753833
106.189650743996
106.189650722474
106.189650674525
106.189650568747
106.189650343062
106.189649879147
106.189648991451
106.18964739918
106.189644828846
106.189655712151
106.189657110153
106.189657940136
106.189658372576
106.189658578689
106.189658661315
106.189658687101
106.189658688992
106.189658683172
106.189658676216
106.189658670584
106.189658666743
106.18965866456
106.189658663629
106.189658663527
106.189658663963
106.189658664647
106.189658665418
106.18965866619
106.189658666859
106.189658667412
106.18965866779
106.189658668023
106.189658668081
106.189658667965
106.189658667674
106.189658667223
106.189658666612
106.189658665826
106.189658664865
106.189658663759
106.189658662552
106.189658661227
106.189658659903
106.189658658681
106.18965865775
106.189658657328
106.189658657793
106.18965865951
106.18965866293
106.189658668212
106.189658674892
106.18965868064
106.189658678937
106.189658653369
106.189658569696
106.189658357107
106.189657903087
106.189657019262
106.189655519935
106.189661414828
106.189662180783
106.189662608042
106.189662801509
106.189662872217
106.189662880075
106.189662864286
106.189662842356
106.189662822275
106.189662806399
106.189662794917
106.189662787132
106.18966278217
106.18966277923
106.189662777673
106.189662776989
106.189662776858
106.189662777018
106.189662777309
106.18966277763
106.189662777906
106.18966277811
106.189662778197
106.189662778168
106.189662778022
106.189662777746
106.189662777339
106.1896627768
106.18966277616
106.189662775403
106.189662774588
106.189662773701
106.189662772886
106.189662772187
106.189662771809
106.189662771983
106.18966277306
106.18966277552
106.189662780045
106.189662787438
106.189662798599
106.189662814242
106.189662834266
106.18966285637
106.189662872508
106.189662864548
106.189662790784
106.189662585472
106.189662126373
106.18966129719
106.189664353093
106.189664750607
106.189664952428
106.189665018872
106.189665020938
106.189664992766
106.189664957725
106.189664924852
106.189664898062
106.189664877689
106.189664862963
106.189664852733
106.189664845893
106.189664841499
106.189664838777
106.189664837191
106.189664836333
106.189664835925
106.189664835765
106.189664835765
106.18966483578
106.189664835794
106.189664835751
106.189664835649
106.189664835445
106.189664835169
106.189664834819
106.189664834368
106.189664833859
106.189664833306
106.189664832753
106.189664832214
106.189664831836
106.189664831734
106.189664832084
106.189664833189
106.18966483543
106.189664839389
106.189664845821
106.189664855672
106.189664870079
106.189664890248
106.189664916979
106.189664950012
106.189664985432
106.189665013895
106.189665010665
106.189664938211
106.189664718593
106.189664283753
106.189665798389
106.189665993021
106.189666076214
106.189666080638
106.189666051709
106.189666008941
106.189665966784
106.189665930084
106.189665900762
106.18966587841
106.189665861995
106.18966585031
106.189665842176
106.18966583666
106.189665833008
106.18966583065
106.189665829166
106.189665828235
106.189665827682
106.189665827347
106.189665827129
106.189665826954
106.18966582678
106.18966582659
106.189665826372
106.189665826096
106.189665825776
106.189665825412
106.189665825048
106.189665824684
106.189665824364
106.189665824175
106.189665824219
106.189665824626
106.189665825616
106.189665827507
106.189665830694
106.189665835787
106.189665843514
106.189665854865
106.189665870988
106.189665893166
106.189665922429
106.18966595926
106.189666001752
106.189666044942
106.189666073653
106.189666066464
106.189665973841
106.189665758255
106.189666472637
106.18966656152
106.18966658639
106.189666564038
106.189666523947
106.189666477629
106.189666434613
106.189666397724
106.189666368111
106.189666345177
106.189666328035
106.189666315477
106.189666306469
106.189666300139
106.18966629573
106.189666292717
106.18966629068
106.189666289327
106.18966628841
106.189666287784
106.189666287333
106.189666286999
106.189666286708
106.189666286431
106.189666286169
106.189666285907
106.189666285631
106.189666285354
106.189666285107
106.189666284918
106.18966628483
106.189666284947
106.189666285354
106.189666286213
106.18966628777
106.189666290316
106.18966629426
106.189666300197
106.189666308826
106.18966632105
106.189666337959
106.189666360675
106.189666390244
106.189666427235
106.189666470542
106.189666517283
106.189666557562
106.189666578823
106.189666549195
106.189666449063
106.189666765495
106.189666802253
106.189666800885
106.189666769584
106.18966672798
106.18966668332
106.189666642385
106.189666607097
106.189666578357
106.189666555714
106.189666538383
106.189666525388
106.189666515813
106.189666508857
106.189666503895
106.189666500344
106.189666497856
106.189666496095
106.189666494844
106.189666493941
106.189666493286
106.189666492792
106.189666492399
106.18966649205
106.189666491759
106.189666491482
106.189666491249
106.189666491046
106.189666490915
106.189666490885
106.189666491031
106.189666491409
106.189666492151
106.189666493432
106.18966649544
106.18966649854
106.18966650308
106.189666509643
106.18966651884
106.189666531529
106.189666548613
106.189666571096
106.189666599763
106.189666635153
106.18966667632
106.189666721373
106.189666763268
106.189666794278
106.189666793376
106.189666750812
106.189666877719
106.189666890321
106.189666878752
106.189666846782
106.189666807913
106.189666767066
106.189666729435
106.189666696533
106.189666669277
106.189666647362
106.189666630235
106.189666617094
106.189666607199
106.189666599836
106.189666594408
106.189666590435
106.189666587554
106.189666585444
106.189666583916
106.189666582781
106.189666581937
106.189666581296
106.189666580787
106.18966658038
106.18966658006
106.189666579783
106.189666579579
106.189666579463
106.189666579434
106.18966657955
106.189666579885
106.189666580511
106.189666581544
106.189666583159
106.189666585589
106.189666589125
106.189666594131
106.189666601102
106.189666610648
106.189666623497
106.189666640377
106.189666662147
106.189666689344
106.18966672229
106.18966676014
106.189666801292
106.189666840481
106.189666872466
106.18966688303
106.189666867504
106.189666908307
106.189666910592
106.189666896273
106.189666867052
106.189666832433
106.189666796054
106.189666762046
106.189666731836
106.189666706341
106.18966668543
106.189666668768
106.18966665573
106.189666645689
106.189666638078
106.18966663233
106.189666628037
106.189666624821
106.189666622435
106.189666620659
106.189666619335
106.189666618317
106.189666617545
106.189666616949
106.189666616483
106.189666616119
106.189666615857
106.189666615683
106.18966661561
106.189666615697
106.189666615945
106.189666616439
106.189666617283
106.189666618564
106.18966662047
106.189666623221
106.189666627091
106.189666632432
106.189666639679
106.18966664937
106.189666662132
106.189666678561
106.189666699313
106.189666724749
106.189666755003
106.189666789141
106.189666825783
106.189666860679
106.189666890044
106.189666903927
106.189666900202
106.189666904043
106.189666902443
106.189666888575
106.189666863123
106.189666833016
106.189666801045
106.189666770675
106.189666743201
106.189666719583
106.189666699836
106.189666683815
106.189666671038
106.189666661026
106.18966665327
106.189666647319
106.189666642793
106.189666639344
106.189666636725
106.189666634746
106.189666633232
106.189666632083
106.189666631195
106.189666630511
106.189666629987
106.189666629594
106.189666629332
106.189666629187
106.189666629187
106.189666629347
106.189666629711
106.189666630366
106.18966663137
106.189666632868
106.189666635022
106.18966663802
106.189666642123
106.189666647682
106.189666655075
106.189666664752
106.189666677252
106.189666693055
106.189666712642
106.189666736187
106.189666763705
106.189666794162
106.189666826336
106.189666856677
106.189666882259
106.189666895953
106.189666896826
106.189666886072
106.189666883452
106.189666871171
106.189666849576
106.189666823673
106.189666795821
106.189666768856
106.189666744045
106.189666722305
106.189666703838
106.189666688573
106.189666676204
106.189666666352
106.189666658582
106.189666652514
106.189666647842
106.189666644204
106.18966664141
106.189666639271
106.189666637612
106.189666636332
106.189666635342
106.189666634586
106.189666634018
106.189666633611
106.189666633349
106.189666633232
106.189666633276
106.189666633509
106.189666633989
106.18966663476
106.189666635924
106.189666637583
106.189666639912
106.189666643098
106.189666647362
106.189666653023
106.189666660444
106.189666669976
106.189666682068
106.189666697115
106.189666715436
106.189666737104
106.189666761915
106.189666788967
106.18966681695
106.189666843027
106.189666864753
106.189666876933
106.189666879218
106.189666863575
106.189666861042
106.189666850667
106.18966683255
106.189666810416
106.189666786275
106.189666762453
106.18966674016
106.189666720282
106.189666703125
106.189666688719
106.189666676873
106.189666667269
106.189666659586
106.189666653518
106.18966664873
106.189666644976
106.189666642065
106.189666639781
106.189666638005
106.189666636637
106.189666635561
106.189666634746
106.189666634134
106.189666633698
106.189666633436
106.189666633334
106.189666633421
106.189666633727
106.18966663428
106.189666635153
106.189666636448
106.189666638238
106.189666640712
106.189666644015
106.189666648381
106.189666654071
106.189666661405
106.189666670689
106.189666682258
106.18966669646
106.189666713472
106.189666733262
106.189666755527
106.189666779406
106.189666803664
106.189666825914
106.189666844119
106.189666854465
106.189666856793
106.189666840262
106.189666838254
106.189666829654
106.189666814593
106.189666795792
106.189666774939
106.189666753999
106.189666734048
106.189666715989
106.189666700157
106.189666686667
106.189666675389
106.18966666612
106.189666658625
106.189666652586
106.189666647784
106.189666643972
106.189666640959
106.189666638602
106.189666636739
106.18966663527
106.189666634134
106.189666633276
106.189666632621
106.18966663217
106.189666631908
106.189666631835
106.189666631952
106.189666632301
106.189666632927
106.189666633887
106.189666635255
106.189666637161
106.189666639708
106.189666643084
106.189666647479
106.189666653125
106.189666660284
106.189666669234
106.18966668025
106.189666693521
106.189666709208
106.189666727165
106.189666747086
106.189666768056
106.189666788996
106.18966680787
106.189666823004
106.18966683156
106.189666833467
106.189666817489
106.189666816092
106.189666809136
106.189666796694
106.189666780803
106.189666762861
106.189666744525
106.189666726787
106.189666710459
106.189666695936
106.189666683393
106.189666672755
106.189666663908
106.189666656632
106.189666650724
106.189666645951
106.189666642138
106.189666639082
106.189666636652
106.189666634717
106.189666633203
106.189666632024
106.189666631108
106.189666630438
106.189666629973
106.189666629696
106.189666629638
106.189666629783
106.189666630191
106.18966663086
106.189666631879
106.189666633305
106.18966663527
106.189666637874
106.189666641265
106.189666645616
106.18966665116
106.189666658072
106.189666666629
106.18966667699
106.18966668933
106.189666703693
106.189666719918
106.189666737613
106.189666755963
106.189666773949
106.189666789913
106.189666802384
106.189666809325
106.189666810664
106.18966679569
106.189666794904
106.18966678936
106.189666779217
106.189666765858
106.189666750535
106.189666734528
106.189666718841
106.189666704173
106.189666690945
106.189666679347
106.189666669394
106.189666660997
106.189666654027
106.189666648279
106.189666643593
106.18966663981
106.189666636739
106.18966663428
106.189666632315
106.189666630758
106.189666629536
106.18966662859
106.189666627906
106.189666627426
106.189666627164
106.189666627106
106.189666627281
106.189666627703
106.189666628416
106.189666629478
106.189666630948
106.189666632941
106.189666635546
106.189666638908
106.189666643186
106.189666648555
106.189666655191
106.189666663267
106.189666672959
106.189666684339
106.189666697421
106.189666711973
106.189666727616
106.189666743594
106.189666758961
106.189666772363
106.189666782535
106.18966678805
106.189666788836
106.189666774895
106.189666774691
106.189666770413
106.18966676225
106.189666751132
106.189666738093
106.18966672424
106.189666710445
106.189666697333
106.189666685357
106.189666674705
106.189666665465
106.189666657563
106.189666650927
106.189666645412
106.189666640857
106.189666637132
106.189666634091
106.189666631632
106.189666629652
106.189666628066
106.189666626815
106.189666625854
106.189666625141
106.189666624661
106.189666624385
106.189666624341
106.18966662453
106.189666624981
106.189666625709
106.1896666268
106.189666628285
106.189666630278
106.189666632868
106.189666636157
106.189666640319
106.18966664547
106.189666651757
106.189666659338
106.189666668331
106.189666678751
106.189666690567
106.189666703547
106.189666717299
106.189666731138
106.189666744176
106.189666755337
106.189666763516
106.189666767779
106.189666767998
106.189666755003
106.189666755352
106.189666752209
106.18966674582
106.189666736667
106.189666725724
106.189666713806
106.189666701743
106.189666690116
106.189666679347
106.189666669641
106.189666661114
106.18966665375
106.189666647479
106.189666642211
106.189666637816
106.189666634193
106.18966663121
106.189666628765
106.189666626786
106.1896666252
106.189666623934
106.189666622973
106.189666622246
106.189666621751
106.189666621489
106.189666621445
106.189666621649
106.1896666221
106.189666622842
106.189666623934
106.189666625418
106.189666627382
106.189666629914
106.189666633116
106.189666637103
106.189666642007
106.18966664793
106.189666654987
106.189666663253
106.189666672741
106.189666683349
106.189666694845
106.189666706836
106.18966671871
106.189666729668
106.189666738836
106.189666745238
106.189666748396
106.189666748076
106.189666735867
106.189666736798
106.189666734674
106.189666729857
106.189666722479
106.189666713399
106.189666703256
106.189666692808
106.189666682578
106.189666672944
106.18966666417
106.189666656355
106.189666649545
106.189666643666
106.189666638689
106.189666634484
106.189666630991
106.189666628081
106.18966662568
106.18966662373
106.189666622144
106.189666620892
106.189666619903
106.189666619175
106.189666618695
106.189666618418
106.189666618389
106.189666618578
106.189666619044
106.189666619772
106.189666620863
106.189666622333
106.189666624239
106.189666626698
106.189666629769
106.189666633567
106.18966663818
106.18966664371
106.189666650229
106.189666657781
106.189666666323
106.189666675768
106.189666685881
106.189666696242
106.189666706341
106.189666715436
106.189666722828
106.18966672766
106.189666729799
106.189666728926
106.189666717415
106.189666718914
106.18966671775
106.189666714374
106.189666708597
106.189666701219
106.189666692691
106.189666683742
106.189666674807
106.189666666294
106.189666658407
106.189666651306
106.189666645048
106.189666639591
106.189666634906
106.189666630933
106.189666627572
106.189666624763
106.189666622435
106.189666620514
106.189666618957
106.18966661772
106.189666616745
106.189666616017
106.189666615523
106.189666615246
106.189666615202
106.189666615406
106.189666615843
106.189666616585
106.189666617633
106.189666619059
106.189666620921
106.189666623264
106.189666626204
106.189666629769
106.189666634091
106.189666639199
106.189666645165
106.18966665199
106.189666659644
106.189666667982
106.189666676786
106.189666685648
106.189666694117
106.189666701495
106.189666707287
106.189666710692
106.189666711885
106.189666710459
106.189666699458
106.189666701568
106.189666701321
106.189666699298
106.189666694991
106.189666689155
106.189666682127
106.18966667456
106.189666666847
106.189666659368
106.189666652353
106.189666645965
106.189666640246
106.189666635226
106.18966663086
106.18966662712
106.189666623934
106.189666621241
106.189666619
106.189666617123
106.18966661561
106.189666614373
106.189666613413
106.189666612685
106.18966661219
106.189666611928
106.18966661187
106.189666612059
106.189666612496
106.189666613209
106.189666614227
106.18966661561
106.189666617385
106.189666619612
106.189666622362
106.189666625709
106.189666629696
106.189666634382
106.189666639781
106.189666645907
106.189666652688
106.189666659979
106.189666667546
106.189666675025
106.189666682025
106.189666687846
106.189666692168
106.189666694219
106.189666694525
106.189666692502
106.189666681952
106.189666684731
106.189666685372
106.18966668463
106.18966668169
106.189666677281
106.18966667162
106.189666665319
106.189666658742
106.189666652266
106.189666646096
106.189666640377
106.189666635211
106.189666630627
106.189666626597
106.18966662309
106.189666620092
106.189666617545
106.189666615392
106.189666613587
106.189666612103
106.189666610895
106.189666609949
106.189666609236
106.189666608741
106.189666608479
106.189666608421
106.189666608596
106.189666609018
106.189666609687
106.189666610662
106.189666611972
106.18966661366
106.189666615755
106.189666618317
106.189666621416
106.189666625069
106.189666629318
106.189666634178
106.189666639606
106.189666645558
106.189666651844
106.189666658276
106.189666664475
106.189666670078
106.189666674472
106.189666677441
106.189666678241
106.189666677659
106.189666674996
106.189666664766
106.189666668288
106.18966666983
106.189666670325
106.189666668637
106.189666665567
106.189666661157
106.189666656035
106.189666650534
106.18966664499
106.189666639621
106.189666634571
106.189666629958
106.189666625782
106.1896666221
106.189666618855
106.189666616061
106.189666613645
106.189666611594
106.189666609862
106.189666608436
106.189666607257
106.18966660634
106.189666605642
106.189666605147
106.189666604871
106.189666604812
106.189666604972
106.189666605365
106.189666606006
106.189666606937
106.189666608159
106.189666609731
106.189666611681
106.189666614053
106.18966661689
106.189666620194
106.189666624021
106.189666628328
106.189666633101
106.189666638238
106.189666643593
106.189666648948
106.189666653954
106.18966665832
106.18966666139
106.189666663093
106.189666662671
106.189666661216
106.189666657825
106.189666647842
106.189666652237
106.189666654696
106.189666656399
106.189666655919
106.189666654071
106.189666650811
106.189666646795
106.189666642284
106.189666637612
106.189666632999
106.189666628605
106.189666624501
106.189666620776
106.189666617429
106.18966661446
106.189666611856
106.1896666096
106.18966660765
106.18966660602
106.189666604638
106.189666603503
106.1896666026
106.189666601917
106.189666601436
106.18966660116
106.189666601087
106.189666601233
106.189666601596
106.189666602193
106.189666603052
106.189666604201
106.189666605656
106.189666607461
106.189666609615
106.189666612176
106.189666615159
106.189666618535
106.189666622318
106.189666626451
106.189666630817
106.189666635284
106.18966663965
106.189666643564
106.189666646751
106.189666648599
106.189666649123
106.189666647493
106.18966664515
106.18966664093
106.189666631137
106.189666636521
106.189666639941
106.189666642837
106.189666643491
106.189666642778
106.189666640596
106.189666637598
106.189666634004
106.189666630162
106.189666626276
106.189666622493
106.189666618899
106.189666615595
106.189666612583
106.189666609876
106.189666607475
106.18966660538
106.189666603561
106.189666602018
106.189666600694
106.189666599617
106.189666598744
106.189666598075
106.189666597595
106.189666597318
106.189666597231
106.189666597362
106.189666597682
106.189666598235
106.189666599035
106.189666600083
106.189666601422
106.189666603052
106.189666605016
106.189666607301
106.189666609935