/*--------------------------------*- C++ -*----------------------------------*\
  =========                 |
  \\      /  F ield         | OpenFOAM: The Open Source CFD Toolbox
   \\    /   O peration     | Website:  https://openfoam.org
    \\  /    A nd           | Version:  10
     \\/     M anipulation  |
\*---------------------------------------------------------------------------*/
FoamFile
{
    format      ascii;
    class       surfaceScalarField;
    location    "9.8";
    object      phi;
}
// * * * * * * * * * * * * * * * * * * * * * * * * * * * * * * * * * * * * * //

dimensions      [1 0 -1 0 0 0 0];

internalField   nonuniform List<scalar> 
4900
(
-4.70719776640521e-12
4.72028953521715e-12
-7.64786714774111e-12
2.96122201566587e-12
-7.95529297713728e-12
3.29347011959072e-13
-6.6970219405968e-12
-1.23699167152535e-12
-5.06489248455327e-12
-1.61127287599101e-12
-3.62958688611125e-12
-1.41455108132038e-12
-2.53914374615932e-12
-1.06970439064676e-12
-1.76080772431747e-12
-7.5765975739188e-13
-1.22052455970444e-12
-5.197537606582e-13
-8.49367826419966e-13
-3.50855317716028e-13
-5.9487791249957e-13
-2.34476565042353e-13
-4.19566742906119e-13
-1.55624537491451e-13
-2.9758632890426e-13
-1.02637876940666e-13
-2.11410353436295e-13
-6.71807465381867e-14
-1.49337148157186e-13
-4.34155878867167e-14
-1.03625245258087e-13
-2.73762162684225e-14
-6.91719209103729e-14
-1.64176637170152e-14
-4.2594698128763e-14
-8.8193376841341e-15
-2.16091263124765e-14
-3.48074222894948e-15
-4.66971829785561e-15
3.35876675939833e-16
9.32676149441405e-15
3.073457770291e-15
2.11875832999997e-14
5.02621246288458e-15
3.15318708462581e-14
6.38208106925822e-15
4.08541281152635e-14
7.26381144113479e-15
4.96027680555448e-14
7.71686325425149e-15
5.8169978238906e-14
7.79583768837387e-15
6.69647184387467e-14
7.48316686369044e-15
7.64197173810505e-14
6.75373053294758e-15
8.70393784875648e-14
5.53475970149511e-15
9.94357748746724e-14
3.71879343592241e-15
1.14418815532274e-13
1.10656446516002e-15
1.33078533736553e-13
-2.58166050171291e-15
1.569709356128e-13
-7.81147244647344e-15
1.88375722136839e-13
-1.53061390122336e-14
2.30679575833322e-13
-2.61725231212583e-14
2.89012203907655e-13
-4.21536152983272e-14
3.71115372202921e-13
-6.58640189917791e-14
4.88682849689024e-13
-1.01257799101166e-13
6.59190349436863e-13
-1.54123327477938e-13
9.08481106059051e-13
-2.32834930910796e-13
1.27408927691075e-12
-3.49092642558524e-13
1.80877079223298e-12
-5.18124776436589e-13
2.58258306541361e-12
-7.57233824641379e-13
3.67233051691345e-12
-1.07314518687553e-12
5.11568931540125e-12
-1.42666961418571e-12
6.76859712903594e-12
-1.63594779090929e-12
8.05179560037117e-12
-1.26563321203053e-12
7.73941137096101e-12
3.30986727227856e-13
4.7417174365306e-12
3.01689817024164e-12
4.75541596010196e-12
-8.09619888231384e-12
1.28351947698117e-11
-1.41827824034943e-11
9.07535407128878e-12
-1.51930653551683e-11
1.36865673953443e-12
-1.31041241544716e-11
-3.2976519156513e-12
-1.01100445476054e-11
-4.57760518949444e-12
-7.37704991502729e-12
-4.11999146756186e-12
-5.24792112357837e-12
-3.17138108379359e-12
-3.70200841730697e-12
-2.27627347896227e-12
-2.61292965583592e-12
-1.58177686299981e-12
-1.85413143292519e-12
-1.08292566308397e-12
-1.3254494995127e-12
-7.36818769395378e-13
-9.5446947729317e-13
-5.00690178267473e-13
-6.90791447198767e-13
-3.408404951243e-13
-5.00119748431563e-13
-2.32814362891571e-13
-3.59392691935038e-13
-1.5952613238563e-13
-2.5322623871474e-13
-1.09326881926992e-13
-1.71333229323727e-13
-7.44670741501306e-14
-1.06789134494949e-13
-4.98642211289409e-14
-5.48502639716596e-14
-3.22331390371592e-14
-1.2194260187008e-14
-1.94175726017523e-14
2.35836391782836e-14
-1.00546556606548e-14
5.42862649194541e-14
-3.25262110664777e-15
8.13379170024569e-14
1.5565472055596e-15
1.05909459707336e-13
4.74590112884588e-15
1.290364136726e-13
6.4961778438593e-15
1.51683924858811e-13
6.92896158895028e-15
1.74811856335528e-13
6.03214641641504e-15
1.9944956048007e-13
3.70915954684416e-15
2.26768891277969e-13
-2.55977383168676e-16
2.58179966697904e-13
-6.2110339786138e-15
2.95483109170492e-13
-1.474472802635e-14
3.41067780278382e-13
-2.67255150742411e-14
3.98247945066668e-13
-4.35444545204029e-14
4.71761870114075e-13
-6.73473304157766e-14
5.68553501930096e-13
-1.01446836314651e-13
6.98931044948295e-13
-1.50951053494682e-13
8.78295932635643e-13
-2.23569484656145e-13
1.12970079550724e-12
-3.30911799747377e-13
1.4874181365699e-12
-4.89992914383762e-13
2.00188581185922e-12
-7.25360996555837e-13
2.74570827587414e-12
-1.07089334964733e-12
3.81983404571683e-12
-1.57017014523984e-12
5.35318455295819e-12
-2.2684626566659e-12
7.47768429775606e-12
-3.17546784154009e-12
1.02235949746716e-11
-4.15024285437103e-12
1.32556407930702e-11
-4.64522271916807e-12
1.53922330764812e-11
-3.37856807079693e-12
1.43764797529365e-11
1.37164746367779e-12
8.18637508073591e-12
9.2317533803072e-12
1.29583648283974e-11
-7.66602533639898e-12
2.05222065632273e-11
-1.44170371785054e-11
1.58563826856424e-11
-1.59172732981012e-11
2.90020208201828e-12
-1.40909471886254e-11
-5.09348079060726e-12
-1.11374386016017e-11
-7.50126735453195e-12
-8.32453066017255e-12
-6.90339085876863e-12
-6.06742157845419e-12
-5.39921699066093e-12
-4.38891900394337e-12
-3.92576412379659e-12
-3.17941500176484e-12
-2.76259105768055e-12
-2.31719341024767e-12
-1.91683726408722e-12
-1.70151967241891e-12
-1.32460232711939e-12
-1.25798878388147e-12
-9.16772299206123e-13
-9.3393569739087e-13
-6.37888810934921e-13
-6.93003794067799e-13
-4.47178399070904e-13
-5.10348069422553e-13
-3.16031907676138e-13
-3.69064692845814e-13
-2.24854934747901e-13
-2.57600454580673e-13
-1.60542863445806e-13
-1.67969200482759e-13
-1.14444804053489e-13
-9.45624351666986e-14
-8.08968575054301e-14
-3.33277927974092e-14
-5.61872700985102e-14
1.87421081765002e-14
-3.79085391305141e-14
6.39698131677514e-14
-2.44852793401219e-14
1.04220654695241e-13
-1.4893500098492e-14
1.41075773441149e-13
-8.47689982977347e-15
1.75922605653784e-13
-4.86311039963072e-15
2.10091395228408e-13
-3.87431432020622e-15
2.44893185432428e-13
-5.50555672917275e-15
2.81722843836151e-13
-9.93793852304337e-15
3.22146007323774e-13
-1.75594203559296e-14
3.68017607855852e-13
-2.90081061846531e-14
4.216397602982e-13
-4.53201432741465e-14
4.86006469098179e-13
-6.80555632956261e-14
5.651455535464e-13
-9.96386152412129e-14
6.64657318418252e-13
-1.43787339379236e-13
7.92535434048853e-13
-2.062076201925e-13
9.60346064968348e-13
-2.95579171391928e-13
1.18501812750467e-12
-4.24977219336563e-13
1.49140636799669e-12
-6.13939981627115e-13
1.91590009929485e-12
-8.9102223040151e-13
2.51127145935359e-12
-1.29716296346466e-12
3.35226279135339e-12
-1.888218263349e-12
4.5406084210067e-12
-2.73476676500871e-12
6.20069904427324e-12
-3.90473213367634e-12
8.44822908236386e-12
-5.39908144698977e-12
1.12709839820476e-11
-6.94886873849124e-12
1.4262981014794e-11
-7.61257971238977e-12
1.61432764115787e-11
-5.23323150731323e-12
1.46486330032033e-11
2.89312676151766e-12
7.79244293948339e-12
1.61141586262436e-11
2.07680288634938e-11
-5.41205424253024e-12
2.59572762088874e-11
-1.10642957168132e-11
2.1541013470123e-11
-1.27898169021532e-11
4.65931353121986e-12
-1.17926312177574e-11
-6.05798704295423e-12
-9.69036388683837e-12
-9.57165644322361e-12
-7.52768708291614e-12
-9.03469107530184e-12
-5.70049129317722e-12
-7.19541603596915e-12
-4.28234726094416e-12
-5.3132818991192e-12
-3.2190654738375e-12
-3.79564332501495e-12
-2.43126346870012e-12
-2.67483549974828e-12
-1.84681874089473e-12
-1.8796852829412e-12
-1.40969261049428e-12
-1.32498432886466e-12
-1.0786267690502e-12
-9.40481713390971e-13
-8.24122013721391e-13
-6.73637685506295e-13
-6.25300965384121e-13
-4.87212934241497e-13
-4.67412118015857e-13
-3.5548590852621e-13
-3.39989805662828e-13
-2.61060953406434e-13
-2.35514186592952e-13
-1.92342409342265e-13
-1.4849345591002e-13
-1.41636215489287e-13
-7.48199442586868e-14
-1.0384788412557e-13
-1.1340514809868e-14
-7.56153868081335e-14
4.44505186722553e-14
-5.47169714878257e-14
9.46106807567993e-14
-3.96813171492127e-14
1.40918895082013e-13
-2.95756321880011e-14
1.84963333610252e-13
-2.38372944827882e-14
2.28260315245952e-13
-2.22191244151875e-14
2.72314625539135e-13
-2.47048757929751e-14
3.18714524646176e-13
-3.15610947654445e-14
3.69219561112456e-13
-4.33482856170655e-14
4.2587628855102e-13
-6.09918750353967e-14
4.91162867281948e-13
-8.59597166891318e-14
5.68213656395777e-13
-1.20468169069029e-13
6.61103832283629e-13
-1.67882872106824e-13
7.75305488895143e-13
-2.3331556529367e-13
9.18335569310202e-13
-3.24518747143278e-13
1.10066102160228e-12
-4.53120786241557e-13
1.33704096096884e-12
-6.36490775787455e-13
1.64837700662054e-12
-9.00310733552869e-13
2.06424459295682e-12
-1.28181393577604e-12
2.62604908272107e-12
-1.83377492845751e-12
3.39021853759122e-12
-2.62708025757312e-12
4.42981641581311e-12
-3.7489490351759e-12
5.826537376687e-12
-5.27593462674053e-12
7.63974410836179e-12
-7.18664210422007e-12
9.80523676973795e-12
-9.08847155904192e-12
1.19369131057282e-11
-9.7178214754113e-12
1.29835586728512e-11
-6.25240593332041e-12
1.12781101943709e-11
4.62720187249718e-12
5.5457339548021e-12
2.18741940389626e-11
2.63317674968515e-11
-2.65103201706349e-12
2.86330290264932e-11
-6.40801369936733e-12
2.53322754978546e-11
-8.14249037588463e-12
6.42898814578925e-12
-8.1167697148244e-12
-6.04953005066602e-12
-7.15166194836578e-12
-1.05035349542588e-11
-5.9231664984125e-12
-1.02306198560924e-11
-4.75695915794047e-12
-8.32957111199219e-12
-3.77002362587572e-12
-6.26863351596999e-12
-2.97423798367221e-12
-4.56030512078145e-12
-2.3456692987419e-12
-3.27273929802469e-12
-1.85195350647269e-12
-2.34319077548385e-12
-1.46347232554647e-12
-1.68370065966504e-12
-1.155908836034e-12
-1.21871048656559e-12
-9.10305101963556e-13
-8.90317909193843e-13
-7.12197772004989e-13
-6.56785790929137e-13
-5.5062996695416e-13
-4.88883891772534e-13
-4.17325970536757e-13
-3.66532736257135e-13
-3.05982686079002e-13
-2.76164841522845e-13
-2.11765530516603e-13
-2.08615523541713e-13
-1.30891129044109e-13
-1.57741300962774e-13
-6.03425802065913e-14
-1.19412262682104e-13
2.3499028345499e-15
-9.08617520111908e-14
5.927194590047e-14
-7.02344734948802e-14
1.12246334358443e-13
-5.63369117680526e-14
1.62939028190873e-13
-4.84499974193381e-14
2.12931103241319e-13
-4.62433074006318e-14
2.63807271574152e-13
-4.97056852964354e-14
3.17221084464151e-13
-5.91747612128544e-14
3.74977954544711e-13
-7.53620048081547e-14
4.39146710904001e-13
-9.94583457497238e-14
5.1216983687914e-13
-1.33305851366978e-13
5.97036053958795e-13
-1.79665824403922e-13
6.97494804000947e-13
-2.42664977719448e-13
8.18357186347141e-13
-3.28475640597688e-13
9.65896522347403e-13
-4.46311548929442e-13
1.14837653864495e-12
-6.09791248540581e-13
1.37674114988299e-12
-8.38963550186489e-13
1.66547603039262e-12
-1.163054426547e-12
2.03360127511987e-12
-1.62383326736584e-12
2.50557121711373e-12
-2.2795130120684e-12
3.11131703001753e-12
-3.20646376421233e-12
3.88388183829857e-12
-4.49502286486879e-12
4.84874057537501e-12
-6.21417638677182e-12
5.99759155369483e-12
-8.30873042273817e-12
7.22053690848437e-12
-1.02844050313501e-11
8.20131064177151e-12
-1.06710454319015e-11
8.26478340896205e-12
-6.28730634084165e-12
6.56136879902522e-12
6.36023799589627e-12
2.76236680003061e-12
2.57015690762345e-11
2.91122632924829e-11
-2.26602835636097e-13
2.88857881493728e-11
-2.02684598269795e-12
2.71681934925905e-11
-3.61301249578778e-12
8.05152947423437e-12
-4.40753901451906e-12
-5.21977430566195e-12
-4.49052187116716e-12
-1.03864210405879e-11
-4.16057175354718e-12
-1.05272522782937e-11
-3.65374171480849e-12
-8.80372246142753e-12
-3.11262816112302e-12
-6.77762409862089e-12
-2.60486946929671e-12
-5.03645277983384e-12
-2.15677514501838e-12
-3.68970783479588e-12
-1.77350608734821e-12
-2.69579495232264e-12
-1.4510449658118e-12
-1.97593684354934e-12
-1.18186443431416e-12
-1.4580831037856e-12
-9.5769963583958e-13
-1.08506988243727e-12
-7.70767155844042e-13
-8.1467596078906e-13
-6.14219892608204e-13
-6.16735989285242e-13
-4.82274170706859e-13
-4.70103894913949e-13
-3.70119170844367e-13
-3.60241611723602e-13
-2.73806901019643e-13
-2.77119545377415e-13
-1.90066469128385e-13
-2.13918246408049e-13
-1.16183950105364e-13
-1.65950136252324e-13
-4.98562488712285e-14
-1.30039621031804e-13
1.09095804463083e-14
-1.04020915124128e-13
6.78893270959795e-14
-8.64856739001191e-14
1.22729908104108e-13
-7.65861784969892e-14
1.76996054960428e-13
-7.39120530927063e-14
2.32257887035573e-13
-7.84585951240256e-14
2.90146678430285e-13
-9.06257264474255e-14
3.52419559804571e-13
-1.11251390559677e-13
4.21051850313297e-13
-1.41746250680108e-13
4.98313941685543e-13
-1.84247093524008e-13
5.86893936689207e-13
-2.41933135002224e-13
6.90016692597532e-13
-3.19467538819907e-13
8.11605201033955e-13
-4.23719332640103e-13
9.56423464322198e-13
-5.64742656571671e-13
1.13022107445508e-12
-7.57140681651712e-13
1.33981081636376e-12
-1.02202486692379e-12
1.59296862374768e-12
-1.38958397363083e-12
1.89798099020362e-12
-1.90209957428954e-12
2.26245140817498e-12
-2.61710388794269e-12
2.6905323509267e-12
-3.60752207056404e-12
3.17735780785955e-12
-4.95467899325392e-12
3.69726595846974e-12
-6.70677036994469e-12
4.1844684802909e-12
-8.76846139251547e-12
4.50092557630137e-12
-1.05731444587762e-11
4.41892923321068e-12
-1.05608149822864e-11
3.64684378165653e-12
-5.48600221669258e-12
2.09631571229346e-12
7.9409454498341e-12
2.94503831429392e-13
2.75320344220368e-11
2.94248984618489e-11
1.47041676050705e-12
2.74421230753518e-11
1.25748756176288e-12
2.74168843117504e-11
-8.20994850067277e-14
9.42712076684537e-12
-1.40409345595518e-12
-3.86301836897751e-12
-2.2485445365376e-12
-9.5084091169528e-12
-2.60845180506461e-12
-1.01347114589125e-11
-2.63113538426002e-12
-8.74913576712685e-12
-2.46326112213146e-12
-6.91421024014198e-12
-2.20712359892535e-12
-5.26184587839115e-12
-1.92420862249299e-12
-3.94237339397592e-12
-1.64766174748079e-12
-2.94254869588905e-12
-1.39340712824113e-12
-2.20082394633135e-12
-1.16745747742147e-12
-1.65506341226777e-12
-9.7048010807856e-13
-1.25345213543213e-12
-8.00469069602235e-13
-9.56442206028787e-13
-6.54285508852462e-13
-7.35002090305362e-13
-5.28483742581999e-13
-5.68292146423635e-13
-4.19744651938409e-13
-4.41647345394152e-13
-3.25048617473272e-13
-3.44737448575196e-13
-2.41723538462332e-13
-2.70397200252289e-13
-1.67429140205029e-13
-2.13605945258343e-13
-1.00109501413396e-13
-1.70905397517266e-13
-3.79312442225246e-14
-1.399071968621e-13
2.07720572477284e-14
-1.19037470032589e-13
7.75557363221137e-14
-1.07338756930297e-13
1.33921481902682e-13
-1.04347946112577e-13
1.9136622120232e-13
-1.10056979419372e-13
2.51437325978755e-13
-1.24917109506677e-13
3.15777774651195e-13
-1.4986411308781e-13
3.86202602516834e-13
-1.86479987106954e-13
4.64731143508859e-13
-2.37106713532265e-13
5.53676676512898e-13
-3.05217781319802e-13
6.55665146580459e-13
-3.95788314280752e-13
7.73676262575124e-13
-5.16040121820185e-13
9.10976388814182e-13
-6.76313169269254e-13
1.07095012343536e-12
-8.91326830784056e-13
1.2566878169924e-12
-1.18189849623587e-12
1.47014854260436e-12
-1.577083202598e-12
1.71063443866178e-12
-2.11650660499481e-12
1.97209386173223e-12
-2.85234818710493e-12
2.23854894784055e-12
-3.84761220765701e-12
2.47673876701107e-12
-5.1663479287059e-12
2.6250241900972e-12
-6.82838262505342e-12
2.58146742261696e-12
-8.69807366754499e-12
2.20177668669467e-12
-1.0166394140998e-11
1.34556895313244e-12
-9.67707001395101e-12
3.08541300635328e-14
-4.14282144603858e-12
-1.2741291882078e-12
9.27522018274974e-12
-1.45345731746381e-12
2.77389641800468e-11
2.79885121111323e-11
2.39900016682808e-12
2.50697429346359e-11
3.2430162134557e-12
2.66076948914276e-11
2.19434117321325e-12
1.05105520371846e-11
6.51362190458601e-13
-2.28660820293155e-12
-6.21726680214467e-13
-8.20316459372509e-12
-1.41335278620595e-12
-9.31193725122583e-12
-1.79388362983649e-12
-8.33824995139875e-12
-1.89516660464032e-12
-6.78322573375216e-12
-1.83167531544162e-12
-5.29619490173144e-12
-1.68276036824693e-12
-4.06264067256516e-12
-1.49800486094185e-12
-3.09910150884391e-12
-1.30611636314304e-12
-2.36491846103039e-12
-1.12239762815406e-12
-1.81136640314745e-12
-9.54008628555542e-13
-1.3947789091435e-12
-8.03374835684275e-13
-1.08034411809679e-12
-6.70351134857197e-13
-8.41602813411003e-13
-5.5348678266131e-13
-6.5902028295683e-13
-4.50802609754114e-13
-5.18460384384037e-13
-3.60159331278887e-13
-4.0975151994316e-13
-2.79489919714217e-13
-3.25657586024332e-13
-2.06851992583869e-13
-2.61031661212446e-13
-1.40471576017956e-13
-2.12248873340959e-13
-7.87137966868014e-14
-1.76781979909654e-13
-2.00588059969853e-14
-1.52942890387189e-13
3.69281015291811e-14
-1.3968980591957e-13
9.36448899618079e-14
-1.36524360972568e-13
1.51477032547668e-13
-1.43427845749635e-13
2.11850166717355e-13
-1.60892262800658e-13
2.76264643815177e-13
-1.8992892261682e-13
3.46330383062104e-13
-2.32230559967635e-13
4.23788575066464e-13
-2.90271020087785e-13
5.10542960304964e-13
-3.67686023229755e-13
6.08623740270627e-13
-4.69577013386013e-13
7.20114194999841e-13
-6.03217302705368e-13
8.46937980148546e-13
-7.78787083295873e-13
9.90468150229119e-13
-1.01045332271278e-12
1.15078148848763e-12
-1.31773525061757e-12
1.32536764828133e-12
-1.72709944413159e-12
1.50698281908671e-12
-2.27343714580601e-12
1.68017853512039e-12
-3.00072364138517e-12
1.81602431513225e-12
-3.9584862577146e-12
1.86447457981587e-12
-5.18966772417213e-12
1.74545101652646e-12
-6.68407374326726e-12
1.34378335143792e-12
-8.27096790603828e-12
5.28443689678866e-13
-9.32540646485798e-12
-7.65357025033474e-13
-8.35718103402479e-12
-2.31300964944169e-12
-2.5682082396145e-12
-3.33107269092221e-12
1.03209962993027e-11
-2.42777521318203e-12
2.68615586903124e-11
2.55765769351415e-11
2.71075316828854e-12
2.238419267689e-11
4.11028218377486e-12
2.52403198608378e-11
3.35310689846837e-12
1.12993398966733e-11
1.83172005397115e-12
-7.3493448755253e-13
4.13653312018951e-13
-6.75607696406874e-12
-5.80447190546641e-13
-8.28983858455063e-12
-1.16021603189657e-12
-7.73128994490121e-12
-1.4303742830728e-12
-6.48653004678773e-12
-1.49974010319605e-12
-5.2008399699908e-12
-1.45089987897732e-12
-4.08596647131784e-12
-1.33970044929468e-12
-3.18520812996785e-12
-1.20110746648926e-12
-2.47880228133356e-12
-1.0557247258543e-12
-1.93239298499646e-12
-9.1483715495913e-13
-1.5116401733929e-12
-7.83951672228357e-13
-1.18751153748975e-12
-6.6515201069233e-13
-9.36973530703445e-13
-5.58588589918744e-13
-7.42423683423212e-13
-4.63407351545417e-13
-5.9073069599896e-13
-3.78260936408903e-13
-4.72215079324829e-13
-3.01640617521802e-13
-3.79802099015592e-13
-2.32003507413031e-13
-3.08378960991246e-13
-1.67862188879645e-13
-2.54266084836024e-13
-1.07795840721098e-13
-2.14869104829224e-13
-5.04525520759068e-14
-1.88432611978979e-13
5.46282453385251e-15
-1.73858570256377e-13
6.1221270554965e-14
-1.70626277040026e-13
1.18089177386884e-13
-1.7871316774457e-13
1.77347430362283e-13
-1.98627166619688e-13
2.40335447256294e-13
-2.31438483609308e-13
3.08436446588456e-13
-2.78885640478213e-13
3.83116464714263e-13
-3.43524480634834e-13
4.65867927353992e-13
-4.29018411347646e-13
5.58165927146397e-13
-5.40451095147911e-13
6.61294600497524e-13
-6.84903058120099e-13
7.76044242757492e-13
-8.72061038512379e-13
9.02186456713787e-13
-1.1150707700076e-12
1.03754139409174e-12
-1.43149864121998e-12
1.17649932921287e-12
-1.84437921634184e-12
1.30764038823982e-12
-2.382792892866e-12
1.41013856556337e-12
-3.08130841928623e-12
1.44867437272124e-12
-3.97496452838985e-12
1.36673248265132e-12
-5.08551701332802e-12
1.08066620979707e-12
-6.37565539294705e-12
4.80414341192308e-13
-7.64822847293424e-12
-5.38797646842817e-13
-8.28352780606367e-12
-1.98208210490967e-12
-6.89083659108264e-12
-3.51524759745102e-12
-1.01117292165974e-12
-4.24607716482592e-12
1.10763313703992e-11
-2.77211492727242e-12
2.5410332440794e-11
2.28179696799049e-11
2.61722772594061e-12
1.97899502045452e-11
4.19445429384821e-12
2.36916540232879e-11
3.69916323500044e-12
1.18224168757914e-11
2.35086498253152e-12
6.39856407178446e-13
9.83437266760097e-13
-5.36337693540877e-12
-4.64538738161289e-14
-7.23567352920991e-12
-7.04537520340754e-13
-7.04972138517061e-12
-1.0635729731233e-12
-6.10464217067276e-12
-1.21576209008707e-12
-5.02632101187567e-12
-1.23701558727037e-12
-4.04283033466793e-12
-1.18208696950238e-12
-3.2186475437679e-12
-1.08725585911177e-12
-2.55250031583144e-12
-9.75276092955898e-13
-2.02356818649048e-12
-8.59615413557296e-13
-1.60680330068272e-12
-7.47695699101971e-13
-1.27922132311353e-12
-6.431563085463e-13
-1.02157392782617e-12
-5.47354902889666e-13
-8.18538302853647e-13
-4.60346502136647e-13
-6.58286573702313e-13
-3.81469072450114e-13
-5.31854942020392e-13
-3.09711594683268e-13
-4.3251786486747e-13
-2.43907067993994e-13
-3.55317348139295e-13
-1.82846136093141e-13
-2.96616992528278e-13
-1.25323009162269e-13
-2.53818793254206e-13
-7.01594962879573e-14
-2.25141026482616e-13
-1.6203949036043e-14
-2.09459894018922e-13
3.76753502855665e-14
-2.06235763013185e-13
9.26105096756832e-14
-2.15447460977637e-13
1.49737980969663e-13
-2.37609014267289e-13
2.10222504021574e-13
-2.73819481260586e-13
2.75232385305945e-13
-3.25821858915628e-13
3.45953969656334e-13
-3.96190981052961e-13
4.23503628720024e-13
-4.88519729511877e-13
5.08854891782091e-13
-6.07749733733655e-13
6.02609327310491e-13
-7.60588048277139e-13
7.04638520659176e-13
-9.55991576909035e-13
8.13501349728655e-13
-1.2057907862976e-12
9.25456561248614e-13
-1.52525112538316e-12
1.03296145096111e-12
-1.93360289415511e-12
1.12237783141386e-12
-2.45383005104558e-12
1.17069214830893e-12
-3.1111262473963e-12
1.14119081292754e-12
-3.92683483601084e-12
9.78385148590055e-13
-4.90394576069426e-12
6.05205159904598e-13
-5.98358136546001e-12
-7.19176149694486e-14
-6.95209645749261e-12
-1.12609951393007e-12
-7.21018551131484e-12
-2.5192161727957e-12
-5.47820845333638e-12
-3.88151540224856e-12
3.71381890302672e-13
-4.35340574295367e-12
1.15690795419452e-11
-2.69592862483179e-12
2.37720218353239e-11
2.01332582469929e-11
2.30906270066242e-12
1.75004974287087e-11
3.82871936362347e-12
2.21955587612764e-11
3.54920686240873e-12
1.2124417862774e-11
2.4421357419096e-12
1.76825744350208e-12
1.23391827659547e-12
-4.134915692271e-12
2.6999616673934e-13
-6.25241771580826e-12
-3.86807255054147e-13
-6.37430875299213e-12
-7.78527345750859e-13
-5.69489075747625e-12
-9.76193887324669e-13
-4.81109720368909e-12
-1.04378988598621e-12
-3.95808128476729e-12
-1.0305357653774e-12
-3.21510450223695e-12
-9.70790157452208e-13
-2.59577206658782e-12
-8.87254596894691e-13
-2.09092924913808e-12
-7.94141805188837e-13
-1.68402344144953e-12
-6.99876715147832e-13
-1.35785960822671e-12
-6.09093148585959e-13
-1.09698194591021e-12
-5.24013891570624e-13
-8.88477109271815e-13
-4.45407545288814e-13
-7.21972040909781e-13
-3.73175879695788e-13
-5.89366742326464e-13
-3.06742861905173e-13
-4.84414403299607e-13
-2.45280753354794e-13
-4.02407459674522e-13
-1.87842477423377e-13
-3.39829345674546e-13
-1.33432238910989e-13
-2.941311055246e-13
-8.1043776041663e-14
-2.63542418374755e-13
-2.96714353712088e-14
-2.46938704881289e-13
2.16790781890801e-14
-2.43771311855417e-13
7.40006116671383e-14
-2.54018092634941e-13
1.28286964702958e-13
-2.78195544008729e-13
1.85523102543745e-13
-3.17394713734291e-13
2.46676459668774e-13
-3.73341480210183e-13
3.12665763821897e-13
-4.48563503679464e-13
3.84271975496707e-13
-5.46515206951567e-13
4.62027991847467e-13
-6.71891461766283e-13
5.45968568811084e-13
-8.30899934845233e-13
6.35257673123353e-13
-1.03162635298175e-12
7.27577439773138e-13
-1.28441803477264e-12
8.18197798599532e-13
-1.60212723374452e-12
8.98557952754458e-13
-2.00015075821229e-12
9.5426339017083e-13
-2.49563881536375e-12
9.62338765423678e-13
-3.10520440582484e-12
8.87977754886125e-13
-3.83836420101989e-12
6.81248255762538e-13
-4.68299293569069e-12
2.77090804401569e-13
-5.56510014439363e-12
-3.96730550493522e-13
-6.26386737094095e-12
-1.3825067974813e-12
-6.20988863636772e-12
-2.61391079780387e-12
-4.23198679167837e-12
-3.73341139676243e-12
1.50636974839433e-12
-3.99074766478733e-12
1.18424037767225e-11
-2.39198370177348e-12
2.21878124926027e-11
1.77493802303947e-11
1.92348478634856e-12
1.5592863628426e-11
3.26857677595983e-12
2.08687689985805e-11
3.15381741143489e-12
1.22563718633354e-11
2.29651277430489e-12
2.64175288429297e-12
1.28953390433621e-12
-3.11268111890592e-12
4.41663453591832e-13
-5.3900904207348e-12
-1.68539384461289e-13
-5.75029037705701e-12
-5.57369446530867e-13
-5.29275813132146e-12
-7.74749334759684e-13
-4.58083477628581e-12
-8.71040435889975e-13
-3.84926613605098e-12
-8.8784663025205e-13
-3.18609205246393e-12
-8.55804112942296e-13
-2.61590023005951e-12
-7.96174386317253e-13
-2.13891720529512e-12
-7.22930078932848e-13
-1.74588522292853e-12
-6.44831282587697e-13
-1.42482141452117e-12
-5.670569099861e-13
-1.16385309217584e-12
-4.92414386012382e-13
-9.52436015550541e-13
-4.2219980924462e-13
-7.81708050368643e-13
-3.56772805885055e-13
-6.44503702320987e-13
-2.95927371252759e-13
-5.35141919442566e-13
-2.39134573309389e-13
-4.49236726595057e-13
-1.85689099045285e-13
-3.8344863119522e-13
-1.34790197539208e-13
-3.35323761569852e-13
-8.55959588835876e-14
-3.03133264128936e-13
-3.72499445740286e-14
-2.85769074976304e-13
1.11069989491261e-14
-2.82685359182666e-13
6.03317744817329e-14
-2.93859143653573e-13
1.11272904970013e-13
-3.19799692984768e-13
1.64750107363326e-13
-3.61570654516839e-13
2.21536896940932e-13
-4.20851766106518e-13
2.8230551996755e-13
-5.00070609797218e-13
3.47543074392538e-13
-6.02496992944508e-13
4.1740804921015e-13
-7.32497137759293e-13
4.91481910895884e-13
-8.95702042997474e-13
5.68399962617254e-13
-1.0992504780891e-12
6.45259172824843e-13
-1.3519506561843e-12
7.16784456649462e-13
-1.66428149867615e-12
7.74078591056369e-13
-2.04801654186697e-12
8.02986949518416e-13
-2.5150484212513e-12
7.81983883632909e-13
-3.07461978956256e-12
6.80019674024979e-13
-3.72672842004798e-12
4.54862094595304e-13
-4.44807595210228e-12
5.52694728283509e-14
-5.15567547906278e-12
-5.69584955008488e-13
-5.62912692362354e-12
-1.43593931837361e-12
-5.33356982843383e-12
-2.46188552090203e-12
-3.19583127688132e-12
-3.3278077464056e-12
2.38308274333773e-12
-3.42033148995074e-12
1.1946196695633e-11
-2.00167378053758e-12
2.07792206658039e-11
1.57530780769113e-11
1.54316456360547e-12
1.40611885445703e-11
2.67642135757751e-12
1.9747931417324e-11
2.67847118051156e-12
1.22655709681932e-11
2.04538399852046e-12
3.28532252510463e-12
1.23969572116589e-12
-2.29723268080123e-12
5.23433682893036e-13
-4.66471393573056e-12
-1.90021551875574e-14
-5.19927036820384e-12
-3.84635408316136e-13
-4.91896766575748e-12
-6.04979791929846e-13
-4.35268607280455e-12
-7.17347727722347e-13
-3.72939948218241e-12
-7.55244377455264e-13
-3.14097200575957e-12
-7.4481392688342e-13
-2.6193641831318e-12
-7.0510377926594e-13
-2.17190522113272e-12
-6.49221409887402e-13
-1.79528026289718e-12
-5.85786104140667e-13
-1.48199490161678e-12
-5.20181571631453e-13
-1.22341113745164e-12
-4.55568513923064e-13
-1.01120595572412e-12
-3.93616513130372e-13
-8.38007746788474e-13
-3.35037098410184e-13
-6.97606357952587e-13
-2.79929286800675e-13
-5.84933218145012e-13
-2.28024434199736e-13
-4.95968498454336e-13
-1.7883168967695e-13
-4.27595656028507e-13
-1.31735317816751e-13
-3.77485516378424e-13
-8.6050494088463e-14
-3.43979318455426e-13
-4.10613556781776e-14
-3.25999948257996e-13
3.96080133378397e-15
-3.23016300988896e-13
4.97382125939477e-14
-3.34999024292463e-13
9.6978782683413e-14
-3.62445167864775e-13
1.46344380102444e-13
-4.06372616240245e-13
1.9842856726401e-13
-4.68394329112376e-13
2.53684069801263e-13
-5.50797535709486e-13
3.12345758660088e-13
-6.56634919186196e-13
3.7426025897184e-13
-7.89884791965743e-13
4.3866170187217e-13
-9.55565662882055e-13
5.03809261458161e-13
-1.15984158174402e-12
5.66456456153701e-13
-1.41001378145837e-12
6.21118414683419e-13
-1.71432353046654e-12
6.59049237700151e-13
-2.08128210109529e-12
6.66971727754852e-13
-2.51825112627631e-12
6.25594509705676e-13
-3.02846085710802e-12
5.08420151242641e-13
-3.60470856078558e-12
2.81434175491416e-13
-4.21618790849995e-12
-9.33206260601796e-14
-4.77598138589449e-12
-6.47910364431596e-13
-5.06958106769587e-12
-1.37895004456921e-12
-4.5975399642102e-12
-2.19877072022897e-12
-2.37084118935155e-12
-2.8358429625909e-12
3.02580094797622e-12
-2.81092123671016e-12
1.19272821453984e-11
-1.61181442063877e-12
1.95852741709344e-11
1.41434805737672e-11
1.20868748856262e-12
1.28598469619962e-11
2.1374046584187e-12
1.88262667981106e-11
2.21595849425453e-12
1.21930527854093e-11
1.76743496897578e-12
3.73933674471956e-12
1.14146419291978e-12
-1.66629540083201e-12
5.52609755924702e-13
-4.07138911572985e-12
8.4089962796901e-14
-4.72670114973873e-12
-2.48236207938718e-13
-4.58293718202131e-12
-4.61224132926834e-13
-4.13628436454014e-12
-5.8085750364283e-13
-3.60660879985057e-12
-6.33012302410451e-13
-3.08589685957359e-12
-6.39223133196443e-13
-2.61045953463465e-12
-6.15989789600671e-13
-2.19266363696177e-12
-5.75188835016134e-13
-1.83382072053988e-12
-5.249715686277e-13
-1.53015845215179e-12
-4.70679370801951e-13
-1.27584917812075e-12
-4.15629846067729e-13
-1.06459034075876e-12
-3.61739311239707e-13
-8.90410586192539e-13
-3.09974221731831e-13
-7.48047395799615e-13
-2.60681898435385e-13
-6.33050723762599e-13
-2.13812686907197e-13
-5.41796757526504e-13
-1.69065753481255e-13
-4.71419998122571e-13
-1.25992803486583e-13
-4.19738661894828e-13
-8.4056032531992e-14
-3.85184471527822e-13
-4.26738850198713e-14
-3.66724561402974e-13
-1.24694795541847e-15
-3.63846736443159e-13
4.08211103260941e-14
-3.76519575423459e-13
8.41027767642604e-14
-4.05217450727347e-13
1.29114163748814e-13
-4.50903099174642e-13
1.7628316354099e-13
-5.15101336422042e-13
2.25871565127668e-13
-5.99935134143112e-13
2.7789438426843e-13
-7.08210391376208e-13
3.3195590986821e-13
-8.43495453342343e-13
3.87032660580998e-13
-1.01018186854071e-12
4.41139379356724e-13
-1.21347138583418e-12
4.90878554774418e-13
-1.45925339305705e-12
5.30813557354655e-13
-1.75373068976576e-12
5.52675082191737e-13