/*--------------------------------*- C++ -*----------------------------------*\
  =========                 |
  \\      /  F ield         | OpenFOAM: The Open Source CFD Toolbox
   \\    /   O peration     | Website:  https://openfoam.org
    \\  /    A nd           | Version:  10
     \\/     M anipulation  |
\*---------------------------------------------------------------------------*/
FoamFile
{
    format      ascii;
    class       volScalarField;
    location    "9.8";
    object      rho;
}
// * * * * * * * * * * * * * * * * * * * * * * * * * * * * * * * * * * * * * //

dimensions      [1 -3 0 0 0 0 0];

internalField   nonuniform List<scalar> 
2500
(
1.14654716005572
1.14654994965555
1.14657654848994
1.14660011599031
1.14661700796375
1.14662821114374
1.14663537346508
1.14663984854178
1.14664258034857
1.14664420047257
1.14664513741096
1.14664566054303
1.14664594304744
1.14664609251606
1.14664616952695
1.14664620919791
1.14664622821828
1.1466462384316
1.14664624457555
1.14664624795127
1.14664625014758
1.14664625171464
1.14664625286092
1.14664625354213
1.14664625417942
1.14664625462799
1.1466462547262
1.14664625460569
1.14664625418759
1.14664625334107
1.14664625178717
1.14664624868593
1.14664624338104
1.14664623317496
1.14664621297565
1.146646172745
1.14664609345417
1.14664594084525
1.14664565086365
1.14664512141054
1.14664418077928
1.14664255816882
1.14663983663176
1.14663538599408
1.14662825219257
1.14661707529353
1.14660014997751
1.14657645542895
1.14654979947793
1.14654742519261
1.14894015499386
1.14898735496512
1.14906695461378
1.14913451189465
1.14918314327191
1.14921579115309
1.14923698224657
1.14925043663444
1.14925879171704
1.14926384674163
1.14926681905299
1.14926851193554
1.14926944506036
1.14926994361748
1.14927020176936
1.14927033177234
1.14927039496224
1.1492704254731
1.14927044034771
1.14927044750577
1.14927045115045
1.14927045318719
1.14927045442619
1.14927045516486
1.14927045573035
1.14927045611176
1.14927045621693
1.14927045606649
1.14927045548248
1.14927045402486
1.14927045073385
1.14927044346013
1.1492704281156
1.1492703958112
1.14927032893702
1.14927019351715
1.14926992651808
1.14926941537609
1.14926846498647
1.14926675471041
1.1492637701635
1.14925871541329
1.14925038835738
1.14923699725055
1.14921588904441
1.14918328282305
1.14913450740193
1.14906652557838
1.14898665293565
1.14894163367184
1.15151526067541
1.15161536319625
1.15173746798009
1.1518366218095
1.15190709891487
1.15195413308688
1.15198455284653
1.15200382399736
1.15201578008565
1.15202301674688
1.15202727555085
1.15202970564594
1.15203104831574
1.15203176670895
1.15203213894042
1.1520323259204
1.15203241682615
1.15203246004097
1.15203248031846
1.15203248969477
1.15203249411342
1.15203249632661
1.15203249753067
1.1520324982153
1.15203249867931
1.1520324989785
1.15203249907165
1.15203249891255
1.15203249824751
1.15203249646005
1.15203249218062
1.15203248240155
1.15203246094523
1.15203241502391
1.15203231922219
1.15203212459317
1.15203174051969
1.1520310054114
1.15202964120013
1.15202718874038
1.15202291353858
1.15201567731513
1.15200375476069
1.15198455842356
1.15195422913607
1.15190719585511
1.15183640578204
1.15173645101282
1.15161357339905
1.15151603821595
1.15401557932625
1.15415569131872
1.15429869864776
1.15440999149996
1.15448728328095
1.15453791659388
1.15457011393732
1.15459019802042
1.15460248829342
1.15460983851336
1.15461411844053
1.15461653788651
1.15461786356014
1.15461856727919
1.15461892914624
1.15461910946959
1.15461919649717
1.15461923739064
1.15461925622018
1.15461926473691
1.15461926861061
1.1546192704566
1.15461927140953
1.1546192719357
1.15461927227304
1.15461927249132
1.15461927258146
1.15461927249162
1.15461927197881
1.15461927046904
1.15461926669422
1.15461925782584
1.15461923790597
1.1546191946741
1.15461910353055
1.15461891662742
1.15461854452481
1.15461782608351
1.15461648117307
1.15461404059138
1.1546097430766
1.15460238830888
1.15459011975135
1.15457008848643
1.15453794089036
1.15448722231338
1.15440943200058
1.15429696702552
1.15415252147793
1.15401394718886
1.15624116483741
1.15639905839425
1.15654281115588
1.15665031015895
1.15672312071102
1.1567698443647
1.15679900590243
1.15681689441465
1.15682768334806
1.15683405669651
1.1568377292463
1.15683978707514
1.15684090613386
1.15684149623195
1.15684179784635
1.15684194726223
1.15684201896561
1.15684205239127
1.15684206758899
1.15684207434596
1.15684207733471
1.15684207870191
1.15684207937639
1.15684207973579
1.15684207995653
1.15684208010219
1.15684208017318
1.15684208014738
1.15684207982172
1.15684207871311
1.1568420758182
1.15684206883661
1.15684205285718
1.15684201779713
1.15684194328087
1.1568417893315
1.15684148059382
1.15684088004305
1.15683974699366
1.15683767300272
1.15683398556855
1.1568276051104
1.15681682551714
1.15679896290857
1.15676980421411
1.15672291778918
1.15664947373693
1.15654052787047
1.1563946846722
1.15623671862671
1.1580757723978
1.15822949274963
1.15835840747875
1.15845133495495
1.1585126960412
1.15855124078855
1.15857483988882
1.15858907241414
1.15859753325069
1.15860247205586
1.15860529037509
1.15860685710572
1.15860770362835
1.15860814762798
1.15860837352665
1.15860848495685
1.15860853820481
1.15860856288044
1.15860857399061
1.15860857885562
1.15860858095139
1.15860858187099
1.15860858230287
1.15860858252239
1.15860858265112
1.15860858273949
1.15860858279301
1.158608582802
1.15860858262527
1.15860858190187
1.15860857989593
1.15860857492316
1.15860856334068
1.15860853768977
1.15860848281813
1.15860836878076
1.1586081387437
1.15860768854165
1.15860683348092
1.15860525642217
1.15860242778408
1.15859748238481
1.15858902331986
1.15857479737778
1.15855116930793
1.15851242180471
1.15845038028588
1.15835589596682
1.15822446104501
1.15806916232532
1.15948642905555
1.15962022580256
1.15972551291512
1.15979889422999
1.1598461471008
1.15987519940503
1.15989264684746
1.15990299278845
1.15990905665061
1.1599125560897
1.15991453512101
1.15991562758767
1.15991621466176
1.1599165212774
1.15991667674488
1.15991675319977
1.15991678961951
1.15991680641802
1.1599168139189
1.15991681715592
1.15991681851225
1.1599168190793
1.15991681932977
1.15991681944863
1.15991681951358
1.15991681956146
1.15991681959912
1.15991681962063
1.15991681954323
1.15991681911831
1.15991681784016
1.15991681457255
1.15991680682651
1.15991678952472
1.15991675231541
1.15991667461952
1.15991651716491
1.15991620749573
1.15991561607427
1.15991451810426
1.1599125332044
1.15990902938898
1.15990296466712
1.15989261625145
1.15987512822575
1.15984587507281
1.15979798327013
1.15972311157383
1.15961520015738
1.15947882808654
1.16050392536971
1.16061013316688
1.1606894853714
1.16074310478705
1.16077679838491
1.16079707840088
1.16080902641655
1.16081599364965
1.1608200209873
1.16082231985088
1.16082360909257
1.16082431635273
1.16082469469078
1.16082489163352
1.16082499124512
1.16082504012841
1.16082506336016
1.16082507403438
1.16082507876478
1.16082508077662
1.16082508159395
1.16082508191544
1.16082508204639
1.16082508210197
1.16082508212769
1.16082508214971
1.1608250821743
1.16082508219594
1.16082508217347
1.1608250819484
1.16082508119252
1.16082507918894
1.16082507435081
1.16082506345471
1.16082503991474
1.16082499057765
1.16082489023559
1.16082469212581
1.16082431204032
1.16082360245034
1.16082231061094
1.16082000976974
1.16081598183763
1.1608090105155
1.16079702534351
1.16077657593797
1.16074234628075
1.16068743829725
1.16060566095233
1.16049649916397
1.16119564789996
1.16127355055514
1.16132926311892
1.16136584951174
1.16138830365136
1.16140153953152
1.16140919122664
1.16141357990702
1.16141608246035
1.161417495958
1.16141828249123
1.16141871156792
1.16141894021562
1.1614190589337
1.16141911887747
1.16141914825392
1.16141916219139
1.16141916857391
1.1614191713822
1.16141917255895
1.16141917302029
1.16141917318767
1.16141917324904
1.16141917327002
1.16141917327409
1.16141917328105
1.16141917329594
1.16141917331278
1.16141917331259
1.16141917320587
1.1614191727907
1.16141917163515
1.16141916878945
1.16141916232749
1.16141914831115
1.16141911884896
1.1614190587693
1.16141893980216
1.1614187107223
1.1614182810133
1.16141749379505
1.16141608004807
1.1614135780452
1.16140918707644
1.16140150858735
1.16138814702427
1.16136528487684
1.16132768036825
1.16126994123499
1.16118921930445
1.16164069299382
1.16169399156908
1.16173069545518
1.16175417102755
1.16176825591975
1.16177639094123
1.16178100693884
1.16178361150552
1.16178507693152
1.16178589619447
1.16178634871019
1.16178659432743
1.16178672478982
1.16178679239839
1.16178682649881
1.16178684319724
1.16178685111011
1.16178685472296
1.16178685630149
1.16178685695294
1.16178685719865
1.16178685727938
1.16178685730064
1.16178685730294
1.16178685730053
1.16178685730127
1.16178685730967
1.16178685732203
1.16178685732889
1.16178685728364
1.16178685707007
1.16178685643926
1.16178685485314
1.16178685122107
1.16178684331444
1.16178682665846
1.16178679263135
1.16178672511128
1.16178659472934
1.16178634918759
1.16178589685211
1.16178507822805
1.16178361423905
1.16178100969296
1.16177637784747
1.1617681592923
1.1617537894972
1.16172957173222
1.16169131538257
1.16163564473882
1.16191266993765
1.16194692818071
1.16196975143812
1.16198399628688
1.16199235968512
1.161997095315
1.16199973361414
1.16200119835436
1.16200201161105
1.16200246172979
1.16200270860107
1.1620028419822
1.16200291263613
1.16200294919998
1.16200296763183
1.1620029766549
1.16200298092707
1.16200298287228
1.16200298371616
1.16200298405884
1.16200298418271
1.16200298421559
1.16200298421815
1.16200298421508
1.16200298421146
1.16200298421103
1.16200298421531
1.16200298422392
1.16200298423125
1.16200298421506
1.1620029841118
1.16200298378418
1.16200298294211
1.16200298099734
1.16200297674976
1.16200296778816
1.16200294946081
1.16200291304642
1.16200284258592
1.16200270946203
1.16200246301512
1.16200201378811
1.16200120227823
1.16199973906871
1.1619970932661
1.16199230741587
1.16198375993115
1.16196901194128
1.16194508708871
1.1619090188594
1.16207106189337
1.1620918680793
1.1621053286146
1.16211354118696
1.16211826426505
1.1621208876881
1.16212232317502
1.16212310744617
1.16212353718593
1.16212377269177
1.16212390097939
1.16212396999727
1.16212400647306
1.16212402533202
1.16212403483779
1.16212403949165
1.16212404169393
1.162124042694
1.16212404312461
1.16212404329628
1.16212404335431
1.16212404336549
1.16212404336307
1.16212404335893
1.16212404335577
1.16212404335489
1.16212404335702
1.16212404336267
1.16212404336829
1.16212404336412
1.1621240433171
1.16212404315459
1.16212404272693
1.16212404173067
1.16212403954813
1.16212403493909
1.16212402550995
1.16212400676486
1.16212397044626
1.16212390165391
1.16212377375287
1.16212353904675
1.16212311091042
1.16212232870054
1.16212089080033
1.16211823997069
1.16211340609229
1.16210487423268
1.16209068371857
1.16206860385145
1.16215922359151
1.16217122010947
1.16217878078277
1.16218329738279
1.16218584428499
1.1621872328755
1.16218797939587
1.16218838081309
1.16218859789278
1.16218871569064
1.16218877943374
1.16218881359123
1.16218883160843
1.16218884091884
1.16218884561299
1.16218884791215
1.1621888489998
1.1621888494924
1.16218884970277
1.16218884978491
1.16218884981021
1.16218884981284
1.16218884980998
1.16218884980657
1.16218884980428
1.16218884980344
1.16218884980448
1.16218884980796
1.16218884981187
1.16218884981166
1.16218884979125
1.16218884971414
1.16218884950557
1.16218884901548
1.16218884793887
1.16218884566446
1.16218884101307
1.16218883176753
1.16218881384348
1.16218877982945
1.16218871635417
1.16218859914411
1.16218838330972
1.1621879838157
1.16218723737085
1.16218583524851
1.16218322589873
1.16217851856951
1.16217050315775
1.16215767076447
1.16220624682403
1.16221284000008
1.1622168990213
1.16221927669877
1.16222059264951
1.16222129734339
1.16222166970448
1.16222186679253
1.16222197197963
1.16222202849962
1.16222205888435
1.16222207510547
1.16222208364776
1.16222208806116
1.16222209028768
1.16222209137899
1.16222209189517
1.16222209212831
1.16222209222699
1.16222209226444
1.16222209227468
1.16222209227471
1.16222209227262
1.1622220922703
1.16222209226883
1.16222209226821
1.16222209226872
1.16222209227072
1.16222209227318
1.16222209227393
1.16222209226552
1.16222209223029
1.16222209213228
1.16222209190001
1.16222209138851
1.16222209030813
1.16222208810079
1.16222208371692
1.16222207521872
1.16222205907225
1.16222202884561
1.16222197270593
1.16222186837808
1.16222167278051
1.16222130136581
1.16222059071182
1.16221924167224
1.16221675623144
1.16221242943907
1.16220532051622
1.16223033672198
1.16223380259831
1.16223589189303
1.16223709364586
1.16223774710086
1.16223809102659
1.16223826971432
1.1622383628228
1.16223841186336
1.16223843795465
1.16223845189032
1.16223845930346
1.162238463202
1.16223846521643
1.16223846623361
1.16223846673265
1.16223846696868
1.16223846707499
1.16223846711956
1.1622384671359
1.1622384671398
1.16223846713929
1.16223846713791
1.16223846713651
1.16223846713564
1.16223846713526
1.1622384671355
1.16223846713658
1.162238467138
1.16223846713871
1.16223846713542
1.16223846711988
1.16223846707536
1.162238466969
1.16223846673428
1.16223846623882
1.16223846522815
1.16223846322388
1.16223845934144
1.16223845196058
1.16223843810767
1.16223841224021
1.16223836374066
1.16223827165337
1.16223809397911
1.16223774780002
1.16223707781397
1.16223581823371
1.16223357919913
1.16222981226609
1.16224221315093
1.16224396108726
1.16224499502024
1.16224557975432
1.16224589243166
1.1622460542887
1.16224613700869
1.16224617944802
1.16224620150673
1.16224621312618
1.16224621929214
1.16224622256089
1.16224622427796
1.16224622516554
1.16224622561425
1.16224622583464
1.1622462259389
1.16224622598571
1.16224622600514
1.16224622601198
1.16224622601336
1.1622462260129
1.16224622601209
1.16224622601131
1.16224622601083
1.16224622601062
1.16224622601073
1.16224622601128
1.16224622601204
1.16224622601252
1.16224622601129
1.16224622600464
1.16224622598505
1.16224622593786
1.16224622583355
1.16224622561363
1.16224622516596
1.16224622428004
1.1622462225663
1.16224621930848
1.16224621318158
1.16224620168424
1.16224617994164
1.1622461381401
1.16224605620727
1.1622458937024
1.16224557322381
1.16224495891206
1.16224384513909
1.16224193011569
1.16224785531325
1.16224870331616
1.16224919645027
1.16224947099678
1.1622496155109
1.16224968913814
1.16224972616898
1.1622497448785
1.16224975447481
1.16224975947898
1.16224976211724
1.1622497635112
1.16224976424276
1.16224976462115
1.16224976481271
1.16224976490693
1.1622497649515
1.16224976497146
1.16224976497965
1.1622497649824
1.16224976498284
1.16224976498255
1.16224976498211
1.1622497649817
1.16224976498145
1.16224976498134
1.16224976498139
1.16224976498166
1.16224976498204
1.16224976498232
1.16224976498188
1.16224976497911
1.16224976497073
1.16224976495041
1.16224976490542
1.16224976481071
1.16224976461843
1.16224976423891
1.16224976350623
1.16224976211432
1.16224975949276
1.16224975455113
1.16224974512823
1.16224972678843
1.1622496902794
1.1622496165938
1.16224946860001
1.16224917958823
1.162248645723
1.1622477091856
1.16225043870593
1.16225083541284
1.16225106259425
1.1622511872502
1.16225125190144
1.16225128434384
1.16225130040945
1.1622513084047
1.16225131245135
1.16225131454014
1.16225131563418
1.16225131621034
1.16225131651247
1.16225131666888
1.16225131674818
1.16225131678725
1.16225131680573
1.16225131681398
1.16225131681732
1.16225131681839
1.16225131681851
1.16225131681835
1.16225131681812
1.16225131681792
1.1622513168178
1.16225131681774
1.16225131681777
1.16225131681789
1.16225131681807
1.16225131681821
1.16225131681806
1.16225131681694
1.16225131681345
1.16225131680494
1.16225131678607
1.16225131674642
1.16225131666617
1.16225131650827
1.1622513162042
1.16225131562727
1.16225131453966
1.16225131248121
1.16225130852464
1.16225130073072
1.1622512849769
1.16225125263463
1.16225118651779
1.1622510550788
1.16225080795453
1.16225036630314
1.16225157592621
1.16225175526771
1.16225185655998
1.16225191139799
1.16225193944721
1.16225195332071
1.16225196008868
1.16225196340717
1.16225196506456
1.16225196591129
1.16225196635184
1.16225196658309
1.16225196670427
1.16225196676707
1.16225196679896
1.16225196681469
1.16225196682213
1.16225196682544
1.16225196682676
1.16225196682716
1.16225196682719
1.1622519668271
1.16225196682699
1.1622519668269
1.16225196682684
1.16225196682681
1.16225196682682
1.16225196682687
1.16225196682696
1.16225196682702
1.16225196682697
1.16225196682653
1.16225196682511
1.16225196682164
1.16225196681393
1.16225196679778
1.16225196676518
1.16225196670126
1.16225196657854
1.16225196634609
1.16225196590772
1.16225196507504
1.16225196346224
1.16225196024762
1.16225195365202
1.16225193988446
1.16225191125416
1.16225185335897
1.16225174266979
1.16225154140296
1.16225205277988
1.16225213128176
1.16225217506968
1.1622521984835
1.16225221030528
1.16225221607296
1.16225221884629
1.16225222018645
1.16225222084694
1.16225222118087
1.16225222135342
1.16225222144369
1.16225222149096
1.16225222151548
1.16225222152794
1.1622522215341
1.16225222153701
1.1622522215383
1.1622522215388
1.16225222153895
1.16225222153894
1.1622522215389
1.16225222153885
1.16225222153881
1.16225222153878
1.16225222153877
1.16225222153877
1.16225222153879
1.16225222153883
1.16225222153886
1.16225222153884
1.16225222153867
1.16225222153811
1.16225222153673
1.16225222153367
1.16225222152726
1.16225222151436
1.16225222148915
1.16225222144091
1.16225222134974
1.16225222117778
1.16225222085011
1.16225222021078
1.16225221892171
1.16225221623786
1.16225221054429
1.16225219850714
1.16225217376604
1.16225212570665
1.16225203689924
1.16225223780724
1.16225227113766
1.16225228952055
1.16225229923821
1.16225230408579
1.16225230642043
1.16225230752755
1.16225230805496
1.16225230831145
1.16225230843974
1.16225230850556
1.16225230853987
1.16225230855781
1.16225230856712
1.16225230857185
1.16225230857419
1.16225230857529
1.16225230857577
1.16225230857595
1.162252308576
1.16225230857599
1.16225230857597
1.16225230857595
1.16225230857592
1.16225230857591
1.1622523085759
1.1622523085759
1.16225230857591
1.16225230857593
1.16225230857594
1.16225230857594
1.16225230857587
1.16225230857566
1.16225230857513
1.16225230857395
1.16225230857147
1.16225230856651
1.16225230855683
1.16225230853835
1.1622523085035
1.16225230843778
1.16225230831218
1.16225230806535
1.16225230756202
1.16225230649896
1.16225230420801
1.16225229928682
1.16225228901302
1.16225226875292
1.16225223074443
1.16225229779773
1.16225231154667
1.16225231905246
1.16225232297853
1.16225232491511
1.16225232583643
1.16225232626755
1.16225232647006
1.16225232656722
1.16225232661528
1.16225232663973
1.16225232665242
1.16225232665903
1.16225232666246
1.16225232666419
1.16225232666504
1.16225232666544
1.16225232666561
1.16225232666567
1.16225232666568
1.16225232666567
1.16225232666566
1.16225232666565
1.16225232666564
1.16225232666563
1.16225232666563
1.16225232666563
1.16225232666563
1.16225232666563
1.16225232666564
1.16225232666564
1.16225232666562
1.16225232666554
1.16225232666535
1.16225232666491
1.16225232666399
1.16225232666214
1.16225232665853
1.16225232665164
1.16225232663867
1.16225232661419
1.16225232656726
1.16225232647436
1.16225232628277
1.16225232587237
1.16225232497427
1.16225232301517
1.16225231886382
1.16225231055884
1.16225229475475
1.16225230575806
1.16225231127645
1.16225231426101
1.16225231580694
1.16225231656153
1.16225231691638
1.16225231708029
1.16225231715621
1.16225231719213
1.16225231720966
1.1622523172185
1.16225231722304
1.16225231722539
1.1622523172266
1.1622523172272
1.16225231722749
1.16225231722762
1.16225231722767
1.16225231722768
1.16225231722768
1.16225231722767
1.16225231722767
1.16225231722766
1.16225231722765
1.16225231722765
1.16225231722765
1.16225231722764
1.16225231722764
1.16225231722765
1.16225231722765
1.16225231722765
1.16225231722765
1.16225231722763
1.16225231722756
1.16225231722742
1.16225231722709
1.16225231722643
1.16225231722514
1.16225231722266
1.16225231721797
1.16225231720911
1.16225231719203
1.16225231715794
1.1622523170868
1.16225231693223
1.16225231658884
1.16225231582855
1.16225231419425
1.16225231087949
1.16225230448569
1.16225229265914
1.16225229481719
1.16225229597428
1.16225229656815
1.16225229685516
1.16225229698864
1.16225229704951
1.16225229707729
1.16225229709022
1.16225229709643
1.1622522970995
1.16225229710106
1.16225229710184
1.16225229710223
1.16225229710242
1.1622522971025
1.16225229710253
1.16225229710254
1.16225229710253
1.16225229710252
1.16225229710252
1.16225229710251
1.1622522971025
1.1622522971025
1.1622522971025
1.16225229710249
1.16225229710249
1.16225229710249
1.16225229710249
1.1622522971025
1.1622522971025
1.1622522971025
1.1622522971025
1.16225229710249
1.16225229710245
1.16225229710235
1.16225229710214
1.16225229710171
1.16225229710086
1.16225229709925
1.16225229709615
1.16225229709012
1.16225229707795
1.16225229705219
1.16225229699539
1.16225229686725
1.16225229657936
1.16225229595189
1.16225229466218
1.16225229214195
1.16225227125759
1.16225227208089
1.16225227251867
1.16225227274135
1.16225227284793
1.16225227289695
1.16225227291901
1.1622522729289
1.1622522729334
1.16225227293551
1.16225227293651
1.162252272937
1.16225227293723
1.16225227293733
1.16225227293736
1.16225227293737
1.16225227293736
1.16225227293735
1.16225227293734
1.16225227293733
1.16225227293732
1.16225227293732
1.16225227293731
1.16225227293731
1.1622522729373
1.1622522729373
1.1622522729373
1.1622522729373
1.1622522729373
1.1622522729373
1.16225227293731
1.16225227293731
1.16225227293732
1.16225227293733
1.16225227293733
1.16225227293731
1.16225227293726
1.16225227293715
1.16225227293689
1.16225227293638
1.16225227293536
1.16225227293333
1.16225227292913
1.16225227292007
1.16225227289972
1.16225227285307
1.16225227274668
1.16225227251159
1.16225227202196
1.1622522710529
1.16225224666351
1.16225224697025
1.16225224713194
1.1622522472134
1.162252247252
1.16225224726953
1.16225224727729
1.16225224728069
1.16225224728218
1.16225224728283
1.16225224728312
1.16225224728323
1.16225224728326
1.16225224728326
1.16225224728325
1.16225224728323
1.16225224728321
1.16225224728319
1.16225224728318
1.16225224728317
1.16225224728316
1.16225224728315
1.16225224728315
1.16225224728314
1.16225224728314
1.16225224728314
1.16225224728314
1.16225224728314
1.16225224728314
1.16225224728314
1.16225224728315
1.16225224728315
1.16225224728316
1.16225224728318
1.16225224728319
1.16225224728321
1.16225224728321
1.16225224728321
1.16225224728316
1.16225224728304
1.16225224728275
1.16225224728212
1.16225224728075
1.16225224727769
1.16225224727062
1.16225224725408
1.16225224721577
1.16225224712984
1.16225224694839
1.16225224658451
1.16225222087068
1.16225222098239
1.16225222104063
1.16225222106961
1.16225222108316
1.16225222108922
1.16225222109183
1.16225222109293
1.16225222109337
1.16225222109353
1.16225222109356
1.16225222109356
1.16225222109353
1.1622522210935
1.16225222109346
1.16225222109344
1.16225222109341
1.1622522210934
1.16225222109338
1.16225222109337
1.16225222109336
1.16225222109335
1.16225222109335
1.16225222109335
1.16225222109334
1.16225222109334
1.16225222109334
1.16225222109334
1.16225222109334
1.16225222109334
1.16225222109335
1.16225222109336
1.16225222109337
1.16225222109338
1.1622522210934
1.16225222109342
1.16225222109345
1.16225222109348
1.1622522210935
1.16225222109351
1.16225222109347
1.16225222109332
1.16225222109293
1.16225222109196
1.16225222108961
1.16225222108395
1.16225222107057
1.16225222104003
1.16225222097444
1.16225222084088
1.16225219463783
1.16225219467761
1.16225219469797
1.16225219470788
1.16225219471241
1.16225219471438
1.16225219471519
1.1622521947155
1.16225219471558
1.16225219471558
1.16225219471555
1.1622521947155
1.16225219471546
1.16225219471542
1.16225219471538
1.16225219471535
1.16225219471533
1.16225219471531
1.1622521947153
1.16225219471529
1.16225219471528
1.16225219471527
1.16225219471526
1.16225219471526
1.16225219471526
1.16225219471526
1.16225219471525
1.16225219471525
1.16225219471526
1.16225219471526
1.16225219471526
1.16225219471527
1.16225219471528
1.1622521947153
1.16225219471532
1.16225219471534
1.16225219471538
1.16225219471541
1.16225219471546
1.1622521947155
1.16225219471553
1.16225219471554
1.16225219471547
1.16225219471521
1.1622521947145
1.16225219471268
1.16225219470822
1.16225219469778
1.16225219467475
1.16225219462681
1.16225216824692
1.16225216826077
1.16225216826756
1.16225216827069
1.16225216827205
1.1622521682726
1.1622521682728
1.16225216827285
1.16225216827283
1.16225216827278
1.16225216827273
1.16225216827268
1.16225216827263
1.16225216827259
1.16225216827256
1.16225216827253
1.16225216827251
1.16225216827249
1.16225216827247
1.16225216827246
1.16225216827245
1.16225216827245
1.16225216827244
1.16225216827244
1.16225216827243
1.16225216827243
1.16225216827243
1.16225216827243
1.16225216827243
1.16225216827243
1.16225216827244
1.16225216827245
1.16225216827246
1.16225216827247
1.16225216827249
1.16225216827252
1.16225216827255
1.16225216827259
1.16225216827263
1.16225216827268
1.16225216827273
1.16225216827278
1.16225216827281
1.16225216827278
1.16225216827261
1.16225216827211
1.16225216827077
1.16225216826746
1.16225216825971
1.1622521682429
1.1622521418004
1.16225214180509
1.16225214180713
1.16225214180791
1.16225214180818
1.16225214180827
1.16225214180827
1.16225214180824
1.1622521418082
1.16225214180814
1.16225214180809
1.16225214180804
1.162252141808
1.16225214180796
1.16225214180793
1.16225214180791
1.16225214180789
1.16225214180787
1.16225214180786
1.16225214180784
1.16225214180784
1.16225214180783
1.16225214180782
1.16225214180782
1.16225214180782
1.16225214180781
1.16225214180781
1.16225214180781
1.16225214180781
1.16225214180782
1.16225214180782
1.16225214180783
1.16225214180784
1.16225214180785
1.16225214180787
1.16225214180789
1.16225214180792
1.16225214180796
1.162252141808
1.16225214180804
1.1622521418081
1.16225214180815
1.1622521418082
1.16225214180823
1.16225214180823
1.16225214180816
1.16225214180789
1.16225214180704
1.16225214180467
1.16225214179893
1.1622521153347
1.16225211533623
1.16225211533664
1.16225211533663
1.16225211533654
1.16225211533648
1.16225211533643
1.16225211533639
1.16225211533635
1.1622521153363
1.16225211533626
1.16225211533622
1.16225211533618
1.16225211533615
1.16225211533612
1.1622521153361
1.16225211533608
1.16225211533606
1.16225211533605
1.16225211533604
1.16225211533603
1.16225211533602
1.16225211533602
1.16225211533601
1.16225211533601
1.16225211533601
1.162252115336
1.162252115336
1.16225211533601
1.16225211533601
1.16225211533601
1.16225211533602
1.16225211533603
1.16225211533604
1.16225211533606
1.16225211533608
1.1622521153361
1.16225211533613
1.16225211533617
1.16225211533621
1.16225211533625
1.1622521153363
1.16225211533634
1.16225211533639
1.16225211533643
1.16225211533649
1.16225211533656
1.16225211533654
1.16225211533602
1.16225211533413
1.1622520888625
1.16225208886296
1.16225208886284
1.16225208886257
1.16225208886238
1.16225208886229
1.16225208886223
1.1622520888622
1.16225208886216
1.16225208886213
1.16225208886209
1.16225208886206
1.16225208886203
1.162252088862
1.16225208886198
1.16225208886196
1.16225208886194
1.16225208886193
1.16225208886191
1.1622520888619
1.16225208886189
1.16225208886189
1.16225208886188
1.16225208886188
1.16225208886187
1.16225208886187
1.16225208886187
1.16225208886187
1.16225208886187
1.16225208886187
1.16225208886188
1.16225208886188
1.16225208886189
1.1622520888619
1.16225208886192
1.16225208886194
1.16225208886196
1.16225208886198
1.16225208886201
1.16225208886205
1.16225208886208
1.16225208886212
1.16225208886215
1.16225208886218
1.16225208886223
1.16225208886232
1.16225208886249
1.16225208886273
1.16225208886282
1.16225208886225
1.16225206238815
1.16225206238826
1.16225206238796
1.16225206238763
1.16225206238742
1.16225206238733
1.16225206238729
1.16225206238726
1.16225206238724
1.16225206238722
1.16225206238719
1.16225206238717
1.16225206238714
1.16225206238712
1.1622520623871
1.16225206238708
1.16225206238706
1.16225206238705
1.16225206238704
1.16225206238703
1.16225206238702
1.16225206238701
1.16225206238701
1.162252062387
1.162252062387
1.162252062387
1.162252062387
1.162252062387
1.162252062387
1.162252062387
1.162252062387
1.16225206238701
1.16225206238702
1.16225206238703
1.16225206238704
1.16225206238705
1.16225206238707
1.16225206238709
1.16225206238712
1.16225206238714
1.16225206238717
1.16225206238719
1.16225206238721
1.16225206238723
1.16225206238727
1.16225206238735
1.16225206238754
1.16225206238786
1.16225206238814
1.162252062388
1.16225203591309
1.16225203591309
1.16225203591275
1.16225203591241
1.16225203591221
1.16225203591213
1.1622520359121
1.1622520359121
1.16225203591209
1.16225203591207
1.16225203591206
1.16225203591204
1.16225203591202
1.162252035912
1.16225203591199
1.16225203591197
1.16225203591196
1.16225203591195
1.16225203591193
1.16225203591193
1.16225203591192
1.16225203591191
1.16225203591191
1.1622520359119
1.1622520359119
1.1622520359119
1.16225203591189
1.16225203591189
1.16225203591189
1.1622520359119
1.1622520359119
1.1622520359119
1.16225203591191
1.16225203591192
1.16225203591193
1.16225203591194
1.16225203591196
1.16225203591197
1.16225203591199
1.16225203591201
1.16225203591202
1.16225203591204
1.16225203591204
1.16225203591205
1.16225203591207
1.16225203591213
1.16225203591232
1.16225203591264
1.16225203591298
1.16225203591297
1.1622520094378
1.16225200943777
1.16225200943744
1.16225200943711
1.16225200943693
1.16225200943686
1.16225200943686
1.16225200943686
1.16225200943687
1.16225200943686
1.16225200943686
1.16225200943684
1.16225200943683
1.16225200943682
1.1622520094368
1.16225200943679
1.16225200943678
1.16225200943677
1.16225200943676
1.16225200943675
1.16225200943674
1.16225200943674
1.16225200943673
1.16225200943673
1.16225200943672
1.16225200943672
1.16225200943672
1.16225200943672
1.16225200943672
1.16225200943672
1.16225200943672
1.16225200943673
1.16225200943673
1.16225200943674
1.16225200943675
1.16225200943676
1.16225200943677