/*--------------------------------*- C++ -*----------------------------------*\
  =========                 |
  \\      /  F ield         | OpenFOAM: The Open Source CFD Toolbox
   \\    /   O peration     | Website:  https://openfoam.org
    \\  /    A nd           | Version:  10
     \\/     M anipulation  |
\*---------------------------------------------------------------------------*/
FoamFile
{
    format      ascii;
    class       volScalarField;
    location    "9.8";
    object      T;
}
// * * * * * * * * * * * * * * * * * * * * * * * * * * * * * * * * * * * * * //

dimensions      [0 0 0 1 0 0 0];

internalField   nonuniform List<scalar> 
2500
(
304.109490345313
304.108750437035
304.10169557838
304.095444999851
304.090965064541
304.087993932151
304.086094483675
304.084907704915
304.084183241427
304.083753593135
304.08350512263
304.083366391312
304.083291473
304.083251834939
304.083231412189
304.08322089174
304.083215847684
304.083213139196
304.083211509872
304.083210614662
304.083210032221
304.083209616651
304.083209312669
304.083209132018
304.083208963014
304.083208844053
304.083208818006
304.08320884996
304.083208960833
304.083209185318
304.083209597395
304.08321041981
304.083211826619
304.083214533184
304.083219889885
304.083230558757
304.08325158613
304.083292056977
304.08336895819
304.08350936581
304.083758815647
304.084189123348
304.084910863364
304.086091160953
304.087983045868
304.090947208143
304.095435985857
304.101720260455
304.108790269739
304.109420020457
303.476088936739
303.463622253704
303.442600332144
303.424761032763
303.411920640714
303.403301062961
303.39770652783
303.394154621687
303.391948954232
303.390614488332
303.389829839271
303.389382943546
303.389136613105
303.389005001959
303.388936854027
303.388902535361
303.388885854267
303.388877799909
303.388873873266
303.388871983663
303.388871021532
303.388870483871
303.388870156797
303.388869961803
303.388869812522
303.388869711834
303.388869684068
303.38886972378
303.388869877944
303.388870262725
303.388871131488
303.388873051622
303.388877102314
303.388885630136
303.388903283817
303.388939032455
303.3890095159
303.389144449257
303.389395337353
303.389846824746
303.390634703917
303.391969097558
303.39416736645
303.397702566739
303.403275218719
303.411883795804
303.424762218968
303.442713630632
303.463807669489
303.475698365513
302.797425884714
302.771105651903
302.739006497567
302.71294574433
302.694424866497
302.682065884446
302.674073142875
302.669009898319
302.665868676622
302.663967421161
302.662848535942
302.662210098106
302.661857351273
302.661668615029
302.661570822492
302.661521699205
302.661497816503
302.661486463142
302.66148113586
302.661478672532
302.661477511673
302.661476930229
302.661476613902
302.661476434036
302.661476312133
302.661476233527
302.661476209052
302.661476250849
302.661476425562
302.661476895156
302.661478019438
302.661480588578
302.661486225557
302.661498289968
302.661523458935
302.661574591774
302.661675495442
302.661868623081
302.662227029331
302.662871342923
302.663994536411
302.665895677193
302.669028089009
302.674071677508
302.682040646959
302.694399392791
302.713002518207
302.739273811802
302.771576207955
302.797221426064
302.141370677442
302.104691372387
302.06726329242
302.038141986882
302.017920833103
302.004675562563
301.99625359883
301.99100037791
301.987785807062
301.985863359905
301.98474395793
301.984111162865
301.983764440113
301.983580386551
301.983485742461
301.983438580033
301.983415818538
301.983405123123
301.983400198389
301.983397970901
301.983396957765
301.983396474963
301.983396225733
301.983396088118
301.983395999889
301.983395942799
301.98339591922
301.983395942713
301.98339607683
301.983396471695
301.983397458967
301.983399778423
301.983404988325
301.98341629533
301.983440133331
301.983489016657
301.983586337796
301.983774241886
301.984125995946
301.984764319035
301.985888321162
301.98781195811
301.991020849679
301.996260255868
302.004669207022
302.017936782369
302.038288373477
302.067716439486
302.10552109257
302.141797999906
301.559788415247
301.518613747324
301.481136420439
301.453116784167
301.434141657878
301.42196628521
301.414367793508
301.409706853375
301.406895813264
301.405235271734
301.404278417051
301.403742268204
301.403450708313
301.403296964223
301.403218381713
301.403179452977
301.403160771425
301.403152062733
301.403148103139
301.403146342688
301.403145564009
301.403145207802
301.403145032078
301.40314493844
301.40314488093
301.403144842977
301.403144824479
301.403144831199
301.40314491604
301.403145204869
301.4031459591
301.40314777807
301.403151941329
301.403161075843
301.403180490258
301.403220600145
301.403301038552
301.403457505988
301.403752711028
301.404293070807
301.405253803604
301.40691619774
301.409724804642
301.414378995898
301.421976747282
301.434194537871
301.45333477756
301.481731615652
301.519754152508
301.560948037843
301.082054755275
301.042095110273
301.008591869888
300.984445867568
300.968504106688
300.958490950306
300.952360703755
300.948663696743
300.946465972996
300.945183120698
300.94445106854
300.9440441153
300.943824234246
300.943708907162
300.943650230953
300.943621287455
300.943607456543
300.943601047167
300.943598161359
300.943596897703
300.943596353343
300.943596114483
300.943596002307
300.943595945289
300.943595911853
300.943595888898
300.943595874994
300.943595872655
300.943595918554
300.943596106448
300.943596627475
300.94359791912
300.943600927607
300.943607590303
300.943621842956
300.943651463654
300.94371121479
300.943828152929
300.944050251731
300.944459887684
300.945194620189
300.946479185404
300.94867644916
300.952371746413
300.958509518881
300.968575350192
300.98469390622
301.009244507465
301.043402935189
301.08377328311
300.715744882999
300.681048360997
300.65375066049
300.634728080052
300.622480029629
300.61495010246
300.610428164998
300.607746822061
300.606175281718
300.605268357374
300.60475546857
300.604472343994
300.604320197615
300.604240735044
300.604200444087
300.604180630045
300.604171191518
300.604166838026
300.604164894108
300.604164055211
300.604163703709
300.604163556757
300.604163491847
300.604163461044
300.604163444212
300.604163431801
300.604163422039
300.604163416461
300.604163436517
300.604163546633
300.604163877869
300.604164724694
300.604166732147
300.604171216066
300.604180859217
300.604200994873
300.604241800813
300.60432205474
300.604475327786
300.60475987862
300.60527428834
300.606182346905
300.607754110124
300.610436094552
300.614968550571
300.622550536989
300.634964212645
300.654373198915
300.682351479643
300.717716226427
300.452079173504
300.424584709198
300.404045750336
300.390168872876
300.381449517116
300.376201622469
300.373109899734
300.371307056287
300.370264951011
300.369670105246
300.369336506697
300.369153499477
300.369055602654
300.369004642793
300.368978867837
300.36896621907
300.368960207759
300.368957445765
300.368956221762
300.368955701194
300.368955489711
300.368955406528
300.368955372648
300.368955358266
300.368955351611
300.368955345912
300.368955339546
300.368955333944
300.368955339754
300.368955397987
300.368955593567
300.368956111994
300.368957363872
300.368960183277
300.368966274339
300.368979040525
300.369005004489
300.369056266329
300.369154615307
300.36933822538
300.369672496104
300.370267853599
300.371310112716
300.373114014279
300.376215351934
300.381507081066
300.39036516776
300.404575565068
300.425742348861
300.454001815144
300.273093481268
300.252950017476
300.238545952484
300.229087566971
300.223282974104
300.21986148762
300.217883553371
300.216749107856
300.216102217841
300.215736841251
300.215533529791
300.215422617619
300.215363514445
300.21533282701
300.215317332154
300.215309738646
300.215306135959
300.215304486151
300.215303760243
300.215303456072
300.215303336824
300.21530329356
300.215303277698
300.215303272277
300.215303271224
300.215303269424
300.215303265575
300.215303261218
300.215303261262
300.215303288843
300.215303396155
300.215303694847
300.215304430421
300.215306100762
300.215309723834
300.215317339501
300.215332869481
300.215363621293
300.215422836176
300.215533911794
300.215737400321
300.216102841363
300.216749589088
300.217884626137
300.219869486585
300.22332346277
300.229233532912
300.238955141661
300.253883227706
300.274755858243
300.158046715147
300.144275449385
300.134792647662
300.128727821912
300.125089160585
300.122987616442
300.1217951652
300.121122331336
300.120743771326
300.120532133502
300.120415236561
300.120351787089
300.120318085197
300.120300620121
300.120291811091
300.120287497453
300.120285453358
300.120284520071
300.1202841123
300.120283944018
300.120283880549
300.120283859696
300.120283854205
300.120283853612
300.120283854235
300.120283854043
300.120283851871
300.120283848676
300.120283846899
300.120283858585
300.120283913749
300.120284076697
300.120284486426
300.120285424677
300.120287467158
300.120291769827
300.120300559919
300.12031800213
300.120351683236
300.120415113208
300.120531963586
300.120743436366
300.121121625155
300.121794453694
300.122990998931
300.125114122778
300.128826386841
300.135082963356
300.144966891274
300.159351146827
300.087779809057
300.078932175618
300.073038064188
300.069359445894
300.067199707086
300.065976805983
300.065295511471
300.064917269297
300.064707261148
300.064591026626
300.064527276898
300.064492833817
300.064474588823
300.06446514693
300.064460387272
300.064458057248
300.064456954049
300.064456451744
300.064456233832
300.064456145345
300.064456113362
300.064456104874
300.064456104214
300.064456105005
300.064456105941
300.064456106049
300.064456104943
300.064456102719
300.064456100823
300.064456104997
300.064456131659
300.064456216255
300.064456433695
300.064456935888
300.064458032734
300.064460346883
300.064465079555
300.06447448285
300.064492677894
300.064527054544
300.064590694685
300.064706698934
300.064916256002
300.065294102894
300.065977335042
300.067213204809
300.0694204821
300.07322903575
300.079407648091
300.088722777856
300.046870579497
300.041498515999
300.038023168721
300.035902821291
300.034683415786
300.034006103951
300.033635493116
300.033433012084
300.033322063124
300.033261260938
300.033228140035
300.033210321216
300.033200904013
300.03319603507
300.033193580905
300.033192379388
300.033191810816
300.033191552624
300.033191441454
300.033191397136
300.033191382157
300.033191379272
300.033191379896
300.033191380966
300.033191381782
300.033191382008
300.033191381457
300.033191379995
300.033191378542
300.033191379615
300.033191391749
300.033191433701
300.033191544108
300.033191801314
300.033192364789
300.03319355473
300.033195989112
300.033200828654
300.033210205272
300.033227965864
300.033260986959
300.033321582672
300.033432117664
300.033634066523
300.034005300413
300.034689688054
300.035937700177
300.03814048329
300.041804307413
300.047505247512
300.024102112605
300.021005112159
300.019053294439
300.017887328204
300.017229845938
300.016871382713
300.016678669541
300.016575044322
300.016519005554
300.016488596226
300.016472141045
300.016463323339
300.016458672226
300.016456268759
300.016455056972
300.016454463448
300.016454182676
300.016454055514
300.016454001209
300.016453980006
300.016453973475
300.016453972799
300.016453973536
300.016453974417
300.016453975008
300.016453975223
300.016453974953
300.016453974053
300.016453973041
300.016453973094
300.016453978359
300.016453998261
300.0164540521
300.016454178611
300.016454456534
300.016455043664
300.016456244413
300.016458631132
300.016463258197
300.016472038867
300.01648842491
300.016518682498
300.016574399794
300.016677528542
300.016870222216
300.017232178668
300.017905781809
300.019120985377
300.02119019736
300.024502992398
300.011956208503
300.010254255325
300.009206474777
300.008592713243
300.008253021401
300.008071116067
300.007974997098
300.007924122005
300.007896969636
300.007882379891
300.007874536545
300.007870349308
300.007868144244
300.007867004989
300.007866430246
300.00786614854
300.007866015296
300.007865955114
300.007865929642
300.007865919974
300.007865917331
300.007865917324
300.007865917865
300.007865918462
300.007865918843
300.007865919
300.007865918868
300.00786591835
300.007865917714
300.007865917518
300.007865919686
300.007865928777
300.007865954075
300.00786601403
300.007866146063
300.007866424946
300.007866994738
300.007868126368
300.00787032005
300.007874488015
300.007882290554
300.007896782127
300.007923712693
300.007974203045
300.008070077718
300.008253521559
300.008601754766
300.009243333867
300.010360236377
300.01219532581
300.005730936427
300.004836294659
300.004296990426
300.003986785813
300.003818111733
300.003729335362
300.003683211271
300.00365917744
300.00364651871
300.003639783806
300.003636186601
300.003634273047
300.003633266711
300.003632746721
300.003632484153
300.003632355332
300.003632294402
300.003632266959
300.003632255455
300.003632251236
300.003632250229
300.003632250361
300.003632250717
300.003632251077
300.003632251301
300.003632251399
300.003632251336
300.003632251055
300.003632250689
300.003632250502
300.00363225135
300.00363225536
300.00363226685
300.003632294305
300.003632354895
300.003632482787
300.003632743675
300.003633261042
300.00363426322
300.003636168441
300.003639744283
300.003646421409
300.00365894049
300.003682710725
300.003728573214
300.003817931237
300.00399087242
300.004316003857
300.004893960191
300.005866313921
300.00265847923
300.002207295427
300.001940413359
300.001789480025
300.00170877077
300.001666991657
300.001645639625
300.001634684964
300.001628991024
300.001625991713
300.00162440009
300.001623556318
300.001623113078
300.001622883957
300.001622768125
300.001622711229
300.001622684314
300.001622672226
300.00162266721
300.001622665444
300.001622665087
300.001622665203
300.001622665412
300.001622665613
300.001622665735
300.00162266579
300.00162266576
300.001622665616
300.00162266542
300.001622665293
300.00162266561
300.001622667326
300.001622672384
300.001622684565
300.001622711493
300.001622768265
300.001622883828
300.001623112521
300.0016235549
300.00162439585
300.001625977389
300.001628945178
300.001634557523
300.001645347556
300.001666496407
300.001708442739
300.001791165675
300.001949733686
300.002237224334
300.002731537434
300.001195274627
300.000976386914
300.000849098505
300.000778232148
300.000740929875
300.000721924992
300.000712366425
300.000707536992
300.000705059895
300.000703768146
300.000703087103
300.000702727256
300.000702538398
300.000702440708
300.000702391249
300.000702366921
300.000702355409
300.000702350254
300.000702348137
300.000702347424
300.000702347309
300.000702347382
300.000702347495
300.000702347599
300.000702347662
300.000702347691
300.000702347677
300.000702347606
300.000702347507
300.000702347436
300.000702347549
300.000702348263
300.000702350427
300.000702355676
300.000702367294
300.000702391747
300.000702441391
300.00070253937
300.000702728516
300.000703087833
300.000703764565
300.000705040169
300.000707472507
300.000712206506
300.000721630385
300.000740650332
300.000778850781
300.000853450931
300.00099125291
300.001232993307
300.000521612934
300.000419214784
300.00036057459
300.000328398246
300.000311710318
300.00030333614
300.000299189156
300.000297125314
300.000296080708
300.00029554148
300.000295259035
300.000295110279
300.000295032263
300.00029499187
300.000294971385
300.000294961291
300.000294956513
300.000294954379
300.000294953511
300.000294953232
300.000294953198
300.000294953239
300.000294953296
300.000294953347
300.000294953377
300.000294953391
300.000294953385
300.000294953352
300.000294953305
300.000294953268
300.000294953307
300.000294953598
300.000294954501
300.000294956703
300.00029496158
300.000294971822
300.00029499255
300.000295033326
300.000295111839
300.000295260795
300.000295541581
300.000296072976
300.000297094332
300.000299106206
300.000303172711
300.000311521043
300.000328587275
300.00036251446
300.000426302309
300.000540301551
300.000221239606
300.000174947975
300.000148802364
300.000134647474
300.000127407291
300.000123826142
300.000122079082
300.000121222416
300.000120794529
300.000120575905
300.00012046214
300.000120402411
300.000120371101
300.000120354871
300.000120346623
300.00012034255
300.000120340621
300.00012033976
300.000120339414
300.000120339307
300.000120339298
300.000120339318
300.000120339344
300.000120339367
300.000120339381
300.000120339388
300.000120339385
300.00012033937
300.000120339349
300.000120339332
300.000120339346
300.000120339463
300.000120339831
300.000120340733
300.000120342729
300.000120346909
300.000120355338
300.000120371858
300.000120403563
300.0001204636
300.000120576804
300.0001207918
300.000121208175
300.000122038031
300.000123740601
300.000127294407
300.000134684578
300.000149628588
300.000178199729
300.000230150724
300.000091320382
300.000071057481
300.000059754899
300.000053711236
300.000050659698
300.000049170836
300.000048454883
300.000048108871
300.000047938309
300.000047852055
300.000047807466
300.000047784126
300.000047771894
300.000047765544
300.000047762309
300.000047760707
300.000047759946
300.000047759607
300.000047759471
300.000047759429
300.000047759427
300.000047759435
300.000047759447
300.000047759456
300.000047759462
300.000047759465
300.000047759464
300.000047759458
300.000047759449
300.000047759441
300.000047759447
300.000047759494
300.000047759642
300.000047760004
300.000047760802
300.000047762469
300.000047765814
300.000047772341
300.000047784822
300.000047808394
300.000047852827
300.000047937467
300.000048102567
300.000048435392
300.000049128247
300.000050597979
300.000053705112
300.000060091371
300.000072496504
300.000095419464
300.000036727333
300.000028124082
300.000023379049
300.000020870651
300.000019619304
300.000019016592
300.000018730734
300.000018594517
300.000018528241
300.000018495068
300.000018478031
300.000018469138
300.000018464477
300.000018462052
300.000018460812
300.000018460196
300.000018459901
300.000018459769
300.000018459716
300.000018459699
300.000018459697
300.0000184597
300.000018459704
300.000018459708
300.00001845971
300.000018459711
300.00001845971
300.000018459708
300.000018459705
300.000018459702
300.000018459705
300.000018459725
300.000018459784
300.000018459927
300.000018460241
300.000018460892
300.000018462191
300.000018464711
300.000018469509
300.000018478542
300.000018495551
300.000018528031
300.000018591812
300.000018721813
300.000018996299
300.000019587734
300.000020858082
300.00002351003
300.000028739608
300.000038550359
300.000014408765
300.00001085988
300.000008922449
300.00000790899
300.000007409044
300.000007171148
300.000007059789
300.000007007444
300.000006982299
300.000006969841
300.000006963483
300.000006960172
300.000006958436
300.000006957529
300.000006957062
300.000006956828
300.000006956715
300.000006956663
300.000006956641
300.000006956633
300.000006956631
300.000006956632
300.000006956632
300.000006956633
300.000006956634
300.000006956634
300.000006956634
300.000006956633
300.000006956632
300.000006956632
300.000006956634
300.000006956643
300.000006956667
300.000006956724
300.000006956846
300.000006957097
300.000006957592
300.000006958546
300.000006960351
300.000006963736
300.000006970098
300.000006982267
300.000007006311
300.000007055838
300.00000716185
300.00000739375
300.00000789951
300.00000897112
300.000011114838
300.000015194195
300.000005520206
300.000004095791
300.000003325386
300.000002926297
300.000002731458
300.000002639791
300.000002597412
300.00000257775
300.00000256842
300.000002563843
300.000002561521
300.000002560313
300.000002559677
300.000002559343
300.000002559169
300.00000255908
300.000002559035
300.000002559014
300.000002559004
300.000002558999
300.000002558997
300.000002558996
300.000002558995
300.000002558995
300.000002558994
300.000002558994
300.000002558994
300.000002558994
300.000002558994
300.000002558995
300.000002558997
300.000002559002
300.000002559013
300.000002559036
300.000002559084
300.00000255918
300.000002559367
300.000002559723
300.00000256039
300.000002561634
300.000002563964
300.000002568423
300.000002577282
300.00000259571
300.000002635678
300.000002724384
300.000002920698
300.000003342597
300.000004198232
300.000005848609
300.000002067459
300.000001510416
300.000001211721
300.000001058388
300.000000984248
300.000000949734
300.000000933961
300.000000926731
300.00000092334
300.000000921691
300.000000920857
300.000000920422
300.000000920192
300.000000920068
300.000000920002
300.000000919967
300.000000919948
300.000000919938
300.000000919932
300.000000919928
300.000000919926
300.000000919924
300.000000919923
300.000000919922
300.000000919922
300.000000919921
300.000000919921
300.000000919922
300.000000919922
300.000000919923
300.000000919925
300.000000919928
300.000000919934
300.000000919945
300.000000919965
300.000000920003
300.000000920074
300.000000920207
300.000000920451
300.000000920902
300.00000092174
300.000000923342
300.000000926538
300.000000933244
300.000000947969
300.000000981105
300.000001055471
300.00000121748
300.000001550404
300.000002200933
300.000000757785
300.000000545272
300.000000432252
300.000000374736
300.000000347177
300.000000334471
300.000000328725
300.000000326119
300.000000324908
300.000000324322
300.000000324025
300.000000323869
300.000000323783
300.000000323736
300.000000323709
300.000000323693
300.000000323684
300.000000323677
300.000000323673
300.00000032367
300.000000323667
300.000000323665
300.000000323664
300.000000323663
300.000000323662
300.000000323662
300.000000323662
300.000000323662
300.000000323663
300.000000323664
300.000000323666
300.000000323669
300.000000323673
300.000000323679
300.000000323689
300.000000323705
300.000000323734
300.000000323785
300.000000323875
300.000000324038
300.000000324337
300.000000324904
300.000000326036
300.000000328427
300.000000333733
300.000000345829
300.000000373336
300.000000434056
300.000000560459
300.000000810596
300.000000272172
300.000000192994
300.000000151241
300.000000130185
300.000000120184
300.000000115612
300.000000113562
300.000000112638
300.000000112211
300.000000112003
300.000000111896
300.000000111837
300.000000111803
300.000000111783
300.00000011177
300.000000111761
300.000000111754
300.000000111749
300.000000111746
300.000000111743
300.00000011174
300.000000111738
300.000000111737
300.000000111735
300.000000111735
300.000000111734
300.000000111734
300.000000111735
300.000000111736
300.000000111737
300.000000111739
300.000000111741
300.000000111745
300.000000111749
300.000000111755
300.000000111764
300.000000111777
300.000000111798
300.000000111834
300.000000111895
300.000000112002
300.000000112203
300.000000112599
300.000000113436
300.000000115309
300.000000119622
300.000000129552
300.00000015176
300.000000198614
300.000000292541
300.000000095983
300.000000067148
300.000000052102
300.000000044599
300.000000041069
300.000000039466
300.00000003875
300.000000038426
300.000000038274
300.000000038198
300.000000038156
300.000000038132
300.000000038116
300.000000038104
300.000000038096
300.00000003809
300.000000038084
300.00000003808
300.000000038077
300.000000038074
300.000000038071
300.000000038069
300.000000038068
300.000000038066
300.000000038066
300.000000038065
300.000000038065
300.000000038066
300.000000038067
300.000000038068
300.00000003807
300.000000038072
300.000000038075
300.000000038079
300.000000038083
300.000000038089
300.000000038097
300.000000038109
300.000000038125
300.00000003815
300.000000038192
300.000000038264
300.000000038404
300.000000038694
300.000000039341
300.00000004084
300.000000044326
300.000000052233
300.000000069177
300.000000103651
300.000000033375
300.000000023107
300.000000017842
300.000000015267
300.000000014072
300.00000001353
300.000000013285
300.000000013171
300.000000013114
300.000000013083
300.000000013063
300.00000001305
300.00000001304
300.000000013032
300.000000013025
300.00000001302
300.000000013015
300.000000013011
300.000000013007
300.000000013004
300.000000013002
300.000000013
300.000000012998
300.000000012997
300.000000012997
300.000000012996
300.000000012996
300.000000012997
300.000000012998
300.000000012999
300.000000013001
300.000000013003
300.000000013006
300.000000013009
300.000000013014
300.000000013019
300.000000013025
300.000000013032
300.000000013042
300.000000013055
300.000000013074
300.000000013103
300.000000013155
300.000000013257
300.000000013476
300.000000013978
300.000000015155
300.000000017869
300.000000023824
300.000000036196
300.000000011567
300.000000007996
300.000000006237
300.000000005415
300.000000005044
300.000000004873
300.000000004792
300.000000004749
300.000000004725
300.000000004708
300.000000004696
300.000000004687
300.000000004679
300.000000004672
300.000000004666
300.00000000466
300.000000004656
300.000000004652
300.000000004649
300.000000004646
300.000000004643
300.000000004641
300.00000000464
300.000000004639
300.000000004638
300.000000004638
300.000000004638
300.000000004638
300.000000004639
300.00000000464
300.000000004642
300.000000004644
300.000000004647
300.00000000465
300.000000004654
300.000000004659
300.000000004664
300.000000004671
300.000000004678
300.000000004687
300.000000004699
300.000000004714
300.000000004737
300.000000004774
300.000000004847
300.000000005005
300.00000000537
300.00000000624
300.000000008245
300.000000012582
300.000000004117
300.00000000291
300.00000000238
300.00000000217
300.000000002083
300.00000000204
300.000000002014
300.000000001995
300.000000001981
300.00000000197
300.00000000196
300.000000001951
300.000000001944
300.000000001938
300.000000001932
300.000000001927
300.000000001922
300.000000001918
300.000000001915
300.000000001912
300.00000000191
300.000000001908
300.000000001906
300.000000001905
300.000000001905
300.000000001904
300.000000001904
300.000000001905
300.000000001906
300.000000001907
300.000000001909
300.000000001911
300.000000001914
300.000000001917
300.000000001921
300.000000001925
300.00000000193
300.000000001936
300.000000001943
300.000000001951
300.00000000196
300.00000000197
300.000000001984
300.000000002001
300.000000002025
300.000000002066
300.000000002152
300.000000002381
300.000000002996
300.000000004475
300.00000000162
300.000000001231
300.000000001124
300.000000001122
300.000000001131
300.00000000113
300.000000001122
300.000000001111
300.0000000011
300.00000000109
300.000000001081
300.000000001073
300.000000001066
300.000000001059
300.000000001054
300.000000001049
300.000000001044
300.00000000104
300.000000001037
300.000000001034
300.000000001032
300.00000000103
300.000000001029
300.000000001028
300.000000001027
300.000000001027
300.000000001027
300.000000001027
300.000000001028
300.00000000103
300.000000001031
300.000000001033
300.000000001036
300.000000001039
300.000000001043
300.000000001047
300.000000001052
300.000000001058
300.000000001064
300.000000001072
300.00000000108
300.00000000109
300.0000000011
300.00000000111
300.000000001119
300.000000001122
300.000000001115
300.000000001126
300.000000001262
300.000000001744
300.0000000008
300.000000000689
300.000000000724
300.000000000791
300.000000000831
300.000000000844
300.00000000084
300.000000000831
300.000000000821
300.000000000811
300.000000000803
300.000000000795
300.000000000787
300.000000000781
300.000000000776
300.000000000771
300.000000000767
300.000000000763
300.00000000076
300.000000000757
300.000000000755
300.000000000753
300.000000000752
300.000000000751
300.00000000075
300.00000000075
300.00000000075
300.00000000075
300.000000000751
300.000000000752
300.000000000754
300.000000000756
300.000000000759
300.000000000762
300.000000000765
300.00000000077
300.000000000774
300.00000000078
300.000000000787
300.000000000794
300.000000000802
300.000000000811
300.000000000821
300.00000000083
300.000000000834
300.000000000825
300.000000000788
300.000000000727
300.000000000702
300.000000000842
300.000000000538
300.000000000521
300.000000000601
300.00000000069
300.000000000739
300.000000000755
300.000000000753
300.000000000744
300.000000000734
300.000000000724
300.000000000715
300.000000000707
300.0000000007
300.000000000694
300.000000000688
300.000000000684
300.000000000679
300.000000000676
300.000000000673
300.00000000067
300.000000000668
300.000000000666
300.000000000665
300.000000000664
300.000000000663
300.000000000663
300.000000000663
300.000000000664
300.000000000665
300.000000000666
300.000000000667
300.000000000669
300.000000000672
300.000000000675
300.000000000678
300.000000000683
300.000000000687
300.000000000693
300.000000000699
300.000000000707
300.000000000715
300.000000000724
300.000000000734
300.000000000743
300.000000000746
300.000000000734
300.000000000689
300.000000000605
300.000000000527
300.000000000553
300.00000000046
300.000000000473
300.000000000568
300.000000000661
300.000000000713
300.000000000728
300.000000000725
300.000000000716
300.000000000706
300.000000000696
300.000000000687
300.000000000679
300.000000000672
300.000000000666
300.00000000066
300.000000000656
300.000000000652
300.000000000648
300.000000000645
300.000000000643
300.000000000641
300.000000000639
300.000000000638
300.000000000637
300.000000000636
300.000000000636
300.000000000636
300.000000000637
300.000000000637
300.000000000639
300.00000000064
300.000000000642
300.000000000644
300.000000000647
300.000000000651
300.000000000655
300.00000000066
300.000000000665
300.000000000671
300.000000000679
300.000000000687
300.000000000696
300.000000000706
300.000000000716
300.00000000072
300.000000000708
300.000000000662
300.000000000572
300.000000000477
300.000000000466
300.000000000442
300.000000000464
300.000000000562
300.000000000656
300.000000000706
300.00000000072
300.000000000716
300.000000000707
300.000000000696
300.000000000685
300.000000000676
300.000000000668
300.000000000662
300.000000000656
300.00000000065
300.000000000646
300.000000000642
300.000000000639
300.000000000636
300.000000000634
300.000000000632
300.00000000063
300.000000000629
300.000000000628
300.000000000627
300.000000000627
300.000000000627
300.000000000628
300.000000000628
300.000000000629
300.000000000631
300.000000000633
300.000000000635
300.000000000638
300.000000000641
300.000000000645
300.00000000065