/*--------------------------------*- C++ -*----------------------------------*\
  =========                 |
  \\      /  F ield         | OpenFOAM: The Open Source CFD Toolbox
   \\    /   O peration     | Website:  https://openfoam.org
    \\  /    A nd           | Version:  10
     \\/     M anipulation  |
\*---------------------------------------------------------------------------*/
FoamFile
{
    format      ascii;
    class       volVectorField;
    location    "9.8";
    object      U;
}
// * * * * * * * * * * * * * * * * * * * * * * * * * * * * * * * * * * * * * //

dimensions      [0 1 -1 0 0 0 0];

internalField   nonuniform List<vector> 
2500
(
(-1.05763520073911e-06 -9.98700991688377e-07 1.10113650332503e-25)
(-3.01671611420428e-06 -1.4147431878245e-06 1.73335666816902e-24)
(-3.63378564261447e-06 -1.60207409706682e-06 1.10091714796705e-25)
(-3.29040729110985e-06 -1.70793018803841e-06 -1.68940542078169e-25)
(-2.56049872331322e-06 -1.73535145152537e-06 -7.05890729696381e-25)
(-1.86405116377739e-06 -1.72955942374201e-06 -6.97937017962948e-25)
(-1.30907000894719e-06 -1.71339270309283e-06 -3.22873360669701e-25)
(-9.09136281222117e-07 -1.69785119602662e-06 -3.04596600289489e-25)
(-6.28886910547639e-07 -1.68512181383993e-06 -4.36337347144296e-25)
(-4.36572680454557e-07 -1.67557716738653e-06 1.79764705117644e-24)
(-3.04722154268784e-07 -1.66865879614649e-06 1.08165398511842e-24)
(-2.14302931116622e-07 -1.66383455509996e-06 2.54387946381474e-24)
(-1.51721756723211e-07 -1.66055975736503e-06 2.18303828762918e-24)
(-1.07855227412981e-07 -1.65840666146597e-06 8.84384051473554e-25)
(-7.6539302902252e-08 -1.65700781837727e-06 1.87313002119041e-24)
(-5.3699388650823e-08 -1.65612490870673e-06 5.61543959418474e-25)
(-3.66591067901661e-08 -1.65556493183726e-06 2.40469517552461e-24)
(-2.36446048694419e-08 -1.65521151267448e-06 1.93514651678961e-24)
(-1.34735961768771e-08 -1.65498855644351e-06 3.14718456037477e-25)
(-5.34432937555194e-09 -1.65484348602237e-06 1.39188441162076e-24)
(1.30306654619268e-09 -1.65474555395087e-06 -8.72852600336976e-26)
(6.8630344874948e-09 -1.65468927832835e-06 -2.07061300103828e-25)
(1.16403782899469e-08 -1.65464919381474e-06 1.96485456894147e-24)
(1.58799655409692e-08 -1.65462871382182e-06 1.5959503664396e-25)
(1.9773560681944e-08 -1.65463029523597e-06 -1.40295103445273e-25)
(2.35020635367021e-08 -1.6546352794141e-06 2.38044241761513e-24)
(2.72411709382303e-08 -1.6546578822055e-06 1.26768263129136e-25)
(3.11673258306395e-08 -1.65468989743101e-06 6.99516201192908e-25)
(3.54817542017956e-08 -1.65474277733907e-06 2.37451778310279e-24)
(4.04235572864869e-08 -1.65481425810423e-06 -7.99849029257685e-26)
(4.62946547327362e-08 -1.65492434061692e-06 1.27085053074782e-25)
(5.34906242142018e-08 -1.65509279719635e-06 -9.93748427226277e-26)
(6.25693049472777e-08 -1.65533623720133e-06 5.79729060059146e-25)
(7.43337304971686e-08 -1.65571459003191e-06 5.75572159006696e-25)
(8.99641975705228e-08 -1.65629813906054e-06 -1.53930906061255e-26)
(1.1124196390123e-07 -1.65720953215606e-06 1.95358046482729e-24)
(1.40854553572332e-07 -1.65862721634266e-06 -1.86824019456183e-24)
(1.82875135379694e-07 -1.66080073903028e-06 -1.82056733765514e-25)
(2.4345228708473e-07 -1.66407740111939e-06 1.82460185424998e-26)
(3.31696215185856e-07 -1.66889003911157e-06 -1.00600090111951e-24)
(4.61193688087756e-07 -1.67577860356897e-06 -3.1955094163092e-24)
(6.5103111325527e-07 -1.68528600332222e-06 -3.59419909873923e-24)
(9.2888803440688e-07 -1.69804204593286e-06 -1.74166959802607e-24)
(1.32729576301092e-06 -1.71375421759358e-06 -3.88730042009167e-24)
(1.88322082269858e-06 -1.73039309667705e-06 -3.38804987197911e-24)
(2.58585050595739e-06 -1.73693489639594e-06 -1.82633130893742e-24)
(3.32743713117592e-06 -1.709767317903e-06 -3.36911758557323e-24)
(3.68065904467322e-06 -1.60206932328229e-06 -2.96363814120146e-24)
(3.04719187263688e-06 -1.41080775476672e-06 -1.33390640467853e-24)
(1.06022136575237e-06 -9.98047220295233e-07 -1.75407251421833e-24)
(-1.60996329914594e-06 -8.37273039480786e-07 -1.24758388700771e-25)
(-5.53851576759354e-06 -1.84110854658877e-06 -1.51291476104985e-25)
(-6.87877909356665e-06 -2.99482107257967e-06 -1.79204677953529e-25)
(-6.37760045804801e-06 -3.67786918521654e-06 -5.34729285276289e-25)
(-5.06277837751986e-06 -3.85673352866679e-06 -2.19578708172906e-24)
(-3.75108031378616e-06 -3.78566060290808e-06 -2.04266307002709e-24)
(-2.67829598787127e-06 -3.64546019127278e-06 -8.92106897053907e-25)
(-1.89034846228586e-06 -3.51412162008434e-06 -8.83685446832401e-25)
(-1.33040977619827e-06 -3.41191509344995e-06 -1.73155699955918e-24)
(-9.40911628472568e-07 -3.33809906363813e-06 -1.5616740568352e-25)
(-6.70079209328399e-07 -3.28663214915452e-06 2.06119289966313e-24)
(-4.81173109390679e-07 -3.25148295000627e-06 2.10293090601516e-24)
(-3.47826927726057e-07 -3.22779228317181e-06 1.04963088572691e-24)
(-2.52218256863541e-07 -3.21195212004644e-06 1.47927392480061e-24)
(-1.82292351210378e-07 -3.20137541699102e-06 5.04058509148962e-25)
(-1.30024053568528e-07 -3.19428434748176e-06 5.33316011413125e-25)
(-9.00711441579333e-08 -3.18947805942563e-06 1.20465026587881e-24)
(-5.88596511334866e-08 -3.18616942680373e-06 2.12281293648458e-25)
(-3.39619230979016e-08 -3.18386106237696e-06 -9.41159216159987e-26)
(-1.36923402147398e-08 -3.18221317530468e-06 -4.95772914583108e-25)
(3.14398990783226e-09 -3.18103213979699e-06 -7.4628113632099e-25)
(1.74280389243747e-08 -3.18018916866362e-06 -1.22255677481423e-24)
(2.98487551643359e-08 -3.17959917186735e-06 6.2995331405385e-25)
(4.09565467513431e-08 -3.17921386408182e-06 -1.42543062109775e-25)
(5.12247744746077e-08 -3.17901277555131e-06 -1.09224479277759e-24)
(6.10750878631519e-08 -3.17896724629292e-06 4.80605606872144e-25)
(7.09224328841152e-08 -3.17909400961823e-06 -3.04059364353605e-25)
(8.11924137466045e-08 -3.1793981910083e-06 1.48710431921778e-24)
(9.23537274420468e-08 -3.17990309106307e-06 1.08528354450661e-24)
(1.04956915752107e-07 -3.18066323872261e-06 -7.73712253983986e-25)
(1.19674337626853e-07 -3.18177106067826e-06 4.0883693012138e-25)
(1.37395763051062e-07 -3.18334390558754e-06 -3.4392889489373e-25)
(1.59311580892245e-07 -3.1855880521026e-06 1.66867124377492e-24)
(1.87097104251756e-07 -3.18883253281119e-06 1.58857509657882e-24)
(2.23184789520025e-07 -3.1935783829394e-06 -5.48306125608579e-25)
(2.71160444720191e-07 -3.20062208590026e-06 3.46232859326916e-25)
(3.36376392374872e-07 -3.21114798520221e-06 -8.59223174686698e-25)
(4.26862991321105e-07 -3.22693581701276e-06 -1.60344951431901e-26)
(5.54669319132814e-07 -3.25053879602596e-06 3.13842404076122e-25)
(7.37610749663792e-07 -3.28557409467231e-06 -2.07223093865164e-24)
(1.00207056827482e-06 -3.33691806067009e-06 -3.24512131822218e-24)
(1.38493910231376e-06 -3.4107148611606e-06 -3.44947513855384e-24)
(1.93849076979928e-06 -3.5133665834617e-06 -3.69116180063532e-24)
(2.72186143089087e-06 -3.64629244620041e-06 -3.70522010096509e-24)
(3.79507146988834e-06 -3.7901539773807e-06 -3.8846947198692e-24)
(5.11752973277187e-06 -3.86650279691546e-06 -3.66801380238489e-24)
(6.45439952941783e-06 -3.68928013085844e-06 -3.74511664172019e-24)
(6.97569988525924e-06 -2.99336911439456e-06 -3.39525745360159e-24)
(5.60852091322669e-06 -1.81673532063576e-06 -2.54285697346193e-24)
(1.62013850585866e-06 -8.20779584364241e-07 -1.46848295250341e-24)
(-1.27239615197582e-06 1.41023174671178e-06 -4.29378370322571e-25)
(-5.56985029205823e-06 1.40147136295517e-07 -2.07963076941832e-24)
(-7.1093132981867e-06 -2.13978782324611e-06 -5.08792425427067e-25)
(-6.77133852523267e-06 -3.51042178077879e-06 -6.73275892581277e-25)
(-5.50396343224208e-06 -3.88364672318275e-06 -2.8366287736266e-24)
(-4.1760094485674e-06 -3.738335106473e-06 -3.22824894171943e-24)
(-3.05371423568374e-06 -3.44603935133786e-06 -1.17218677416839e-24)
(-2.20899022455065e-06 -3.16960612788459e-06 -1.20869374688815e-24)
(-1.59508360039426e-06 -2.95450460213036e-06 -3.15615293339125e-24)
(-1.15847066265943e-06 -2.7996082606913e-06 -2.14627661258937e-24)
(-8.47639436648445e-07 -2.69204507032644e-06 2.5712190073155e-24)
(-6.25220951074268e-07 -2.61867592261368e-06 9.10230284028543e-25)
(-4.63882273926412e-07 -2.56905648170517e-06 -9.82185683493223e-25)
(-3.44910549228612e-07 -2.53556378007574e-06 1.74439848277525e-24)
(-2.55461274855168e-07 -2.51287360774501e-06 -1.41348322905174e-24)
(-1.86833531021207e-07 -2.4973346090612e-06 3.94504464777768e-26)
(-1.33115474542298e-07 -2.48654825263893e-06 -1.65066653371162e-25)
(-9.02505263299642e-08 -2.47892480505631e-06 -1.95420299544196e-24)
(-5.54112617955442e-08 -2.47345043533602e-06 -7.86206601333186e-25)
(-2.65798675079239e-08 -2.46946570554198e-06 -2.5957616164686e-24)
(-2.28085432394349e-09 -2.46654821362439e-06 -1.34983829823714e-24)
(1.86043952695507e-08 -2.46441741767686e-06 -2.49994428909215e-24)
(3.69647640495652e-08 -2.46291027973468e-06 -6.85037779286593e-25)
(5.35360523232522e-08 -2.46189863676295e-06 -5.54023221777471e-25)
(6.89496464540055e-08 -2.46133724685651e-06 -2.33711452545621e-24)
(8.37815619156393e-08 -2.46119008521652e-06 -9.59967729183911e-25)
(9.85970446246349e-08 -2.46145793554558e-06 -1.24063829418291e-24)
(1.13982458552257e-07 -2.4621711907472e-06 2.11658390921923e-24)
(1.30563096394622e-07 -2.46339462531056e-06 4.14591245028239e-26)
(1.49059916218589e-07 -2.46523287467694e-06 -1.85011018049889e-24)
(1.70360100949458e-07 -2.46787061392558e-06 9.80359162326313e-25)
(1.95578742861825e-07 -2.47156866558866e-06 -9.48376457780703e-25)
(2.26179932978051e-07 -2.47675672548251e-06 2.72912693339095e-24)
(2.64176789551003e-07 -2.48410385344175e-06 2.55758791531632e-24)
(3.12389406623699e-07 -2.49462927550433e-06 -1.48703203314526e-24)
(3.74884337361174e-07 -2.50992264757144e-06 -6.37696772916251e-25)
(4.57583223874468e-07 -2.53238356993986e-06 1.24774690245663e-25)
(5.69198007810643e-07 -2.56564312366214e-06 3.00255983322151e-25)
(7.2258346576414e-07 -2.61501403582716e-06 9.86483244378135e-25)
(9.36474704408509e-07 -2.68814286155504e-06 -3.41915642401577e-24)
(1.2382527592472e-06 -2.79551212307449e-06 -2.61194232901517e-24)
(1.66552456150765e-06 -2.95051651041092e-06 -2.73804149559697e-24)
(2.27039706186921e-06 -3.16671174404713e-06 -4.8307619796843e-24)
(3.10810865657386e-06 -3.44663618113296e-06 -2.95399275374202e-24)
(4.22888740531517e-06 -3.74666918943748e-06 -3.27111308524539e-24)
(5.56674914799701e-06 -3.90308282348927e-06 -5.16653770159442e-24)
(6.85759952716157e-06 -3.53393894713228e-06 -3.09077773495298e-24)
(7.22052836598333e-06 -2.13851066928406e-06 -2.77594321225568e-24)
(5.66100761958885e-06 1.88410886394956e-07 -4.20312693748837e-24)
(1.29240582637773e-06 1.45494448529291e-06 -1.0773024789321e-24)
(-7.22541371660405e-07 3.63823364679174e-06 -4.98872438102055e-25)
(-4.18362878781862e-06 2.46370193672572e-06 -2.55327753267013e-24)
(-5.57843011787967e-06 -7.95143057933897e-07 -5.04076472031857e-25)
(-5.54909457522723e-06 -2.80937503182363e-06 -3.98223322516521e-25)
(-4.68804333504476e-06 -3.41075665606342e-06 -1.44922621686062e-24)
(-3.69844899172702e-06 -3.24287262772124e-06 -2.12147156220341e-24)
(-2.81070102297243e-06 -2.84330864187437e-06 -9.30410272719509e-25)
(-2.11270241229008e-06 -2.45285380065149e-06 -1.00691993736635e-24)
(-1.58427212359473e-06 -2.14454403642248e-06 -2.41847589019113e-24)
(-1.19362104647681e-06 -1.92023137432485e-06 -2.47136208116104e-24)
(-9.04537534624441e-07 -1.76312959529987e-06 1.51108105065494e-24)
(-6.89596437902759e-07 -1.65489601308363e-06 -9.10600111632666e-25)
(-5.27763157160375e-07 -1.5808210852005e-06 -1.7809896348112e-24)
(-4.04170182010669e-07 -1.5300743770499e-06 7.34327959496607e-25)
(-3.0823583809148e-07 -1.49508177944637e-06 -1.99356477446932e-24)
(-2.32537518273638e-07 -1.47066384411683e-06 -2.39450093366608e-25)
(-1.71831570176426e-07 -1.45336740061044e-06 -1.36678568068462e-24)
(-1.22370234479202e-07 -1.44090880097171e-06 -2.39348076654231e-24)
(-8.14522007956087e-08 -1.4317907237398e-06 -8.89697529466382e-25)
(-4.70616696241402e-08 -1.42505247280708e-06 -2.94070250246435e-24)
(-1.76710905593354e-08 -1.42003965428444e-06 -1.2497567506232e-24)
(7.90206252855203e-09 -1.41635565785453e-06 -1.81739234721204e-24)
(3.06352955179238e-08 -1.41370916301326e-06 -1.62246615688737e-24)
(5.1341482695204e-08 -1.41193467635953e-06 -5.65149486936974e-25)
(7.0734999423392e-08 -1.41092882312459e-06 -1.63630789424156e-24)
(8.94812301242071e-08 -1.41064888275492e-06 -1.83782701611904e-24)
(1.0822512929403e-07 -1.41108681836996e-06 -8.03030600628361e-25)
(1.27627943178193e-07 -1.41229211552841e-06 1.21714375035328e-24)
(1.48404615383439e-07 -1.41437641480785e-06 -1.08873986142729e-24)
(1.71361527511653e-07 -1.41750454672212e-06 -1.37006333849699e-24)
(1.97453685022076e-07 -1.42194017491239e-06 3.23383880827067e-25)
(2.27875177034243e-07 -1.42811430217497e-06 -4.96900669016666e-25)
(2.64128678699373e-07 -1.43666067818754e-06 1.87036988834414e-24)
(3.08215165309531e-07 -1.44855432151193e-06 1.75370103407334e-24)
(3.62842452159121e-07 -1.46531581318201e-06 -1.02264543553991e-24)
(4.31751251971598e-07 -1.48920832252794e-06 -1.44036691108597e-24)
(5.20187463315062e-07 -1.52370492019931e-06 1.13340764507655e-24)
(6.35586601043617e-07 -1.57395406138219e-06 3.94923996192657e-25)
(7.88543432418747e-07 -1.64753858409042e-06 3.08110641309697e-25)
(9.93981519560351e-07 -1.75532319221555e-06 -2.88888677998978e-24)
(1.27300691364135e-06 -1.912134461183e-06 -1.04945675613376e-24)
(1.6532889432113e-06 -2.13667227195062e-06 -8.38903210813535e-25)
(2.17157974317462e-06 -2.44674453998932e-06 -3.81812355821087e-24)
(2.86111013079013e-06 -2.84258560956506e-06 -1.32129417702976e-24)
(3.74499524342989e-06 -3.25394381185428e-06 -1.6943506144398e-24)
(4.74069686133741e-06 -3.43903042110385e-06 -4.33677040729522e-24)
(5.62125495312556e-06 -2.84566427926969e-06 -1.5301533498363e-24)
(5.67585431280058e-06 -7.98152850728159e-07 -1.21119187021854e-24)
(4.27544137802334e-06 2.5308758770646e-06 -3.57264839112601e-24)
(7.49736740744038e-07 3.71152991586947e-06 -9.58985850064883e-26)
(-1.8901259830027e-07 5.34210469784243e-06 -2.88157428358743e-25)
(-2.29683071178469e-06 4.47980760824903e-06 -1.52614348955358e-24)
(-3.3815669774702e-06 5.95810977236234e-07 -1.51627661263777e-25)
(-3.67213590889209e-06 -1.90371210552108e-06 1.41813577005957e-26)
(-3.3372821623981e-06 -2.73580120589652e-06 -2.63463615351731e-25)
(-2.8178808916025e-06 -2.61376756287363e-06 -1.22220087472432e-24)
(-2.27818530493453e-06 -2.18068564106838e-06 -5.03088803640832e-25)
(-1.81224286602053e-06 -1.73397457458254e-06 -5.67971191018244e-25)
(-1.43039803458211e-06 -1.37202778817397e-06 -1.56944603358171e-24)
(-1.12836072678948e-06 -1.10361400358885e-06 -1.34397525103453e-24)
(-8.90805658679566e-07 -9.12453238156383e-07 1.27617030144614e-24)
(-7.04337705564272e-07 -7.78513236835145e-07 1.2045168163388e-25)
(-5.57076772136632e-07 -6.8519718454978e-07 -7.72134766392757e-25)
(-4.39877926930655e-07 -6.2003856991507e-07 6.42163165623729e-25)
(-3.45690505717185e-07 -5.74205962217792e-07 -9.40657339865194e-25)
(-2.6919070972518e-07 -5.41589985557884e-07 4.38442332191488e-26)
(-2.06359468557304e-07 -5.18039653661677e-07 -4.26588439350753e-25)
(-1.54139965472789e-07 -5.00780536829815e-07 -1.08102064350122e-24)
(-1.10210566365718e-07 -4.87973747086647e-07 -3.33663290670979e-25)
(-7.27496813430953e-08 -4.78371047191682e-07 -1.45241184398972e-24)
(-4.03267259234771e-08 -4.71172703748476e-07 -6.49945710007981e-25)
(-1.17837631930813e-08 -4.65827492696106e-07 -1.05675380127183e-24)
(1.38537313146897e-08 -4.61971902483486e-07 -7.34301641142296e-25)
(3.74145880065415e-08 -4.59378573980148e-07 -2.00013365942881e-25)
(5.9642050954752e-08 -4.57902744880766e-07 -9.13675631494593e-25)
(8.12270657680532e-08 -4.57485345867477e-07 -8.99368381955529e-25)
(1.02849248959209e-07 -4.58120511417862e-07 -4.74142373970978e-25)
(1.25198002922819e-07 -4.59875496070773e-07 8.85934645389609e-25)
(1.49010916294926e-07 -4.62886499069831e-07 -5.22805193607724e-25)
(1.75116021033237e-07 -4.67394810055172e-07 -9.42579359554364e-25)
(2.04465915982827e-07 -4.7374203471022e-07 1.59667116834766e-25)
(2.38208068331041e-07 -4.8248310890529e-07 -4.75282373011873e-25)
(2.77769608465545e-07 -4.94441329326228e-07 1.24139445589327e-24)
(3.24945053274092e-07 -5.1083634131425e-07 1.2023115464122e-24)
(3.82057642049372e-07 -5.33545083640116e-07 -7.32307154708723e-25)
(4.52149816201921e-07 -5.65344423781344e-07 -7.88599515816197e-25)
(5.39231968173151e-07 -6.10372391559245e-07 5.5470511166717e-25)
(6.48638474040671e-07 -6.74741245714386e-07 2.38345023981833e-25)
(7.87428095809966e-07 -7.67294008595285e-07 3.4378975427512e-26)
(9.64792890275561e-07 -9.00547206382068e-07 -2.96882851107296e-24)
(1.1926803421046e-06 -1.09127355420045e-06 -1.12781091882814e-24)
(1.48469432732516e-06 -1.35996800856197e-06 -1.14854349051841e-24)
(1.85650314599699e-06 -1.72418529231594e-06 -3.57467640789253e-24)
(2.31335595945713e-06 -2.17776558687347e-06 -1.29999819787565e-24)
(2.84694056030209e-06 -2.62592096871531e-06 -1.58768905224913e-24)
(3.36742565307009e-06 -2.77053205836098e-06 -4.12692461269127e-24)
(3.71493506790036e-06 -1.95134981650095e-06 -1.47416544895274e-24)
(3.44619605949273e-06 5.84766309049935e-07 -1.23772470852107e-24)
(2.37041109900403e-06 4.55716286178242e-06 -3.65939725865017e-24)
(2.17037481307938e-07 5.43855958468709e-06 -4.44544555572762e-25)
(2.11451345783785e-07 6.35995532837211e-06 -4.64761004044979e-26)
(-5.40562764765136e-07 5.90897086183429e-06 -1.25472087558342e-24)
(-1.28126667372113e-06 1.79289374465444e-06 2.14694738375497e-25)
(-1.81445956161547e-06 -9.92068842399356e-07 2.40322723714808e-25)
(-1.95513065288285e-06 -2.02330885068133e-06 -4.23331538587712e-25)
(-1.87880353973179e-06 -1.99599285952606e-06 -8.87150526008005e-25)
(-1.6797212271176e-06 -1.59315364434957e-06 -1.17191090820022e-25)
(-1.44842357943928e-06 -1.14386380301043e-06 -1.37154559014094e-25)
(-1.22036102205633e-06 -7.66637430115347e-07 -1.03497127191468e-24)
(-1.01544648559532e-06 -4.7961013817772e-07 -8.31641621023182e-25)
(-8.37847750119634e-07 -2.70616245588878e-07 1.44655035587629e-24)
(-6.87534362156824e-07 -1.21043436242842e-07 5.86788538020927e-25)
(-5.61567663430457e-07 -1.46000745565344e-08 -3.14561039896867e-25)
(-4.56515698996175e-07 6.13097339687028e-08 1.04349857773563e-24)
(-3.68920968594126e-07 1.15833376088011e-07 -5.2648208298637e-25)
(-2.95670335951189e-07 1.55414128124064e-07 4.08308070217223e-25)
(-2.34090015423249e-07 1.84518991095332e-07 2.79023079042799e-25)
(-1.81941609745071e-07 2.06185661888129e-07 -3.6165127864061e-25)
(-1.37375273178111e-07 2.22483759003748e-07 2.63920996206636e-25)
(-9.88582336748251e-08 2.34827888835159e-07 -6.69926580181075e-25)
(-6.51236924239021e-08 2.44158721942888e-07 -3.29158902718263e-26)
(-3.51059176727002e-08 2.51135445353954e-07 -5.77770326509215e-25)
(-7.88780145948309e-09 2.56182367689191e-07 -7.00197632791561e-26)
(1.73347390212702e-08 2.59586029445362e-07 1.99862255451516e-25)
(4.1288326802902e-08 2.6151479480271e-07 -6.31467682453247e-25)
(6.46594683582978e-08 2.62048056713776e-07 -2.24859134935132e-25)
(8.81197423156638e-08 2.61190780802263e-07 -4.02397316988552e-25)
(1.12350630790948e-07 2.58860632112416e-07 1.01147623719121e-24)
(1.38073477679029e-07 2.54888582168757e-07 -1.51792952175766e-25)
(1.66089602926801e-07 2.48997653542089e-07 -7.83227602424633e-25)
(1.97297447447151e-07 2.40745885236668e-07 3.52148169667451e-25)
(2.32748089847682e-07 2.29502613642063e-07 -7.60607734978367e-25)
(2.73700672385583e-07 2.14310800817346e-07 9.78546820350007e-25)
(3.21668478832919e-07 1.93757118517576e-07 9.99291998749742e-25)
(3.78481968813478e-07 1.65769083245131e-07 -7.218688269603e-25)
(4.46372151063109e-07 1.27278902027796e-07 -4.35159577918953e-25)
(5.27990359941801e-07 7.3840035157964e-08 2.40425600119021e-25)
(6.26438616108854e-07 -1.00508453221515e-09 8.74558591377221e-26)
(7.45178769753717e-07 -1.06418427742341e-07 3.19124408466661e-25)
(8.8767169248745e-07 -2.55066316001838e-07 -2.09142160071159e-24)
(1.05688140475712e-06 -4.63439134177738e-07 -8.68298031385162e-25)
(1.25293900198553e-06 -7.50685848989474e-07 -8.93039171395547e-25)
(1.47179497633824e-06 -1.13039097004665e-06 -2.43372182832765e-24)
(1.69395880934034e-06 -1.58734895547729e-06 -9.59564276433858e-25)
(1.88504876533457e-06 -2.00732399259662e-06 -1.08232533231594e-24)
(1.95743861683349e-06 -2.06120467787034e-06 -2.77268432200215e-24)
(1.82166498386854e-06 -1.04783618083435e-06 -9.97927652001361e-25)
(1.30436569832127e-06 1.7722547822325e-06 -8.84030502136217e-25)
(5.83167137107351e-07 5.98755388936015e-06 -2.72531839140523e-24)
(-1.89084074203007e-07 6.47071283631909e-06 -3.01504893009618e-25)
(4.46484996778495e-07 6.68884191465485e-06 1.9772473880181e-25)
(7.57490252873929e-07 6.64802673445706e-06 -2.68841390080918e-25)
(3.19713439343209e-07 2.62920670744035e-06 5.39597669159889e-25)
(-3.41273414581396e-07 -2.56850082055054e-07 4.21588779745088e-25)
(-8.17932976780956e-07 -1.43821937636837e-06 8.99418058089767e-26)
(-1.07291994045332e-06 -1.52947004224093e-06 -4.72085519972039e-26)
(-1.14137658574367e-06 -1.19944609468161e-06 2.10676681238201e-25)
(-1.10195538504844e-06 -7.86764247373396e-07 2.32715050826404e-25)
(-1.00501594056326e-06 -4.23660867067624e-07 -1.80119911354644e-26)
(-8.86607843345161e-07 -1.3831756181069e-07 -2.1240635560398e-27)
(-7.65161795852508e-07 7.51185873866609e-08 1.00315810630678e-24)
(-6.50819982330377e-07 2.31706524340866e-07 6.27387352925587e-25)
(-5.47735011693976e-07 3.45792141123805e-07 2.88278840078938e-25)
(-4.57132632540225e-07 4.28997222705569e-07 7.93861713807374e-25)
(-3.78598235370538e-07 4.90043272284908e-07 1.78450792227974e-25)
(-3.10965078273482e-07 5.35232236284304e-07 6.97907676042418e-25)
(-2.52798158350413e-07 5.69036565613675e-07 5.32835652954217e-25)
(-2.02635276714285e-07 5.94569578289366e-07 4.33023748042114e-25)
(-1.59120403879292e-07 6.14024497071324e-07 7.46611400797319e-25)
(-1.21032966965255e-07 6.28884580446932e-07 2.16055543983269e-25)
(-8.73031646631951e-08 6.40210887447083e-07 4.90855087275944e-25)
(-5.69943027487629e-08 6.48707958020335e-07 2.77460778346094e-25)
(-2.92744212806613e-08 6.54881852722481e-07 2.81157411683177e-25)
(-3.39545500370303e-09 6.59033579051947e-07 5.1477293633654e-25)
(2.13291756692268e-08 6.61371365186946e-07 2.79416474084572e-25)
(4.55528060441201e-08 6.61991243558977e-07 1.85088975175345e-25)
(6.99176448270837e-08 6.6089156588715e-07 1.79285724004258e-25)
(9.50707462800406e-08 6.57973870866194e-07 5.15487136802614e-25)
(1.21697101031184e-07 6.53057168821523e-07 -5.89136594216355e-26)
(1.50533390386355e-07 6.45818784734462e-07 -1.93826266938517e-25)
(1.82397964647098e-07 6.35757441419389e-07 5.42204887846795e-26)
(2.18214937124637e-07 6.22173311757704e-07 -3.65017642569455e-25)
(2.59038873517252e-07 6.0402718310548e-07 2.178677953387e-25)
(3.06073845118306e-07 5.7980293178302e-07 2.7918681618348e-25)
(3.60652095118984e-07 5.47320507244219e-07 -2.16860382243594e-25)
(4.24211092882024e-07 5.03446653996747e-07 -2.78772613501675e-25)
(4.98163030000463e-07 4.4370373477718e-07 2.01305456424067e-25)
(5.83654125117796e-07 3.61792799689167e-07 -5.59059825042082e-26)
(6.81083104928488e-07 2.48982832369303e-07 -2.72842491427634e-26)
(7.89214662503608e-07 9.35508108106879e-08 -8.05558181235917e-25)
(9.0386673981848e-07 -1.19043451143982e-07 -3.59722987751023e-25)
(1.01488871887696e-06 -4.04417375174413e-07 -3.68778170475501e-25)
(1.10373766154e-06 -7.69853828002292e-07 -9.50066812738523e-25)
(1.13431552766439e-06 -1.19031561174231e-06 -3.85319280503597e-25)
(1.05652284715546e-06 -1.53829346939535e-06 -3.4460432324004e-25)
(7.93480294362334e-07 -1.47605664292205e-06 -1.04205197337761e-24)
(3.14690599975039e-07 -3.17017900073298e-07 -2.15916657942397e-25)
(-3.37093623670239e-07 2.59925189476649e-06 -1.67188553044363e-25)
(-7.4988336460423e-07 6.72025509977682e-06 -8.9571690288663e-25)
(-4.33694674412603e-07 6.80393392573883e-06 2.22616349486323e-25)
(5.41512897944711e-07 6.47549563350649e-06 3.69267385761867e-25)
(1.51933358922802e-06 6.78878225510044e-06 6.85894050608106e-25)
(1.31433383574833e-06 3.09013105333873e-06 7.36031857171398e-25)
(6.35568618850935e-07 2.45015565902979e-07 5.14364626412986e-25)
(-1.88698859411627e-08 -1.03193638924603e-06 4.65805929941098e-25)
(-4.71510230539501e-07 -1.24219523062016e-06 4.60315561489451e-25)
(-7.14576532933461e-07 -1.00454193885538e-06 4.01370033332776e-25)
(-8.09040591816608e-07 -6.50673426535894e-07 4.41492359348343e-25)
(-8.09520163242863e-07 -3.20143247252592e-07 5.79278432191024e-25)
(-7.59231724548536e-07 -5.01874718038963e-08 6.03437204585379e-25)
(-6.84674966325006e-07 1.5808131169194e-07 6.76280325049323e-25)
(-6.02234523957253e-07 3.15107158787877e-07 7.27503307263942e-25)
(-5.20786763182937e-07 4.32410823729859e-07 7.41916579876552e-25)
(-4.44840693695296e-07 5.19965614923838e-07 6.45513539945192e-25)
(-3.76250735276836e-07 5.85563653439956e-07 6.85008362835126e-25)
(-3.15383922591518e-07 6.35039705416295e-07 8.17678072284258e-25)
(-2.6183131420028e-07 6.72661921835232e-07 8.87822946152138e-25)
(-2.14810552535795e-07 7.01473344892925e-07 1.00101484435058e-24)
(-1.73425546299294e-07 7.23668021188262e-07 9.93144053506082e-25)
(-1.36760871224811e-07 7.40773109208294e-07 8.65566588221879e-25)
(-1.0394946603834e-07 7.53887334244912e-07 7.78643120962256e-25)
(-7.41963677514035e-08 7.63770275911879e-07 7.31738402408937e-25)
(-4.67724878826992e-08 7.70952950164238e-07 6.27536624020818e-25)
(-2.10052298267516e-08 7.75788479174414e-07 6.62141625803737e-25)
(3.74770645509956e-09 7.78484921008294e-07 7.01425210561585e-25)
(2.80849528416688e-08 7.79155091175073e-07 5.77165377482891e-25)
(5.25975917502467e-08 7.77794854161329e-07 4.6501493699261e-25)
(7.78946821252342e-08 7.7430792753098e-07 2.34256782452834e-25)
(1.04602501789153e-07 7.6848651250269e-07 1.63261323807837e-25)
(1.33378311568138e-07 7.59971609198331e-07 1.47005586859539e-25)
(1.64944302228835e-07 7.48243933559277e-07 -8.95418455508013e-26)
(2.0008688088756e-07 7.32540361409547e-07 -1.56109650929163e-25)
(2.39648982872261e-07 7.11782876620354e-07 -2.37699427671106e-25)
(2.84525711713903e-07 6.84416915668651e-07 -1.51440616996596e-25)
(3.35592701092815e-07 6.48262639754467e-07 8.08195225431189e-26)
(3.93598401724824e-07 6.00253570957956e-07 2.40574459999395e-26)
(4.58923279353304e-07 5.36138730714012e-07 9.27175707935449e-27)
(5.31175234159435e-07 4.50072103249084e-07 -1.48682272079638e-25)
(6.08452937553807e-07 3.34244931241868e-07 -1.66194906943389e-25)
(6.8620995382686e-07 1.7859167195409e-07 -1.18342679489106e-25)
(7.55490824232007e-07 -2.85771750420774e-08 -1.73434032473306e-25)
(7.99797436218919e-07 -2.9824795148788e-07 -1.64056725916802e-25)
(7.92334424790081e-07 -6.30688075065226e-07 -1.04542494313703e-25)
(6.89513626833609e-07 -9.91873746994076e-07 -1.50614492178123e-25)
(4.36424609354202e-07 -1.24732306449779e-06 -1.42542428188999e-25)
(-2.69886705527223e-08 -1.06721166010079e-06 -1.05397104612261e-25)
(-6.8871690087824e-07 1.83685602146899e-07 -8.50243425461576e-26)
(-1.36401592778903e-06 3.05203200945458e-06 7.59564739762715e-27)
(-1.54273543035278e-06 6.84898046984005e-06 6.9568023184084e-26)
(-5.38872427842418e-07 6.58575850906805e-06 2.00127458977846e-25)
(5.42040519583254e-07 5.92572754564452e-06 4.26040980891013e-25)
(1.82253707539371e-06 6.52161820902513e-06 1.10855574579713e-24)
(1.77960989185603e-06 3.2561282572253e-06 7.69501364710409e-25)
(1.16356320076129e-06 5.43312426457796e-07 5.38075857762312e-25)
(4.63931394240473e-07 -7.79406771870958e-07 7.81384714502206e-25)
(-7.02765652671577e-08 -1.09338040867827e-06 8.14545459804506e-25)
(-4.03954375835015e-07 -9.49615618447548e-07 4.72491939771941e-25)
(-5.77933517639321e-07 -6.62610727715956e-07 5.06600016768717e-25)
(-6.42795538075279e-07 -3.73622643275323e-07 9.0258835470938e-25)
(-6.41553491288381e-07 -1.2688763822297e-07 8.68677299207333e-25)
(-6.03397731251312e-07 7.0051165875761e-08 3.39090748574167e-25)
(-5.47447615269537e-07 2.22910053656727e-07 6.1404736528365e-25)
(-4.8511910282584e-07 3.4008229087012e-07 8.88506349568992e-25)
(-4.22912628400576e-07 4.29589188786628e-07 3.88330508086752e-25)
(-3.64200084285867e-07 4.98042402637347e-07 8.64410001035671e-25)
(-3.10445683495368e-07 5.50613125890325e-07 7.63177548557801e-25)
(-2.62041361401397e-07 5.91206562548406e-07 8.72712528680816e-25)
(-2.18769815709916e-07 6.22700894527036e-07 1.19308041240866e-24)
(-1.80128930136013e-07 6.47202717939837e-07 9.99794020901348e-25)
(-1.45486929149258e-07 6.66252190566225e-07 1.12895875981659e-24)
(-1.14173073033017e-07 6.80932647710136e-07 8.40170506074682e-25)
(-8.55382220069191e-08 6.92041108023125e-07 9.5559943893219e-25)
(-5.89528361532713e-08 7.00119202242132e-07 6.76037942151292e-25)
(-3.38269489873443e-08 7.05550310509283e-07 6.53818235312387e-25)
(-9.58982062267764e-09 7.08558291450632e-07 9.19569202001944e-25)
(1.43093732816843e-08 7.09250156027668e-07 6.74013663219644e-25)
(3.84117573472562e-08 7.076335829753e-07 6.17913734102709e-25)
(6.32666054300189e-08 7.03607223214939e-07 -3.59326098414207e-26)
(8.94312371468979e-08 6.96934435021699e-07 1.95001674917524e-25)
(1.17489148914924e-07 6.87249526803422e-07 3.95921168618143e-25)
(1.48056136988022e-07 6.74018176015549e-07 -2.18874887167601e-25)
(1.81771219056983e-07 6.56446416164401e-07 2.66653406342483e-26)
(2.19280206715462e-07 6.33447834155879e-07 -5.49802594741012e-25)
(2.61198075046056e-07 6.03486888380652e-07 -4.52470121300938e-25)
(3.07999827744789e-07 5.64454485963936e-07 2.96880931089778e-25)
(3.59867135037172e-07 5.13470709156912e-07 1.4564780929394e-25)
(4.16378356197181e-07 4.46629761224752e-07 -3.9917897792464e-26)
(4.76023956221946e-07 3.58770489939338e-07 -1.851070764527e-25)
(5.35378118442697e-07 2.4324040622586e-07 -3.05068107648088e-25)
(5.87880682739862e-07 9.19798671549803e-08 3.0408419474687e-25)
(6.21987999903693e-07 -1.03578514770711e-07 6.5427555766456e-27)