/*--------------------------------*- C++ -*----------------------------------*\
  =========                 |
  \\      /  F ield         | OpenFOAM: The Open Source CFD Toolbox
   \\    /   O peration     | Website:  https://openfoam.org
    \\  /    A nd           | Version:  10
     \\/     M anipulation  |
\*---------------------------------------------------------------------------*/
FoamFile
{
    format      ascii;
    class       volScalarField;
    location    "9.8";
    object      wallHeatFlux;
}
// * * * * * * * * * * * * * * * * * * * * * * * * * * * * * * * * * * * * * //

dimensions      [1 0 -3 0 0 0 0];

internalField   uniform 0;

boundaryField
{
    back
    {
        type            calculated;
        value           uniform 0;
    }
    bottom
    {
        type            calculated;
        value           nonuniform List<scalar> 
50
(
60.8525036477785
61.0451852148056
62.8848025151165
64.5143187950324
65.6818539507184
66.4558484273144
66.9506850038202
67.2594007525891
67.4474866688731
67.5591858667413
67.6233375429373
67.6591028879248
67.6783938174508
67.6883964376882
67.6934303393523
67.695839371467
67.6970080790841
67.697517431842
67.6977193709329
67.6978129115126
67.6978467066563
67.6978577104073
67.6978595200005
67.6978657390392
67.6978643110018
67.6978638168567
67.6978672908687
67.6978695959236
67.6978702958683
67.6978607798397
67.6978224063696
67.6977328292355
67.6974858405796
67.6969241436241
67.6956976273303
67.6931152751247
67.6878653505303
67.6774863709571
67.6578401460934
67.6215823083416
67.5569349347135
67.4451937565506
67.2575500900931
66.9501338204784
66.4576535043504
65.6849447239418
64.5148115230927
62.8766963215511
61.0329328664366
60.869149036459
)
;
    }
    left
    {
        type            calculated;
        value           uniform 0;
    }
    front
    {
        type            calculated;
        value           uniform 0;
    }
    right
    {
        type            calculated;
        value           uniform 0;
    }
    top
    {
        type            calculated;
        value           uniform 0;
    }
}


// ************************************************************************* //
