/*--------------------------------*- C++ -*----------------------------------*\
  =========                 |
  \\      /  F ield         | OpenFOAM: The Open Source CFD Toolbox
   \\    /   O peration     | Website:  https://openfoam.org
    \\  /    A nd           | Version:  10
     \\/     M anipulation  |
\*---------------------------------------------------------------------------*/
FoamFile
{
    format      ascii;
    class       volScalarField;
    location    "5.4";
    object      alphat;
}
// * * * * * * * * * * * * * * * * * * * * * * * * * * * * * * * * * * * * * //

dimensions      [1 -1 -1 0 0 0 0];

internalField   nonuniform List<scalar> 
2500
(
1.11675251881056e-14
2.18155978420403e-13
9.24788423670618e-13
1.57972805773069e-12
2.11112786695295e-12
2.50321885036935e-12
2.76773675018248e-12
2.9315749975529e-12
3.02514816740149e-12
3.07464854506824e-12
3.09901152112018e-12
3.11021623415899e-12
3.11505131340844e-12
3.11701626935358e-12
3.11777064760941e-12
3.11804475165729e-12
3.11813887977924e-12
3.1181691249622e-12
3.1181778657339e-12
3.11817977787894e-12
3.11817970290682e-12
3.11817915115635e-12
3.11817858183478e-12
3.11817810200577e-12
3.11817774616078e-12
3.1181775278907e-12
3.11817746378763e-12
3.11817748830636e-12
3.11817749390745e-12
3.11817739346266e-12
3.1181764364354e-12
3.11817242624809e-12
3.11815894525672e-12
3.11811734542141e-12
3.11799632765837e-12
3.11766155946612e-12
3.11677936770142e-12
3.11456715188136e-12
3.10930132316127e-12
3.09744148541315e-12
3.07226058727399e-12
3.02206336379001e-12
2.92851831249509e-12
2.76629146401317e-12
2.50568894248485e-12
2.11965540847724e-12
1.59456877831943e-12
9.4196222426213e-13
2.25864875737919e-13
1.18282559378537e-14
1.10480622884951e-12
5.6634035293134e-11
2.45174470727701e-10
4.19324774096435e-10
5.61102563370228e-10
6.66236512492352e-10
7.37599631146298e-10
7.82112802456819e-10
8.0773271977103e-10
8.21397486166021e-10
8.28180652934919e-10
8.31327631415542e-10
8.32697624649608e-10
8.33259310051982e-10
8.33476856333552e-10
8.33556605324426e-10
8.33584249242096e-10
8.33593230739966e-10
8.33595872908261e-10
8.33596482279403e-10
8.33596490758884e-10
8.33596350230082e-10
8.33596199080477e-10
8.33596070737442e-10
8.33595975202235e-10
8.33595916714724e-10
8.33595899720241e-10
8.33595905804362e-10
8.33595906185341e-10
8.33595868429206e-10
8.3359556691805e-10
8.33594360917836e-10
8.33590367167445e-10
8.33578159194671e-10
8.3354293235849e-10
8.33446231105952e-10
8.33193338146413e-10
8.32564041763423e-10
8.31077742018355e-10
8.27756441273089e-10
8.20759875012409e-10
8.06920476834461e-10
7.81324456272181e-10
7.37254461479667e-10
6.6693108862771e-10
5.63376817002536e-10
4.23219549281696e-10
2.49639837433183e-10
5.85845745200984e-11
1.16725343877683e-12
3.91575388749285e-12
1.01680190590057e-09
3.45240810183003e-07
5.88590507787464e-07
7.85218783469137e-07
9.30592128196937e-07
1.02926078848311e-06
1.09094560698323e-06
1.12659292194772e-06
1.1457072037483e-06
1.15525403668841e-06
1.15971290372869e-06
1.16166769194209e-06
1.16247496287974e-06
1.16278995536773e-06
1.16290631601503e-06
1.16294698758836e-06
1.1629603367943e-06
1.16296432950446e-06
1.1629652932636e-06
1.16296534822616e-06
1.16296517278242e-06
1.16296497276003e-06
1.16296480070706e-06
1.16296467179047e-06
1.16296459231469e-06
1.16296456834215e-06
1.16296457372981e-06
1.16296457137915e-06
1.16296450292494e-06
1.16296403792968e-06
1.1629622507545e-06
1.16295639705735e-06
1.16293862797514e-06
1.16288764022162e-06
1.16274839026503e-06
1.16238605596347e-06
1.16148899573461e-06
1.15938113886292e-06
1.15469510698185e-06
1.14487346467703e-06
1.12553884521971e-06
1.08993072646133e-06
1.02882388672246e-06
9.31493323142506e-07
7.88143785197918e-07
5.93590178169683e-07
3.50970001033725e-07
1.0482827709331e-09
4.10032230924995e-12
6.92032526401716e-12
1.80961731083691e-09
6.15074228391598e-07
1.0430146754633e-06
1.38589853975797e-06
1.63796253571621e-06
1.80846046361713e-06
1.91488326840107e-06
1.97637405321156e-06
2.00937364154949e-06
2.02588135474963e-06
2.03360725045584e-06
2.03700259598453e-06
2.0384086282362e-06
2.03895891573181e-06
2.03916287741941e-06
2.03923444451295e-06
2.03925805260753e-06
2.03926517459392e-06
2.03926693123929e-06
2.03926706361814e-06
2.03926678507009e-06
2.03926645315391e-06
2.03926616480204e-06
2.03926594714303e-06
2.03926581100062e-06
2.03926576666407e-06
2.03926576969586e-06
2.03926576845134e-06
2.03926564262238e-06
2.03926484078367e-06
2.03926178947662e-06
2.03925178925229e-06
2.03922139933994e-06
2.03913407671481e-06
2.03889526267562e-06
2.03827305814876e-06
2.03673087716561e-06
2.03310371454919e-06
2.0250337691091e-06
2.00810839882128e-06
1.97476769277514e-06
1.91331343196181e-06
1.8077141422167e-06
1.63915142778411e-06
1.39002646515926e-06
1.05015097874746e-06
6.23233809693211e-07
1.85386245237682e-09
7.17594841669504e-12
9.83525837969007e-12
2.57331594219044e-09
8.71000503920672e-07
1.46993797346189e-06
1.94653291304592e-06
2.29527075879497e-06
2.5305140750642e-06
2.67716941550944e-06
2.76189866774266e-06
2.80740310950174e-06
2.83019687742173e-06
2.84088389129863e-06
2.84559065644956e-06
2.84754452661564e-06
2.8483113222532e-06
2.84859641178113e-06
2.84869681308942e-06
2.84873009748769e-06
2.84874022874652e-06
2.84874278430331e-06
2.8487430264737e-06
2.84874267913773e-06
2.84874224493764e-06
2.84874186305649e-06
2.84874157212065e-06
2.84874138626371e-06
2.84874131678963e-06
2.8487413135322e-06
2.84874131416558e-06
2.84874112308063e-06
2.84874001585099e-06
2.84873585494126e-06
2.84872221943377e-06
2.84868074722348e-06
2.84856141847273e-06
2.84823459377154e-06
2.84738188170742e-06
2.8452656512046e-06
2.84028274791964e-06
2.8291858245303e-06
2.80589260518719e-06
2.75997253642047e-06
2.67525849641996e-06
2.52951925309268e-06
2.29646381152921e-06
1.95105961609078e-06
1.47787361630491e-06
8.80098404251206e-07
2.62318490927267e-09
1.01280332109942e-11
1.25558342389252e-11
3.28589744687573e-09
1.10731543746628e-06
1.86090240538148e-06
2.45710507770849e-06
2.89171416138769e-06
3.18424818289907e-06
3.36645551872992e-06
3.47173011223036e-06
3.52831112040336e-06
3.55668930519311e-06
3.57001678982546e-06
3.57589814313091e-06
3.57834516329691e-06
3.5793079604368e-06
3.57966697160774e-06
3.57979385466369e-06
3.57983612582728e-06
3.5798491105076e-06
3.579852463636e-06
3.57985285149077e-06
3.57985247065795e-06
3.57985196622799e-06
3.57985151569414e-06
3.57985116855251e-06
3.57985094097157e-06
3.57985084033322e-06
3.57985082930833e-06
3.57985083079885e-06
3.57985056136064e-06
3.57984917488775e-06
3.57984404029234e-06
3.57982724379297e-06
3.57977614696084e-06
3.57962897638036e-06
3.57922539704351e-06
3.5781711101927e-06
3.575551593189e-06
3.5693773699765e-06
3.55561543920678e-06
3.52670679523925e-06
3.46967816063226e-06
3.36439515235851e-06
3.1830981948092e-06
2.89276753651884e-06
2.46152122085471e-06
1.86875741796779e-06
1.11638361800373e-06
3.33684939223622e-09
1.28636627432765e-11
1.50227836010457e-11
3.93284853241321e-09
1.32022634185698e-06
2.21069361672459e-06
2.91181581742734e-06
3.42134316751266e-06
3.76372637233751e-06
3.97684916996139e-06
4.10000683609227e-06
4.16624974932741e-06
4.1995139838651e-06
4.21516046006926e-06
4.22207793345275e-06
4.22496213492011e-06
4.22609966399599e-06
4.22652500131362e-06
4.22667583551686e-06
4.22672632846149e-06
4.22674197691819e-06
4.22674611781215e-06
4.22674668917452e-06
4.22674630518492e-06
4.2267457617056e-06
4.22674526698365e-06
4.22674488064878e-06
4.22674462042926e-06
4.22674449015035e-06
4.22674446656644e-06
4.22674444434471e-06
4.22674409857589e-06
4.22674245866896e-06
4.22673647238786e-06
4.22671695454124e-06
4.22665760173275e-06
4.22648653711699e-06
4.22601695981922e-06
4.22478894615175e-06
4.22173469610758e-06
4.21452937161617e-06
4.19845699300172e-06
4.16467343040057e-06
4.09799040037184e-06
3.97481258812836e-06
3.76254313205341e-06
3.42223351537431e-06
2.91586369643945e-06
2.21796688332123e-06
1.32869344518996e-06
3.98210263818608e-09
1.53312390966749e-11
1.72035249360534e-11
4.50591086348366e-09
1.50775711395404e-06
2.51701740594192e-06
3.30854712544643e-06
3.88236942082913e-06
4.26745956195592e-06
4.50706898282824e-06
4.64556846150931e-06
4.7201198228904e-06
4.75759891705445e-06
4.77525345214028e-06
4.78307205653501e-06
4.78633835959987e-06
4.78762945501335e-06
4.78811345884569e-06
4.78828564801e-06
4.78834355647145e-06
4.78836165482866e-06
4.78836655844248e-06
4.7883673384045e-06
4.78836698779573e-06
4.7883664333527e-06
4.78836591654613e-06
4.78836550659891e-06
4.78836522272516e-06
4.78836506700323e-06
4.7883650159449e-06
4.78836495485605e-06
4.78836453380917e-06
4.7883626651822e-06
4.78835593854374e-06
4.7883341013301e-06
4.78826775272827e-06
4.78807645205563e-06
4.78755090187045e-06
4.78617525575661e-06
4.78275082722788e-06
4.77466593883527e-06
4.75661974898889e-06
4.71866670715059e-06
4.64371892725162e-06
4.50521042798569e-06
4.26638428512075e-06
3.88316840789696e-06
3.31217169022323e-06
2.52351129378943e-06
1.51536045845408e-06
4.55200616562784e-09
1.75039633944754e-11
1.90862185623761e-11
5.00196173888223e-09
1.66944180827591e-06
2.77990176014977e-06
3.64802634837659e-06
4.27616470993734e-06
4.69730085680299e-06
4.95927843267907e-06
5.1107560100955e-06
5.19235372258885e-06
5.2334190861574e-06
5.25278879807512e-06
5.26138048069285e-06
5.26497619925705e-06
5.2664004168874e-06
5.26693560162294e-06
5.26712656948876e-06
5.26719107397433e-06
5.26721139441586e-06
5.26721702286667e-06
5.26721802997056e-06
5.26721773986185e-06
5.26721719777085e-06
5.26721667745499e-06
5.26721625715944e-06
5.26721595759825e-06
5.26721577947853e-06
5.26721569554883e-06
5.26721558915267e-06
5.26721508810758e-06
5.26721301046129e-06
5.26720564407461e-06
5.26718185044501e-06
5.26710964686359e-06
5.26690143478691e-06
5.26632906226178e-06
5.26482970590009e-06
5.26109452112508e-06
5.2522700627108e-06
5.23256201720789e-06
5.19109492377033e-06
5.10917648466108e-06
4.95773061713037e-06
4.6964813315825e-06
4.27700810042106e-06
3.65131925828528e-06
2.78564267876334e-06
1.67614799183743e-06
5.04442843152777e-09
1.93745008382962e-11
2.06752306027975e-11
5.42194429215467e-09
1.8059896518709e-06
3.00111430357812e-06
3.93305857043187e-06
4.60637055052738e-06
5.05747951911781e-06
5.33807583081965e-06
5.5003775805572e-06
5.58786835924892e-06
5.63194316106411e-06
5.65275781782067e-06
5.66200365422701e-06
5.66587948325462e-06
5.66741752014021e-06
5.66799674201181e-06
5.66820399529563e-06
5.66827428520425e-06
5.66829659419888e-06
5.66830290038677e-06
5.66830413980673e-06
5.66830392906819e-06
5.66830341734201e-06
5.66830290812778e-06
5.66830248806768e-06
5.66830217951213e-06
5.66830198207504e-06
5.66830186585172e-06
5.66830171159838e-06
5.66830112973331e-06
5.66829885767066e-06
5.66829094279079e-06
5.66826551755427e-06
5.66818847740872e-06
5.66796632644359e-06
5.66735533949333e-06
5.66575380801228e-06
5.66176154383427e-06
5.65232435919657e-06
5.63123783552266e-06
5.58685331555948e-06
5.49914422299623e-06
5.33694676166534e-06
5.05705643655034e-06
4.60742622422538e-06
3.93620174374766e-06
3.00627499483076e-06
1.81192024332447e-06
5.46101260091285e-09
2.09505704694432e-11
2.19871188568471e-11
5.76990284413692e-09
1.91898560250391e-06
3.18367599482698e-06
4.16791112890129e-06
4.87820108615867e-06
5.35385522132113e-06
5.64972082910799e-06
5.82091968356548e-06
5.91326859821869e-06
5.95983301592782e-06
5.9818478118115e-06
5.99163939790893e-06
5.99575007117319e-06
5.99738405799146e-06
5.99800063771241e-06
5.99822181466256e-06
5.99829710620268e-06
5.99832116770151e-06
5.99832809291491e-06
5.9983295621846e-06
5.99832944405421e-06
5.99832897540857e-06
5.99832848787571e-06
5.99832807601423e-06
5.99832776388871e-06
5.99832755040573e-06
5.99832740393436e-06
5.99832720261134e-06
5.99832653984166e-06
5.998324091261e-06
5.99831571089059e-06
5.99828894180721e-06
5.9982079617798e-06
5.99797448886022e-06
5.99733212970962e-06
5.99564748063827e-06
5.99144577747452e-06
5.98150873842214e-06
5.95929644178468e-06
5.91252743571351e-06
5.82008308593327e-06
5.6490910422173e-06
5.3539497964507e-06
4.87964003417675e-06
4.17112582866438e-06
3.18850605053882e-06
1.92435088245019e-06
5.80623918591308e-09
2.22509920753809e-11
2.30469922498695e-11
6.05210081205113e-09
2.0106250297531e-06
3.33145005228222e-06
4.35780786989613e-06
5.09787989142992e-06
5.59332150778688e-06
5.90151918080618e-06
6.07992186715572e-06
6.17621661092097e-06
6.22481046638436e-06
6.24780757100855e-06
6.25804787171092e-06
6.2623525933585e-06
6.26406629875877e-06
6.26471411226064e-06
6.2649470208378e-06
6.26502657261079e-06
6.26505215398804e-06
6.26505963398729e-06
6.26506132342201e-06
6.26506130408324e-06
6.26506088619482e-06
6.26506042728897e-06
6.26506002922447e-06
6.26505971779677e-06
6.265059491554e-06
6.26505931759831e-06
6.26505907119768e-06
6.26505833153906e-06
6.26505572619364e-06
6.26504695582364e-06
6.26501909509752e-06
6.26493495309307e-06
6.26469242493293e-06
6.26402497582158e-06
6.26227378033008e-06
6.2579041667976e-06
6.24756588474456e-06
6.22444899509339e-06
6.17576259578755e-06
6.07950886966299e-06
5.90144025770115e-06
5.59402609157299e-06
5.09985304513492e-06
4.36131336686621e-06
3.33621909977741e-06
2.01566900987925e-06
6.08658038300435e-09
2.33021536549838e-11
2.38851849418577e-11
6.27619904057947e-09
2.08347266778921e-06
3.44877905429323e-06
4.50848971000689e-06
5.27215479220407e-06
5.78329418977508e-06
6.10129629130418e-06
6.28544218228688e-06
6.3848931025568e-06
6.43511637674992e-06
6.45890547737242e-06
6.46950922354351e-06
6.473971908562e-06
6.47575086751522e-06
6.47642440841827e-06
6.47666705480593e-06
6.47675018056074e-06
6.47677705936694e-06
6.47678502719124e-06
6.47678692067595e-06
6.4767870001401e-06
6.47678663632383e-06
6.47678620984768e-06
6.47678582911165e-06
6.47678552158892e-06
6.47678528570512e-06
6.47678508756653e-06
6.47678479969992e-06
6.47678398996194e-06
6.47678124852316e-06
6.4767721563964e-06
6.47674342219337e-06
6.47665678223137e-06
6.47640712814091e-06
6.47571994047687e-06
6.47391634214606e-06
6.46941433950007e-06
6.45875932485157e-06
6.43492769036899e-06
6.3847252771891e-06
6.28545837512902e-06
6.1017912034525e-06
5.78466686975358e-06
5.27477725870675e-06
4.51247362575048e-06
3.4537349243591e-06
2.08843151347452e-06
6.30972612937832e-09
2.41348573907594e-11
2.45343003501185e-11
6.45050982701314e-09
2.14024690692421e-06
3.54016542590858e-06
4.62583063548151e-06
5.40787517785398e-06
5.93126603828199e-06
6.25693901342437e-06
6.44559184706766e-06
6.54752818489411e-06
6.59903960929843e-06
6.62345752702229e-06
6.63435119055365e-06
6.63894052373921e-06
6.64077209226506e-06
6.64146650629877e-06
6.64171711349132e-06
6.64180319152512e-06
6.64183115996427e-06
6.64183954828508e-06
6.64184162582451e-06
6.64184179993883e-06
6.64184149000171e-06
6.64184109726589e-06
6.64184073573513e-06
6.6418404344571e-06
6.64184019187848e-06
6.64183997330518e-06
6.64183964887565e-06
6.64183877761264e-06
6.64183592089722e-06
6.64182656795221e-06
6.64179714612569e-06
6.64170856512996e-06
6.64145339689196e-06
6.64075094239177e-06
6.63890677865327e-06
6.63430217186231e-06
6.62340140828223e-06
6.59901470701915e-06
6.54763419688822e-06
6.44602481340404e-06
6.25800443193631e-06
5.93332947880752e-06
5.41121823267459e-06
4.63043134376926e-06
3.54550766913008e-06
2.14532136058199e-06
6.4838921083554e-09
2.4781577763341e-11
2.50267500853636e-11
6.58336377347007e-09
2.18363803365306e-06
3.61000505100051e-06
4.71551892364243e-06
5.51164152524789e-06
6.04443749398165e-06
6.37601544071469e-06
6.56814889756088e-06
6.67201170588036e-06
6.72452564114688e-06
6.74943510881903e-06
6.76055648925643e-06
6.76524581389102e-06
6.76711915311692e-06
6.76783024478197e-06
6.76808726085804e-06
6.76817573981489e-06
6.76820460828951e-06
6.76821335201139e-06
6.76821559192512e-06
6.76821585396619e-06
6.76821559470993e-06
6.76821523512575e-06
6.76821489340497e-06
6.76821459999465e-06
6.76821435344496e-06
6.76821411843605e-06
6.76821376313207e-06
6.76821283979122e-06
6.76820988798066e-06
6.76820032769996e-06
6.7681703738796e-06
6.76808031032878e-06
6.76782094845433e-06
6.7671068898361e-06
6.76523186896056e-06
6.76054912546706e-06
6.74946101199879e-06
6.72465077104398e-06
6.67237073870002e-06
6.56897204522248e-06
6.37762575451517e-06
6.04718157959012e-06
5.51573163840282e-06
4.72081891411283e-06
3.61587245967351e-06
2.18897888392424e-06
6.61723966955139e-09
2.5274222818218e-11
2.53928935139803e-11
6.68262177394167e-09
2.21616859179009e-06
3.6623846494707e-06
4.7828158062358e-06
5.58954054050676e-06
6.12943767808024e-06
6.46548757931117e-06
6.66026607543916e-06
6.76559849672806e-06
6.81888042077464e-06
6.84416816580665e-06
6.85546564797914e-06
6.86023270710244e-06
6.86213870474709e-06
6.86286291874637e-06
6.86312501546103e-06
6.86321541666391e-06
6.86324501641319e-06
6.86325405418025e-06
6.8632564352122e-06
6.86325677820786e-06
6.86325656315279e-06
6.86325623478381e-06
6.86325591256806e-06
6.86325562809727e-06
6.86325538005967e-06
6.86325513265238e-06
6.86325475248178e-06
6.86325378671487e-06
6.86325075868259e-06
6.86324103708759e-06
6.8632106792365e-06
6.8631195033683e-06
6.86285700836141e-06
6.86213428517655e-06
6.86023620642112e-06
6.85549501038486e-06
6.8442665926299e-06
6.81913888297629e-06
6.76618415364011e-06
6.66144277083615e-06
6.46760009292671e-06
6.13282503738534e-06
5.5943639455593e-06
4.78884385645228e-06
3.66885418391608e-06
2.22187299180886e-06
6.71743362051591e-09
2.56424729417344e-11
2.56598109061105e-11
6.75534488691333e-09
2.24009912596705e-06
3.70094702329043e-06
4.83239639797179e-06
5.64697143239595e-06
6.19214179989885e-06
6.53152342001649e-06
6.72827975158912e-06
6.8347155001996e-06
6.88857651815021e-06
6.91415083963304e-06
6.92558240395669e-06
6.93040896724241e-06
6.93234010894499e-06
6.93307449066581e-06
6.93334055362396e-06
6.933432470074e-06
6.93346265447987e-06
6.93347193159094e-06
6.93347443158186e-06
6.93347484304902e-06
6.93347467023229e-06
6.93347437052989e-06
6.9334740669384e-06
6.93347379206542e-06
6.93347354475168e-06
6.93347328883589e-06
6.93347288972877e-06
6.93347189084233e-06
6.93346880365285e-06
6.93345895952352e-06
6.93342830090578e-06
6.93333630597131e-06
6.93307151266179e-06
6.93234243643589e-06
6.93042743722455e-06
6.92564329750949e-06
6.91431168633432e-06
6.88895026055232e-06
6.83549847230406e-06
6.72976741091876e-06
6.53408407089097e-06
6.1961150395347e-06
5.65248234673526e-06
4.83913583839553e-06
3.70804085510395e-06
2.2462148453658e-06
6.79134667273529e-09
2.5912709614081e-11
2.58506626051625e-11
6.80761324148804e-09
2.25737680091638e-06
3.72882012445777e-06
4.86826802003719e-06
5.68855811455874e-06
6.23757967930892e-06
6.57940315074737e-06
6.77761467272416e-06
6.88486560894665e-06
6.93915642653663e-06
6.96494447390163e-06
6.97647655101364e-06
6.98134796541321e-06
6.98329817087063e-06
6.9840403114303e-06
6.98430942371402e-06
6.9844025163399e-06
6.98443316088984e-06
6.98444263047484e-06
6.98444522776071e-06
6.98444569780242e-06
6.98444556252647e-06
6.98444528859484e-06
6.98444500243892e-06
6.9844447375377e-06
6.98444449288296e-06
6.98444423205512e-06
6.98444381957712e-06
6.98444279614575e-06
6.98443966475545e-06
6.98442973010899e-06
6.98439885253974e-06
6.98430626646633e-06
6.9840398193263e-06
6.98330617181208e-06
6.98137898494652e-06
6.97656387292191e-06
6.96515774375873e-06
6.93962737170895e-06
6.88581598125055e-06
6.7793684905096e-06
6.58235210443413e-06
6.24206915864633e-06
5.69468869573755e-06
4.87566832789372e-06
3.73651742884928e-06
2.26391134458123e-06
6.8449004323844e-09
2.61074786068146e-11
2.59845289827184e-11
6.84446943048349e-09
2.26962008351541e-06
3.74859970547014e-06
4.89375356217413e-06
5.71813375584637e-06
6.2699211334984e-06
6.61350491266398e-06
6.81276976683132e-06
6.92061337498102e-06
6.97521814691854e-06
7.00116309685974e-06
7.01276935527697e-06
7.01767405721821e-06
7.0196384963269e-06
7.02038646793787e-06
7.02065788926388e-06
7.020751881093e-06
7.02078288228451e-06
7.02079250464164e-06
7.02079518085147e-06
7.02079569960732e-06
7.02079559672201e-06
7.0207953456608e-06
7.02079507564468e-06
7.02079482089537e-06
7.0207945805515e-06
7.02079431801652e-06
7.02079389717042e-06
7.02079285679645e-06
7.02078969395037e-06
7.02077969471055e-06
7.02074866190928e-06
7.02065565876806e-06
7.02038804631512e-06
7.01965117530987e-06
7.01771538094059e-06
7.01287835856924e-06
7.00141943484364e-06
6.97576921629141e-06
6.92170247319787e-06
6.81474584296678e-06
6.61678152216565e-06
6.27485230316923e-06
5.72480415347569e-06
4.90174288200032e-06
3.7568502434304e-06
2.27655193858757e-06
6.88301944644843e-09
2.62453852042659e-11
2.60765977196622e-11
6.8699538746055e-09
2.27813034950864e-06
3.76237192008652e-06
4.91152336157423e-06
5.73877937369303e-06
6.29251886918839e-06
6.63735014861714e-06
6.83736474143207e-06
6.94563216739924e-06
7.00046255918055e-06
7.02652085597716e-06
7.03818099895047e-06
7.04311002131838e-06
7.0450849240828e-06
7.04583721117429e-06
7.04611035461656e-06
7.04620502365655e-06
7.04623629719688e-06
7.04624603890258e-06
7.04624877804123e-06
7.04624933702321e-06
7.04624926215187e-06
7.0462490313005e-06
7.04624877616784e-06
7.04624853163889e-06
7.04624829699404e-06
7.04624803552e-06
7.04624761065032e-06
7.04624655985514e-06
7.04624337615429e-06
7.04623333295757e-06
7.04620219384021e-06
7.04610890462679e-06
7.04584049143136e-06
7.04510139990115e-06
7.04315966050391e-06
7.03830746802682e-06
7.02681191344867e-06
7.00107839442427e-06
6.94683391153971e-06
6.83952248143014e-06
6.64089695728205e-06
6.29781850608545e-06
5.74590669768161e-06
4.92002017378461e-06
3.77110917758419e-06
2.28542025416778e-06
6.90966828444063e-09
2.63412983696052e-11
2.61385662332198e-11
6.8871987533043e-09
2.28392088853651e-06
3.77176163549227e-06
4.92365825553777e-06
5.75289715257949e-06
6.30798835756178e-06
6.65368732190548e-06
6.85422586899598e-06
6.96279097477535e-06
7.01778068057464e-06
7.0439194614882e-06
7.05561809072109e-06
7.06056459049383e-06
7.06254706171096e-06
7.06330249226642e-06
7.06357690028913e-06
7.06367207173987e-06
7.06370355032042e-06
7.06371338390811e-06
7.06371617274246e-06
7.06371676488064e-06
7.06371671415266e-06
7.06371650114447e-06
7.06371625975097e-06
7.06371602544246e-06
7.06371579763205e-06
7.06371553953331e-06
7.0637151142895e-06
7.06371405850801e-06
7.06371086258164e-06
7.06370079164051e-06
7.06366958340837e-06
7.06357610580699e-06
7.06330716117871e-06
7.06256658698677e-06
7.06062085785574e-06
7.05575844127814e-06
7.04423811179816e-06
7.01844809060639e-06
6.96408276404641e-06
6.85652964453626e-06
6.65745299116609e-06
6.31358936546502e-06
5.76040269268987e-06
4.93258111883488e-06
3.78091411562569e-06
2.29152176165261e-06
6.92794133427934e-09
2.64067436688836e-11
2.61791444397765e-11
6.8985508015582e-09
2.28775466817864e-06
3.77799348189266e-06
4.93172792886876e-06
5.76230072235231e-06
6.31830575225263e-06
6.66459437025331e-06
6.86549093518573e-06
6.97426062277295e-06
7.02936048039995e-06
7.05555526053612e-06
7.06728084381046e-06
7.07223966779011e-06
7.07422751430337e-06
7.07498519475762e-06
7.07526051595805e-06
7.07535605436149e-06
7.07538768522186e-06
7.07539758883214e-06
7.07540041674127e-06
7.075401036164e-06
7.07540100619696e-06
7.0754008089972e-06
7.07540058034738e-06
7.07540035622133e-06
7.07540013614745e-06
7.07539988330745e-06
7.07539946066298e-06
7.07539840430566e-06
7.0753952030552e-06
7.07538511701868e-06
7.07535386796583e-06
7.07526027493071e-06
7.07499099789535e-06
7.07424948305107e-06
7.07230119508344e-06
7.06743216454117e-06
7.05589569701414e-06
7.03006866517017e-06
6.97562382382017e-06
6.86791108653946e-06
6.66853558891714e-06
6.3241504976247e-06
5.770115221727e-06
4.9410028714852e-06
3.78749351746585e-06
2.29561953503155e-06
6.94017851748282e-09
2.64503815948661e-11
2.62045663184747e-11
6.90569958514196e-09
2.29018388581601e-06
3.78195509988203e-06
4.93687158472177e-06
5.76830781854886e-06
6.32490825517206e-06
6.67158368714165e-06
6.8727167930965e-06
6.98162266314128e-06
7.03679641243186e-06
7.06302905852244e-06
7.07477301815206e-06
7.07974031569173e-06
7.0817318905727e-06
7.0824911462787e-06
7.08276711372115e-06
7.08286291543562e-06
7.08289465785494e-06
7.08290461446239e-06
7.08290747311451e-06
7.0829081150561e-06
7.08290810300917e-06
7.08290791990845e-06
7.08290770315111e-06
7.08290748912953e-06
7.08290727747071e-06
7.08290703134775e-06
7.08290661363605e-06
7.08290556017656e-06
7.08290235903435e-06
7.08289226779569e-06
7.08286099977884e-06
7.08276734694645e-06
7.08249788760699e-06
7.0817558372821e-06
7.07980605254355e-06
7.07493307211257e-06
7.0633868095752e-06
7.03753702492425e-06
6.98304279992491e-06
6.87523011433372e-06
6.6756662380837e-06
6.33095062284385e-06
5.77637495083876e-06
4.94643721128464e-06
3.79174514574352e-06
2.29827167911359e-06
6.94808573873475e-09
2.64784917198818e-11
2.62190485296578e-11
6.90979440260169e-09
2.29158617029496e-06
3.78425475870622e-06
4.93987125256084e-06
5.77182438814879e-06
6.32878518846661e-06
6.67569739583896e-06
6.87697700323213e-06
6.98596825834093e-06
7.04118890902749e-06
7.06744589279741e-06
7.07920181416349e-06
7.08417469820672e-06
7.08616876314707e-06
7.08692908524732e-06
7.08720549689377e-06
7.08730148317707e-06
7.08733330610302e-06
7.08734330270487e-06
7.08734618572717e-06
7.08734684645341e-06
7.08734685002636e-06
7.08734667961609e-06
7.08734647402859e-06
7.08734626999256e-06
7.08734606720896e-06
7.08734582886112e-06
7.0873454178137e-06
7.08734436988641e-06
7.08734117307111e-06
7.08733108449012e-06
7.08729981509702e-06
7.08720614715431e-06
7.08693662491643e-06
7.08619435756082e-06
7.0842439009792e-06
7.07936901788002e-06
7.06781778925668e-06
7.04195601927939e-06
6.98743501078945e-06
6.87956687715549e-06
6.67989661637006e-06
6.33499166176641e-06
5.78010279315447e-06
4.94968193630519e-06
3.79429149860676e-06
2.29986563268012e-06
6.95284467891757e-09
2.64954065214358e-11
2.6225159616752e-11
6.91153894565095e-09
2.29219402438282e-06
3.78526809869171e-06
4.94121104538262e-06
5.77341251485875e-06
6.33055157795397e-06
6.67758438910167e-06
6.87894084665928e-06
6.9879782549118e-06
7.04322498696577e-06
7.06949589178088e-06
7.08125884672181e-06
7.08623510567493e-06
7.08823071632857e-06
7.08899171996133e-06
7.08926842563966e-06
7.0893645401895e-06
7.08939642326707e-06
7.08940645277938e-06
7.08940935762733e-06
7.08941003605641e-06
7.08941005472463e-06
7.08940989670743e-06
7.08940970211823e-06
7.08940950794155e-06
7.08940931392849e-06
7.08940908328454e-06
7.08940867892078e-06
7.08940763683519e-06
7.08940444556609e-06
7.08939436363979e-06
7.08936310510344e-06
7.08926945782888e-06
7.08899997311487e-06
7.08825775899536e-06
7.08630732610224e-06
7.08143224610928e-06
7.06988002336023e-06
7.0440150166182e-06
6.98948538610517e-06
6.88159722501473e-06
6.68188531948422e-06
6.33690175864883e-06
5.78187692646066e-06
4.95123879197026e-06
3.7955248517177e-06
2.30064609267919e-06
6.9552017509303e-09
2.65038590540458e-11
2.62240667759639e-11
6.91125520991624e-09
2.29211517783877e-06
3.78517079717981e-06
4.94111890501952e-06
5.77333834307592e-06
6.33049999410039e-06
6.67755450746782e-06
6.87892881000812e-06
6.98797927801995e-06
7.04323467305342e-06
7.06951085783839e-06
7.08127679383365e-06
7.08625462705095e-06
7.08825102404473e-06
7.08901240530312e-06
7.08928929018857e-06
7.0893854928105e-06
7.089417423816e-06
7.08942748387381e-06
7.08943041116287e-06
7.08943110844555e-06
7.08943114315131e-06
7.08943099812853e-06
7.08943081477726e-06
7.08943063026263e-06
7.08943044436013e-06
7.08943022030345e-06
7.08942982110585e-06
7.08942878313876e-06
7.08942559612416e-06
7.08941552193908e-06
7.08938428332549e-06
7.0892906891766e-06
7.0890213383308e-06
7.08827943905846e-06
7.08632969767038e-06
7.08145603558386e-06
7.0699065201607e-06
7.04404630493206e-06
6.98952448385204e-06
6.88164794043408e-06
6.68195160338869e-06
6.33698640384166e-06
5.78197964566027e-06
4.95135388389612e-06
3.79563868562242e-06
2.30073449742211e-06
6.95552996196688e-09
2.65052239986489e-11
2.62156764757646e-11
6.9089206635021e-09
2.29134379733125e-06
3.78395562957719e-06
4.93958801995082e-06
5.77159647628272e-06
6.32862690232922e-06
6.67560610226654e-06
6.87694086988133e-06
6.98597253323691e-06
7.04122002508161e-06
7.06749337091047e-06
7.07925853183084e-06
7.08423629385662e-06
7.08623279286788e-06
7.08699428123001e-06
7.08727124389571e-06
7.0873674989176e-06
7.08739946652252e-06
7.0874095543254e-06
7.08741250393535e-06
7.08741322048271e-06
7.08741327143991e-06
7.08741313946226e-06
7.08741296723955e-06
7.08741279203246e-06
7.08741261361444e-06
7.08741239526913e-06
7.08741200018238e-06
7.08741096534762e-06
7.08740778245142e-06
7.08739771903379e-06
7.08736651306609e-06
7.08727301213768e-06
7.08700390824963e-06
7.0862626221523e-06
7.0843143179157e-06
7.0794438449133e-06
7.06790103211974e-06
7.04205414753611e-06
6.98755738018802e-06
6.8797252681796e-06
6.68010320321897e-06
6.33525496394672e-06
5.78042173124441e-06
4.950038670189e-06
3.79464376573799e-06
2.30013867218955e-06
6.95385761752804e-09
2.64996183599049e-11
2.61986567353114e-11
6.90417255261564e-09
2.28976104385816e-06
3.7814328664946e-06
4.93637693697724e-06
5.76790993730572e-06
6.32463257823304e-06
6.67142595768367e-06
6.87265644523365e-06
6.98163381641404e-06
7.03685514417242e-06
7.06311682830823e-06
7.07487719670545e-06
7.07985315737617e-06
7.08184905122021e-06
7.0826103714733e-06
7.08288730969412e-06
7.08298358084958e-06
7.08301557280053e-06
7.08302568444493e-06
7.08302865527343e-06
7.08302939064027e-06
7.08302945728417e-06
7.08302933788462e-06
7.08302917635426e-06
7.08302900998386e-06
7.08302883853493e-06
7.08302862536706e-06
7.08302823394969e-06
7.0830272022244e-06
7.08302402484904e-06
7.0830139779639e-06
7.08298282300802e-06
7.08288946834298e-06
7.08262075567953e-06
7.08188045614469e-06
7.07993451069192e-06
7.07506939418536e-06
7.06353812980567e-06
7.03771484773198e-06
6.98326371972381e-06
6.87551493943308e-06
6.67603631136841e-06
6.33142058855415e-06
5.77694226361324e-06
4.94706967740252e-06
3.7923677902073e-06
2.29875286055988e-06
6.94987112099454e-09
2.64859364872688e-11
2.61702878359597e-11
6.89627081879835e-09
2.28712478171509e-06
3.77721451218502e-06