/*--------------------------------*- C++ -*----------------------------------*\
  =========                 |
  \\      /  F ield         | OpenFOAM: The Open Source CFD Toolbox
   \\    /   O peration     | Website:  https://openfoam.org
    \\  /    A nd           | Version:  10
     \\/     M anipulation  |
\*---------------------------------------------------------------------------*/
FoamFile
{
    format      ascii;
    class       volScalarField;
    location    "5.4";
    object      h;
}
// * * * * * * * * * * * * * * * * * * * * * * * * * * * * * * * * * * * * * //

dimensions      [0 2 -2 0 0 0 0];

internalField   nonuniform List<scalar> 
2500
(
6589.85419224882
6579.75096040497
6564.222161866
6554.24422564792
6548.79017209003
6545.97343381838
6544.5704316291
6543.89787217057
6543.58976167296
6543.45625501182
6543.39993424069
6543.37734362802
6543.36857015554
6543.36462902756
6543.36258490722
6543.36108003153
6543.3603359548
6543.35953348252
6543.35866232073
6543.35804921201
6543.35752131433
6543.35705809328
6543.35667354138
6543.35643766063
6543.35619446762
6543.35597990231
6543.35589807888
6543.35585578084
6543.35586905377
6543.35595950453
6543.35612427884
6543.35643601876
6543.35682924776
6543.35734061281
6543.35798106911
6543.35895104983
6543.36076723388
6543.36461902163
6543.37468059862
6543.39907004979
6543.45844551531
6543.59816557749
6543.91300911264
6544.59061459483
6545.99194267184
6548.78809210093
6554.21674400858
6564.23184327996
6579.91844584956
6589.7243514552
5474.35252292807
5430.96342512743
5386.79516741695
5358.48921321964
5342.39907476473
5333.69456405892
5329.1475283055
5326.86715917627
5325.77786662655
5325.28472232922
5325.07262756166
5324.9861232517
5324.95256171392
5324.9398211841
5324.93495293128
5324.9328818436
5324.93202119977
5324.93142766121
5324.93088257262
5324.9304730154
5324.9301067944
5324.9297601134
5324.92946172967
5324.92926826602
5324.92909794817
5324.92894328607
5324.9288686134
5324.92881702647
5324.92877780901
5324.92880679885
5324.92888351655
5324.92903464814
5324.92937435337
5324.92992214561
5324.93080534925
5324.93285625353
5324.93826304348
5324.95257398122
5324.99002859923
5325.08351320782
5325.3072412882
5325.81764830187
5326.92550127799
5329.21527358042
5333.74387471545
5342.38639000403
5358.42036927182
5386.87920808592
5431.60622103902
5474.074365291
4388.86543649666
4321.07385054893
4261.7286705231
4224.68037286861
4203.77223844848
4192.49327606036
4186.60381143024
4183.64531201763
4182.22743258828
4181.58243225475
4181.30405822783
4181.19014431541
4181.14590117762
4181.12940721823
4181.12342465276
4181.121230728
4181.12044092285
4181.12004960077
4181.11975533127
4181.11953152115
4181.11931669332
4181.11909009273
4181.11888252801
4181.11874641549
4181.11864192804
4181.11854407948
4181.11849183959
4181.11844742777
4181.11839302891
4181.11838158738
4181.11837787298
4181.11840832008
4181.11868709127
4181.11920607384
4181.12011139656
4181.12251766912
4181.12930631931
4181.14780908613
4181.19642055273
4181.31825647426
4181.60971478058
4182.27346169943
4183.71126732295
4186.67883691236
4192.54627017538
4203.76260316614
4224.64744432071
4262.00642221937
4322.34866738059
4389.8422226463
3484.54384471207
3411.26962745799
3354.85866766047
3320.975981208
3302.48780616259
3292.82292839545
3287.91137326232
3285.49697209901
3284.35895212491
3283.84772946259
3283.62928412255
3283.54061063721
3283.5064337954
3283.49384513864
3283.48938630288
3283.48785403679
3283.48736005618
3283.48716648977
3283.48704451835
3283.48695070491
3283.48684739141
3283.48671825534
3283.48658746625
3283.48650109904
3283.48644483593
3283.48639132975
3283.48636123391
3283.48633078791
3283.48628421742
3283.48626162045
3283.48623548795
3283.48618839992
3283.48635285957
3283.4867148321
3283.48730882875
3283.488999703
3283.49396146314
3283.50778331705
3283.54460447312
3283.6381331267
3283.8647918202
3284.38819232999
3285.54003667853
3287.96260912348
3292.8644076366
3302.50251569387
3321.03547821276
3355.34162229453
3412.99400349247
3487.09230361583
2822.39277899321
2759.09543913181
2714.99857159469
2689.51898579105
2676.08869263725
2669.28967522922
2665.92705827442
2664.30790709086
2663.55583855845
2663.22131317435
2663.07929653981
2663.02189394609
2662.99985133828
2662.99178157798
2662.98896772605
2662.98805197176
2662.98779542722
2662.9877240593
2662.98769216508
2662.98766822904
2662.98763290501
2662.987571694
2662.98749759388
2662.98744821874
2662.98742340116
2662.98740012109
2662.98738599524
2662.98736839664
2662.98733734621
2662.9873158509
2662.987283751
2662.98721531972
2662.98729695467
2662.98750283253
2662.98782728421
2662.98883675555
2662.99188801289
2663.00051620648
2663.02374812568
2663.08332365426
2663.22908550012
2663.5693658652
2664.3282624376
2665.95190841207
2669.31135891205
2676.10691571517
2689.61391039386
2715.52219890963
2760.86834497798
2825.79142879671
2388.37158367923
2341.90768251116
2312.10604257782
2295.50945019539
2287.04536324011
2282.88959121809
2280.88652936556
2279.94021950561
2279.50617573638
2279.31454117384
2279.23349118907
2279.20077999402
2279.18823130663
2279.18365083153
2279.1820740412
2279.18158561278
2279.18147498594
2279.18146595666
2279.18146594331
2279.18146683834
2279.18146540472
2279.1814446662
2279.18140698522
2279.18138184713
2279.1813746011
2279.18136792182
2279.18136266087
2279.1813538885
2279.18133649174
2279.18132032889
2279.18129262045
2279.18123392809
2279.18126597463
2279.18136239599
2279.18151326589
2279.18205317332
2279.18372327369
2279.1884900863
2279.20142998449
2279.234827386
2279.31707199131
2279.5106097524
2279.94687972548
2280.89428344934
2282.89543552981
2287.05439235455
2295.58868919352
2312.53461385637
2343.39219892521
2391.69152618495
2130.08547448681
2100.09162139623
2082.16830710679
2072.52544804243
2067.75651627898
2065.48092159376
2064.41027988346
2063.91327600896
2063.68778811168
2063.58878249288
2063.54698048523
2063.53010087833
2063.52362003926
2063.52125775275
2063.52045428484
2063.52022155593
2063.52018366342
2063.52019182805
2063.52020293369
2063.5202080927
2063.52021289199
2063.52021106018
2063.52019415295
2063.52018325891
2063.52018413994
2063.52018321154
2063.52018146894
2063.52017860536
2063.52016996336
2063.52015944101
2063.52013995078
2063.52010011999
2063.52010801076
2063.52014318004
2063.52020297603
2063.52046996141
2063.52130641414
2063.52370424722
2063.53025441594
2063.54722688448
2063.58918436447
2063.68845133792
2063.914081435
2064.41038233974
2065.47869916802
2067.75609651624
2072.57222050923
2082.45550339833
2101.14950378229
2132.73432031667
1988.94211570632
1971.5311203802
1961.74879489432
1956.65281178596
1954.20310449651
1953.06466560893
1952.54102789039
1952.30188585452
1952.19442704333
1952.14743778797
1952.1276021004
1952.11957695178
1952.11648938934
1952.11536480078
1952.11498711625
1952.11488698492
1952.11487793396
1952.11488664276
1952.11489717892
1952.11490348768
1952.11490721139
1952.11490823331
1952.11490292719
1952.11489971549
1952.1149026818
1952.11490372941
1952.11490325498
1952.11490196485
1952.1148979437
1952.11489179828
1952.11488003626
1952.11485849957
1952.11485590557
1952.11486307455
1952.11488504258
1952.1150082134
1952.11539715109
1952.1165149093
1952.11958290508
1952.12754702941
1952.14726537318
1952.19406033956
1952.30107863074
1952.53906553227
1953.06026339567
1954.19803651635
1956.67308088552
1961.91328949621
1972.19213996874
1990.76060627092
1917.44677498765
1908.21250713156
1903.29699529371
1900.81237875363
1899.64888153841
1899.1212191295
1898.88361289946
1898.77675226206
1898.72914885363
1898.70839631287
1898.69962831119
1898.69607056439
1898.69469789772
1898.69419825363
1898.69403320188
1898.69399307945
1898.69399241113
1898.69399891687
1898.69400599155
1898.69401063903
1898.69401289488
1898.69401381146
1898.69401306948
1898.6940132831
1898.69401544829
1898.69401662858
1898.69401646262
1898.69401578009
1898.69401399938
1898.69401068893
1898.69400437441
1898.69399383862
1898.69399121393
1898.69399123577
1898.69399665588
1898.6940489381
1898.69421859315
1898.69470741037
1898.69605372701
1898.69954865435
1898.7081976222
1898.72874378764
1898.77592955913
1898.88183163812
1899.11743565636
1899.64328361261
1900.81788377255
1903.37957530311
1908.58250293239
1918.55451141555
1883.60937889525
1879.08038814877
1876.78090686197
1875.65098291531
1875.13453626487
1874.90554688491
1874.80447002695
1874.75966902901
1874.73987036283
1874.73125906668
1874.72761486336
1874.72613089391
1874.72555646713
1874.72534755276
1874.72527991045
1874.72526486028
1874.72526582915
1874.72526972414
1874.72527372727
1874.72527650759
1874.72527807453
1874.72527891257
1874.72527908216
1874.72527965389
1874.72528088513
1874.7252816287
1874.72528158429
1874.72528125042
1874.7252804389
1874.72527878222
1874.72527568518
1874.72527083833
1874.72526902758
1874.7252683218
1874.72526928855
1874.72528960431
1874.72535928666
1874.7255617223
1874.72612039329
1874.72756844841
1874.73114405166
1874.73963112684
1874.75916969414
1874.80335658717
1874.90307461707
1875.13028163052
1875.65057916105
1876.81777576594
1879.2688833749
1884.22048390569
1868.54500132348
1866.47132238237
1865.46098628532
1864.977507621
1864.76144617073
1864.66762553802
1864.62698287265
1864.60921738336
1864.60142520947
1864.59804216803
1864.59660748682
1864.59602095886
1864.59579313466
1864.59571037254
1864.59568411877
1864.59567880788
1864.59567970106
1864.59568173101
1864.59568375091
1864.59568521272
1864.59568612246
1864.59568665488
1864.59568692795
1864.59568735611
1864.59568796245
1864.59568833581
1864.59568831681
1864.59568816103
1864.59568780382
1864.59568702549
1864.59568561325
1864.59568349521
1864.59568245285
1864.5956818705
1864.59568185726
1864.59568937072
1864.59571655799
1864.59579651963
1864.59601732276
1864.59658802686
1864.59799205453
1864.60131657513
1864.60897643829
1864.62640579375
1864.66624968741
1864.75879534504
1864.97573911965
1865.47571433075
1866.55980126555
1868.85484184172
1862.19958903687
1861.30636530725
1860.88642630318
1860.69039813105
1860.60461263443
1860.56807551978
1860.552524757
1860.54581732342
1860.542896435
1860.54163019806
1860.5410919325
1860.54087097184
1860.54078484578
1860.54075360253
1860.54074388955
1860.54074212443
1860.54074266034
1860.54074361703
1860.54074455047
1860.54074524836
1860.54074571302
1860.54074600219
1860.54074618831
1860.54074642445
1860.54074669514
1860.54074685996
1860.54074685124
1860.54074678316
1860.54074662732
1860.54074628119
1860.5407456762
1860.54074479564
1860.54074427134
1860.54074392832
1860.54074381217
1860.54074645967
1860.54075660592
1860.54078689974
1860.54087049501
1860.54108572872
1860.54161266456
1860.54285562763
1860.54571767532
1860.55226074655
1860.56739189611
1860.60316922238
1860.6889074974
1860.89167171583
1861.34500161498
1862.34558646997
1859.65801804817
1859.29375350851
1859.12766449336
1859.05190975728
1859.01940024774
1859.00580005692
1859.00010669197
1858.99768218152
1858.99663368624
1858.99617975202
1858.99598630634
1858.99590656701
1858.9958753802
1858.99586408276
1858.99586065173
1858.99586010024
1858.99586035467
1858.99586076994
1858.99586117084
1858.99586147847
1858.99586169351
1858.99586183379
1858.99586193229
1858.99586204347
1858.99586215543
1858.99586222199
1858.99586221884
1858.99586218996
1858.99586212284
1858.99586197751
1858.99586173247
1858.99586138384
1858.99586114567
1858.99586097507
1858.99586089773
1858.99586179049
1858.99586543796
1858.99587649567
1858.99590695303
1858.99598500694
1858.99617499554
1858.99662094084
1858.99764579857
1858.99999664938
1859.00548873288
1859.01869017917
1859.0509915043
1859.12929711057
1859.30957021954
1859.72251581709
1858.68577335468
1858.54437996984
1858.48156808028
1858.45352896929
1858.44171387125
1858.43685250599
1858.43484868992
1858.43400572172
1858.43364362257
1858.4334870505
1858.43342015959
1858.4333924744
1858.43338161026
1858.4333776798
1858.43337651169
1858.43337634763
1858.43337645819
1858.43337662627
1858.43337678752
1858.43337691382
1858.43337700522
1858.43337706708
1858.43337711227
1858.43337715933
1858.43337720267
1858.43337722766
1858.43337722643
1858.43337721453
1858.43337718698
1858.43337712934
1858.43337703515
1858.43337690358
1858.43337680402
1858.43337672844
1858.43337669193
1858.43337698316
1858.43337825125
1858.43338215352
1858.43339287299
1858.43342020003
1858.43348628866
1858.43364051088
1858.43399385677
1858.43480604782
1858.43672031895
1858.44139174897
1858.45304824948
1858.48198542819
1858.5504882277
1858.71267722068
1858.32920649222
1858.27672956682
1858.25392332371
1858.24394279856
1858.23980814367
1858.23813287551
1858.23745221713
1858.2371691772
1858.23704838784
1858.23699622182
1858.23697388069
1858.23696459696
1858.23696094141
1858.23695962008
1858.23695923389
1858.236959186
1858.23695922982
1858.23695929326
1858.23695935396
1858.23695940225
1858.23695943802
1858.23695946291
1858.23695948144
1858.23695949965
1858.23695951534
1858.23695952404
1858.23695952342
1858.23695951878
1858.23695950822
1858.23695948668
1858.23695945236
1858.23695940514
1858.23695936664
1858.23695933629
1858.23695932137
1858.23695941466
1858.23695984431
1858.23696118027
1858.23696483638
1858.23697410334
1858.23699636087
1858.23704796385
1858.23716571909
1858.23743661788
1858.23807989701
1858.23967147818
1858.2437170374
1858.25399127957
1858.2789663419
1858.33986499918
1858.20341227426
1858.18471710218
1858.17673964678
1858.17331141268
1858.17191345541
1858.17135502023
1858.1711311305
1858.17103904074
1858.17099998664
1858.17098313988
1858.1709759072
1858.17097288926
1858.17097169609
1858.17097126429
1858.17097113859
1858.17097112352
1858.17097113881
1858.17097116065
1858.1709711816
1858.17097119844
1858.17097121106
1858.17097121997
1858.17097122666
1858.170971233
1858.17097123819
1858.17097124089
1858.17097124064
1858.17097123901
1858.1709712352
1858.17097122774
1858.17097121607
1858.17097120021
1858.17097118667
1858.17097117587
1858.1709711707
1858.17097120129
1858.17097134474
1858.17097179025
1858.17097300259
1858.17097605544
1858.17098333437
1858.17100009228
1858.17103814827
1858.17112567183
1858.1713347879
1858.17185866828
1858.17321368949
1858.17673067564
1858.18549703781
1858.20744244002
1858.16059408392
1858.15417930545
1858.15148318522
1858.15034351247
1858.14988552026
1858.14970494525
1858.14963342824
1858.14960430922
1858.14959203291
1858.14958674235
1858.1495844646
1858.14958350929
1858.14958312907
1858.14958299046
1858.14958294869
1858.14958294219
1858.14958294623
1858.14958295239
1858.14958295842
1858.14958296328
1858.14958296686
1858.14958296935
1858.14958297121
1858.14958297298
1858.14958297438
1858.14958297503
1858.14958297491
1858.14958297439
1858.14958297322
1858.14958297099
1858.14958296754
1858.14958296288
1858.14958295895
1858.14958295603
1858.14958295526
1858.14958296651
1858.14958301461
1858.14958316051
1858.14958355325
1858.14958453357
1858.14958685172
1858.1495921481
1858.14960410834
1858.1496315774
1858.14969752649
1858.14986460347
1858.15030388835
1858.1514679976
1858.15443915783
1858.16205460972
1858.14649490887
1858.14436869405
1858.14348609953
1858.14311851514
1858.14297276598
1858.14291598546
1858.14289374572
1858.1428847736
1858.14288101059
1858.14287938905
1858.14287868775
1858.14287839095
1858.14287827088
1858.14287822564
1858.1428782105
1858.14287820646
1858.14287820594
1858.14287820639
1858.1428782071
1858.14287820763
1858.14287820788
1858.14287820794
1858.14287820794
1858.14287820803
1858.14287820812
1858.14287820811
1858.14287820799
1858.14287820787
1858.14287820769
1858.14287820735
1858.14287820678
1858.14287820599
1858.14287820554
1858.14287820566
1858.14287820687
1858.14287821208
1858.14287822906
1858.14287827717
1858.14287840291
1858.14287871167
1858.14287943348
1858.14288106752
1858.14288473261
1858.14289312835
1858.1429133558
1858.14296511248
1858.14310330205
1858.14347681889
1858.14445164879
1858.14700402413
1858.14199313786
1858.14131059993
1858.14103015386
1858.14091488581
1858.14086973533
1858.14085233591
1858.14084558748
1858.14084288604
1858.14084175681
1858.14084126873
1858.14084105533
1858.14084096294
1858.14084092379
1858.14084090744
1858.14084090045
1858.14084089706
1858.14084089503
1858.14084089356
1858.14084089236
1858.14084089132
1858.14084089038
1858.14084088956
1858.14084088888
1858.14084088838
1858.14084088803
1858.14084088779
1858.14084088768
1858.14084088772
1858.1408408879
1858.1408408882
1858.1408408886
1858.14084088913
1858.14084088997
1858.14084089119
1858.14084089301
1858.14084089634
1858.14084090356
1858.14084092064
1858.14084096174
1858.1408410587
1858.14084128038
1858.14084177507
1858.14084287402
1858.14084537981
1858.14085142772
1858.14086703596
1858.1409093115
1858.14102573787
1858.1413360299
1858.14216437399
1858.14059639111
1858.14038372069
1858.14029707839
1858.14026187646
1858.14024823593
1858.14024302913
1858.14024102551
1858.14024022713
1858.14023989265
1858.14023974608
1858.14023967992
1858.14023964938
1858.14023963474
1858.14023962712
1858.14023962255
1858.14023961932
1858.14023961677
1858.14023961462
1858.14023961279
1858.14023961121
1858.14023960986
1858.14023960872
1858.14023960781
1858.1402396071
1858.1402396066
1858.1402396063
1858.14023960619
1858.14023960629
1858.1402396066
1858.14023960711
1858.14023960785
1858.14023960882
1858.14023961008
1858.14023961169
1858.14023961374
1858.14023961651
1858.14023962073
1858.14023962821
1858.14023964318
1858.14023967503
1858.1402397439
1858.14023989287
1858.14024021772
1858.14024095123
1858.14024271914
1858.14024731189
1858.14025991434
1858.14029523129
1858.14039121733
1858.14065211185
1858.14017447632
1858.14011004191
1858.14008399479
1858.14007351462
1858.14006948905
1858.14006796347
1858.14006737852
1858.1400671444
1858.1400670443
1858.1400669983
1858.14006697556
1858.1400669633
1858.14006695592
1858.14006695087
1858.140066947
1858.1400669438
1858.14006694106
1858.14006693869
1858.14006693664
1858.14006693487
1858.14006693338
1858.14006693213
1858.14006693112
1858.14006693035
1858.1400669298
1858.14006692948
1858.14006692937
1858.14006692949
1858.14006692984
1858.14006693044
1858.14006693129
1858.1400669324
1858.14006693382
1858.14006693557
1858.1400669377
1858.14006694032
1858.14006694365
1858.14006694823
1858.14006695532
1858.14006696761
1858.14006699089
1858.14006703738
1858.14006713413
1858.14006734708
1858.14006785521
1858.14006917811
1858.14007284636
1858.14008328419
1858.14011216751
1858.14019205814
1858.14005018158
1858.14003118271
1858.1400235755
1858.14002053617
1858.14001937386
1858.14001893402
1858.14001876385
1858.14001869347
1858.14001866106
1858.14001864408
1858.14001863388
1858.14001862692
1858.14001862165
1858.14001861734
1858.14001861366
1858.14001861045
1858.14001860765
1858.14001860519
1858.14001860306
1858.14001860123
1858.14001859968
1858.14001859839
1858.14001859735
1858.14001859656
1858.14001859599
1858.14001859566
1858.14001859555
1858.14001859568
1858.14001859606
1858.14001859668
1858.14001859757
1858.14001859874
1858.14001860022
1858.14001860202
1858.14001860419
1858.14001860677
1858.14001860984
1858.14001861357
1858.14001861833
1858.14001862488
1858.14001863484
1858.14001865159
1858.14001868258
1858.14001874604
1858.14001889196
1858.1400192677
1858.14002031322
1858.14002331764
1858.14003176057
1858.14005556978
1858.14001441484
1858.1400089735
1858.1400068372
1858.14000598446
1858.14000565559
1858.14000552905
1858.14000547765
1858.14000545386
1858.14000544065
1858.14000543189
1858.14000542525
1858.14000541981
1858.14000541514
1858.14000541104
1858.14000540741
1858.1400054042
1858.14000540136
1858.14000539888
1858.14000539672
1858.14000539487
1858.14000539329
1858.14000539199
1858.14000539094
1858.14000539013
1858.14000538956
1858.14000538922
1858.14000538912
1858.14000538926
1858.14000538964
1858.14000539028
1858.14000539119
1858.14000539238
1858.14000539388
1858.14000539571
1858.14000539789
1858.14000540046
1858.14000540346
1858.14000540694
1858.14000541103
1858.14000541592
1858.14000542206
1858.14000543035
1858.14000544275
1858.14000546415
1858.14000550819
1858.14000561577
1858.1400059094
1858.14000674689
1858.14000912187
1858.14001601887
1858.14000434746
1858.14000285153
1858.14000230014
1858.14000207562
1858.14000198419
1858.14000194622
1858.14000192818
1858.14000191741
1858.14000190955
1858.14000190309
1858.14000189746
1858.14000189245
1858.14000188795
1858.14000188391
1858.1400018803
1858.14000187708
1858.14000187424
1858.14000187175
1858.14000186958
1858.14000186771
1858.14000186613
1858.14000186482
1858.14000186376
1858.14000186295
1858.14000186238
1858.14000186205
1858.14000186195
1858.14000186209
1858.14000186248
1858.14000186312
1858.14000186404
1858.14000186524
1858.14000186675
1858.14000186859
1858.14000187078
1858.14000187335
1858.14000187633
1858.14000187974
1858.14000188363
1858.14000188805
1858.1400018931
1858.14000189902
1858.14000190626
1858.14000191606
1858.14000193201
1858.1400019653
1858.14000204814
1858.14000226841
1858.14000288518
1858.1400048092
1858.14000157227
1858.14000119794
1858.14000109543
1858.14000104756
1858.14000102237
1858.14000100894
1858.14000100009
1858.14000099289
1858.14000098649
1858.14000098066
1858.14000097532
1858.14000097043
1858.14000096599
1858.14000096197
1858.14000095837
1858.14000095516
1858.14000095232
1858.14000094982
1858.14000094765
1858.14000094579
1858.14000094421
1858.1400009429
1858.14000094184
1858.14000094103
1858.14000094046
1858.14000094013
1858.14000094003
1858.14000094018
1858.14000094057
1858.14000094122
1858.14000094214
1858.14000094335
1858.14000094486
1858.1400009467
1858.1400009489
1858.14000095147
1858.14000095444
1858.14000095782
1858.14000096165
1858.14000096593
1858.14000097068
1858.14000097594
1858.14000098178
1858.14000098844
1858.14000099682
1858.14000100997
1858.14000103498
1858.14000108331
1858.14000120216
1858.14000169802
1858.14000082248
1858.14000076008
1858.14000078194
1858.14000078265
1858.14000077552
1858.14000076871
1858.1400007623
1858.14000075604
1858.14000075002
1858.14000074436
1858.14000073909
1858.14000073424
1858.14000072982
1858.14000072582
1858.14000072223
1858.14000071903
1858.1400007162
1858.14000071371
1858.14000071155
1858.14000070969
1858.14000070811
1858.14000070681
1858.14000070576
1858.14000070495
1858.14000070439
1858.14000070406
1858.14000070397
1858.14000070411
1858.14000070451
1858.14000070516
1858.14000070608
1858.14000070729
1858.1400007088
1858.14000071064
1858.14000071283
1858.1400007154
1858.14000071836
1858.14000072174
1858.14000072554
1858.14000072978
1858.14000073445
1858.14000073954
1858.14000074502
1858.14000075088
1858.1400007573
1858.14000076514
1858.14000077468
1858.14000077621
1858.14000075715
1858.14000085184
1858.14000062417
1858.14000064677
1858.14000070226
1858.14000071591
1858.14000071349
1858.14000070834
1858.1400007025
1858.14000069643
1858.14000069048
1858.14000068484
1858.14000067959
1858.14000067476
1858.14000067034
1858.14000066636
1858.14000066278
1858.1400006596
1858.14000065678
1858.14000065431
1858.14000065216
1858.14000065032
1858.14000064876
1858.14000064746
1858.14000064642
1858.14000064562
1858.14000064506
1858.14000064474
1858.14000064465
1858.1400006448
1858.14000064519
1858.14000064585
1858.14000064676
1858.14000064797
1858.14000064948
1858.14000065131
1858.14000065349
1858.14000065605
1858.140000659
1858.14000066237
1858.14000066616
1858.1400006704
1858.14000067506
1858.14000068012
1858.14000068554
1858.14000069124
1858.14000069724
1858.14000070381
1858.14000070943
1858.14000069862
1858.14000064228
1858.14000062659
1858.14000057337
1858.14000061871
1858.14000068291
1858.14000069972
1858.14000069833
1858.14000069344
1858.14000068763
1858.14000068153
1858.14000067554
1858.14000066988
1858.14000066462
1858.14000065978
1858.14000065538
1858.14000065142
1858.14000064786
1858.1400006447
1858.14000064191
1858.14000063946
1858.14000063733
1858.14000063551
1858.14000063396
1858.14000063268
1858.14000063165
1858.14000063087
1858.14000063032
1858.14000063
1858.14000062991
1858.14000063006
1858.14000063046
1858.14000063111
1858.14000063202
1858.14000063321
1858.14000063471
1858.14000063653
1858.1400006387
1858.14000064125
1858.14000064419
1858.14000064754
1858.14000065134
1858.14000065557
1858.14000066025
1858.14000066534
1858.1400006708
1858.14000067656
1858.14000068256
1858.14000068898
1858.1400006938
1858.14000068004
1858.14000061403
1858.14000056852
1858.14000056153
1858.14000061286
1858.140000679
1858.14000069626
1858.14000069484
1858.1400006898
1858.14000068383
1858.1400006776
1858.14000067153
1858.14000066582
1858.14000066053
1858.1400006557
1858.14000065131
1858.14000064737
1858.14000064384
1858.14000064071
1858.14000063795
1858.14000063553
1858.14000063343
1858.14000063163
1858.1400006301
1858.14000062884
1858.14000062783
1858.14000062706
1858.14000062652
1858.14000062621
1858.14000062613
1858.14000062628
1858.14000062667
1858.14000062731
1858.14000062822
1858.1400006294
1858.14000063089
1858.14000063269
1858.14000063485
1858.14000063737
1858.14000064029
1858.14000064364
1858.14000064743
1858.14000065167
1858.14000065637
1858.14000066152
1858.14000066708
1858.14000067296
1858.14000067914
1858.14000068574
1858.14000069066
1858.14000067652
1858.14000060832
1858.14000055488
1858.14000056004
1858.14000061294
1858.14000067913
1858.14000069603
1858.14000069421
1858.14000068886
1858.14000068264
1858.14000067623
1858.14000067004
1858.14000066426
1858.14000065894
1858.1400006541
1858.14000064974
1858.14000064582
1858.14000064232
1858.14000063923
1858.14000063651
1858.14000063412
1858.14000063206
1858.14000063029
1858.14000062879
1858.14000062755
1858.14000062656
1858.14000062581
1858.14000062528
1858.14000062498
1858.1400006249
1858.14000062506
1858.14000062544
1858.14000062608
1858.14000062697
1858.14000062814
1858.14000062961
1858.1400006314
1858.14000063352
1858.14000063603
1858.14000063893
1858.14000064226
1858.14000064604
1858.14000065029
1858.14000065503
1858.14000066026
1858.14000066593
1858.140000672
1858.14000067843
1858.14000068537
1858.1400006907
1858.14000067695
1858.14000060862
1858.14000055307
1858.14000056152
1858.14000061485
1858.14000068048
1858.14000069668
1858.14000069429
1858.14000068849
1858.14000068195
1858.14000067532
1858.14000066899
1858.14000066313
1858.14000065778
1858.14000065294
1858.14000064859
1858.14000064471
1858.14000064126
1858.14000063821
1858.14000063553
1858.14000063319
1858.14000063117
1858.14000062944
1858.14000062797
1858.14000062677
1858.1400006258
1858.14000062506
1858.14000062455
1858.14000062426
1858.14000062418
1858.14000062434
1858.14000062472
1858.14000062535
1858.14000062623
1858.14000062738
1858.14000062882
1858.14000063058
1858.14000063268
1858.14000063515
1858.14000063803
1858.14000064134
1858.14000064511
1858.14000064938
1858.14000065416
1858.14000065947
1858.1400006653
1858.14000067159
1858.14000067834
1858.14000068573
1858.14000069164
1858.14000067858
1858.14000061078
1858.14000055466
1858.14000056415
1858.14000061759
1858.14000068237
1858.14000069765
1858.14000069453
1858.1400006882
1858.14000068127
1858.14000067438
1858.14000066789
1858.14000066194
1858.14000065655
1858.14000065171
1858.14000064739
1858.14000064355
1858.14000064015
1858.14000063716
1858.14000063453
1858.14000063225
1858.14000063027
1858.14000062858
1858.14000062716
1858.14000062598
1858.14000062504
1858.14000062433
1858.14000062383
1858.14000062355
1858.14000062348
1858.14000062363
1858.14000062401
1858.14000062463
1858.14000062549
1858.14000062662
1858.14000062804
1858.14000062976
1858.14000063183
1858.14000063426
1858.1400006371
1858.14000064038
1858.14000064415
1858.14000064842
1858.14000065325
1858.14000065866
1858.14000066465
1858.14000067121
1858.14000067835
1858.14000068627
1858.14000069292
1858.14000068078
1858.14000061381
1858.14000055752
1858.14000056755
1858.140000621
1858.14000068468
1858.14000069881
1858.14000069479
1858.14000068782
1858.14000068046
1858.14000067327
1858.14000066659
1858.14000066055
1858.14000065513
1858.1400006503
1858.14000064602
1858.14000064223
1858.14000063889
1858.14000063596
1858.1400006334
1858.14000063117
1858.14000062925
1858.14000062761
1858.14000062623
1858.14000062509
1858.14000062418
1858.14000062349
1858.14000062301
1858.14000062274
1858.14000062268
1858.14000062283
1858.14000062321
1858.1400006238
1858.14000062465
1858.14000062575
1858.14000062713
1858.14000062882
1858.14000063084
1858.14000063324
1858.14000063604
1858.14000063928
1858.14000064302
1858.1400006473
1858.14000065218
1858.14000065769
1858.14000066387
1858.14000067072
1858.14000067831
1858.14000068687
1858.14000069441
1858.14000068342
1858.14000061752
1858.14000056118
1858.14000057172
1858.14000062511
1858.14000068739
1858.14000070011
1858.14000069503
1858.14000068732
1858.14000067944
1858.14000067193
1858.14000066507
1858.14000065893
1858.14000065348
1858.14000064867
1858.14000064444
1858.14000064071
1858.14000063745
1858.14000063459
1858.1400006321
1858.14000062994
1858.14000062808
1858.1400006265
1858.14000062516
1858.14000062407
1858.14000062319
1858.14000062253
1858.14000062207
1858.14000062182
1858.14000062176
1858.14000062191
1858.14000062228
1858.14000062286
1858.14000062368
1858.14000062475
1858.14000062609
1858.14000062774
1858.14000062971
1858.14000063205
1858.1400006348
1858.140000638
1858.14000064171
1858.14000064599
1858.1400006509
1858.14000065652
1858.14000066289
1858.14000067008
1858.14000067817
1858.14000068748
1858.14000069608
1858.14000068649
1858.14000062195
1858.14000056564
1858.14000057678
1858.14000063002
1858.14000069056
1858.14000070156
1858.14000069521
1858.14000068664
1858.14000067821
1858.14000067035
1858.14000066329
1858.14000065706
1858.14000065161
1858.14000064683
1858.14000064265
1858.14000063901
1858.14000063582
1858.14000063305
1858.14000063064
1858.14000062856
1858.14000062677
1858.14000062525
1858.14000062397
1858.14000062292
1858.14000062209
1858.14000062145
1858.14000062102
1858.14000062077
1858.14000062073
1858.14000062087
1858.14000062123
1858.14000062179
1858.14000062258
1858.14000062362
1858.14000062492
1858.14000062652
1858.14000062843
1858.14000063072