/*--------------------------------*- C++ -*----------------------------------*\
  =========                 |
  \\      /  F ield         | OpenFOAM: The Open Source CFD Toolbox
   \\    /   O peration     | Website:  https://openfoam.org
    \\  /    A nd           | Version:  10
     \\/     M anipulation  |
\*---------------------------------------------------------------------------*/
FoamFile
{
    format      ascii;
    class       volScalarField;
    location    "5.4";
    object      k;
}
// * * * * * * * * * * * * * * * * * * * * * * * * * * * * * * * * * * * * * //

dimensions      [0 2 -2 0 0 0 0];

internalField   nonuniform List<scalar> 
2500
(
1.25016920599622e-09
2.44233857819709e-08
1.03524802716986e-07
1.76831959618997e-07
2.36308892843809e-07
2.80193259699718e-07
3.09799222946817e-07
3.28136816547749e-07
3.38610071455004e-07
3.44150483589655e-07
3.46877364199288e-07
3.48131482290814e-07
3.48672663369555e-07
3.48892595962239e-07
3.48977030329556e-07
3.49007707782501e-07
3.49018242017353e-07
3.49021625529748e-07
3.49022601835988e-07
3.49022814440327e-07
3.49022804821624e-07
3.49022741993728e-07
3.49022677381721e-07
3.49022623139199e-07
3.49022582743787e-07
3.49022557815954e-07
3.49022550461426e-07
3.49022553115528e-07
3.49022553788959e-07
3.49022542770939e-07
3.4902243604814e-07
3.49021987940984e-07
3.49020479906607e-07
3.49015824748162e-07
3.49002280501433e-07
3.48964811500636e-07
3.48866070166369e-07
3.48618460902837e-07
3.4802906797808e-07
3.46701623960564e-07
3.43883197203857e-07
3.3826479724202e-07
3.27794700160178e-07
3.09637479431041e-07
2.8046977069438e-07
2.37263416781743e-07
1.78493174287349e-07
1.05447316089334e-07
2.52864486226937e-08
1.32413493168746e-09
3.06841415837433e-08
6.98874594641377e-07
3.02462233994042e-06
5.17208646210775e-06
6.92008863727105e-06
8.21623834700313e-06
9.09603938407575e-06
9.64482912097322e-06
9.96069665178308e-06
1.0129173319524e-05
1.02128066369679e-05
1.02516081511582e-05
1.02685001120215e-05
1.02754257367732e-05
1.02781081035231e-05
1.02790913969466e-05
1.0279432232782e-05
1.02795429490308e-05
1.02795754944346e-05
1.02795829813278e-05
1.0279583061185e-05
1.02795813048487e-05
1.02795794207983e-05
1.02795778250671e-05
1.02795766354701e-05
1.02795759037864e-05
1.02795756891744e-05
1.02795757607158e-05
1.02795757627621e-05
1.02795752991182e-05
1.02795715861705e-05
1.02795567244404e-05
1.02795074979953e-05
1.02793569910367e-05
1.02789226471576e-05
1.02777303037676e-05
1.02746120920336e-05
1.02668528210218e-05
1.02485268750618e-05
1.0207576150213e-05
1.01213120274865e-05
9.95068293403284e-06
9.63511111178293e-06
9.09178681159957e-06
8.22480673962479e-06
6.94813647235588e-06
5.22012351232064e-06
3.07971153480558e-06
7.22947662061401e-07
3.24184490473572e-08
1.07980621482394e-07
3.11408502556631e-06
1.52198031351077e-05
2.59414474448188e-05
3.46028466538971e-05
4.10060805433633e-05
4.53521068320064e-05
4.80691756203352e-05
4.96394017464551e-05
5.04813916785332e-05
5.0901944574056e-05
5.10983695190751e-05
5.11844849635874e-05
5.12200487338895e-05
5.12339256638635e-05
5.12390519136444e-05
5.12408436855287e-05
5.12414317355069e-05
5.12416075597771e-05
5.12416499486001e-05
5.12416522977832e-05
5.12416444910129e-05
5.12416356077021e-05
5.1241627980873e-05
5.12416222653581e-05
5.12416187305047e-05
5.12416176565842e-05
5.12416178789517e-05
5.12416177569884e-05
5.12416147369224e-05
5.12415942473891e-05
5.12415155125483e-05
5.12412576856712e-05
5.12404749336678e-05
5.12382286574221e-05
5.12320939487551e-05
5.12161313532919e-05
5.11766120348068e-05
5.10837536642451e-05
5.08773221861111e-05
5.04446650842145e-05
4.95929725535082e-05
4.80244788818078e-05
4.53328781203724e-05
4.10458055776758e-05
3.47317427746691e-05
2.61617964738372e-05
1.54724005223441e-05
3.21052612004552e-06
1.13070997461163e-07
1.89700296588896e-07
5.50903615427254e-06
2.69536205953843e-05
4.56964861524571e-05
6.07114752125672e-05
7.17489558330539e-05
7.92148398563547e-05
8.38750722667372e-05
8.65678201053898e-05
8.80129488562986e-05
8.87358782201333e-05
8.90742289481975e-05
8.92229286631597e-05
8.92845069794158e-05
8.93086075373688e-05
8.93175403759078e-05
8.9320674800517e-05
8.93217087463398e-05
8.93220206250323e-05
8.93220975125979e-05
8.93221032499256e-05
8.93220909729712e-05
8.93220763574584e-05
8.93220636763212e-05
8.93220541093703e-05
8.93220481145606e-05
8.93220461547609e-05
8.93220462695387e-05
8.93220461874952e-05
8.93220406626646e-05
8.9322005525791e-05
8.93218718474058e-05
8.932143392376e-05
8.93201030262717e-05
8.93162785512755e-05
8.93058192355311e-05
8.9278568930205e-05
8.92110278776326e-05
8.90521758713424e-05
8.86987582012432e-05
8.79575396371193e-05
8.6497476082395e-05
8.38063346604066e-05
7.91821760157177e-05
7.18010534766356e-05
6.0892311422538e-05
4.6009159454648e-05
2.73112747303203e-05
5.64379634710491e-06
1.96710760538247e-07
2.68427335254099e-07
7.80027059390137e-06
3.80076232131273e-05
6.41324856333815e-05
8.49184788327805e-05
0.00010012783650834
0.000110387525610005
0.000116783756626307
0.000120479224878928
0.000122463943190285
0.000123458132036175
0.000123924271160934
0.000124129570288644
0.000124214794838192
0.000124248241469655
0.000124260676812136
0.000124265056278866
0.000124266508142821
0.000124266950059466
0.000124267061517498
0.000124267072052265
0.000124267056850452
0.000124267037848873
0.000124267021149874
0.000124267008438265
0.000124267000311644
0.000124266997269372
0.000124266997112728
0.000124266997114742
0.000124266988761533
0.000124266940435795
0.000124266758873391
0.000124266164136183
0.000124264355216311
0.000124259150157724
0.000124244894332145
0.000124207700073301
0.000124115393544228
0.000123898049765619
0.000123414031431078
0.000122398058587045
0.000120395214179982
0.000116700414042583
0.000110344147069518
0.000100179896070383
8.51159687991805e-05
6.44787533403482e-05
3.84047590299418e-05
7.95152738165236e-06
2.76424064739022e-07
3.4169493346703e-07
9.93277845246998e-06
4.81908756173945e-05
8.09784181945682e-05
0.000106916579842768
0.000125824359270142
0.000138551269491286
0.000146478456908392
0.000151058644263064
0.000153520348693042
0.000154755028782994
0.000155334886989454
0.000155590777424706
0.000155697244905386
0.000155739135508625
0.000155754755926024
0.000155760276615653
0.000155762115865279
0.000155762680841132
0.000155762826739823
0.000155762843614197
0.0001557628270223
0.000155762805035079
0.000155762785405877
0.000155762770293841
0.000155762760384589
0.000155762756000196
0.000155762755511345
0.000155762755558147
0.000155762743817855
0.000155762683462389
0.000155762459990518
0.000155761729191663
0.000155759506018776
0.000155753102640827
0.000155735543072623
0.000155689671760062
0.00015557569896733
0.000155307065879756
0.000154708305192085
0.000153450545471049
0.00015096936611622
0.0001463888143934
0.000138501238953061
0.000125870198636328
0.000107108746905968
8.13202770503719e-05
4.85856649917362e-05
1.00868978227577e-05
3.500798903475e-07
4.08131248459354e-07
1.18693725204046e-05
5.73693328723146e-05
9.6057700661215e-05
0.000126518429706374
0.000148655154966483
0.000163530323179826
0.000172789735963583
0.000178140535083562
0.000181018593851279
0.000182463834666303
0.000183143634744795
0.000183444182728881
0.000183569494919931
0.000183618918203864
0.000183637398312245
0.00018364395182967
0.000183646145696893
0.000183646825616847
0.000183647005539873
0.000183647030370628
0.000183647013684416
0.000183646990050201
0.000183646968541758
0.000183646951756944
0.000183646940449484
0.000183646934786793
0.000183646933758507
0.000183646932782366
0.000183646917746206
0.000183646846470388
0.000183646586325095
0.000183645738307783
0.0001836431595428
0.000183635727064933
0.000183615324824487
0.000183561970134468
0.000183429269581247
0.000183116214897188
0.000182417909979379
0.000180950105149367
0.000178052924074048
0.000172701249635876
0.000163478912625827
0.000148693837812704
0.000126694309739661
9.6373764068625e-05
5.77373737540964e-05
1.20181061767175e-05
4.16518524877248e-07
4.66939170412112e-07
1.35872880968615e-05
6.54660107786144e-05
0.00010928385978963
0.000143648161579858
0.000168560699287358
0.000185279500906606
0.000195682268216702
0.000201695321057459
0.000204932032357562
0.000206559223806273
0.000207325714341301
0.000207665168035442
0.000207806978560034
0.000207863033130997
0.000207884046838076
0.000207891522709399
0.000207894036915148
0.000207894822700383
0.000207895035607673
0.000207895069476074
0.0002078950542551
0.000207895030175585
0.000207895007733007
0.000207894989938429
0.000207894977614896
0.00020789497085319
0.000207894968634506
0.000207894965976563
0.000207894947687504
0.000207894866541559
0.000207894574463345
0.000207893626360077
0.000207890745733052
0.000207882440120884
0.000207859622640193
0.000207799897172836
0.000207651221353965
0.000207300206461762
0.000206516711486087
0.000204868942628168
0.000201615019862394
0.00019560157476282
0.000185232813396619
0.000168595383953817
0.000143805525534266
0.00010956582614097
6.57962157590428e-05
1.37263457547057e-05
4.75099422179718e-07
5.17793685887553e-07
1.50767627035256e-05
7.24581671623317e-05
0.000120653061466015
0.000158330108977471
0.000185591656682435
0.000203869245547594
0.000215239275986978
0.000221813534118969
0.000225354951147102
0.000227137228485626
0.000227977893916429
0.000228350782082382
0.000228506840204828
0.000228568652858778
0.000228591880513974
0.000228600168767528
0.000228602968356174
0.000228603850300488
0.000228604094589539
0.000228604138302468
0.00022860412571264
0.000228604102183933
0.000228604079601742
0.000228604061363523
0.000228604048363836
0.000228604040632824
0.000228604036988998
0.000228604032368433
0.000228604010617269
0.000228603920434999
0.00022860360070809
0.000228602568029398
0.000228599434299623
0.000228590397631801
0.000228565555996233
0.000228500482230032
0.000228338371075322
0.000227955380095633
0.000227100030449769
0.000225300317329539
0.00022174498003774
0.000215172097556557
0.000203833674625558
0.000185628256370113
0.000158473020581645
0.00012090223274593
7.27492730426076e-05
1.52048018657729e-05
5.25618414919264e-07
5.60776380330387e-07
1.63395028407063e-05
7.83709134366302e-05
0.000130232366065235
0.000170673195348544
0.000199890942858029
0.000219466423787463
0.000231642670962134
0.000238685628869815
0.000242482225557541
0.000244394819469411
0.00024529805668751
0.000245699273311419
0.000245867462260601
0.000245934204343799
0.000245959339306919
0.000245968332941084
0.000245971383136011
0.000245972351227953
0.000245972624885635
0.000245972678671958
0.000245972669528322
0.000245972647322413
0.000245972625226162
0.000245972606999776
0.000245972593611266
0.000245972585043388
0.00024597257999926
0.000245972573304062
0.00024597254805153
0.000245972449451532
0.00024597210598199
0.00024597100266592
0.000245967659553453
0.000245958019446219
0.000245931506064825
0.000245862008674629
0.000245688767080728
0.000245279246988477
0.000244364212208881
0.000242438178151448
0.000238632107666075
0.000231593674896991
0.000219448062736782
0.000199936749959573
0.000170809587024841
0.000130456312209416
7.86282906671547e-05
1.64572591909869e-05
5.68246756211978e-07
5.96299262971303e-07
1.738665201323e-05
8.32681196777347e-05
0.000138144789991078
0.000180852066240492
0.00021167250675541
0.000232311794815471
0.000245149817654192
0.000252578378360045
0.000256585529607195
0.00025860602656559
0.00025956128032043
0.000259986151422425
0.000260164519510693
0.000260235420585288
0.000260262174887805
0.000260271772086301
0.000260275039101681
0.000260276083169296
0.000260276383667011
0.000260276447422249
0.000260276442297178
0.000260276421962277
0.000260276400808097
0.000260276382937715
0.000260276369394622
0.000260276360131097
0.000260276353775068
0.000260276345038597
0.000260276316278542
0.000260276210028398
0.00026027584638785
0.000260274684835538
0.000260271170990476
0.000260261040252844
0.000260233167346079
0.00026016006796231
0.00025997774994617
0.000259546567411656
0.00025858274377775
0.000256553369373397
0.000252542076956321
0.000245122489865358
0.000232315897678396
0.000211734942944377
0.000180991553813874
0.000138354372202087
8.35009366583447e-05
1.74961558696452e-05
6.0345684885038e-07
6.25017148363336e-07
1.82363847647795e-05
8.72418686697515e-05
0.000144552835800598
0.000189086769095472
0.000221198692764858
0.000242696043136209
0.000256068829212852
0.000263809774457524
0.000267988032253511
0.00027009653436179
0.000271094385753049
0.000271538715548277
0.000271725498752534
0.000271799856964943
0.000271827965798434
0.000271838071777571
0.000271841523556266
0.000271842633542034
0.000271842958102741
0.000271843031408559
0.000271843030569823
0.0002718430124377
0.000271842992525904
0.000271842975254093
0.000271842961741289
0.000271842951924372
0.000271842944376101
0.000271842933684263
0.00027184290158946
0.000271842788541438
0.000271842407990517
0.000271841199103532
0.000271837548154059
0.000271827024778619
0.000271798063951052
0.000271722079032047
0.000271532480146049
0.000271083898903656
0.000270080849990985
0.000267968332355255
0.000263791854287435
0.000256065404540407
0.000242726614827094
0.000221284307548325
0.000189238871987901
0.000144759765080361
8.74607321398773e-05
1.83402844195696e-05
6.31937546701908e-07
6.47737408125207e-07
1.89113929839297e-05
9.04017072263958e-05
0.000149642163494265
0.000195622856117751
0.000228758176592292
0.000250936445476275
0.000264734514492949
0.000272724580724452
0.00027703974336542
0.000279218924830301
0.000280251130893858
0.000280711226105174
0.00028090486144956
0.000280982050257811
0.000281011275115349
0.00028102180351325
0.000281025410330393
0.000281026576599176
0.000281026922322551
0.000281027004480884
0.000281027007928939
0.000281026992143028
0.000281026973638333
0.000281026957118296
0.000281026943774888
0.000281026933539754
0.000281026924942331
0.00028102691245155
0.000281026877316689
0.000281026758365378
0.000281026363858288
0.000281025117084084
0.0002810213577861
0.000281010525324889
0.000280980708336426
0.000280902450428719
0.000280707109096546
0.000280244789350609
0.000279210737744681
0.000277032461430165
0.000272725283302764
0.000264755988603683
0.000250996005709581
0.000228871964628852
0.000195795716843041
0.000149857197263696
9.06168721121317e-05
1.90124185366316e-05
6.54508503997208e-07
6.65336371850765e-07
1.94365290673446e-05
9.2864742766105e-05
0.000153606805541464
0.000200713505072181
0.000234646192748973
0.000257355972499888
0.000271486830175959
0.000279672423082401
0.000284095411905415
0.00028633047803852
0.000287389964588051
0.0002878626375728
0.000288061767445066
0.000288141238687419
0.000288171369117178
0.000288182242893078
0.000288185977795022
0.000288187191337931
0.000288187555304921
0.000288187645448805
0.000288187653003546
0.000288187639555394
0.00028818762251463
0.000288187606827835
0.000288187593755353
0.000288187583229771
0.000288187573745752
0.000288187559668632
0.000288187521864504
0.000288187397912084
0.000288186992090015
0.000288185715484869
0.000288181871980009
0.000288170800301504
0.000288140320998151
0.000288060303253008
0.00028786051066301
0.000287387529608658
0.000286329397531744
0.000284100011730594
0.000279691209360395
0.000271533058361019
0.00025744550452953
0.00023479124675362
0.000200913128092683
0.000153838603514185
9.30849222139006e-05
1.95371165877638e-05
6.72042314088869e-07
6.78689353831448e-07
1.9836807211538e-05
9.47473333430448e-05
0.000156636916928487
0.000204604790079961
0.000239148281025186
0.000262266118596175
0.000276653174140654
0.000284989780244111
0.00028949635260141
0.000291774914615672
0.000292855728054339
0.000293338281018261
0.000293541749240401
0.000293623032800927
0.000293653886829833
0.000293665038671234
0.000293668877743526
0.000293670130336953
0.00029367050972407
0.0002936706069131
0.000293670618282871
0.000293670607033709
0.000293670591431349
0.000293670576604068
0.000293670563872947
0.000293670553175074
0.000293670542977943
0.000293670527561239
0.000293670487497585
0.000293670359419286
0.000293669944601659
0.000293668644915198
0.000293664737087689
0.000293653483462671
0.000293622500698495
0.000293541144171598
0.000293337961502769
0.000292856851981287
0.000291780343956426
0.000289511930911301
0.000285025496340352
0.000276723045106442
0.000262385183520436
0.000239325749577993
0.000204834754705938
0.00015689150159908
9.49790711142494e-05
1.99388814078623e-05
6.85400505771186e-07
6.8861809175371e-07
2.01358772564774e-05
9.61587786389001e-05
0.00015890958300302
0.000207524695257617
0.000242528196776431
0.000265954143160275
0.000280535229906665
0.000288986600207513
0.000293556936851234
0.000295868820762777
0.000296966047110788
0.000297456240882375
0.000297663081898484
0.000297745782464908
0.000297777205855231
0.000297788578139319
0.000297792500615602
0.000297793784938209
0.000297794177083632
0.000297794280395647
0.000297794295277973
0.000297794285946666
0.000297794271698704
0.000297794257717724
0.000297794245374478
0.000297794234612048
0.000297794223876966
0.000297794207381325
0.000297794165476861
0.000297794034091423
0.000297793612274647
0.000297792295057992
0.000297788338968994
0.000297776949402897
0.000297745590698261
0.000297663233729445
0.000297457514903378
0.000296970317812382
0.000295880035342984
0.000293582348294671
0.000289037656602463
0.0002806268911228
0.000266101119474291
0.000242737482587541
0.000207786250156912
0.00015919029372336
9.64062905495049e-05
2.02407713820688e-05
6.95386338989379e-07
6.9585633454448e-07
2.03550011799707e-05
9.71971042656182e-05
0.000160582773687823
0.000209675958586687
0.000245020078915276
0.000268674826835925
0.000283400474378332
0.000291937661488281
0.000296555870692632
0.00029889288106905
0.000300002541765412
0.000300498553268107
0.00030070797612926
0.000300791767679592
0.000300823632240717
0.000300835176617578
0.000300839164839486
0.00030084047452998
0.000300840877060392
0.000300840985533966
0.000300841003387231
0.000300840995888621
0.000300840982884483
0.000300840969711597
0.000300840957784793
0.000300840947053773
0.000300840935949512
0.00030084091863223
0.000300840875290735
0.000300840741338515
0.000300840314205082
0.000300838983938414
0.000300834992310819
0.000300823503023296
0.000300791868665457
0.000300708777531839
0.000300501195414091
0.000300009520842716
0.000298909097614835
0.000296589843569345
0.000292002210492565
0.000283511580102889
0.000268847224280828
0.000245259195509404
0.000209968380473774
0.000160890572479622
9.7462463143505e-05
2.04634807085919e-05
7.02714582373401e-07
7.01031918275903e-07
2.05124942061059e-05
9.79467756992395e-05
0.000161792177235969
0.000211232415423392
0.000246824510363183
0.000270646360459943
0.000285477959111266
0.000294078286439118
0.000298731866355458
0.000301087525590673
0.000302206459779401
0.000302706832497218
0.000302918201432631
0.000303002820152635
0.000303035021367052
0.000303046698053067
0.000303050737308817
0.000303052066964789
0.000303052477846568
0.000303052590541728
0.000303052610936517
0.000303052605066784
0.000303052593180827
0.000303052580764461
0.000303052569270327
0.00030305255865468
0.000303052547337288
0.000303052529439851
0.000303052485033365
0.000303052349163293
0.000303051918102361
0.000303050578335472
0.000303046561058571
0.000303035000011923
0.000303003167307468
0.000302919547355725
0.000302710621360085
0.000302215713478707
0.000301107959729961
0.000298773102667104
0.000294154383963945
0.000285605913156939
0.000270841157363945
0.000247090514088636
0.000211553512131308
0.000162126160513213
9.82303072146952e-05
2.06248468523377e-05
7.07996392594225e-07
7.04662188435158e-07
2.06235486804085e-05
9.84780102534693e-05
0.00016265041124302
0.000212338230729187
0.000248107794808983
0.00027204965333295
0.000286957631597888
0.000295603662916128
0.000300282958808358
0.000302652240487737
0.000303777982659826
0.000304281574094346
0.000304494387371209
0.000304579623687017
0.000304612077909714
0.000304623854784624
0.000304627933056609
0.000304629278187171
0.000304629695697688
0.000304629811817332
0.000304629834325809
0.000304629829861493
0.000304629818967874
0.000304629807251808
0.000304629796198161
0.000304629785769562
0.000304629774378098
0.000304629756117572
0.000304629710975954
0.000304629573741025
0.0003046291398774
0.000304627793375009
0.000304623758001559
0.000304612146392029
0.000304580173820419
0.000304496180389447
0.000304286303704883
0.000303789105070151
0.000302676151188282
0.00030033021438941
0.000295689404154273
0.000287099802517272
0.000272263615030771
0.000248397220989989
0.000212684884474571
0.000163008399149204
9.87787809813917e-05
2.07397064280001e-05
7.11736226097271e-07
7.071589827586e-07
2.07003384538949e-05
9.88472716982085e-05
0.000163247989478731
0.000213109264850167
0.000249003611179252
0.00027303017240979
0.000287992279893732
0.000296670842468086
0.000301368527860963
0.00030374759920449
0.000304878259503535
0.000305384188990902
0.000305598057531354
0.000305683747865038
0.00030571638933626
0.000305728240933674
0.000305732348589768
0.000305733705537503
0.000305734128226529
0.000305734247076636
0.000305734271330511
0.000305734268081711
0.00030573425806499
0.000305734246994712
0.000305734236384523
0.000305734226203202
0.000305734214857773
0.000305734196422666
0.000305734150828875
0.000305734012689062
0.000305733576918147
0.000305732225802684
0.000305728178016497
0.000305716531662553
0.00030568446274182
0.000305600211354688
0.00030538967643585
0.000304890888380641
0.000303774320074302
0.00030142067111083
0.000296764466040646
0.000288146174665357
0.000273260121779629
0.000249312863246702
0.000213477938527828
0.000163627095992497
9.9163578085245e-05
2.08200047202003e-05
7.14337275377334e-07
7.08839508026256e-07
2.07523011116361e-05
9.90985255172481e-05
0.000163655413166889
0.000213635803095009
0.000249616187703511
0.00027370140020337
0.000288701156896611
0.000297402454048891
0.000302113055873131
0.000304499039901706
0.000305633192428577
0.000306140791843716
0.00030635541873213
0.000306441437462125
0.000306474215328593
0.000306486121796234
0.000306490251251936
0.000306491617096354
0.000306492043772125
0.000306492164778517
0.000306492190471029
0.000306492188269801
0.000306492179027289
0.000306492168553148
0.000306492158386422
0.000306492148501645
0.000306492137302671
0.000306492118851331
0.000306492073041185
0.000306491934370906
0.000306491497396154
0.000306490143281768
0.000306486087321315
0.000306474417908172
0.000306442284653845
0.000306357860149824
0.000306146881601501
0.000305647018549835
0.000304527998584667
0.00030216910615193
0.000297502414056524
0.000288864547959501
0.000273944425965673
0.000249941850449783
0.000214022962996989
0.000164052536063258
9.94283247311763e-05
2.0875065436936e-05
7.16112086091264e-07
7.09939961120467e-07
2.07865076997334e-05
9.92648763525357e-05
0.000163925818204913
0.000213985953065434
0.000250024216603884
0.000274149080738087
0.000289174422976468
0.00029789125479166
0.000302610733562263
0.00030500149714814
0.000306138079513042
0.000306646848477593
0.00030686201011875
0.000306948262084857
0.00030698113757513
0.000306993083665772
0.000306997229043608
0.000306998601495456
0.000306999031209503
0.000306999153911341
0.000306999180787722
0.000306999179487304
0.000306999170930716
0.000306999161009519
0.000306999151284607
0.000306999141735517
0.000306999130764718
0.000306999112426163
0.000306999066591032
0.000306998927689739
0.000306998490059985
0.000306997134174344
0.00030699307320508
0.000306981389368384
0.00030694921529803
0.000306864679763166
0.000306653414227683
0.000306152850929177
0.000305032225034103
0.000302669882375658
0.000297996264309754
0.000289345431074094
0.000274402682195113
0.000250363284999636
0.000214388389583984
0.000164338021428928
9.96061301777402e-05
2.09119390926033e-05
7.17295514551572e-07
7.10629397353207e-07
2.08080491463174e-05
9.93702837738775e-05
0.000164097718886612
0.000214209144236702
0.000250284873790991
0.000274435573513353
0.000289477700158847
0.000298204795803273
0.00030293018369804
0.000305324153526259
0.000306462378933457
0.000306971945264815
0.000307187474580581
0.00030727388832319
0.000307306832164582
0.000307318806295983
0.000307322963098982
0.000307324340391396
0.00030732477240499
0.000307324896440762
0.000307324924294231
0.000307324923771361
0.000307324915826525
0.00030732490642134
0.000307324897134858
0.000307324887950896
0.000307324877271548
0.000307324859147026
0.00030732481343763
0.00030732467454103
0.000307324236685539
0.000307322879976998
0.000307318816412969
0.000307307124665633
0.000307274927359502
0.000307190326876426
0.000306978889947041
0.000306477901623679
0.000305356288441257
0.000302991802935992
0.000298313847935074
0.000289654840622768
0.00027469774974493
0.000250634903856714
0.000214624193449194
0.00016452250557528
9.97212103157587e-05
2.093576584671e-05
7.18057852396289e-07
7.11022166021373e-07
2.08203884765274e-05
9.94311329375794e-05
0.000164197507761029
0.000214339308542685
0.00025043746792877
0.000274603804807198
0.000289656205740643
0.000298389658429297
0.000303118751367685
0.000305514756340291
0.00030665403780282
0.000307164123172994
0.000307379894895032
0.00030746641668439
0.00030749940679776
0.000307511400203562
0.000307515565015129
0.00030751694580076
0.000307517379549717
0.000307517504642909
0.000307517533311439
0.000307517533466311
0.00030751752607211
0.000307517517151581
0.00030751750829837
0.000307517499499501
0.000307517489157515
0.000307517471322154
0.000307517425852799
0.000307517287143938
0.000307516849403745
0.000307515492635429
0.000307511428415588
0.000307499733938582
0.000307467527214099
0.000307382897576137
0.000307171378081012
0.000306670174258087
0.000305548040985424
0.000303182393246086
0.000298502032160725
0.000289838408465862
0.000274873101537302
0.000250796665060686
0.000214764990720649
0.000164632998438313
9.97903759510402e-05
2.09501062977004e-05
7.18516589682367e-07
7.11187922133885e-07
2.08256460306958e-05
9.94575120469963e-05
0.000164241483714721
0.00021439745145704
0.000250506387609684
0.00027468046034968
0.000289738094925214
0.00029847488251395
0.000303205978236818
0.000305603114980142
0.000306743000523935
0.000307253391101739
0.000307469309269785
0.000307555898131051
0.000307588917817383
0.000307600923981674
0.00030760509435887
0.000307606477754522
0.000307606912931473
0.000307607038971678
0.00030760706840833
0.000307607069218182
0.000307607062361713
0.000307607053918397
0.000307607045492981
0.000307607037074665
0.000307607027066948
0.000307607009521591
0.000307606964305705
0.000307606825837488
0.000307606388386023
0.000307605032088718
0.000307600968765479
0.000307589275916091
0.000307557071500041
0.000307472442886064
0.000307260914838155
0.000306759667857632
0.000305637394091749
0.000303271372138034
0.000298590141855017
0.000289924710814317
0.00027495599250664
0.000250873655520371
0.000214832551936707
0.000164686520705886
9.98242443880967e-05
2.09572095120472e-05
7.18745842708041e-07
7.11158318288111e-07
2.08247920352088e-05
9.94540954533005e-05
0.000164237269317651
0.00021439346328542
0.000250503180733642
0.000274678234657469
0.000289736811570881
0.000298474373845338
0.000303206036442232
0.00030560354917848
0.000306743663870287
0.000307254183818269
0.000307470170302934
0.000307556793287173
0.000307589829360055
0.000307601843300627
0.00030760601749943
0.000307607402974721
0.000307607839477051
0.000307607966490974
0.000307607996745679
0.000307607998251396
0.000307607991958751
0.000307607984003046
0.000307607975996864
0.000307607967930464
0.000307607958208568
0.000307607940887371
0.000307607895850185
0.000307607757566565
0.000307607320450971
0.00030760596501805
0.000307601903999733
0.000307590216958313
0.000307558026201912
0.000307473427588251
0.000307261961053187
0.000306760831519782
0.000305638765604909
0.000303273082392048
0.000298592355982622
0.000289927600058418
0.000274959677758858
0.000250878123900465
0.000214837555523247
0.000164691467422801
9.98280847873981e-05
2.09581994226665e-05
7.1878289074957e-07
7.10930818012079e-07
2.08177585966567e-05
9.94206300457085e-05
0.000164184551089962
0.000214327048469005
0.000250427613136859
0.000274596974354769
0.000289652284130027
0.000298388131395534
0.00030311897828033
0.000305516148209117
0.000306656139771518
0.000307166626112517
0.000307382609518042
0.000307469236932728
0.000307502277654308
0.000307514294970285
0.000307518471442894
0.000307519858506285
0.000307520296212483
0.000307520424194909
0.000307520455285504
0.000307520457496366
0.000307520451769746
0.000307520444296906
0.000307520436694576
0.000307520428952927
0.000307520419478847
0.000307520402336019
0.000307520357434745
0.000307520219329817
0.000307519782681402
0.000307518428664917
0.000307514371691223
0.000307502695364688
0.000307470531212279
0.000307385994952284
0.00030717466678087
0.000306673828049465
0.000305552340495644
0.000303187744247945
0.00029850894548907
0.000289847411810688
0.000274884563695873
0.000250810537952047
0.000214780498634309
0.000164648305689604
9.98022366806844e-05
2.09531613179072e-05
7.1863090676831e-07
7.10469299902126e-07
2.08034526749446e-05
9.93519594357778e-05
0.000164075096730654
0.000214187730426184
0.000250267666863081
0.000274423674489582
0.000289470922262479
0.000298202245249125
0.000302930736630271
0.000305326771417381
0.000306466257034784
0.000306976535453072
0.000307192440708245
0.000307279041868873
0.000307312075297763
0.00030732409155363
0.000307328268726459
0.000307329656846278
0.000307330095586972
0.00030733022449007
0.000307330256397238
0.000307330259288741
0.000307330254107882
0.000307330247098981
0.000307330239880074
0.000307330232440812
0.000307330223191381
0.000307330206207768
0.000307330161441413
0.000307330023576029
0.000307329587644937
0.000307328235841779
0.000307324185214222
0.000307312525862261
0.000307280404515006
0.000307195970597999
0.000306984874833511
0.000306484537161078
0.000305364073661118
0.000303001457581266
0.000298326274344367
0.000289670963949929
0.000274718203964133
0.000250659576451609
0.000214651684823748
0.000164549559380093
9.97421113283185e-05
2.09411502766663e-05
7.18259907108501e-07
7.09700009125698e-07
2.07796443462655e-05
9.92375774316382e-05
0.000163892071226559