/*--------------------------------*- C++ -*----------------------------------*\
  =========                 |
  \\      /  F ield         | OpenFOAM: The Open Source CFD Toolbox
   \\    /   O peration     | Website:  https://openfoam.org
    \\  /    A nd           | Version:  10
     \\/     M anipulation  |
\*---------------------------------------------------------------------------*/
FoamFile
{
    format      ascii;
    class       volScalarField;
    location    "5.4";
    object      nut;
}
// * * * * * * * * * * * * * * * * * * * * * * * * * * * * * * * * * * * * * //

dimensions      [0 2 -1 0 0 0 0];

internalField   nonuniform List<scalar> 
2500
(
9.76107180137092e-15
1.90674821632007e-13
8.08251608242962e-13
1.38061428981882e-12
1.84500195415726e-12
2.18764634367995e-12
2.41880625833961e-12
2.56198367332495e-12
2.64375716706796e-12
2.68701568683572e-12
2.70830662960607e-12
2.71809851858235e-12
2.72232394150994e-12
2.72404113226734e-12
2.72470038473377e-12
2.72493991794739e-12
2.72502217231992e-12
2.72504859722033e-12
2.72505622824809e-12
2.72505789386049e-12
2.72505782363866e-12
2.72505733732384e-12
2.72505683635372e-12
2.72505641491741e-12
2.7250561017688e-12
2.72505590910539e-12
2.72505585235461e-12
2.72505587340469e-12
2.72505587841703e-12
2.72505579144043e-12
2.72505495653615e-12
2.72505145470519e-12
2.72503967681953e-12
2.72500332620151e-12
2.72489757135347e-12
2.72460501741445e-12
2.72383406339546e-12
2.72190078506176e-12
2.71729893050036e-12
2.7069345269742e-12
2.68492880733532e-12
2.64106134793901e-12
2.559312479123e-12
2.41754333983207e-12
2.18980517189848e-12
1.85245451276723e-12
1.39358431532016e-12
8.23261285777536e-13
1.97412735486769e-13
1.03385848311856e-14
9.62145772711716e-13
4.93140270798484e-11
2.1345448777529e-10
3.65039817056195e-10
4.88437549904094e-10
5.79939672274406e-10
6.42049630766611e-10
6.80791391199587e-10
7.03089778084886e-10
7.14983097396638e-10
7.20886983899873e-10
7.23626055050971e-10
7.2481848076963e-10
7.25307367373085e-10
7.25496718110417e-10
7.25566130381722e-10
7.25590190874132e-10
7.25598007371085e-10
7.25600305938416e-10
7.25600835387965e-10
7.25600841896854e-10
7.25600718748572e-10
7.25600586470427e-10
7.25600474293951e-10
7.2560039073002e-10
7.25600339451381e-10
7.25600324480615e-10
7.25600329653491e-10
7.25600329891536e-10
7.25600297095659e-10
7.25600034828873e-10
7.25598985430245e-10
7.25595509894198e-10
7.25584884815428e-10
7.25554223854422e-10
7.25470055504398e-10
7.25249938669179e-10
7.24702204078889e-10
7.23408549015949e-10
7.20517756055191e-10
7.1442814336753e-10
7.02382854066555e-10
6.80105304129605e-10
6.41749317642688e-10
5.80544374688403e-10
4.90417258232913e-10
3.6843029912513e-10
2.17342197819699e-10
5.10125646220014e-11
1.01652842645432e-12
3.39798482680864e-12
8.82156205743823e-10
2.99465240127955e-07
5.10486860216107e-07
6.80976449422379e-07
8.07020665969682e-07
8.92570000762754e-07
9.46053560752655e-07
9.76961877519048e-07
9.93535341304988e-07
1.00181325352023e-06
1.00567951677576e-06
1.00737452269833e-06
1.00807451682688e-06
1.008347652004e-06
1.00844855028934e-06
1.00848381722172e-06
1.00849539207986e-06
1.00849885349876e-06
1.00849968850735e-06
1.00849973545598e-06
1.00849958256188e-06
1.00849940841689e-06
1.00849925876372e-06
1.00849914662257e-06
1.00849907737752e-06
1.00849905641522e-06
1.00849906093949e-06
1.00849905872007e-06
1.0084989993197e-06
1.00849859607271e-06
1.00849704637183e-06
1.00849197109115e-06
1.00847656383036e-06
1.00843235130105e-06
1.00831160458016e-06
1.00799741822612e-06
1.0072195673152e-06
1.00539183778518e-06
1.00132860764391e-06
9.92812427949865e-07
9.76047948380102e-07
9.45173675119908e-07
8.92191342094624e-07
8.07802334017834e-07
6.83513118564222e-07
5.14823038158007e-07
3.04435074452597e-07
9.09472166666324e-10
3.55815972653251e-12
5.98739745798839e-12
1.56528443625734e-09
5.31928376912434e-07
9.01918824195156e-07
1.19834522632916e-06
1.41625225160797e-06
1.56364666287888e-06
1.65564966124585e-06
1.70880950584997e-06
1.737338625653e-06
1.75161021137599e-06
1.75828963238504e-06
1.76122510407408e-06
1.76244070881644e-06
1.7629164702236e-06
1.76309280983512e-06
1.76315468501058e-06
1.76317509581866e-06
1.7631812528911e-06
1.76318277116795e-06
1.76318288502267e-06
1.76318264343302e-06
1.76318235569079e-06
1.76318210587367e-06
1.76318191735403e-06
1.76318179933099e-06
1.76318176082111e-06
1.76318176326461e-06
1.76318176191685e-06
1.763181652991e-06
1.76318095955575e-06
1.76317832107218e-06
1.7631696756758e-06
1.76314340217968e-06
1.7630679051016e-06
1.76286143251282e-06
1.76232349341669e-06
1.76099017946531e-06
1.75785429029559e-06
1.75087742610865e-06
1.73624477311077e-06
1.70742078184565e-06
1.65429258187005e-06
1.5630016365432e-06
1.41728041254889e-06
1.20191457897034e-06
9.08089928520153e-07
5.38985804066467e-07
1.60356476890489e-09
6.20861232722755e-12
8.49077019752189e-12
2.22107628157103e-09
7.51666850764017e-07
1.26843839557027e-06
1.67962688418016e-06
1.98050168763321e-06
2.1834598810022e-06
2.30998939862977e-06
2.38309190456369e-06
2.42235252635061e-06
2.44201885731587e-06
2.45123961913828e-06
2.45530064407046e-06
2.45698646346961e-06
2.45764806552856e-06
2.45789404583977e-06
2.45798067440879e-06
2.45800939306768e-06
2.45801813450251e-06
2.45802033935376e-06
2.45802054802097e-06
2.4580202478256e-06
2.45801987257516e-06
2.45801954266895e-06
2.45801929143412e-06
2.45801913087848e-06
2.45801907081755e-06
2.45801906786301e-06
2.45801906815618e-06
2.45801890310411e-06
2.45801794747591e-06
2.45801435670289e-06
2.45800259205191e-06
2.4579668096825e-06
2.45786385023653e-06
2.45758185974677e-06
2.45684612715131e-06
2.45502022065244e-06
2.45072094120469e-06
2.44114650875097e-06
2.42104925817103e-06
2.38143005738018e-06
2.30834072204447e-06
2.18260167608162e-06
1.98153126957838e-06
1.68353299319255e-06
1.27528661853448e-06
7.5951958610094e-07
2.26413238542661e-09
8.7436207657915e-12
1.08238779479001e-11
2.83220354208051e-09
9.54330765401826e-07
1.60371533451267e-06
2.11746008388239e-06
2.49195894687363e-06
2.74403437921061e-06
2.90104293955171e-06
2.99175901372255e-06
3.0405156946157e-06
3.06496972050036e-06
3.07645431955874e-06
3.08152243501471e-06
3.08363110250154e-06
3.08446077470798e-06
3.0847701468022e-06
3.08487948686518e-06
3.08491591385449e-06
3.08492710337335e-06
3.08492999293276e-06
3.08493032715031e-06
3.08492999875561e-06
3.08492956367811e-06
3.08492917517369e-06
3.08492887595019e-06
3.08492867976364e-06
3.08492859298408e-06
3.08492858339282e-06
3.08492858449852e-06
3.0849283521446e-06
3.08492715707047e-06
3.08492273174324e-06
3.08490825772363e-06
3.08486422612581e-06
3.08473740374315e-06
3.08438962565471e-06
3.08348111334231e-06
3.08122379898011e-06
3.0759033074791e-06
3.06404433223397e-06
3.03913319578961e-06
2.98999079095396e-06
2.89926748286599e-06
2.74304344436918e-06
2.49286674999534e-06
2.12126584816959e-06
1.610485163522e-06
9.62147469136288e-07
2.87613454367007e-09
1.108936644417e-11
1.29394542550319e-11
3.38711213820148e-09
1.1369593444543e-06
1.90375567368573e-06
2.5074927477671e-06
2.94624693792861e-06
3.2410744503622e-06
3.42459618933661e-06
3.53064868366327e-06
3.58769142380808e-06
3.61633582282273e-06
3.62980930077155e-06
3.63576607989426e-06
3.63824972933898e-06
3.63922928223114e-06
3.63959555095863e-06
3.63972543864611e-06
3.63976891982973e-06
3.63978239534836e-06
3.63978596126566e-06
3.63978645334102e-06
3.63978612265224e-06
3.63978565443977e-06
3.63978522828639e-06
3.6397848956107e-06
3.63978467151511e-06
3.63978455930569e-06
3.63978453896122e-06
3.63978451972001e-06
3.63978422183938e-06
3.63978280942688e-06
3.63977765396738e-06
3.63976084662109e-06
3.63970973644728e-06
3.63956242796868e-06
3.63915806319435e-06
3.63810059152887e-06
3.63547050825216e-06
3.6292658521718e-06
3.61542561710884e-06
3.58633400972313e-06
3.52891227328817e-06
3.42284243056079e-06
3.2400555224622e-06
2.9470136281241e-06
2.51097855101255e-06
1.91001939896006e-06
1.14425217806012e-06
3.42954359556996e-09
1.32052497433174e-11
1.48108404785174e-11
3.87899995757932e-09
1.29793956333771e-06
2.1667158526216e-06
2.84806264238863e-06
3.34200757292233e-06
3.67349313025487e-06
3.8797494316153e-06
3.99897033771469e-06
4.06314455937005e-06
4.09540681353257e-06
4.11060397156198e-06
4.11733429178343e-06
4.12014595506731e-06
4.1212573426093e-06
4.12167397840104e-06
4.12182220107938e-06
4.12187204959833e-06
4.12188762905647e-06
4.12189185024e-06
4.12189252169191e-06
4.12189221989593e-06
4.12189174255005e-06
4.12189129763077e-06
4.12189094478196e-06
4.12189070043267e-06
4.12189056637741e-06
4.12189052240686e-06
4.12189046976456e-06
4.12189010723639e-06
4.12188849853455e-06
4.1218827078559e-06
4.12186391004519e-06
4.12180679635233e-06
4.12164212239924e-06
4.12118972324821e-06
4.12000555345122e-06
4.11705777349483e-06
4.11009823206706e-06
4.09456393137e-06
4.06189369484921e-06
3.9973782278511e-06
3.87814955061272e-06
3.67256749190429e-06
3.34269530530811e-06
2.8511826912967e-06
2.17230611089548e-06
1.30448554802611e-06
3.91869057757574e-09
1.50695845441547e-11
1.64277903395895e-11
4.30513046563493e-09
1.43684576931959e-06
2.39257045817633e-06
3.13972475550522e-06
3.68033435297529e-06
4.04278722918521e-06
4.26825979758502e-06
4.39863001513189e-06
4.46885770235766e-06
4.50420093890053e-06
4.52087164572731e-06
4.5282661531942e-06
4.53136084121359e-06
4.53258660761424e-06
4.53304721975723e-06
4.53321157838258e-06
4.53326709498867e-06
4.53328458411002e-06
4.53328942836815e-06
4.53329029517619e-06
4.53329004550346e-06
4.53328957893436e-06
4.53328913112063e-06
4.53328876941984e-06
4.5332885116156e-06
4.53328835831107e-06
4.53328828606445e-06
4.53328819446531e-06
4.53328776318414e-06
4.53328597493828e-06
4.53327963481519e-06
4.53325915652019e-06
4.53319701369686e-06
4.53301781371732e-06
4.53252519566682e-06
4.53123476034117e-06
4.52802003899751e-06
4.52042519003e-06
4.50346329165713e-06
4.46777430000074e-06
4.39727057274215e-06
4.26692764071882e-06
4.04208187124112e-06
3.68106018124211e-06
3.14255878594323e-06
2.39751152270059e-06
1.44261800489557e-06
4.34168638584702e-09
1.66759804473313e-11
1.77934788985849e-11
4.66615358524682e-09
1.55423226978043e-06
2.58274525602833e-06
3.38476643257032e-06
3.96421164039716e-06
4.35243153712361e-06
4.59391007942954e-06
4.73358549946229e-06
4.80887929873451e-06
4.84680969739205e-06
4.86472261703697e-06
4.87267950788904e-06
4.87601501501472e-06
4.87733863736884e-06
4.87783711128892e-06
4.87801547198467e-06
4.87807596303498e-06
4.8780951620585e-06
4.87810058916213e-06
4.87810165582213e-06
4.87810147447433e-06
4.87810103408789e-06
4.87810059586971e-06
4.87810023438757e-06
4.87809996885754e-06
4.87809979894249e-06
4.87809969891473e-06
4.87809956615088e-06
4.8780990653738e-06
4.87809711000156e-06
4.87809029843322e-06
4.87806841762744e-06
4.87800211742117e-06
4.87781093591739e-06
4.8772851252828e-06
4.87590685996873e-06
4.87247114948554e-06
4.86434958546873e-06
4.84620269853364e-06
4.8080057575695e-06
4.73252407699726e-06
4.59293840290187e-06
4.35206741910618e-06
3.96512011354646e-06
3.38747138067035e-06
2.58718651984996e-06
1.55933631959525e-06
4.69977891564977e-09
1.80304779518862e-11
1.89215682397946e-11
4.96540086923511e-09
1.65141443236062e-06
2.73976002905571e-06
3.58675573341169e-06
4.19800464203396e-06
4.60733488502316e-06
4.86194587934701e-06
5.00927330636645e-06
5.08874539078459e-06
5.12881702251525e-06
5.14776215065113e-06
5.15618843205604e-06
5.15972592756101e-06
5.16113207714198e-06
5.16166268328522e-06
5.16185302019319e-06
5.16191781340652e-06
5.16193851989664e-06
5.16194447950891e-06
5.16194574392361e-06
5.16194564227262e-06
5.1619452389764e-06
5.16194481942914e-06
5.16194446500496e-06
5.16194419640595e-06
5.16194401268841e-06
5.1619438866363e-06
5.16194371337739e-06
5.16194314300695e-06
5.16194103582124e-06
5.16193382393948e-06
5.16191078741405e-06
5.16184109891635e-06
5.16164018055392e-06
5.16108738960019e-06
5.15963764192809e-06
5.15602180932983e-06
5.14747035624395e-06
5.12835526582191e-06
5.08810757221733e-06
5.00855335880723e-06
4.86140390354906e-06
4.60741626411099e-06
4.19924292980676e-06
3.5895221578175e-06
2.74391658966496e-06
1.65603169265954e-06
4.99667227416037e-09
1.91486706652702e-11
1.98332517449324e-11
5.20816260416995e-09
1.73025001108632e-06
2.86688848225018e-06
3.7501224503435e-06
4.38699274558533e-06
4.81334596628881e-06
5.07856608493771e-06
5.23209088173864e-06
5.31495752476949e-06
5.35677507018959e-06
5.3765652779169e-06
5.38537759086753e-06
5.3890820284924e-06
5.39055676146909e-06
5.39111423884594e-06
5.39131466886995e-06
5.39138312734839e-06
5.39140514147729e-06
5.39141157841915e-06
5.39141303227305e-06
5.3914130156348e-06
5.39141265602183e-06
5.39141226111208e-06
5.39141191856009e-06
5.39141165056169e-06
5.39141145586626e-06
5.39141130616554e-06
5.3914110941206e-06
5.39141045759795e-06
5.39140821554958e-06
5.39140066817013e-06
5.39137669254689e-06
5.39130428394252e-06
5.39109557576911e-06
5.39052120093645e-06
5.38901420578043e-06
5.38525392527459e-06
5.37635729419852e-06
5.3564640050851e-06
5.31456682064592e-06
5.23173547503926e-06
5.07849816575674e-06
4.81395229326516e-06
4.38869073773742e-06
3.75313909650972e-06
2.87099248492894e-06
1.73459065502658e-06
5.23783482576378e-09
2.00528424077289e-11
2.05543914754222e-11
5.40097539210499e-09
1.79292886244371e-06
2.96784020624364e-06
3.87977176169863e-06
4.53694200908984e-06
4.97680187682608e-06
5.25045788661484e-06
5.40892423288078e-06
5.49450650776375e-06
5.53772603857862e-06
5.55819769826143e-06
5.56732272943617e-06
5.57116308355317e-06
5.57269396292225e-06
5.57327357713664e-06
5.5734823859853e-06
5.57355391968749e-06
5.57357705019449e-06
5.57358390689349e-06
5.5735855363304e-06
5.57358560471425e-06
5.57358529163325e-06
5.57358492463061e-06
5.57358459698954e-06
5.57358433235116e-06
5.57358412936021e-06
5.57358395885035e-06
5.57358371112452e-06
5.57358301430194e-06
5.57358065515642e-06
5.57357283093764e-06
5.57354810377298e-06
5.57347354592895e-06
5.57325870661689e-06
5.57266734871454e-06
5.57111526598193e-06
5.56724107715562e-06
5.55807192698363e-06
5.53756366484306e-06
5.49436208586548e-06
5.40893816732814e-06
5.25088378156433e-06
4.97798313189041e-06
4.53919876254104e-06
3.8832001032044e-06
2.97210496164953e-06
1.79719619839063e-06
5.42982737225092e-09
2.07692515005283e-11
2.11129199774431e-11
5.5509646471206e-09
1.84178193019072e-06
3.04647659272484e-06
3.98074171822473e-06
4.65372722793028e-06
5.10412928684778e-06
5.38438595891315e-06
5.5467304575087e-06
5.63445139676384e-06
5.67877936309465e-06
5.69979211222357e-06
5.70916661426408e-06
5.71311594805014e-06
5.71469209761265e-06
5.71528967306146e-06
5.71550533216396e-06
5.71557940630259e-06
5.71560347444221e-06
5.71561069298197e-06
5.71561248080121e-06
5.71561263063436e-06
5.71561236391844e-06
5.7156120259504e-06
5.71561171483567e-06
5.71561145557084e-06
5.71561124681908e-06
5.71561105872479e-06
5.71561077953603e-06
5.71561002977116e-06
5.71560757143181e-06
5.71559952278519e-06
5.71557420393674e-06
5.7154979758824e-06
5.71527839178774e-06
5.71467389714487e-06
5.7130869088178e-06
5.70912443138383e-06
5.69974381941764e-06
5.67875793349114e-06
5.63454262494234e-06
5.5471030450051e-06
5.38530280065912e-06
5.1059049722789e-06
4.65660407946253e-06
3.98470083670533e-06
3.05107383597375e-06
1.84614873593705e-06
5.57969177068883e-09
2.13257157317284e-11
2.15366711533483e-11
5.66528676300134e-09
1.87912063446518e-06
3.10657474023852e-06
4.05792002153567e-06
4.74301995913033e-06
5.20151527990209e-06
5.48685328314603e-06
5.65219291945329e-06
5.74157162149056e-06
5.78676226726395e-06
5.80819800475828e-06
5.8177684618625e-06
5.82180384043412e-06
5.82341593462009e-06
5.82402786156069e-06
5.82424903566403e-06
5.82432517585832e-06
5.82435001850264e-06
5.82435754287527e-06
5.82435947042286e-06
5.82435969592018e-06
5.8243594728171e-06
5.82435916337723e-06
5.82435886930955e-06
5.8243586168151e-06
5.82435840464616e-06
5.82435820240852e-06
5.82435789665135e-06
5.82435710207224e-06
5.82435456190182e-06
5.82434633483998e-06
5.82432055820351e-06
5.82424305439141e-06
5.82401986161905e-06
5.82340538147772e-06
5.82179184015367e-06
5.8177621249534e-06
5.80822029559756e-06
5.78686994723551e-06
5.74188058563563e-06
5.65290127566284e-06
5.48823903181233e-06
5.2038766909283e-06
4.74653968794966e-06
4.06248090421814e-06
3.11162391186206e-06
1.88371668137797e-06
5.69443856901238e-09
2.17496336074532e-11
2.18517458130128e-11
5.75070120418489e-09
1.90711422600231e-06
3.15164911754005e-06
4.11583123780597e-06
4.81005467301902e-06
5.27466079025128e-06
5.56384706153263e-06
5.73146284382894e-06
5.8221061979929e-06
5.86795772456953e-06
5.88971898290472e-06
5.89944098175613e-06
5.90354325362729e-06
5.90518345156137e-06
5.90580667074986e-06
5.90603221693056e-06
5.90611001128952e-06
5.90613548322339e-06
5.90614326063324e-06
5.90614530961865e-06
5.90614560478072e-06
5.9061454197146e-06
5.90614513713665e-06
5.90614485985378e-06
5.90614461505212e-06
5.90614440160281e-06
5.90614418869589e-06
5.90614386154004e-06
5.90614303045178e-06
5.90614042469002e-06
5.90613205881207e-06
5.90610593449425e-06
5.90602747349786e-06
5.90580158456605e-06
5.90517964828915e-06
5.90354626491851e-06
5.8994662494118e-06
5.88980368364118e-06
5.86818014304984e-06
5.82261018244971e-06
5.73247544386652e-06
5.56566497582716e-06
5.27757576735164e-06
4.81420543278579e-06
4.12101864929e-06
3.15721644610637e-06
1.91202312251194e-06
5.78065840278919e-09
2.20665206161358e-11
2.2081437797394e-11
5.81328230712747e-09
1.92770742525774e-06
3.18483362972677e-06
4.15849739004394e-06
4.85947633746739e-06
5.32862028929199e-06
5.6206736436652e-06
5.78999143592313e-06
5.88158424938967e-06
5.92793411055341e-06
5.94994197997909e-06
5.9597793621809e-06
5.9639328399043e-06
5.96559467536899e-06
5.96622664431547e-06
5.9664556036184e-06
5.96653470191255e-06
5.96656067696855e-06
5.9665686603442e-06
5.96657081169896e-06
5.96657116578373e-06
5.96657101706553e-06
5.9665707591564e-06
5.96657049790049e-06
5.96657026135814e-06
5.96657004853176e-06
5.96656982830291e-06
5.96656948485139e-06
5.96656862526241e-06
5.96656596859346e-06
5.96655749726975e-06
5.96653111412997e-06
5.96645194829365e-06
5.96622408157863e-06
5.96559667824991e-06
5.9639487341325e-06
5.95983176382343e-06
5.95008039586045e-06
5.92825573288889e-06
5.88225803253812e-06
5.79127163455127e-06
5.62287720042414e-06
5.3320394430456e-06
4.86421873031552e-06
4.16429698542978e-06
3.19093819494506e-06
1.93297028050592e-06
5.84426349043706e-09
2.22990687798744e-11
2.22456738562693e-11
5.85826155229503e-09
1.94257564494488e-06
3.20881970009499e-06
4.18936655539482e-06
4.89526357443367e-06
5.36772165803398e-06
5.66187633727683e-06
5.83244638745732e-06
5.92474070714257e-06
5.97146043054361e-06
5.9936522208582e-06
6.00357609890662e-06
6.00776817306208e-06
6.00944641375824e-06
6.01008505953962e-06
6.01031664292624e-06
6.01039675337324e-06
6.01042312440408e-06
6.01043127341225e-06
6.01043350849366e-06
6.01043391298445e-06
6.01043379657177e-06
6.01043356083953e-06
6.0104333145877e-06
6.01043308662649e-06
6.0104328760883e-06
6.01043265163242e-06
6.01043229667467e-06
6.0104314159637e-06
6.01042872125799e-06
6.01042017204024e-06
6.01039360048276e-06
6.01031392594447e-06
6.01008463603282e-06
6.00945329890167e-06
6.00779486675074e-06
6.00365124335332e-06
5.99383574925432e-06
5.97186570029318e-06
5.92555854579276e-06
5.83395562756919e-06
5.66441404631077e-06
5.37158505960703e-06
4.90053921892328e-06
4.19573485751431e-06
3.21544358122665e-06
1.94819891758472e-06
5.8903488815512e-09
2.24666757732239e-11
2.23608721532097e-11
5.88997805758649e-09
1.95311157633142e-06
3.22584098112459e-06
4.2112980927219e-06
4.92071484037738e-06
5.3955530399008e-06
5.69122254903036e-06
5.86269904237246e-06
5.95550338477647e-06
6.00249328096751e-06
6.02482009346306e-06
6.03480780806778e-06
6.03902852773845e-06
6.0407190171676e-06
6.04136268084476e-06
6.04159625127123e-06
6.04167713552486e-06
6.04170381346242e-06
6.04171209393806e-06
6.04171439693716e-06
6.04171484334868e-06
6.04171475480961e-06
6.04171453875839e-06
6.04171430639559e-06
6.04171408717056e-06
6.04171388034207e-06
6.04171365441713e-06
6.04171329225825e-06
6.04171239696741e-06
6.04170967519256e-06
6.04170107038917e-06
6.04167436524707e-06
6.04159433180166e-06
6.04136403908147e-06
6.04072992797916e-06
6.03906408865204e-06
6.03490161033518e-06
6.02504068394894e-06
6.00296750125145e-06
5.95644060341312e-06
5.86439954595287e-06
5.69404222087518e-06
5.39979653621567e-06
4.92645502165e-06
4.21817326666937e-06
3.2329409451744e-06
1.95907675366819e-06
5.92315210468347e-09
2.25853508402367e-11
2.24401019070828e-11
5.91190870034669e-09
1.96043508817395e-06
3.23769266654507e-06
4.22658990295977e-06
4.93848143847088e-06
5.4149995343897e-06
5.7117425805809e-06
5.88386426180872e-06
5.97703332071338e-06
6.02421737405162e-06
6.04664172715204e-06
6.05667581208338e-06
6.0609174606785e-06
6.06261695459591e-06
6.06326433195429e-06
6.0634993843452e-06
6.06358085137134e-06
6.06360776367802e-06
6.06361614685872e-06
6.06361850401097e-06
6.06361898503892e-06
6.06361892060714e-06
6.06361872194741e-06
6.0636185023925e-06
6.06361829196256e-06
6.06361809003835e-06
6.06361786502639e-06
6.06361749940505e-06
6.06361659514628e-06
6.06361385542491e-06
6.06360521279446e-06
6.06357841616197e-06
6.06349813653675e-06
6.06326715473635e-06
6.06263113275785e-06
6.06096017742831e-06
6.05678464445676e-06
6.04689219534547e-06
6.02474732833173e-06
5.97806747632527e-06
5.88572109546508e-06
5.71479477119024e-06
5.4195601136519e-06
4.94461482584844e-06
4.23390179742162e-06
3.24521147514477e-06
1.9667083836517e-06
5.94608476178777e-09
2.26678888955509e-11
2.24934291207874e-11
5.92674883476288e-09
1.96541815453799e-06
3.24577301689288e-06
4.23703262677937e-06
4.95063054111249e-06
5.42831185533508e-06
5.72580159059269e-06
5.89837416221241e-06
5.99179939025126e-06
6.03912054162107e-06
6.0616141554754e-06
6.07168135981242e-06
6.07593804860623e-06
6.07764405556033e-06
6.07829413802727e-06
6.07853027865257e-06
6.07861217802789e-06
6.07863926678163e-06
6.07864772903115e-06
6.07865012894888e-06
6.07865063850927e-06
6.07865059485394e-06
6.07865041154908e-06
6.07865020381736e-06
6.07865000218258e-06
6.07864980613971e-06
6.07864958403237e-06
6.07864921808908e-06
6.07864830953936e-06
6.07864555929732e-06
6.07863689279137e-06
6.07861003668189e-06
6.07852959493846e-06
6.07829815581074e-06
6.07766085792006e-06
6.07598646920543e-06
6.07180213783604e-06
6.0618883685713e-06
6.03969487837188e-06
5.99291103383045e-06
5.90035666615869e-06
5.72904212080063e-06
5.43313177820384e-06
4.95708940086292e-06
4.24471115781579e-06
3.25364914370053e-06
1.9719590527104e-06
5.9618096850338e-09
2.27242080440421e-11
2.25283490232733e-11
5.93651792402959e-09
1.96871734133137e-06
3.25113587860642e-06
4.24397704492024e-06
4.95872285419593e-06
5.43719056729273e-06
5.73518773317485e-06
5.90806839939767e-06
6.00166968153618e-06
6.04908562465332e-06
6.07162742890425e-06
6.08171782865226e-06
6.08598512308506e-06
6.08769575576546e-06
6.08834777438773e-06
6.08858470084948e-06
6.0886669160062e-06
6.08869413580428e-06
6.08870265831164e-06
6.08870509185505e-06
6.08870562489505e-06
6.08870559910548e-06
6.08870542940449e-06
6.08870523263929e-06
6.08870503976699e-06
6.08870485038177e-06
6.08870463279983e-06
6.08870426909339e-06
6.08870336004815e-06
6.08870060522445e-06
6.08869192572804e-06
6.0886650344899e-06
6.08858449340867e-06
6.08835276822427e-06
6.08771466084491e-06
6.08603807009672e-06
6.08184804701415e-06
6.07192038999888e-06
6.04969504994145e-06
6.00284277823451e-06
5.91015105008974e-06
5.73857933173267e-06
5.44222023749098e-06
4.9654475876465e-06
4.25195855646214e-06
3.25931109292092e-06
1.97548541831791e-06
5.97234047409541e-09
2.27617609790322e-11
2.25502262215562e-11
5.94266991361965e-09
1.97080783880057e-06
3.25454510573642e-06
4.24840349220186e-06
4.963892347585e-06
5.44287244624212e-06
5.74120248998814e-06
5.91428671449562e-06
6.00800518998717e-06
6.05548472133388e-06
6.07805911148059e-06
6.08816532515105e-06
6.09243991156627e-06
6.09415375271627e-06
6.09480712692942e-06
6.09504460951732e-06
6.09512705126707e-06
6.09515436706735e-06
6.09516293518138e-06
6.0951653951806e-06
6.09516594759913e-06
6.09516593723063e-06
6.09516577966252e-06
6.09516559313135e-06
6.09516540895442e-06
6.09516522681075e-06
6.09516501500914e-06
6.09516465554759e-06
6.09516374899605e-06
6.09516099426547e-06
6.09515231029221e-06
6.09512540273409e-06
6.09504481019278e-06
6.09481292812214e-06
6.09417435992278e-06
6.09249648109676e-06
6.08830305885931e-06
6.07836697256458e-06
6.05612205217223e-06
6.00922728251421e-06
5.91644954217564e-06
5.74471571150419e-06
5.44807217957048e-06
4.97083448335173e-06
4.25663515073939e-06
3.26296988733796e-06
1.97776775433e-06
5.97914513474608e-09
2.27859515410629e-11
2.25626893389707e-11
5.94619382640595e-09
1.97201461353614e-06
3.25652414133164e-06
4.25098494017103e-06
4.96691862943014e-06
5.44620884841888e-06
5.74474265501076e-06
5.91795295464098e-06
6.01174491001548e-06
6.05926480323754e-06
6.08186013758335e-06
6.09197664510468e-06
6.09625603905878e-06
6.09797202305765e-06
6.09862631496665e-06
6.09886417981778e-06
6.09894678039932e-06
6.09897416547985e-06
6.09898276801109e-06
6.09898524898202e-06
6.09898581756562e-06
6.09898582063876e-06
6.09898567399136e-06
6.09898549707235e-06
6.09898532148845e-06
6.09898514698233e-06
6.09898494187158e-06
6.09898458814495e-06
6.09898368635413e-06
6.09898093534701e-06
6.09897225366062e-06
6.09894534491759e-06
6.09886473937136e-06
6.0986328031685e-06
6.09799404818979e-06
6.09631559117393e-06
6.09212053150813e-06
6.08218017144334e-06
6.05992493662359e-06
6.01300711748042e-06
5.92018165945508e-06
5.74835627611972e-06
5.45154980225768e-06
4.97404257518137e-06
4.25942748179908e-06
3.26516121461897e-06
1.9791394692327e-06
5.98324055631091e-09
2.28005080189257e-11
2.25679487225373e-11
5.9476952208688e-09
1.97253774467986e-06
3.25739624088388e-06
4.25213798996313e-06
4.96828539819194e-06
5.44772903136626e-06
5.74636662981958e-06
5.91964306647447e-06
6.01347474087517e-06
6.06101707938843e-06
6.0836243939446e-06
6.093746954409e-06
6.09802925272478e-06
6.09974656691966e-06
6.10040144533342e-06
6.10063956321784e-06
6.10072227418048e-06
6.10074971102484e-06
6.10075834187722e-06
6.10076084163019e-06
6.10076142544791e-06
6.10076144151122e-06
6.10076130552864e-06
6.10076113807419e-06
6.10076097097472e-06
6.10076080401606e-06
6.10076060553487e-06
6.10076025755986e-06
6.10075936079608e-06
6.10075661456168e-06
6.10074793860179e-06
6.1007210392009e-06
6.10064045143875e-06
6.10040854752165e-06
6.09976983834052e-06
6.09809140167152e-06
6.09389617247413e-06
6.08395495669237e-06
6.06169693598177e-06
6.01477169612504e-06
5.92192900144373e-06
5.75006777698801e-06
5.45319365211004e-06
4.97556941128505e-06
4.26076732428342e-06
3.26622264572056e-06
1.97981113581615e-06
5.98526906079182e-09
2.2807782328788e-11
2.25670087970865e-11
5.94745118876869e-09
1.97246993855378e-06
3.25731258268129e-06
4.25205879582393e-06
4.96822168315058e-06
5.44768476519198e-06
5.74634104620031e-06
5.9196328432258e-06
6.01347575828392e-06
6.06102555277011e-06
6.08363741149672e-06
6.09376253752524e-06
6.09804619066486e-06
6.09976418158048e-06
6.10041938497327e-06
6.10065765707902e-06
6.10074044383359e-06
6.10076792192275e-06
6.10077657906114e-06
6.10077909812577e-06
6.10077969816788e-06
6.10077972803225e-06
6.10077960323197e-06
6.10077944544827e-06
6.10077928666345e-06
6.10077912668432e-06
6.10077893387178e-06
6.10077859034251e-06
6.1007776971229e-06
6.10077495454965e-06
6.10076628525126e-06
6.10073940299424e-06
6.10065886094734e-06
6.10042707222471e-06
6.09978863396948e-06
6.098110792334e-06
6.09391678321443e-06
6.08397789698404e-06
6.06172399908291e-06
6.01480547853164e-06
5.9219727792741e-06
5.7501249482972e-06
5.45326661738537e-06
4.97565791919031e-06
4.26086646320336e-06
3.2663206794014e-06
1.97988725723746e-06
5.98555163773142e-09
2.2808957445528e-11
2.25597890739242e-11
5.94544234024184e-09
1.97180617526452e-06
3.25626694955934e-06
4.25074149603655e-06
4.96672284024949e-06
5.44607300811493e-06
5.74466448527378e-06
5.91792226463431e-06
6.01174899956291e-06
6.05929199407662e-06
6.08190141026663e-06
6.09202586953834e-06
6.09630946151194e-06
6.09802754025738e-06
6.09868283583275e-06
6.09892117487737e-06
6.09900400672638e-06
6.09903151631165e-06
6.09904019732613e-06
6.09904273559897e-06
6.09904335221925e-06
6.09904339606873e-06
6.09904328249439e-06
6.09904313428733e-06
6.09904298351209e-06
6.09904282997371e-06
6.09904264207609e-06
6.0990423020844e-06
6.0990414115603e-06
6.09903867253109e-06
6.09903001249841e-06
6.0990031583341e-06
6.09892269650589e-06
6.09869112029647e-06
6.09805320969187e-06
6.09637660475282e-06
6.09218533989057e-06
6.08225222135328e-06
6.06000979457526e-06
6.01311283283795e-06
5.92031836672667e-06
5.7485344463625e-06
5.45177675835645e-06
4.97431737589619e-06
4.25973475869133e-06
3.26546457972357e-06
1.97937456746373e-06
5.98411264517083e-09
2.28041340564677e-11
2.25451433221067e-11
5.94135650891964e-09
1.97044418836923e-06
3.25409607062669e-06
4.24797830898429e-06
4.96355051785247e-06
5.44263583345359e-06
5.74106741037958e-06
5.91423545591766e-06
6.00801547208158e-06
6.05553595228432e-06
6.07813533356863e-06
6.08825566888538e-06
6.09253771080804e-06
6.09425526881849e-06
6.09491041974325e-06
6.09514873775736e-06
6.09523158349191e-06
6.09525911402867e-06
6.09526781556008e-06
6.0952703720925e-06
6.09527100490783e-06
6.09527106225644e-06
6.09527095950615e-06
6.09527082050036e-06
6.09527067732951e-06
6.09527052978837e-06
6.09527034634618e-06
6.09527000951217e-06
6.09526912166392e-06
6.09526638738562e-06
6.09525774157974e-06
6.09523093131284e-06
6.09515059534917e-06
6.09491935580118e-06
6.09428229416427e-06
6.09260771902855e-06
6.08842106358074e-06
6.07849788275598e-06
6.05627576651155e-06
6.0094180784471e-06
5.91669532097959e-06
5.74503483071698e-06
5.44847722700628e-06
4.97132324804397e-06
4.25717990153154e-06
3.2635060729854e-06
1.97818205821196e-06
5.98068221874234e-09
2.27923606982594e-11
2.25207310986806e-11
5.9345568404659e-09
1.96817560895816e-06
3.25046605769825e-06