/*--------------------------------*- C++ -*----------------------------------*\
  =========                 |
  \\      /  F ield         | OpenFOAM: The Open Source CFD Toolbox
   \\    /   O peration     | Website:  https://openfoam.org
    \\  /    A nd           | Version:  10
     \\/     M anipulation  |
\*---------------------------------------------------------------------------*/
FoamFile
{
    format      ascii;
    class       volScalarField;
    location    "5.4";
    object      omega;
}
// * * * * * * * * * * * * * * * * * * * * * * * * * * * * * * * * * * * * * //

dimensions      [0 0 -1 0 0 0 0];

internalField   nonuniform List<scalar> 
2500
(
128077.042299866
128089.202197377
128084.870677877
128082.087026785
128080.565070051
128079.778758202
128079.387044202
128079.198928654
128079.112436237
128079.074966225
128079.058850785
128079.052289976
128079.049687292
128079.0483776
128079.047621104
128079.046985153
128079.046681745
128079.046328115
128079.045936006
128079.045669697
128079.045440433
128079.045241848
128079.045077362
128079.044979983
128079.044874431
128079.04478207
128079.044750533
128079.04473513
128079.044746673
128079.044791391
128079.0448688
128079.045017057
128079.045188053
128079.045406036
128079.045675131
128079.046052624
128079.046684467
128079.047853659
128079.050880867
128079.057881059
128079.074672057
128079.113916074
128079.202064651
128079.391309919
128079.782755843
128080.562921524
128082.07750698
128084.871608828
128089.246928998
128077.000218956
31891.3645457933
14171.9230009298
14169.8699871072
14168.5542794132
14167.8063830879
14167.4017829832
14167.1904292119
14167.0844338654
14167.0338017352
14167.010879566
14167.0010210455
14166.9970001786
14166.9954401799
14166.9948479756
14166.9946216887
14166.994525418
14166.9944854108
14166.9944578191
14166.994432479
14166.9944134388
14166.9943964126
14166.9943802945
14166.9943664209
14166.9943574248
14166.9943495041
14166.9943423107
14166.994338836
14166.9943364342
14166.9943346066
14166.9943359505
14166.9943395122
14166.9943465331
14166.9943623193
14166.9943877779
14166.9944288271
14166.9945241528
14166.9947754664
14166.9954406599
14166.9971816104
14167.0015269285
14167.0119261801
14167.0356507449
14167.0871455912
14167.1935780096
14167.404074907
14167.8057933598
14168.5510793121
14169.8738933358
14171.9528790285
31891.3354547631
31777.8409810644
3530.08345380346
50.8232712704976
50.8170718318526
50.8135731907441
50.8116858371801
50.8107003296664
50.810205272197
50.809968012787
50.8098600823066
50.8098135008632
50.8097944391849
50.8097870357946
50.8097842757846
50.8097832746879
50.8097829075592
50.8097827753869
50.8097827098939
50.8097826606405
50.8097826231769
50.8097825872158
50.8097825492843
50.8097825145378
50.8097824917473
50.8097824742485
50.8097824578604
50.8097824491041
50.8097824416576
50.80978243254
50.8097824306107
50.8097824299746
50.8097824350551
50.8097824816891
50.809782568519
50.8097827199973
50.8097831226363
50.8097842585968
50.8097873547283
50.8097954890697
50.8098158763519
50.809864647224
50.8099757146308
50.8102163083575
50.810712883565
50.811694704474
50.8135715780059
50.8170663213554
50.8233177473552
3530.09826767291
31777.9431367328
31683.2643765443
3519.51123173809
50.6715222674075
50.6658525430325
50.6627588433278
50.6611415809522
50.6603197109184
50.6599156995706
50.6597252701556
50.659639725225
50.6596031718873
50.6595883337904
50.6595826148336
50.6595805083136
50.6595797621887
50.6595795057779
50.6595794231072
50.6595793907054
50.6595793702834
50.6595793545726
50.6595793372717
50.6595793156493
50.65957929375
50.6595792792836
50.6595792698544
50.6595792608864
50.6595792558356
50.6595792507261
50.6595792429185
50.6595792391226
50.6595792347353
50.6595792268416
50.6595792543474
50.6595793149043
50.6595794142872
50.6595796972157
50.6595805274755
50.6595828403312
50.6595890017529
50.6596046522672
50.6596425799622
50.6597301626463
50.6599229053364
50.6603282840065
50.6611485214176
50.6627613043047
50.6658624984705
50.6716030816876
3519.53126967187
31683.5309036099
31614.0148666892
3511.93277719576
50.564453087821
50.560189487601
50.5579421433408
50.5568044367574
50.5562417567012
50.555970817693
50.5558449710675
50.5557889935958
50.5557652293781
50.5557556239643
50.5557519354775
50.5557505851227
50.5557501142596
50.5557499610123
50.5557499180728
50.555749906119
50.5557499007699
50.5557498967521
50.5557498908281
50.555749880572
50.5557498681586
50.5557498598823
50.5557498557151
50.5557498518049
50.5557498494264
50.5557498464668
50.5557498412564
50.5557498376449
50.555749832259
50.555749820794
50.5557498344405
50.5557498688774
50.5557499231563
50.555750092063
50.5557506026307
50.5557520464102
50.5557559338906
50.555765902893
50.5557902937961
50.5558472342576
50.5559742234338
50.5562459145625
50.5568080647544
50.5579451922541
50.5602053712798
50.5645407080231
3511.95337906628
31614.3703098952
31568.6240284446
3507.08496225291
50.4970366297512
50.4942594560747
50.4928431268157
50.4921477249855
50.4918125446895
50.491654194897
50.4915815646215
50.4915494976408
50.4915359352163
50.4915304615132
50.4915283616825
50.4915275952039
50.4915273313435
50.4915272496025
50.49152723108
50.4915272295576
50.4915272295434
50.4915272296806
50.4915272294277
50.491527225944
50.4915272196248
50.4915272154042
50.4915272141773
50.4915272130451
50.4915272121501
50.4915272106675
50.4915272077418
50.4915272050226
50.4915272003717
50.4915271905363
50.491527195885
50.4915272120062
50.4915272372389
50.4915273275716
50.4915276070246
50.4915284046636
50.4915305699386
50.4915361584501
50.4915499207596
50.4915823061961
50.4916553089786
50.491813841801
50.4921487025183
50.492844637267
50.4942727150192
50.49710834385
3507.10221291888
31568.9712401511
31541.612220673
3504.27503906237
50.4585613831685
50.4569478053054
50.4561498010463
50.4557690167671
50.4555898620445
50.4555066964128
50.4554689646237
50.4554523976146
50.4554454027117
50.4554425781722
50.4554414936993
50.4554410983995
50.4554409639424
50.4554409249888
50.4554409186373
50.4554409199922
50.4554409218385
50.4554409226893
50.4554409234794
50.4554409231594
50.4554409203165
50.4554409184794
50.4554409186125
50.4554409184426
50.4554409181364
50.4554409176426
50.4554409161819
50.4554409144066
50.4554409111309
50.4554409044518
50.4554409057584
50.45544091163
50.455440921623
50.4554409662863
50.4554411062415
50.4554415074695
50.455442603525
50.4554454435862
50.4554524644893
50.4554690752178
50.4555068307893
50.4555898787795
50.4557686444613
50.4561497303798
50.4569556314964
50.4586094404294
3504.28733206414
31541.8892465876
31526.8516387974
3502.78119243408
50.438412255703
50.4375595246617
50.4371496054534
50.4369591059798
50.4368714836147
50.4368314670339
50.4368134855242
50.4368056226223
50.4368023034326
50.436800960546
50.4368004438841
50.4368002556937
50.436800192485
50.4368001757196
50.4368001741944
50.4368001756403
50.4368001773915
50.4368001784347
50.4368001790448
50.4368001792024
50.4368001783008
50.4368001777492
50.4368001782313
50.4368001783922
50.4368001782982
50.4368001780677
50.4368001773803
50.4368001763375
50.436800174355
50.4368001707371
50.4368001702893
50.4368001714755
50.4368001751385
50.4368001957367
50.4368002608072
50.4368004478347
50.4368009612038
50.4368022938619
50.4368055934004
50.436813423777
50.4368313315602
50.4368711548369
50.4369583689221
50.4371487569828
50.4375629159393
50.4384397808029
3502.7888737256
31527.0418230609
31519.3751066883
3502.0454836093
50.4286324318886
50.4282166711944
50.4280219786317
50.4279336828182
50.4278939232431
50.4278760418381
50.4278680761736
50.4278646035675
50.4278631363791
50.4278625410415
50.4278623113407
50.4278622277252
50.4278622000974
50.4278621933737
50.4278621932514
50.4278621943288
50.4278621955007
50.427862196266
50.4278621966306
50.4278621967706
50.4278621966327
50.4278621966544
50.4278621970025
50.4278621971856
50.4278621971432
50.4278621970145
50.4278621967021
50.4278621961337
50.4278621950629
50.4278621932858
50.4278621928329
50.4278621928231
50.4278621937171
50.427862202453
50.4278622308299
50.4278623126137
50.4278625378867
50.4278631226954
50.4278645699497
50.4278680080082
50.4278759037752
50.4278936247699
50.4279330492978
50.428021041484
50.4282175919404
50.4286462498947
3502.04978308367
31519.4909576294
31515.83698312
3501.7070360409
50.4241965376912
50.4240074630908
50.4239210440701
50.4238827264033
50.4238658128329
50.4238583161164
50.423855003132
50.4238535621703
50.4238529523686
50.4238527040453
50.4238526079178
50.4238525729517
50.4238525616241
50.423852559096
50.4238525592477
50.4238525598884
50.4238525605464
50.4238525609993
50.4238525612486
50.4238525613755
50.4238525613903
50.4238525614719
50.4238525616637
50.4238525617738
50.4238525617519
50.4238525616816
50.4238525615314
50.4238525612398
50.4238525607074
50.4238525598824
50.4238525595657
50.4238525594342
50.4238525595828
50.4238525629696
50.4238525746174
50.4238526084795
50.4238527019521
50.4238529442486
50.4238535425555
50.4238549627168
50.4238582321652
50.4238656261101
50.4238823122932
50.4239203317017
50.4240073950994
50.4242027066772
3501.70922640338
31515.9008944926
31514.2622120086
3501.56059321517
50.4223034787862
50.422222576439
50.4221864220644
50.4221707227207
50.4221639218445
50.4221609490884
50.4221596451995
50.4221590791036
50.422158839031
50.4221587408809
50.4221587027523
50.4221586888961
50.4221586844945
50.4221586835964
50.4221586837355
50.4221586840642
50.4221586843904
50.4221586846228
50.4221586847622
50.422158684838
50.4221586848701
50.4221586849278
50.4221586850151
50.4221586850633
50.4221586850457
50.4221586850053
50.4221586849311
50.4221586847866
50.4221586845362
50.4221586841679
50.4221586839797
50.4221586838689
50.4221586838535
50.4221586850979
50.4221586896346
50.4221587030024
50.4221587399377
50.4221588354229
50.4221590703505
50.4221596266398
50.4221609083761
50.4221638248746
50.4221704920798
50.4221859780691
50.4222222800804
50.4223059428557
3501.56162134632
31514.2946160155
31513.5993028997
3501.5006540269
50.4215391479626
50.4215063458417
50.4214919910555
50.4214858771882
50.4214832750393
50.421482152672
50.4214816639154
50.4214814520336
50.4214813619626
50.4214813249849
50.4214813105677
50.4214813053326
50.4214813036991
50.4214813033945
50.421481303474
50.4214813036231
50.4214813037677
50.4214813038722
50.4214813039372
50.4214813039724
50.42148130399
50.4214813040157
50.4214813040469
50.4214813040602
50.4214813040445
50.4214813040187
50.4214813039783
50.4214813039062
50.421481303791
50.4214813036298
50.4214813035284
50.4214813034576
50.421481303425
50.4214813038551
50.42148130554
50.4214813105965
50.4214813245718
50.4214813605742
50.4214814487338
50.4214816567071
50.4214821356051
50.421483230458
50.421485762382
50.421491749103
50.4215060959814
50.4215400252673
3501.50110296675
31513.6145715852
31513.3342137487
3501.4773464019
50.4212459958847
50.4212333195881
50.4212278796792
50.4212256039356
50.421224651263
50.421224245574
50.4212240701327
50.4212239941772
50.4212239618067
50.4212239484606
50.4212239432369
50.4212239413398
50.4212239407577
50.4212239406562
50.4212239406888
50.4212239407474
50.4212239408029
50.4212239408422
50.4212239408655
50.4212239408758
50.4212239408788
50.4212239408836
50.4212239408884
50.4212239408854
50.4212239408706
50.4212239408515
50.4212239408261
50.4212239407877
50.4212239407327
50.4212239406606
50.4212239406072
50.4212239405652
50.4212239405391
50.4212239406755
50.4212239412729
50.4212239431103
50.4212239481936
50.4212239612407
50.4212239930172
50.4212240676218
50.4212242390952
50.4212246324476
50.4212255514296
50.4212277604419
50.4212331655084
50.4212462686479
3501.47753016871
31513.3409588959
31513.2332506165
3501.46871813114
50.4211390305521
50.4211343386933
50.4211323616575
50.4211315482129
50.4211312129255
50.4211310718815
50.4211310112975
50.421130985101
50.4211309739078
50.4211309692724
50.4211309674496
50.4211309667854
50.4211309665821
50.4211309665457
50.4211309665543
50.4211309665716
50.4211309665871
50.4211309665961
50.4211309665988
50.4211309665961
50.4211309665902
50.4211309665844
50.4211309665777
50.4211309665678
50.4211309665534
50.4211309665374
50.4211309665186
50.421130966495
50.4211309664653
50.4211309664296
50.4211309663994
50.4211309663735
50.4211309663542
50.4211309663899
50.4211309665891
50.421130967229
50.4211309690093
50.4211309735678
50.4211309846114
50.4211310104007
50.4211310695075
50.4211312053905
50.4211315256847
50.4211323073388
50.42113425783
50.4211390999618
3501.46878908186
31513.2360640541
31513.1966773766
3501.46568768372
50.421102086408
50.4211004163577
50.4210997245161
50.4210994442105
50.4210993303305
50.4210992829806
50.4210992627756
50.4210992540497
50.4210992503112
50.4210992487552
50.4210992481388
50.4210992479114
50.421099247839
50.4210992478221
50.4210992478196
50.4210992478195
50.4210992478182
50.4210992478143
50.4210992478077
50.4210992477989
50.4210992477886
50.421099247778
50.4210992477668
50.4210992477543
50.4210992477402
50.4210992477253
50.4210992477096
50.4210992476921
50.4210992476726
50.421099247651
50.4210992476312
50.4210992476128
50.4210992475972
50.4210992475998
50.4210992476587
50.4210992478691
50.4210992484674
50.4210992500038
50.4210992537129
50.4210992623306
50.4210992820155
50.4210993273229
50.4210994349388
50.421099701233
50.4211003781599
50.421102097355
3501.46571364637
31513.1977918153
31513.1842392032
3501.46469822221
50.4210903195181
50.4210897458831
50.4210895119798
50.4210894185551
50.4210893811061
50.4210893657074
50.4210893591789
50.4210893563628
50.4210893551525
50.4210893546449
50.4210893544407
50.4210893543622
50.4210893543336
50.4210893543223
50.421089354315
50.421089354308
50.4210893543002
50.421089354291
50.4210893542806
50.4210893542692
50.421089354257
50.4210893542446
50.4210893542317
50.4210893542183
50.4210893542043
50.4210893541901
50.4210893541755
50.4210893541605
50.4210893541449
50.4210893541287
50.4210893541131
50.4210893540981
50.4210893540842
50.4210893540764
50.4210893540874
50.4210893541489
50.4210893543382
50.4210893548349
50.4210893560376
50.4210893588249
50.4210893651739
50.4210893797977
50.4210894147654
50.4210895024002
50.4210897291129
50.4210903175952
3501.46470725593
31513.1846604257
31513.1804789725
3501.46442312188
50.4210872418165
50.421087051131
50.4210869745121
50.4210869443133
50.4210869323594
50.4210869274966
50.4210869254482
50.4210869245655
50.4210869241841
50.4210869240217
50.4210869239535
50.4210869239241
50.4210869239095
50.4210869238997
50.4210869238906
50.4210869238811
50.4210869238707
50.4210869238596
50.4210869238478
50.4210869238354
50.4210869238225
50.4210869238093
50.4210869237959
50.4210869237822
50.4210869237684
50.4210869237545
50.4210869237405
50.4210869237265
50.4210869237124
50.4210869236982
50.4210869236843
50.4210869236708
50.4210869236577
50.4210869236467
50.4210869236419
50.4210869236533
50.4210869237055
50.4210869238555
50.4210869242284
50.4210869250982
50.4210869270814
50.4210869316573
50.4210869426702
50.4210869706027
50.4210870440855
50.4210872388562
3501.46442611224
31513.1806314541
31513.1797222828
3501.46438887999
50.421087052195
50.4210869907022
50.421086966329
50.4210869568424
50.4210869531325
50.4210869516396
50.4210869510149
50.4210869507457
50.4210869506278
50.4210869505754
50.4210869505507
50.4210869505369
50.4210869505268
50.4210869505173
50.4210869505076
50.4210869504971
50.4210869504859
50.4210869504741
50.4210869504618
50.421086950449
50.4210869504359
50.4210869504225
50.421086950409
50.4210869503954
50.4210869503816
50.4210869503679
50.4210869503542
50.4210869503406
50.4210869503271
50.4210869503137
50.4210869503006
50.4210869502877
50.4210869502751
50.4210869502632
50.4210869502533
50.4210869502485
50.4210869502563
50.4210869502941
50.4210869504002
50.4210869506578
50.4210869512537
50.4210869526394
50.4210869560035
50.4210869646417
50.4210869877442
50.4210870502259
3501.46438981493
31513.1797752664
31513.1799693247
3501.46443310509
50.421087789794
50.4210877705191
50.4210877629767
50.4210877600775
50.4210877589579
50.421087758513
50.4210877583282
50.421087758248
50.4210877582114
50.421087758193
50.4210877581817
50.4210877581727
50.4210877581639
50.4210877581546
50.4210877581445
50.4210877581337
50.4210877581223
50.4210877581103
50.4210877580978
50.421087758085
50.4210877580718
50.4210877580585
50.4210877580449
50.4210877580313
50.4210877580177
50.4210877580042
50.4210877579907
50.4210877579774
50.4210877579642
50.4210877579512
50.4210877579384
50.4210877579258
50.4210877579135
50.4210877579015
50.4210877578901
50.4210877578802
50.4210877578741
50.4210877578768
50.4210877578997
50.4210877579673
50.4210877581347
50.4210877585363
50.4210877595295
50.4210877621214
50.421087769177
50.4210877886419
3501.46443337173
31513.1799869712
31513.1805411008
3501.46450209573
50.4210888156873
50.4210888098075
50.4210888075353
50.4210888066741
50.4210888063468
50.421088806219
50.4210888061663
50.4210888061427
50.4210888061303
50.4210888061219
50.4210888061145
50.4210888061068
50.4210888060984
50.421088806089
50.4210888060789
50.421088806068
50.4210888060565
50.4210888060444
50.421088806032
50.4210888060191
50.421088806006
50.4210888059927
50.4210888059793
50.4210888059658
50.4210888059523
50.4210888059389
50.4210888059256
50.4210888059124
50.4210888058995
50.4210888058867
50.4210888058741
50.4210888058618
50.4210888058497
50.4210888058378
50.4210888058261
50.4210888058149
50.4210888058047
50.4210888057969
50.4210888057948
50.4210888058052
50.4210888058441
50.4210888059504
50.4210888062292
50.4210888069801
50.4210888090729
50.4210888149682
3501.46450215427
31513.1805466693
31513.1812148278
3501.46457867678
50.4210899285924
50.4210899268471
50.4210899261817
50.4210899259345
50.421089925843
50.4210899258084
50.4210899257939
50.4210899257864
50.4210899257808
50.4210899257752
50.4210899257688
50.4210899257614
50.4210899257529
50.4210899257436
50.4210899257333
50.4210899257224
50.4210899257109
50.4210899256989
50.4210899256864
50.4210899256736
50.4210899256605
50.4210899256473
50.421089925634
50.4210899256206
50.4210899256072
50.421089925594
50.4210899255808
50.4210899255679
50.4210899255551
50.4210899255425
50.4210899255301
50.421089925518
50.4210899255062
50.4210899254944
50.4210899254829
50.4210899254714
50.4210899254603
50.4210899254497
50.4210899254405
50.4210899254345
50.4210899254363
50.4210899254568
50.4210899255264
50.4210899257322
50.4210899263321
50.4210899280666
3501.46457867308
31513.1812164084
31513.1819196804
3501.46465752166
50.421091067043
50.4210910665408
50.4210910663527
50.4210910662854
50.4210910662618
50.4210910662533
50.4210910662493
50.4210910662459
50.4210910662419
50.4210910662368
50.4210910662304
50.421091066223
50.4210910662144
50.421091066205
50.4210910661947
50.4210910661837
50.4210910661722
50.4210910661602
50.4210910661477
50.421091066135
50.421091066122
50.4210910661089
50.4210910660957
50.4210910660824
50.4210910660692
50.4210910660561
50.4210910660431
50.4210910660303
50.4210910660177
50.4210910660053
50.4210910659932
50.4210910659813
50.4210910659696
50.4210910659582
50.4210910659468
50.4210910659356
50.4210910659245
50.4210910659134
50.4210910659026
50.4210910658924
50.4210910658842
50.421091065881
50.4210910658915
50.4210910659408
50.4210910661036
50.4210910665962
3501.46465750024
31513.18191999
31513.1826337912
3501.46473702479
50.4210922128024
50.4210922126645
50.4210922126142
50.4210922125977
50.4210922125925
50.4210922125907
50.4210922125889
50.4210922125862
50.4210922125823
50.421092212577
50.4210922125705
50.4210922125628
50.4210922125541
50.4210922125445
50.4210922125342
50.4210922125232
50.4210922125117
50.4210922124996
50.4210922124873
50.4210922124745
50.4210922124616
50.4210922124486
50.4210922124355
50.4210922124224
50.4210922124093
50.4210922123963
50.4210922123835
50.4210922123709
50.4210922123585
50.4210922123463
50.4210922123344
50.4210922123227
50.4210922123113
50.4210922123001
50.4210922122891
50.4210922122782
50.4210922122674
50.4210922122566
50.4210922122458
50.421092212235
50.4210922122247
50.4210922122157
50.4210922122106
50.4210922122166
50.4210922122554
50.421092212387
3501.46473699857
31513.182633706
31513.1833505894
3501.46481671483
50.4210933606032
50.4210933605689
50.4210933605569
50.4210933605537
50.4210933605529
50.421093360552
50.4210933605503
50.4210933605472
50.4210933605428
50.4210933605372
50.4210933605304
50.4210933605225
50.4210933605136
50.421093360504
50.4210933604936
50.4210933604825
50.4210933604709
50.4210933604589
50.4210933604466
50.4210933604339
50.4210933604211
50.4210933604082
50.4210933603952
50.4210933603822
50.4210933603692
50.4210933603564
50.4210933603438
50.4210933603313
50.4210933603191
50.4210933603071
50.4210933602955
50.421093360284
50.4210933602729
50.421093360262
50.4210933602513
50.4210933602408
50.4210933602304
50.42109336022
50.4210933602097
50.4210933601994
50.4210933601892
50.4210933601794
50.421093360171
50.4210933601662
50.4210933601711
50.4210933602009
3501.46481668751
31513.1833503867
31513.1840681499
3501.46489645676
50.4210945089612
50.4210945089552
50.421094508953
50.4210945089525
50.421094508952
50.4210945089507
50.4210945089483
50.4210945089446
50.4210945089397
50.4210945089337
50.4210945089265
50.4210945089183
50.4210945089093
50.4210945088995
50.421094508889
50.4210945088779
50.4210945088663
50.4210945088543
50.421094508842
50.4210945088294
50.4210945088167
50.4210945088038
50.4210945087909
50.421094508778
50.4210945087653
50.4210945087526
50.4210945087401
50.4210945087278
50.4210945087158
50.4210945087041
50.4210945086926
50.4210945086815
50.4210945086706
50.4210945086601
50.4210945086497
50.4210945086396
50.4210945086297
50.4210945086199
50.4210945086102
50.4210945086006
50.4210945085911
50.421094508582
50.4210945085736
50.4210945085667
50.4210945085634
50.4210945085657
3501.46489642934
31513.1840679152
31513.1847859219
3501.4649762128
50.4210956574682
50.4210956574691
50.4210956574687
50.421095657468
50.4210956574668
50.4210956574646
50.4210956574614
50.421095657457
50.4210956574516
50.421095657445
50.4210956574375
50.4210956574291
50.4210956574199
50.4210956574099
50.4210956573993
50.4210956573881
50.4210956573765
50.4210956573645
50.4210956573522
50.4210956573397
50.4210956573271
50.4210956573143
50.4210956573015
50.4210956572888
50.4210956572761
50.4210956572636
50.4210956572513
50.4210956572393
50.4210956572274
50.4210956572159
50.4210956572047
50.4210956571938
50.4210956571833
50.421095657173
50.4210956571631
50.4210956571534
50.421095657144
50.4210956571347
50.4210956571257
50.4210956571169
50.4210956571083
50.4210956571001
50.4210956570926
50.4210956570861
50.4210956570814
50.4210956570771
3501.46497618553
31513.1847856772
31513.1855037515
3501.46505597259
50.421096806014
50.421096806016
50.4210968060152
50.4210968060137
50.4210968060114
50.4210968060083
50.4210968060043
50.4210968059992
50.4210968059932
50.4210968059862
50.4210968059783
50.4210968059696
50.4210968059601
50.42109680595
50.4210968059392
50.421096805928
50.4210968059164
50.4210968059044
50.4210968058922
50.4210968058797
50.4210968058671
50.4210968058544
50.4210968058418
50.4210968058292
50.4210968058167
50.4210968058043
50.4210968057922
50.4210968057803
50.4210968057687
50.4210968057574
50.4210968057465
50.4210968057359
50.4210968057256
50.4210968057157
50.4210968057062
50.4210968056969
50.421096805688
50.4210968056794
50.421096805671
50.421096805663
50.4210968056554
50.4210968056482
50.4210968056417
50.4210968056363
50.421096805632
50.4210968056267
3501.46505594549
31513.1855035071
31513.1862215963
3501.46513573336
50.4210979545697
50.4210979545712
50.4210979545696
50.421097954567
50.4210979545637
50.4210979545597
50.4210979545548
50.421097954549
50.4210979545424
50.4210979545349
50.4210979545266
50.4210979545176
50.4210979545079
50.4210979544976
50.4210979544868
50.4210979544755
50.4210979544638
50.4210979544518
50.4210979544396
50.4210979544272
50.4210979544147
50.4210979544021
50.4210979543896
50.4210979543771
50.4210979543647
50.4210979543525
50.4210979543406
50.4210979543289
50.4210979543175
50.4210979543065
50.4210979542958
50.4210979542855
50.4210979542755
50.421097954266
50.4210979542568
50.4210979542481
50.4210979542397
50.4210979542316
50.421097954224
50.4210979542167
50.42109795421
50.4210979542039
50.4210979541985
50.4210979541941
50.4210979541908
50.421097954186
3501.46513570653
31513.1862213533
31513.1869394451
3501.46521549436
50.4210991031278
50.4210991031285
50.4210991031258
50.4210991031222
50.4210991031178
50.4210991031129
50.4210991031072
50.4210991031007
50.4210991030936
50.4210991030856
50.4210991030769
50.4210991030676
50.4210991030577
50.4210991030472
50.4210991030363
50.4210991030249
50.4210991030132
50.4210991030012
50.4210991029889
50.4210991029766
50.4210991029642
50.4210991029517
50.4210991029392
50.4210991029269
50.4210991029147
50.4210991029027
50.4210991028909
50.4210991028794
50.4210991028683
50.4210991028574
50.421099102847
50.421099102837
50.4210991028274
50.4210991028182
50.4210991028094
50.4210991028011
50.4210991027932
50.4210991027858
50.4210991027788
50.4210991027724
50.4210991027665
50.4210991027614
50.4210991027571
50.4210991027539
50.4210991027516
50.4210991027477
3501.46521546778
31513.1869392051
31513.1876572949
3501.46529525544
50.4211002516866
50.4211002516862
50.4211002516825
50.4211002516777
50.4211002516725
50.4211002516666
50.4211002516601
50.421100251653
50.4211002516452
50.4211002516368
50.4211002516277
50.4211002516181
50.421100251608
50.4211002515973
50.4211002515862
50.4211002515747
50.421100251563
50.421100251551
50.4211002515388
50.4211002515265
50.4211002515141
50.4211002515017
50.4211002514894
50.4211002514771
50.4211002514651
50.4211002514532
50.4211002514417
50.4211002514304
50.4211002514194
50.4211002514089
50.4211002513987
50.421100251389
50.4211002513797
50.4211002513709
50.4211002513625
50.4211002513547
50.4211002513473
50.4211002513405
50.4211002513342
50.4211002513286
50.4211002513236
50.4211002513194
50.4211002513161
50.421100251314
50.4211002513127
50.4211002513099
3501.46529522913
31513.187657057
31513.188375145
3501.46537501652
50.4211014002453
50.4211014002439
50.4211014002392
50.4211014002334
50.4211014002272
50.4211014002204
50.4211014002131
50.4211014002054
50.421101400197
50.4211014001881
50.4211014001787
50.4211014001688
50.4211014001584
50.4211014001476
50.4211014001364
50.4211014001248
50.421101400113
50.4211014001009
50.4211014000887
50.4211014000765
50.4211014000642
50.4211014000518
50.4211014000396
50.4211014000276
50.4211014000156
50.421101400004
50.4211013999926
50.4211013999815
50.4211013999708
50.4211013999604
50.4211013999505
50.4211013999411
50.4211013999321
50.4211013999237
50.4211013999158
50.4211013999084
50.4211013999016
50.4211013998953
50.4211013998897
50.4211013998848
50.4211013998807
50.4211013998775
50.4211013998752
50.4211013998742
50.4211013998739
50.4211013998721
3501.46537499042
31513.1883749092
31513.1890929952
3501.46545477761
50.4211025488042
50.4211025488016
50.4211025487959
50.421102548789
50.4211025487819
50.4211025487742
50.4211025487662
50.4211025487578
50.4211025487489
50.4211025487395
50.4211025487297
50.4211025487195
50.4211025487088
50.4211025486978
50.4211025486865
50.4211025486748
50.421102548663
50.4211025486509
50.4211025486387
50.4211025486265
50.4211025486143
50.421102548602
50.4211025485899
50.421102548578
50.4211025485662
50.4211025485547
50.4211025485435
50.4211025485326
50.4211025485221
50.421102548512
50.4211025485024
50.4211025484933
50.4211025484846
50.4211025484765
50.421102548469
50.4211025484621
50.4211025484558
50.4211025484502
50.4211025484452
50.421102548441
50.4211025484378
50.4211025484354
50.4211025484341
50.4211025484342
50.421102548435
50.4211025484343
3501.4654547517
31513.1890927593
31513.1898108455
3501.46553453871
50.421103697363
50.4211036973592
50.4211036973524
50.4211036973446
50.4211036973365
50.421103697328
50.4211036973192
50.4211036973102
50.4211036973007
50.4211036972909
50.4211036972807
50.4211036972702
50.4211036972593
50.4211036972481
50.4211036972367
50.4211036972249
50.421103697213
50.4211036972009
50.4211036971888
50.4211036971766
50.4211036971644
50.4211036971522
50.4211036971403
50.4211036971284
50.4211036971168
50.4211036971054
50.4211036970944
50.4211036970838
50.4211036970734
50.4211036970636
50.4211036970543
50.4211036970454
50.4211036970371
50.4211036970294
50.4211036970223
50.4211036970158
50.42110369701
50.4211036970049
50.4211036970007
50.4211036969972
50.4211036969948
50.4211036969934
50.421103696993
50.4211036969941
50.421103696996
50.4211036969965
3501.46553451307
31513.1898106127
31513.190528696
3501.46561429982
50.4211048459218
50.4211048459168
50.4211048459089
50.4211048459
50.421104845891
50.4211048458817
50.4211048458722
50.4211048458625
50.4211048458525
50.4211048458423
50.4211048458317
50.4211048458209
50.4211048458098
50.4211048457984
50.4211048457868
50.421104845775
50.421104845763
50.4211048457509
50.4211048457388
50.4211048457266
50.4211048457145
50.4211048457024
50.4211048456906
50.4211048456788
50.4211048456674
50.4211048456561
50.4211048456453
50.4211048456348
50.4211048456248
50.4211048456152
50.4211048456061
50.4211048455975
50.4211048455895
50.4211048455821
50.4211048455754
50.4211048455694
50.4211048455641
50.4211048455596
50.421104845556
50.4211048455533
50.4211048455516
50.4211048455511
50.4211048455517
50.4211048455539
50.4211048455569
50.4211048455587
3501.46561427444
31513.1905284663
31513.1912465466
3501.46569406093
50.4211059944807
50.4211059944743
50.4211059944653
50.4211059944553
50.4211059944454
50.4211059944353
50.4211059944251
50.4211059944148
50.4211059944043
50.4211059943936
50.4211059943827
50.4211059943716
50.4211059943603
50.4211059943487
50.421105994337
50.421105994325
50.421105994313
50.4211059943009
50.4211059942888
50.4211059942766
50.4211059942646
50.4211059942526
50.4211059942408
50.4211059942292
50.4211059942179
50.4211059942069
50.4211059941962
50.4211059941859
50.421105994176
50.4211059941667
50.4211059941578
50.4211059941495
50.4211059941419
50.4211059941349
50.4211059941285