/*--------------------------------*- C++ -*----------------------------------*\
  =========                 |
  \\      /  F ield         | OpenFOAM: The Open Source CFD Toolbox
   \\    /   O peration     | Website:  https://openfoam.org
    \\  /    A nd           | Version:  10
     \\/     M anipulation  |
\*---------------------------------------------------------------------------*/
FoamFile
{
    format      ascii;
    class       volScalarField;
    location    "5.4";
    object      p;
}
// * * * * * * * * * * * * * * * * * * * * * * * * * * * * * * * * * * * * * //

dimensions      [1 -1 -2 0 0 0 0];

internalField   nonuniform List<scalar> 
2500
(
100089.400482117
100089.400483246
100089.400484222
100089.400485041
100089.40048555
100089.400485883
100089.400486083
100089.400486208
100089.400486288
100089.400486342
100089.400486381
100089.400486412
100089.400486439
100089.400486464
100089.400486489
100089.400486514
100089.400486541
100089.400486568
100089.400486597
100089.400486627
100089.400486658
100089.40048669
100089.400486723
100089.400486756
100089.400486791
100089.400486825
100089.40048686
100089.400486896
100089.40048693
100089.400486965
100089.400486999
100089.400487033
100089.400487065
100089.400487096
100089.400487126
100089.400487154
100089.400487179
100089.400487201
100089.400487217
100089.400487227
100089.400487225
100089.400487205
100089.400487154
100089.400487055
100089.400486876
100089.400486561
100089.400486063
100089.400485247
100089.400484261
100089.400483135
100089.398234477
100089.398235342
100089.398236105
100089.398236802
100089.398237246
100089.398237545
100089.398237729
100089.398237845
100089.39823792
100089.398237971
100089.398238009
100089.398238039
100089.398238066
100089.398238091
100089.398238116
100089.398238142
100089.398238168
100089.398238196
100089.398238225
100089.398238255
100089.398238286
100089.398238318
100089.398238351
100089.398238384
100089.398238419
100089.398238454
100089.398238489
100089.398238524
100089.398238559
100089.398238593
100089.398238627
100089.398238661
100089.398238693
100089.398238724
100089.398238754
100089.398238781
100089.398238806
100089.398238828
100089.398238845
100089.398238855
100089.398238854
100089.398238837
100089.398238791
100089.398238701
100089.398238539
100089.398238257
100089.398237824
100089.398237132
100089.398236363
100089.398235504
100089.395977534
100089.395978105
100089.395978512
100089.395978972
100089.395979272
100089.395979488
100089.395979626
100089.395979717
100089.395979778
100089.395979822
100089.395979857
100089.395979886
100089.395979912
100089.395979937
100089.395979962
100089.395979988
100089.395980014
100089.395980042
100089.395980071
100089.395980101
100089.395980132
100089.395980164
100089.395980197
100089.395980231
100089.395980265
100089.3959803
100089.395980335
100089.39598037
100089.395980405
100089.395980439
100089.395980474
100089.395980507
100089.395980539
100089.39598057
100089.3959806
100089.395980628
100089.395980653
100089.395980675
100089.395980692
100089.395980704
100089.395980706
100089.395980696
100089.395980664
100089.395980599
100089.395980483
100089.395980284
100089.395979996
100089.395979543
100089.395979134
100089.395978564
100089.393712959
100089.393713192
100089.393713273
100089.393713471
100089.393713603
100089.393713718
100089.393713798
100089.393713857
100089.393713902
100089.393713937
100089.393713967
100089.393713994
100089.393714019
100089.393714044
100089.393714069
100089.393714094
100089.39371412
100089.393714148
100089.393714177
100089.393714207
100089.393714238
100089.39371427
100089.393714303
100089.393714337
100089.393714372
100089.393714406
100089.393714441
100089.393714476
100089.393714511
100089.393714546
100089.39371458
100089.393714613
100089.393714646
100089.393714677
100089.393714706
100089.393714734
100089.39371476
100089.393714782
100089.393714801
100089.393714815
100089.393714822
100089.39371482
100089.393714805
100089.393714772
100089.393714714
100089.393714617
100089.393714497
100089.393714309
100089.393714235
100089.393714
100089.391442478
100089.39144244
100089.391442312
100089.391442312
100089.391442318
100089.391442351
100089.391442383
100089.391442415
100089.391442444
100089.391442471
100089.391442496
100089.39144252
100089.391442544
100089.391442568
100089.391442592
100089.391442618
100089.391442644
100089.391442671
100089.3914427
100089.39144273
100089.391442761
100089.391442794
100089.391442827
100089.391442861
100089.391442895
100089.39144293
100089.391442965
100089.391443
100089.391443035
100089.391443069
100089.391443103
100089.391443137
100089.391443169
100089.3914432
100089.39144323
100089.391443258
100089.391443284
100089.391443307
100089.391443327
100089.391443344
100089.391443356
100089.391443363
100089.391443363
100089.391443358
100089.391443348
100089.391443334
100089.391443343
100089.391443357
100089.391443497
100089.391443538
100089.389167864
100089.389167664
100089.389167438
100089.389167315
100089.38916724
100089.389167216
100089.389167214
100089.389167224
100089.389167241
100089.38916726
100089.389167281
100089.389167303
100089.389167325
100089.389167348
100089.389167372
100089.389167397
100089.389167423
100089.38916745
100089.389167479
100089.389167509
100089.38916754
100089.389167572
100089.389167605
100089.389167639
100089.389167674
100089.389167708
100089.389167743
100089.389167779
100089.389167813
100089.389167848
100089.389167882
100089.389167915
100089.389167948
100089.389167979
100089.389168009
100089.389168037
100089.389168064
100089.389168088
100089.38916811
100089.389168129
100089.389168145
100089.38916816
100089.389168173
100089.389168189
100089.389168214
100089.389168258
100089.38916835
100089.389168489
100089.389168734
100089.389168942
100089.386890679
100089.386890422
100089.386890173
100089.386889992
100089.386889876
100089.386889818
100089.386889793
100089.386889788
100089.386889795
100089.386889808
100089.386889825
100089.386889844
100089.386889864
100089.386889886
100089.386889909
100089.386889934
100089.38688996
100089.386889987
100089.386890016
100089.386890046
100089.386890077
100089.386890109
100089.386890142
100089.386890176
100089.386890211
100089.386890245
100089.38689028
100089.386890315
100089.38689035
100089.386890385
100089.386890419
100089.386890452
100089.386890485
100089.386890516
100089.386890546
100089.386890575
100089.386890602
100089.386890628
100089.386890651
100089.386890673
100089.386890693
100089.386890714
100089.386890737
100089.386890768
100089.386890817
100089.386890895
100089.38689103
100089.386891229
100089.386891499
100089.38689177
100089.384612055
100089.384611807
100089.384611579
100089.384611384
100089.384611254
100089.384611179
100089.384611141
100089.384611125
100089.384611125
100089.384611133
100089.384611146
100089.384611162
100089.384611181
100089.384611202
100089.384611224
100089.384611249
100089.384611274
100089.384611301
100089.38461133
100089.38461136
100089.384611391
100089.384611423
100089.384611456
100089.38461149
100089.384611524
100089.384611559
100089.384611594
100089.384611629
100089.384611664
100089.384611699
100089.384611733
100089.384611766
100089.384611799
100089.38461183
100089.384611861
100089.38461189
100089.384611918
100089.384611944
100089.384611969
100089.384611993
100089.384612017
100089.384612043
100089.384612074
100089.384612116
100089.384612178
100089.384612274
100089.384612423
100089.384612637
100089.384612887
100089.384613149
100089.382332699
100089.382332493
100089.382332302
100089.382332118
100089.382331991
100089.382331909
100089.382331864
100089.382331842
100089.382331836
100089.38233184
100089.38233185
100089.382331864
100089.382331881
100089.382331901
100089.382331923
100089.382331946
100089.382331972
100089.382331999
100089.382332027
100089.382332057
100089.382332088
100089.38233212
100089.382332153
100089.382332187
100089.382332221
100089.382332256
100089.382332291
100089.382332326
100089.382332361
100089.382332395
100089.38233243
100089.382332463
100089.382332496
100089.382332528
100089.382332558
100089.382332588
100089.382332616
100089.382332644
100089.38233267
100089.382332697
100089.382332724
100089.382332754
100089.38233279
100089.382332839
100089.382332908
100089.38233301
100089.382333156
100089.382333359
100089.38233357
100089.382333791
100089.380053008
100089.38005285
100089.380052697
100089.380052536
100089.380052419
100089.380052339
100089.380052291
100089.380052265
100089.380052255
100089.380052255
100089.380052262
100089.380052275
100089.38005229
100089.380052309
100089.38005233
100089.380052353
100089.380052378
100089.380052405
100089.380052433
100089.380052463
100089.380052494
100089.380052526
100089.380052559
100089.380052593
100089.380052627
100089.380052662
100089.380052697
100089.380052732
100089.380052767
100089.380052801
100089.380052835
100089.380052869
100089.380052902
100089.380052934
100089.380052965
100089.380052995
100089.380053024
100089.380053053
100089.380053081
100089.380053109
100089.380053139
100089.380053172
100089.380053213
100089.380053266
100089.380053337
100089.380053438
100089.380053573
100089.380053752
100089.380053921
100089.380054092
100089.377773177
100089.377773062
100089.377772943
100089.377772807
100089.377772704
100089.377772628
100089.377772581
100089.377772552
100089.37777254
100089.377772537
100089.377772543
100089.377772553
100089.377772568
100089.377772586
100089.377772606
100089.377772629
100089.377772654
100089.37777268
100089.377772708
100089.377772738
100089.377772769
100089.377772801
100089.377772834
100089.377772867
100089.377772902
100089.377772936
100089.377772971
100089.377773006
100089.377773041
100089.377773076
100089.37777311
100089.377773143
100089.377773176
100089.377773209
100089.37777324
100089.377773271
100089.3777733
100089.37777333
100089.377773359
100089.377773389
100089.377773421
100089.377773457
100089.3777735
100089.377773555
100089.377773626
100089.377773722
100089.377773842
100089.377773994
100089.377774126
100089.377774251
100089.375493294
100089.375493212
100089.375493122
100089.375493009
100089.37549292
100089.375492851
100089.375492805
100089.375492777
100089.375492763
100089.375492759
100089.375492762
100089.375492771
100089.375492785
100089.375492802
100089.375492822
100089.375492844
100089.375492869
100089.375492895
100089.375492923
100089.375492952
100089.375492983
100089.375493015
100089.375493048
100089.375493082
100089.375493116
100089.37549315
100089.375493185
100089.37549322
100089.375493255
100089.37549329
100089.375493324
100089.375493358
100089.375493391
100089.375493423
100089.375493455
100089.375493486
100089.375493516
100089.375493546
100089.375493577
100089.375493608
100089.375493642
100089.375493679
100089.375493724
100089.375493779
100089.375493847
100089.375493937
100089.375494042
100089.375494168
100089.375494268
100089.375494357
100089.373213394
100089.373213336
100089.373213267
100089.373213175
100089.373213099
100089.373213037
100089.373212995
100089.373212967
100089.373212953
100089.373212947
100089.37321295
100089.373212958
100089.373212971
100089.373212987
100089.373213007
100089.373213028
100089.373213053
100089.373213079
100089.373213106
100089.373213136
100089.373213167
100089.373213198
100089.373213231
100089.373213265
100089.373213299
100089.373213334
100089.373213368
100089.373213403
100089.373213438
100089.373213473
100089.373213507
100089.373213541
100089.373213574
100089.373213607
100089.373213638
100089.37321367
100089.373213701
100089.373213731
100089.373213763
100089.373213795
100089.37321383
100089.373213868
100089.373213913
100089.373213968
100089.373214033
100089.373214114
100089.373214205
100089.373214308
100089.373214385
100089.373214446
100089.370933486
100089.370933446
100089.370933393
100089.370933318
100089.370933255
100089.3709332
100089.370933161
100089.370933135
100089.370933121
100089.370933115
100089.370933117
100089.370933124
100089.370933136
100089.370933152
100089.370933171
100089.370933193
100089.370933217
100089.370933243
100089.37093327
100089.3709333
100089.37093333
100089.370933362
100089.370933395
100089.370933428
100089.370933462
100089.370933497
100089.370933532
100089.370933567
100089.370933601
100089.370933636
100089.37093367
100089.370933704
100089.370933737
100089.37093377
100089.370933802
100089.370933834
100089.370933865
100089.370933896
100089.370933928
100089.370933961
100089.370933997
100089.370934036
100089.37093408
100089.370934133
100089.370934194
100089.370934268
100089.370934346
100089.37093443
100089.370934488
100089.37093453
100089.368653574
100089.368653546
100089.368653505
100089.368653445
100089.368653391
100089.368653344
100089.368653309
100089.368653285
100089.368653271
100089.368653266
100089.368653267
100089.368653274
100089.368653286
100089.368653302
100089.36865332
100089.368653341
100089.368653365
100089.368653391
100089.368653419
100089.368653448
100089.368653478
100089.36865351
100089.368653543
100089.368653576
100089.36865361
100089.368653645
100089.368653679
100089.368653714
100089.368653749
100089.368653784
100089.368653818
100089.368653852
100089.368653885
100089.368653918
100089.36865395
100089.368653982
100089.368654014
100089.368654045
100089.368654077
100089.368654111
100089.368654147
100089.368654186
100089.368654229
100089.36865428
100089.368654337
100089.368654403
100089.36865447
100089.368654539
100089.368654582
100089.36865461
100089.366373657
100089.366373637
100089.366373605
100089.366373557
100089.366373513
100089.366373472
100089.366373441
100089.366373419
100089.366373407
100089.366373402
100089.366373403
100089.36637341
100089.366373422
100089.366373437
100089.366373455
100089.366373476
100089.3663735
100089.366373526
100089.366373553
100089.366373582
100089.366373613
100089.366373644
100089.366373677
100089.36637371
100089.366373744
100089.366373779
100089.366373813
100089.366373848
100089.366373883
100089.366373917
100089.366373952
100089.366373986
100089.366374019
100089.366374052
100089.366374084
100089.366374116
100089.366374148
100089.36637418
100089.366374212
100089.366374246
100089.366374281
100089.36637432
100089.366374363
100089.366374411
100089.366374463
100089.366374522
100089.36637458
100089.366374636
100089.366374669
100089.366374688
100089.364093735
100089.36409372
100089.364093696
100089.364093657
100089.36409362
100089.364093585
100089.364093559
100089.36409354
100089.364093528
100089.364093524
100089.364093526
100089.364093533
100089.364093544
100089.364093559
100089.364093578
100089.364093599
100089.364093622
100089.364093648
100089.364093675
100089.364093704
100089.364093735
100089.364093766
100089.364093799
100089.364093832
100089.364093866
100089.3640939
100089.364093935
100089.36409397
100089.364094004
100089.364094039
100089.364094073
100089.364094107
100089.36409414
100089.364094173
100089.364094206
100089.364094238
100089.36409427
100089.364094302
100089.364094334
100089.364094368
100089.364094403
100089.364094441
100089.364094482
100089.364094527
100089.364094576
100089.364094628
100089.364094678
100089.364094724
100089.364094749
100089.364094762
100089.361813807
100089.361813796
100089.361813777
100089.361813746
100089.361813716
100089.361813687
100089.361813664
100089.361813648
100089.361813638
100089.361813635
100089.361813637
100089.361813644
100089.361813656
100089.361813671
100089.361813689
100089.36181371
100089.361813733
100089.361813759
100089.361813786
100089.361813815
100089.361813846
100089.361813877
100089.36181391
100089.361813943
100089.361813977
100089.361814011
100089.361814046
100089.36181408
100089.361814115
100089.36181415
100089.361814184
100089.361814218
100089.361814251
100089.361814284
100089.361814316
100089.361814348
100089.36181438
100089.361814412
100089.361814444
100089.361814478
100089.361814512
100089.361814549
100089.361814588
100089.361814631
100089.361814675
100089.361814722
100089.361814766
100089.361814804
100089.361814823
100089.361814831
100089.359533874
100089.359533866
100089.359533851
100089.359533826
100089.359533802
100089.359533777
100089.359533758
100089.359533745
100089.359533737
100089.359533735
100089.359533738
100089.359533746
100089.359533757
100089.359533772
100089.359533791
100089.359533812
100089.359533835
100089.359533861
100089.359533888
100089.359533917
100089.359533947
100089.359533979
100089.359534011
100089.359534044
100089.359534078
100089.359534112
100089.359534147
100089.359534182
100089.359534216
100089.359534251
100089.359534285
100089.359534318
100089.359534352
100089.359534385
100089.359534417
100089.359534449
100089.359534481
100089.359534513
100089.359534545
100089.359534577
100089.359534611
100089.359534647
100089.359534684
100089.359534724
100089.359534765
100089.359534807
100089.359534844
100089.359534876
100089.359534891
100089.359534896
100089.357253935
100089.35725393
100089.357253918
100089.357253899
100089.357253879
100089.357253859
100089.357253844
100089.357253833
100089.357253827
100089.357253826
100089.35725383
100089.357253838
100089.35725385
100089.357253866
100089.357253884
100089.357253905
100089.357253929
100089.357253954
100089.357253981
100089.35725401
100089.357254041
100089.357254072
100089.357254104
100089.357254138
100089.357254171
100089.357254206
100089.35725424
100089.357254275
100089.357254309
100089.357254343
100089.357254377
100089.357254411
100089.357254444
100089.357254477
100089.357254509
100089.357254541
100089.357254573
100089.357254605
100089.357254636
100089.357254668
100089.357254701
100089.357254736
100089.357254771
100089.357254808
100089.357254845
100089.357254882
100089.357254915
100089.357254942
100089.357254953
100089.357254957
100089.354973993
100089.354973989
100089.35497398
100089.354973965
100089.35497395
100089.354973934
100089.354973922
100089.354973913
100089.354973909
100089.35497391
100089.354973915
100089.354973924
100089.354973936
100089.354973952
100089.35497397
100089.354973991
100089.354974015
100089.354974041
100089.354974068
100089.354974097
100089.354974127
100089.354974158
100089.354974191
100089.354974224
100089.354974258
100089.354974292
100089.354974326
100089.354974361
100089.354974395
100089.354974429
100089.354974463
100089.354974497
100089.35497453
100089.354974563
100089.354974595
100089.354974627
100089.354974658
100089.354974689
100089.35497472
100089.354974752
100089.354974784
100089.354974817
100089.35497485
100089.354974884
100089.354974918
100089.354974951
100089.35497498
100089.354975002
100089.354975012
100089.354975014
100089.352694046
100089.352694044
100089.352694038
100089.352694026
100089.352694014
100089.352694002
100089.352693993
100089.352693987
100089.352693985
100089.352693987
100089.352693993
100089.352694003
100089.352694016
100089.352694032
100089.352694051
100089.352694072
100089.352694096
100089.352694121
100089.352694149
100089.352694177
100089.352694208
100089.352694239
100089.352694271
100089.352694305
100089.352694338
100089.352694372
100089.352694407
100089.352694441
100089.352694475
100089.352694509
100089.352694543
100089.352694577
100089.35269461
100089.352694642
100089.352694674
100089.352694706
100089.352694737
100089.352694768
100089.352694798
100089.352694829
100089.35269486
100089.352694891
100089.352694923
100089.352694954
100089.352694985
100089.352695014
100089.352695039
100089.352695058
100089.352695066
100089.352695067
100089.350414097
100089.350414095
100089.350414091
100089.350414083
100089.350414075
100089.350414066
100089.350414059
100089.350414056
100089.350414056
100089.350414059
100089.350414066
100089.350414076
100089.35041409
100089.350414107
100089.350414126
100089.350414147
100089.350414171
100089.350414197
100089.350414224
100089.350414253
100089.350414284
100089.350414315
100089.350414347
100089.35041438
100089.350414414
100089.350414448
100089.350414482
100089.350414516
100089.350414551
100089.350414585
100089.350414618
100089.350414652
100089.350414685
100089.350414717
100089.350414749
100089.35041478
100089.350414811
100089.350414841
100089.350414871
100089.350414901
100089.350414931
100089.35041496
100089.35041499
100089.350415019
100089.350415047
100089.350415073
100089.350415095
100089.35041511
100089.350415116
100089.350415117
100089.348134144
100089.348134144
100089.348134142
100089.348134137
100089.348134131
100089.348134125
100089.348134121
100089.34813412
100089.348134122
100089.348134127
100089.348134135
100089.348134146
100089.34813416
100089.348134177
100089.348134197
100089.348134219
100089.348134243
100089.348134268
100089.348134296
100089.348134325
100089.348134355
100089.348134387
100089.348134419
100089.348134452
100089.348134486
100089.34813452
100089.348134554
100089.348134588
100089.348134622
100089.348134656
100089.34813469
100089.348134723
100089.348134755
100089.348134787
100089.348134819
100089.34813485
100089.34813488
100089.34813491
100089.348134939
100089.348134968
100089.348134997
100089.348135025
100089.348135053
100089.348135079
100089.348135105
100089.348135128
100089.348135147
100089.34813516
100089.348135164
100089.348135164
100089.34585419
100089.345854191
100089.34585419
100089.345854187
100089.345854184
100089.345854181
100089.34585418
100089.34585418
100089.345854184
100089.34585419
100089.345854199
100089.345854212
100089.345854227
100089.345854244
100089.345854264
100089.345854286
100089.34585431
100089.345854336
100089.345854364
100089.345854393
100089.345854424
100089.345854455
100089.345854487
100089.34585452
100089.345854554
100089.345854588
100089.345854622
100089.345854656
100089.34585469
100089.345854724
100089.345854757
100089.34585479
100089.345854823
100089.345854854
100089.345854886
100089.345854916
100089.345854946
100089.345854975
100089.345855004
100089.345855032
100089.345855059
100089.345855086
100089.345855112
100089.345855136
100089.345855159
100089.345855179
100089.345855196
100089.345855206
100089.34585521
100089.345855209
100089.343574233
100089.343574235
100089.343574236
100089.343574235
100089.343574234
100089.343574234
100089.343574235
100089.343574238
100089.343574243
100089.343574251
100089.343574261
100089.343574274
100089.34357429
100089.343574308
100089.343574328
100089.343574351
100089.343574375
100089.343574402
100089.343574429
100089.343574459
100089.343574489
100089.34357452
100089.343574553
100089.343574586
100089.343574619
100089.343574653
100089.343574687
100089.343574721
100089.343574755
100089.343574788
100089.343574822
100089.343574854
100089.343574887
100089.343574918
100089.343574949
100089.343574979
100089.343575009
100089.343575037
100089.343575065
100089.343575092
100089.343575119
100089.343575144
100089.343575168
100089.34357519
100089.343575211
100089.343575229
100089.343575242
100089.343575251
100089.343575253
100089.343575252
100089.341294275
100089.341294277
100089.34129428
100089.341294281
100089.341294283
100089.341294284
100089.341294287
100089.341294292
100089.341294299
100089.341294308
100089.34129432
100089.341294334
100089.34129435
100089.341294369
100089.34129439
100089.341294413
100089.341294438
100089.341294464
100089.341294492
100089.341294521
100089.341294552
100089.341294583
100089.341294615
100089.341294648
100089.341294682
100089.341294715
100089.341294749
100089.341294783
100089.341294817
100089.341294851
100089.341294884
100089.341294916
100089.341294948
100089.34129498
100089.34129501
100089.34129504
100089.341295069
100089.341295097
100089.341295124
100089.34129515
100089.341295175
100089.341295199
100089.341295221
100089.341295242
100089.34129526
100089.341295275
100089.341295287
100089.341295294
100089.341295295
100089.341295293
100089.339014315
100089.339014318
100089.339014322
100089.339014325
100089.339014329
100089.339014333
100089.339014338
100089.339014344
100089.339014353
100089.339014364
100089.339014376
100089.339014391
100089.339014408
100089.339014428
100089.339014449
100089.339014472
100089.339014497
100089.339014524
100089.339014552
100089.339014582
100089.339014612
100089.339014644
100089.339014676
100089.339014709
100089.339014742
100089.339014776
100089.33901481
100089.339014844
100089.339014877
100089.33901491
100089.339014943
100089.339014976
100089.339015008
100089.339015039
100089.339015069
100089.339015098
100089.339015127
100089.339015154
100089.33901518
100089.339015205
100089.339015229
100089.339015252
100089.339015272
100089.339015291
100089.339015307
100089.33901532
100089.33901533
100089.339015335
100089.339015335
100089.339015333
100089.336734353
100089.336734358
100089.336734363
100089.336734368
100089.336734373
100089.336734379
100089.336734386
100089.336734395
100089.336734405
100089.336734417
100089.336734431
100089.336734446
100089.336734464
100089.336734484
100089.336734506
100089.33673453
100089.336734555
100089.336734582
100089.336734611
100089.33673464
100089.336734671
100089.336734702
100089.336734735
100089.336734767
100089.336734801
100089.336734834
100089.336734868
100089.336734902
100089.336734935
100089.336734968
100089.336735001
100089.336735033
100089.336735065
100089.336735096
100089.336735125
100089.336735154
100089.336735182
100089.336735209
100089.336735234
100089.336735259
100089.336735281
100089.336735302
100089.336735321
100089.336735338
100089.336735353
100089.336735364
100089.336735371
100089.336735374
100089.336735374
100089.33673537
100089.334454391
100089.334454396
100089.334454402
100089.334454409
100089.334454416
100089.334454424
100089.334454433
100089.334454443
100089.334454455
100089.334454468
100089.334454483
100089.3344545
100089.334454519
100089.334454539
100089.334454562
100089.334454586
100089.334454611
100089.334454639
100089.334454667
100089.334454697
100089.334454727
100089.334454759
100089.334454791
100089.334454824
100089.334454858
100089.334454891
100089.334454925
100089.334454958
100089.334454992
100089.334455025
100089.334455057
100089.334455089
100089.33445512
100089.334455151
100089.33445518
100089.334455209
100089.334455236
100089.334455262
100089.334455287
100089.33445531
100089.334455331
100089.334455351
100089.334455369
100089.334455384
100089.334455396
100089.334455406
100089.334455411
100089.334455413
100089.334455411
100089.334455407
100089.332174426
100089.332174433
100089.33217444
100089.332174449
100089.332174458
100089.332174468
100089.332174478
100089.33217449
100089.332174503
100089.332174518
100089.332174534
100089.332174552
100089.332174571
100089.332174593
100089.332174615
100089.33217464
100089.332174666
100089.332174693
100089.332174722
100089.332174752
100089.332174783
100089.332174814
100089.332174847
100089.33217488
100089.332174913
100089.332174946
100089.33217498
100089.332175013
100089.332175047
100089.332175079
100089.332175112
100089.332175143
100089.332175174
100089.332175204
100089.332175233
100089.332175261
100089.332175288
100089.332175313
100089.332175337
100089.33217536
100089.33217538
100089.332175399
100089.332175415
100089.332175428
100089.332175439
100089.332175446
100089.33217545
100089.33217545
100089.332175447
100089.332175442
100089.329894461
100089.329894469
100089.329894477
100089.329894488
100089.329894499
100089.32989451
100089.329894523
100089.329894536
100089.32989455
100089.329894566
100089.329894583
100089.329894602
100089.329894622
100089.329894644
100089.329894668
100089.329894693
100089.329894719
100089.329894747
100089.329894776
100089.329894806
100089.329894837
100089.329894868
100089.329894901
100089.329894934
100089.329894967
100089.329895
100089.329895034
100089.329895067
100089.3298951
100089.329895133
100089.329895165
100089.329895196
100089.329895227
100089.329895257
100089.329895285
100089.329895313
100089.329895339
100089.329895364
100089.329895387
100089.329895408
100089.329895427
100089.329895445
100089.329895459
100089.329895471
100089.329895481
100089.329895486
100089.329895489
100089.329895487
100089.329895482
100089.329895477
100089.327614495
100089.327614503
100089.327614514
100089.327614526
100089.327614538
100089.327614552
100089.327614566
100089.327614581
100089.327614596
100089.327614613
100089.327614632
100089.327614651
100089.327614672
100089.327614695
100089.327614719
100089.327614744
100089.327614771
100089.327614799
100089.327614828
100089.327614858
100089.327614889
100089.327614921
100089.327614954
100089.327614986
100089.32761502
100089.327615053
100089.327615086
100089.32761512
100089.327615152
100089.327615185
100089.327615217
100089.327615248
100089.327615278
100089.327615308
100089.327615336
100089.327615363
100089.327615388
100089.327615412
100089.327615435
100089.327615455
100089.327615474
100089.32761549
100089.327615503
100089.327615514
100089.327615521
100089.327615525
100089.327615526
100089.327615522
100089.327615516
100089.32761551
100089.325334527
100089.325334537
100089.325334549
100089.325334563
100089.325334577
100089.325334593
100089.325334608
100089.325334624
100089.325334641
100089.32533466
100089.325334679
100089.3253347
100089.325334721
100089.325334745
100089.325334769
100089.325334795
100089.325334822
100089.32533485
100089.32533488
100089.32533491
100089.325334941
100089.325334973
100089.325335005
100089.325335038
100089.325335071
100089.325335105
100089.325335138
100089.325335171
100089.325335204
100089.325335236
100089.325335268
100089.325335299
100089.325335329
100089.325335358
100089.325335386
100089.325335412
100089.325335437
100089.32533546
100089.325335482
100089.325335502
100089.325335519
100089.325335534
100089.325335546
100089.325335555
100089.325335561
100089.325335563
100089.325335562
100089.325335557
100089.32533555
100089.325335542
100089.323054559
100089.32305457
100089.323054584
100089.3230546
100089.323054616
100089.323054633
100089.32305465
100089.323054667
100089.323054686
100089.323054705
100089.323054726
100089.323054747
100089.32305477
100089.323054793
100089.323054819
100089.323054845
100089.323054872
100089.323054901
100089.32305493
100089.323054961
100089.323054992
100089.323055024
100089.323055056
100089.323055089
100089.323055122
100089.323055156
100089.323055189
100089.323055222
100089.323055254
100089.323055287
100089.323055318
100089.323055349
100089.323055378
100089.323055407
100089.323055434
100089.32305546
100089.323055485