/*--------------------------------*- C++ -*----------------------------------*\
  =========                 |
  \\      /  F ield         | OpenFOAM: The Open Source CFD Toolbox
   \\    /   O peration     | Website:  https://openfoam.org
    \\  /    A nd           | Version:  10
     \\/     M anipulation  |
\*---------------------------------------------------------------------------*/
FoamFile
{
    format      ascii;
    class       volScalarField;
    location    "5.4";
    object      p_rgh;
}
// * * * * * * * * * * * * * * * * * * * * * * * * * * * * * * * * * * * * * //

dimensions      [1 -1 -2 0 0 0 0];

internalField   nonuniform List<scalar> 
2500
(
89.5138395008107
89.5138443716569
89.5138511006226
89.5138556158781
89.5138581457868
89.5138595216558
89.5138602418883
89.5138606164546
89.5138608104899
89.5138609134301
89.5138609732385
89.5138610125869
89.5138610428257
89.5138610696013
89.5138610953436
89.5138611213333
89.5138611479051
89.513861175612
89.5138612045412
89.5138612346054
89.5138612657902
89.5138612980081
89.5138613311137
89.5138613649324
89.5138613993622
89.5138614342286
89.5138614692696
89.5138615043688
89.513861539308
89.513861573927
89.5138616080076
89.5138616412878
89.5138616735931
89.5138617046468
89.5138617340854
89.5138617614284
89.5138617858902
89.5138618061028
89.5138618190686
89.5138618194906
89.5138617955236
89.5138617237244
89.5138615568867
89.513861206302
89.513860508232
89.5138591571013
89.5138566476962
89.5138521214394
89.5138453247055
89.5138405669277
89.5142594479257
89.5142768252117
89.5142944007821
89.5143058745889
89.5143124461174
89.5143160603475
89.5143179754086
89.514318960064
89.5143194498814
89.5143196886493
89.5143198071746
89.514319870621
89.514319910304
89.5143199405575
89.5143199674931
89.514319993832
89.514320020593
89.514320048329
89.5143200772582
89.5143201073079
89.5143201385072
89.5143201707397
89.5143202038598
89.514320237693
89.5143202721083
89.5143203069456
89.5143203420012
89.5143203771004
89.5143204120686
89.5143204466585
89.5143204807246
89.5143205140193
89.5143205462809
89.5143205772183
89.5143206064822
89.5143206333014
89.5143206562789
89.514320672446
89.5143206750363
89.5143206493522
89.514320563394
89.5143203515327
89.5143198843434
89.5143189219089
89.5143170353549
89.5143134617683
89.5143069229962
89.5142953953618
89.5142776007997
89.5142605807923
89.5146779549104
89.5147050150845
89.5147286206193
89.5147435671388
89.5147520442406
89.5147566723608
89.5147591133573
89.5147603616933
89.5147609780397
89.5147612744768
89.5147614177695
89.5147614912712
89.5147615347814
89.5147615663591
89.5147615937458
89.5147616202012
89.5147616469912
89.5147616747417
89.5147617036564
89.5147617337207
89.51476176492
89.5147617971525
89.5147618302872
89.5147618641349
89.5147618985648
89.5147619334166
89.5147619684576
89.5147620035423
89.514762038496
89.5147620730859
89.5147621071519
89.5147621404612
89.5147621727083
89.5147622036166
89.5147622328077
89.5147622594959
89.5147622819786
89.5147622966469
89.5147622952209
89.5147622591321
89.51476214781
89.51476187761
89.5147612832952
89.5147600573255
89.5147576465388
89.5147530599643
89.5147446038318
89.5147295422794
89.5147055460402
89.5146786035039
89.5150354176731
89.5150650029536
89.5150876896514
89.5151014696457
89.5151090149884
89.5151130048471
89.5151150540332
89.5151160815876
89.5151165828865
89.5151168233278
89.5151169408928
89.5151170031313
89.5151170419413
89.5151170715835
89.5151170981699
89.5151171242615
89.5151171509351
89.5151171786274
89.5151172074839
89.5151172375481
89.5151172687474
89.5151173009654
89.5151173341146
89.5151173679624
89.5151174023922
89.5151174372149
89.515117472256
89.5151175073406
89.5151175422652
89.5151175768697
89.5151176109357
89.5151176442596
89.5151176765212
89.5151177075022
89.5151177368825
89.5151177639636
89.5151177873777
89.5151178043307
89.5151178083033
89.5151177846565
89.5151177009393
89.5151174893253
89.5151170124591
89.5151160077658
89.515113984351
89.5151100227376
89.5151024725637
89.5150885323383
89.5150653547607
89.5150354385987
89.5153033671668
89.5153292700415
89.5153472215025
89.5153576702287
89.5153631842841
89.5153660055657
89.515367416825
89.5153681126831
89.5153684506658
89.5153686147241
89.5153686982085
89.5153687458514
89.5153687785496
89.5153688056744
89.5153688311984
89.5153688568389
89.5153688832943
89.5153689108993
89.5153689397266
89.5153689697618
89.5153690009465
89.515369033179
89.5153690662992
89.5153691001469
89.5153691345768
89.5153691693849
89.5153692044114
89.5153692394815
89.5153692744061
89.515369308996
89.5153693430475
89.5153693763859
89.5153694087203
89.5153694398323
89.5153694694454
89.5153694970213
89.5153695216286
89.5153695413901
89.5153695520421
89.5153695440677
89.5153694962064
89.5153693635075
89.5153690528095
89.515368381486
89.5153669939027
89.5153641925281
89.5153586622473
89.5153480510489
89.5153296009521
89.5153030338988
89.5154827907099
89.5155020372913
89.5155142868025
89.515521113266
89.51552458269
89.5155262988992
89.5155271352851
89.5155275420402
89.5155277407321
89.5155278403399
89.5155278950988
89.5155279302562
89.5155279576138
89.5155279824248
89.5155280069011
89.5155280320469
89.515528058284
89.515528085758
89.5155281145271
89.5155281445332
89.5155281756888
89.5155282079068
89.5155282410124
89.5155282748456
89.5155283092608
89.515528344069
89.5155283790809
89.5155284141365
89.5155284490465
89.5155284836219
89.5155285176879
89.5155285510555
89.5155285834626
89.5155286147201
89.5155286446097
89.5155286726949
89.5155286984227
89.515528720658
89.5155287369853
89.515528742093
89.5155287239904
89.5155286573136
89.5155284878419
89.5155281072221
89.5155272945121
89.515525596551
89.5155221149325
89.5155151588988
89.5155024859851
89.5154824788624
89.5155916739313
89.5156042168819
89.5156116187572
89.5156155543227
89.5156174742151
89.5156183875661
89.5156188197434
89.5156190270936
89.5156191304559
89.5156191857386
89.5156192203431
89.5156192464492
89.5156192697032
89.5156192925642
89.5156193160947
89.5156193407602
89.5156193667208
89.5156193940493
89.5156194227311
89.5156194526789
89.51561948382
89.5156195159943
89.5156195490708
89.515619582904
89.5156196172902
89.5156196520838
89.5156196870812
89.5156197221513
89.5156197570468
89.5156197916076
89.5156198257027
89.5156198590848
89.5156198915938
89.5156199230405
89.5156199531921
89.5156199818011
89.5156200085185
89.5156200327474
89.5156200533384
89.5156200677302
89.5156200701895
89.5156200485071
89.5156199752819
89.5156197950128
89.515619387108
89.5156184933585
89.5156165718945
89.5156125525682
89.5156048428471
89.5155916336807
89.5156522658508
89.5156595873414
89.5156636119791
89.5156656328327
89.5156665682298
89.5156669879361
89.5156671773875
89.5156672660232
89.515667312342
89.5156673405145
89.5156673622841
89.5156673822348
89.5156674024329
89.5156674237078
89.5156674463942
89.5156674705504
89.51566749622
89.5156675233738
89.5156675519102
89.5156675817998
89.5156676128827
89.5156676450279
89.5156676780898
89.5156677118939
89.5156677462655
89.5156677810301
89.5156678160274
89.5156678510539
89.5156678859494
89.5156679205393
89.5156679546344
89.5156679880893
89.5156680207001
89.5156680523214
89.5156680827786
89.515668111897
89.5156681395019
89.5156681653461
89.5156681890076
89.5156682096422
89.5156682250235
89.5156682306406
89.5156682147353
89.5156681534863
89.5156679886277
89.5156675900507
89.515666662759
89.5156645987881
89.5156603794021
89.5156525702187
89.5156834943482
89.5156873745436
89.5156893581443
89.5156902739254
89.515690661603
89.515690813816
89.5156908738572
89.5156908989884
89.5156909140496
89.5156909266807
89.5156909405632
89.5156909563666
89.5156909742946
89.5156909942452
89.5156910161168
89.5156910397782
89.5156910651276
89.5156910920778
89.5156911205122
89.5156911503
89.5156911813247
89.5156912134262
89.5156912464445
89.5156912802195
89.5156913145474
89.5156913492974
89.5156913842802
89.5156914192921
89.5156914541876
89.5156914887775
89.5156915229018
89.5156915564003
89.5156915891275
89.5156916209526
89.5156916517153
89.515691681343
89.5156917097484
89.5156917369313
89.5156917629211
89.5156917876593
89.5156918109569
89.5156918321154
89.5156918474677
89.515691849665
89.5156918141292
89.5156916836277
89.5156913100218
89.5156903791794
89.5156882876327
89.5156840964191
89.5156985303038
89.5157004113426
89.5157012936979
89.5157016408775
89.515701756769
89.5157017793681
89.5157017771853
89.5157017711463
89.515701770084
89.5157017740567
89.5157017830352
89.5157017959573
89.5157018121099
89.5157018309255
89.515701852084
89.5157018752507
89.51570190028
89.5157019270118
89.5157019553008
89.5157019849867
89.515702015924
89.5157020479819
89.5157020809565
89.5157021146879
89.5157021490013
89.5157021837222
89.5157022186759
89.5157022536732
89.5157022885542
89.5157023231441
89.515702357312
89.5157023908832
89.5157024237269
89.5157024557411
89.515702486824
89.5157025169319
89.5157025460794
89.5157025743974
89.5157026021479
89.5157026297966
89.5157026579545
89.5157026877423
89.5157027191308
89.5157027523383
89.5157027786918
89.5157027775858
89.5157026782836
89.5157023318898
89.5157013975695
89.5156993396231
89.5157053484436
89.5157061825739
89.5157065264211
89.5157066113752
89.5157066074025
89.5157065744716
89.5157065456151
89.5157065255771
89.5157065165549
89.5157065157109
89.5157065215753
89.5157065324311
89.5157065471722
89.5157065650274
89.5157065854874
89.5157066082029
89.515706632912
89.5157066594256
89.5157066875545
89.5157067171385
89.5157067480031
89.5157067799737
89.5157068129047
89.5157068465924
89.5157068808767
89.5157069155539
89.5157069504785
89.5157069854467
89.5157070203277
89.5157070549321
89.5157070891146
89.5157071227586
89.5157071557333
89.5157071879366
89.5157072193251
89.5157072498841
89.515707279701
89.5157073090086
89.5157073381561
89.5157073678711
89.5157073991577
89.515707433733
89.5157074730087
89.5157075200405
89.5157075726311
89.5157076264004
89.5157076473697
89.5157075704628
89.5157072057482
89.5157062804792
89.5157082859077
89.515708619685
89.5157087241096
89.515708702791
89.5157086538966
89.5157086015533
89.51570856334
89.5157085378742
89.5157085251849
89.5157085216633
89.515708525505
89.5157085348474
89.515708548468
89.5157085654937
89.5157085853716
89.5157086076506
89.5157086320687
89.515708658364
89.5157086863328
89.5157087158004
89.5157087465777
89.5157087784901
89.5157088113629
89.5157088450069
89.515708879233
89.5157089138811
89.515708948762
89.5157089837157
89.5157090185676
89.5157090531866
89.5157090874127
89.5157091211149
89.5157091541914
89.515709186584
89.515709218249
89.5157092492154
89.5157092796289
89.5157093097368
89.5157093400194
89.5157093712623
89.5157094045717
89.5157094417955
89.5157094846945
89.515709536965
89.5157095985051
89.5157096709881
89.5157097362244
89.515709767933
89.5157096575276
89.5157092806185
89.5157095026225
89.515709617277
89.5157096263138
89.5157095703908
89.5157095101749
89.5157094545575
89.515709414889
89.5157093881862
89.5157093740563
89.5157093691523
89.5157093717135
89.5157093799789
89.5157093927119
89.5157094090682
89.5157094284368
89.515709450352
89.5157094744936
89.5157095005852
89.5157095284085
89.5157095577742
89.5157095884642
89.5157096203038
89.5157096531038
89.5157096866897
89.5157097208721
89.5157097554766
89.5157097903284
89.515709825253
89.5157098600903
89.5157098946947
89.5157099289354
89.5157099626958
89.5157099958888
89.5157100284268
89.5157100603392
89.5157100916695
89.5157101225632
89.5157101533405
89.5157101845107
89.5157102168305
89.5157102514204
89.5157102900266
89.5157103343226
89.5157103876554
89.5157104503014
89.5157105253747
89.5157106010156
89.515710667285
89.5157106581901
89.5157105242833
89.515709996791
89.5157100242068
89.5157100012293
89.5157099404023
89.5157098823111
89.5157098299824
89.5157097923075
89.5157097664051
89.5157097521296
89.5157097466581
89.5157097484771
89.5157097559859
89.5157097680931
89.5157097839256
89.5157098028722
89.5157098244672
89.5157098483614
89.5157098742784
89.5157099019561
89.5157099312055
89.5157099618227
89.5157099935896
89.5157100263314
89.515710059859
89.5157100939978
89.515710128544
89.5157101633522
89.5157101982331
89.5157102330559
89.5157102676603
89.5157103019155
89.5157103357196
89.5157103689853
89.5157104016689
89.515710433785
89.5157104653917
89.5157104966929
89.5157105279941
89.51571055979
89.5157105928374
89.5157106281695
89.5157106673287
89.515710711712
89.515710764128
89.5157108244748
89.5157108956919
89.515710968335
89.5157110386644
89.5157110631553
89.5157110270375
89.5157102004159
89.5157101973309
89.5157101676596
89.5157101125806
89.5157100611104
89.5157100144279
89.5157099801145
89.5157099560456
89.5157099423814
89.5157099369098
89.5157099384087
89.51570994551
89.5157099571661
89.5157099726057
89.5157099912321
89.5157100125798
89.5157100362703
89.5157100620272
89.5157100896031
89.5157101187506
89.5157101492805
89.5157101809746
89.5157102136582
89.5157102471276
89.5157102812082
89.5157103157107
89.5157103504753
89.5157103853271
89.5157104201062
89.5157104546815
89.5157104889367
89.51571052277
89.5157105560938
89.5157105888939
89.5157106211554
89.515710652995
89.5157106846018
89.5157107162668
89.5157107484847
89.5157107819396
89.5157108175918
89.5157108566927
89.5157109004067
89.5157109508582
89.5157110076107
89.5157110727741
89.5157111380686
89.515711201675
89.515711232787
89.5157112312008
89.5157102900848
89.5157102788362
89.515710251304
89.5157102047087
89.5157101608493
89.5157101202931
89.5157100898359
89.5157100680954
89.5157100555516
89.5157100505166
89.51571005203
89.5157100589713
89.51571007038
89.5157100855722
89.5157101039804
89.5157101251243
89.5157101486693
89.5157101743098
89.5157102017838
89.515710230844
89.5157102613011
89.515710292937
89.5157103255478
89.515710358959
89.5157103929814
89.5157104274404
89.5157104621467
89.5157104969549
89.5157105316903
89.5157105662511
89.5157106004917
89.5157106343249
89.5157106676925
89.5157107005507
89.5157107329287
89.5157107649284
89.5157107967243
89.5157108286076
89.5157108610438
89.5157108946587
89.5157109302381
89.5157109688735
89.5157110113942
89.5157110593718
89.5157111120789
89.5157111708104
89.5157112280285
89.5157112823654
89.5157113107998
89.515711318687
89.5157103343372
89.5157103227539
89.5157102997182
89.5157102614903
89.5157102247904
89.5157101901859
89.5157101636869
89.515710144522
89.5157101334189
89.5157101291406
89.5157101309596
89.51571013793
89.515710149295
89.5157101643708
89.515710182648
89.5157102036756
89.5157102271187
89.5157102526573
89.5157102800586
89.5157103090605
89.5157103394449
89.5157103710226
89.5157104035752
89.5157104369282
89.5157104708924
89.5157105052931
89.5157105399412
89.5157105746912
89.5157106093975
89.5157106439146
89.5157106781262
89.5157107119594
89.5157107453269
89.5157107782143
89.5157108106505
89.5157108427229
89.5157108746062
89.5157109065913
89.5157109390711
89.5157109725842
89.5157110078289
89.5157110456494
89.5157110866567
89.5157111319277
89.5157111805165
89.515711233078
89.515711282831
89.5157113283203
89.5157113518362
89.5157113604073
89.5157103588717
89.5157103492093
89.5157103307429
89.5157102998346
89.5157102695666
89.5157102404337
89.5157102177764
89.5157102013181
89.5157101918594
89.5157101885852
89.5157101909281
89.5157101981604
89.5157102095982
89.5157102246885
89.5157102429221
89.5157102639059
89.5157102872909
89.5157103127713
89.5157103400998
89.5157103690581
89.5157103993988
89.5157104309183
89.5157104634272
89.515710496722
89.515710530628
89.515710564956
89.5157105995459
89.5157106342376
89.5157106688857
89.5157107033592
89.5157107375271
89.5157107713312
89.5157108046697
89.515710837557
89.5157108700078
89.5157109020947
89.515710933978
89.5157109659194
89.5157109982829
89.5157110315049
89.5157110661676
89.5157111029257
89.5157111421868
89.5157111846347
89.5157112292654
89.5157112761663
89.5157113193709
89.5157113572786
89.5157113760506
89.5157113829046
89.5157103731472
89.5157103656966
89.515710351232
89.5157103265374
89.5157103018137
89.515710277672
89.5157102587109
89.5157102449448
89.5157102372614
89.5157102351513
89.5157102382218
89.5157102458616
89.5157102575322
89.5157102727244
89.5157102910161
89.515710312
89.5157103353849
89.5157103608508
89.5157103881647
89.5157104170648
89.5157104473619
89.5157104788523
89.515710511303
89.5157105445396
89.5157105783874
89.5157106126571
89.5157106471888
89.5157106818224
89.5157107163977
89.5157107507985
89.5157107849227
89.5157108186831
89.5157108519779
89.5157108848216
89.5157109172142
89.5157109492429
89.5157109810534
89.5157110128494
89.5157110449363
89.5157110777072
89.5157111116132
89.5157111471053
89.5157111844892
89.5157112241286
89.5157112649467
89.5157113067835
89.515711344342
89.5157113759924
89.5157113908645
89.5157113957393
89.5157103808597
89.515710375359
89.5157103642559
89.5157103447564
89.515710324893
89.5157103052479
89.5157102897356
89.5157102786325
89.5157102728263
89.5157102719968
89.5157102759113
89.515710284104
89.5157102961239
89.5157103115343
89.5157103299425
89.5157103510137
89.5157103744132
89.5157103999081
89.5157104272075
89.5157104561076
89.5157104863756
89.5157105178223
89.5157105502294
89.5157105834223
89.5157106172119
89.5157106514234
89.5157106858824
89.5157107204286
89.5157107549458
89.5157107892737
89.5157108233252
89.5157108569838
89.5157108902204
89.5157109229767
89.515710955282
89.5157109871943
89.5157110188302
89.5157110503787
89.5157110820874
89.5157111142616
89.5157111472508
89.5157111813896
89.5157112168235
89.5157112536835
89.5157112909365
89.5157113282039
89.5157113609021
89.5157113874448
89.5157113992609
89.5157114025351
89.5157103836391
89.5157103797974
89.5157103714591
89.5157103563542
89.5157103406964
89.5157103251113
89.5157103128295
89.5157103043166
89.5157103004021
89.5157103009551
89.5157103058154
89.515710314663
89.515710327134
89.5157103428355
89.5157103614474
89.515710382635
89.5157104061363
89.5157104316604
89.5157104589889
89.515710487889
89.515710518157
89.51571054956
89.515710581938
89.5157106150873
89.5157106488186
89.5157106829574
89.5157107173436
89.5157107518316
89.5157107862469
89.5157108205021
89.5157108544518
89.515710888023
89.5157109211432
89.5157109537977
89.5157109859574
89.5157110176951
89.5157110490836
89.515711080312
89.5157111115259
89.5157111430017
89.5157111749868
89.5157112076849
89.5157112411107
89.5157112752786
89.5157113092282
89.5157113423629
89.5157113708701
89.5157113932073
89.515711402637
89.5157114047179
89.5157103824313
89.5157103799866
89.5157103740057
89.5157103626261
89.5157103506644
89.5157103387028
89.5157103294332
89.5157103234087
89.515710321386
89.5157103233505
89.5157103292586
89.5157103388628
89.5157103518432
89.515710367923
89.5157103867969
89.5157104081736
89.5157104317914
89.5157104574027
89.5157104847749
89.5157105137041
89.5157105439575
89.5157105753606
89.5157106076949
89.5157106408005
89.5157106744737
89.5157107085397
89.5157107428677
89.5157107772538
89.5157108115964
89.5157108457497
89.5157108795975
89.5157109130523
89.5157109460415
89.5157109785359
89.515711010521
89.5157110420259
89.5157110731234
89.5157111039298
89.5157111346052
89.5157111652807
89.5157111961744
89.5157112273737
89.5157112588349
89.5157112904271
89.5157113212481
89.5157113506866
89.5157113755558
89.5157113943569
89.5157114018948
89.5157114030881
89.5157103778911
89.5157103766542
89.5157103727106
89.5157103645324
89.5157103558449
89.5157103471574
89.5157103407109
89.5157103370439
89.5157103368983
89.515710340318
89.5157103473175
89.5157103577221
89.5157103713136
89.51571038783
89.5157104070095
89.5157104286191
89.5157104523969
89.5157104781101
89.5157105055696
89.5157105345279
89.5157105647959
89.5157105961989
89.5157106285042
89.5157106615661
89.515710695181
89.5157107291889
89.5157107634295
89.5157107977429
89.5157108319836
89.5157108660205
89.5157108997519
89.5157109330612
89.5157109659049
89.5157109982247
89.515711029977
89.5157110612199
89.5157110919536
89.5157111222943
89.5157111523295
89.5157111821609
89.5157112119196
89.5157112416055
89.5157112711167
89.5157113002351
89.5157113281748
89.5157113542809
89.5157113759051
89.5157113916939
89.5157113976602
89.5157113981695
89.5157103705569
89.5157103703677
89.5157103682141
89.5157103628444
89.5157103570527
89.5157103513484
89.5157103475212
89.5157103461243
89.5157103477977
89.5157103526726
89.5157103608071
89.5157103720849
89.5157103863166
89.5157104033278
89.5157104228856
89.5157104447571
89.5157104687241
89.5157104945829
89.5157105221297
89.5157105511462
89.5157105814433
89.5157106128463
89.515710645137
89.5157106781553
89.5157107117266
89.5157107456762
89.5157107798295
89.5157108140411
89.5157108481799
89.5157108821004
89.5157109156862
89.51571094885
89.5157109815191
89.5157110136206
89.5157110451255
89.5157110760338
89.5157111063891
89.5157111362059
89.5157111655426
89.5157111944864
89.5157112230663
89.5157112512388
89.5157112788584
89.5157113056484
89.515711330896
89.5157113539608
89.5157113727037
89.5157113858877
89.5157113905007
89.5157113903988
89.515710360778
89.5157103615638
89.5157103610109
89.5157103581441
89.5157103549573
89.5157103519741
89.5157103505917
89.5157103513484
89.5157103547972
89.5157103611418
89.5157103704114
89.5157103825768
89.5157103975216
89.5157104150712
89.5157104350219
89.515710457199
89.5157104813989
89.5157105074322
89.5157105350809
89.5157105641847
89.5157105945254
89.5157106259285
89.5157106582192
89.5157106912084
89.5157107247214
89.5157107585983
89.5157107926643
89.5157108267886
89.5157108608109
89.5157108946005
89.5157109280408
89.51571096103
89.5157109934953
89.515711025364
89.5157110565779
89.5157110871369
89.5157111170411
89.5157111462904
89.515711174914
89.515711202941
89.5157112303277
89.5157112570159
89.5157112828019
89.5157113073656
89.5157113301248
89.5157113504101
89.5157113665482
89.5157113773894
89.5157113807945
89.5157113801397
89.51571034886
89.5157103505771
89.5157103514939
89.5157103508827
89.5157103500678
89.5157103496022
89.5157103504753
89.5157103532838
89.5157103584788
89.5157103662496
89.5157103766833
89.51571038978
89.5157104054524
89.515710423555
89.5157104439568
89.5157104664831
89.5157104909304
89.5157105171529
89.5157105449471
89.5157105741237
89.5157106045226
89.5157106359547
89.5157106682309
89.515710701191
89.5157107346604
89.5157107684645
89.5157108024578
89.5157108364656
89.5157108703715
89.5157109040156
89.5157109373104
89.5157109701104
89.5157110023574
89.5157110339642
89.5157110648724
89.5157110950386
89.5157111244625
89.5157111531153
89.5157111809822
89.5157112080487
89.5157112342567
89.5157112594752
89.5157112835004
89.5157113059831
89.5157113263995
89.5157113441383
89.5157113579044
89.5157113666355
89.5157113689056
89.5157113677124
89.5157103350502
89.5157103376696
89.5157103399542
89.5157103413949
89.5157103427919
89.5157103446254
89.5157103476668
89.5157103524107
89.5157103592792
89.5157103684614
89.5157103800739
89.5157103941019
89.515710410531
89.5157104292448
89.5157104501122
89.5157104729878
89.5157104977261
89.5157105241524
89.5157105521066
89.5157105813851
89.5157106118568
89.515710643318
89.5157106755942
89.5157107085251
89.5157107419509
89.5157107756968
89.5157108095882
89.5157108434942
89.5157108772692
89.5157109107822
89.5157109438878
89.5157109764987
89.5157110084983
89.5157110398286
89.5157110703876
89.5157111001608
89.5157111290755
89.5157111571025
89.5157111841982
89.5157112103043
89.5157112353336
89.515711259126
89.5157112814486
89.5157113019523
89.5157113201858
89.5157113355672
89.5157113471505
89.5157113539171
89.5157113551104
89.5157113533351
89.5157103195525
89.5157103230449
89.5157103266538
89.5157103300444
89.5157103334495
89.5157103374659
89.5157103425154
89.5157103491365
89.5157103576203
89.515710368185
89.515710380947
89.5157103959355
89.5157104131358
89.5157104324608
89.515710453823
89.5157104770915
89.5157105021353
89.5157105287799
89.5157105568942
89.5157105863036
89.5157106168335
89.5157106483239
89.5157106806146
89.515710713531
89.5157107469131
89.5157107805862
89.5157108143903
89.5157108481944
89.5157108818385
89.5157109151769
89.5157109481079
89.5157109805004
89.5157110122673
89.5157110432774
89.5157110734872
89.5157111028238
89.5157111312146
89.5157111585868
89.5157111848966
89.5157112100424
89.5157112339075
89.5157112563029
89.5157112769957
89.5157112956222
89.515711311833
89.5157113250025
89.5157113345631
89.5157113394962
89.5157113396126
89.5157113372261
89.515710302454
89.5157103068486
89.5157103117381
89.5157103169622
89.5157103223028
89.5157103283564
89.5157103353267
89.5157103437232
89.515710353764
89.5157103656966
89.5157103795937
89.5157103955426
89.5157104135287
89.515710433494
89.5157104553655
89.5157104790414
89.5157105043909
89.5157105312828
89.5157105595717
89.5157105891121
89.5157106197294
89.5157106512634
89.5157106835686
89.5157107164705
89.5157107498089
89.5157107834093
89.5157108171261
89.5157108508138
89.5157108843268
89.5157109175052
89.515710950247
89.5157109824213
89.5157110138971
89.5157110446162
89.5157110744476
89.5157111033186
89.5157111311564
89.5157111578883
89.5157111833978
89.5157112075831
89.5157112302986
89.5157112513407
89.5157112704765
89.515711287313
89.515711301603
89.5157113127207
89.515711320375
89.5157113235473
89.5157113225723
89.5157113195164
89.5157102838857
89.5157102892117
89.5157102953817
89.5157103024103
89.5157103095698
89.5157103175879
89.5157103263773
89.5157103364763
89.5157103480451
89.5157103612873
89.5157103763195
89.5157103932142
89.5157104119862
89.5157104325917
89.5157104549871
89.5157104790851
89.5157105047692
89.5157105319231
89.5157105604012
89.5157105900726
89.5157106207917
89.5157106523839
89.5157106847037
89.515710717591
89.5157107508858
89.5157107844279
89.5157108180574
89.5157108516287
89.5157108849817
89.515710918
89.5157109505526
89.5157109824795
89.5157110136934
89.5157110440632
89.5157110735163
89.5157111019216
89.5157111292065
89.5157111552544
89.5157111799635
89.515711203203
89.5157112247834
89.5157112445158
89.5157112621528
89.5157112773159
89.5157112897723
89.5157112989546
89.5157113047899
89.5157113062305
89.5157113041641
89.5157113003661
89.515710263935
89.5157102702506
89.5157102777157
89.5157102865342
89.515710295469
89.5157103053498
89.5157103158999
89.5157103276288
89.5157103406673
89.5157103551901
89.5157103713427
89.5157103891688
89.5157104087266
89.5157104300015
89.5157104529353
89.5157104774553
89.5157105034741
89.5157105309045
89.5157105595863
89.5157105894032
89.5157106202096
89.51571065186
89.5157106842089
89.5157107170817
89.5157107503328
89.5157107838168
89.5157108173444
89.5157108507992
89.5157108840212
89.5157109168649
89.5157109491993
89.5157109808933
89.5157110118162
89.5157110418659
89.5157110708969
89.5157110988366
89.5157111255539
89.5157111509325
89.5157111748413
89.5157111971203
89.5157112176094
89.5157112360612
89.5157112522575
89.5157112658053
89.5157112765446
89.5157112838788
89.5157112879679
89.5157112876914
89.51571128449
89.5157112798624
89.5157102426601
89.5157102500525
89.515710258871
89.5157102694939
89.5157102801604
89.5157102918602
89.5157103040838
89.5157103173988
89.5157103318488
89.5157103476231
89.5157103648671
89.5157103836391
89.5157104039827
89.5157104258979
89.5157104493701
89.5157104743266
89.5157105007092
89.5157105284015
89.5157105573016
89.515710587264
89.5157106181869
89.5157106498955
89.5157106822589
89.5157107151317
89.5157107483537
89.5157107817504
89.5157108152052
89.5157108485437
89.5157108816056
89.5157109142747
89.5157109464053
89.5157109778665
89.5157110084983
89.5157110381842
89.5157110668224
89.5157110942673
89.5157111204171
89.5157111451117
89.5157111682202
89.5157111895824
89.5157112089801
89.5157112262095
89.5157112410088
89.5157112530142
89.5157112621091
89.5157112676534
89.5157112700545
89.5157112680608
89.5157112636516
89.5157112580782
89.5157102201774
89.5157102287631
89.5157102389931
89.5157102514786
89.5157102638623
89.5157102773228
89.5157102911762
89.5157103060046
89.5157103218226
89.5157103388192
89.5157103571255
89.5157103768142
89.5157103979436
89.5157104205136
89.5157104445243
89.5157104699319
89.5157104966638
89.5157105246326
89.5157105537364
89.5157105838734
89.5157106148981
89.5157106466795
89.5157106790721
89.5157107119303
89.5157107451087
89.5157107784617
89.5157108118146
89.5157108450221
89.5157108779531
89.5157109104475
89.5157109423453
89.5157109735446
89.5157110038708
89.515711033222
89.5157110614382
89.5157110883883
89.5157111139561
89.5157111379813
89.5157111603039
89.5157111807493
89.5157111990993
89.5157112151355
89.515711228596
89.5157112391171
89.5157112466259
89.515711250453
89.5157112511952
89.5157112474117
89.5157112417219
89.5157112350862
89.515710196516
89.5157102064695
89.5157102182275
89.5157102326193
89.5157102467347
89.5157102619123
89.5157102773373
89.51571029365
89.5157103107776
89.5157103289675
89.515710348307
89.5157103688834
89.5157103907841
89.5157104140089
89.515710438558
89.5157104644022
89.5157104914979
89.5157105197577
89.5157105490798
89.5157105793769
89.5157106105034
89.5157106423576
89.5157106747793
89.515710707652
89.5157107408013
89.5157107740815
89.5157108073472
89.5157108404383
89.5157108732092
89.5157109055144
89.5157109372085
89.5157109681459
89.515710998181
89.5157110271684
89.5157110549626
89.5157110814325
89.5157111064327
89.515711129774
89.5157111513254
89.5157111708686
89.5157111881999
89.5157112030574
89.5157112152374
89.5157112243323
89.5157112303277
89.5157112324669
89.5157112315646
89.5157112259476
89.5157112188608
89.5157112109882
89.5157101717778
89.5157101833029
89.5157101967052
89.5157102131343
89.5157102289522
89.5157102458325
89.5157102627854
89.5157102805097
89.5157102989178
89.5157103182573
89.5157103386009
89.515710360065
89.5157103827078
89.5157104065729
89.5157104316604
89.5157104579557
89.5157104854006
89.5157105139369
89.5157105434919
89.515710573949
89.515710605192
89.5157106371189
89.5157106695697
89.5157107024424
89.5157107355481
89.5157107687555
89.5157108019339
89.5157108349085
89.5157108675339
89.51571089965
89.5157109311258
89.5157109618012
89.5157109915308
89.5157110201544
89.5157110475411
89.5157110735163
89.515711097949