/*--------------------------------*- C++ -*----------------------------------*\
  =========                 |
  \\      /  F ield         | OpenFOAM: The Open Source CFD Toolbox
   \\    /   O peration     | Website:  https://openfoam.org
    \\  /    A nd           | Version:  10
     \\/     M anipulation  |
\*---------------------------------------------------------------------------*/
FoamFile
{
    format      ascii;
    class       surfaceScalarField;
    location    "5.4";
    object      phi;
}
// * * * * * * * * * * * * * * * * * * * * * * * * * * * * * * * * * * * * * //

dimensions      [1 0 -1 0 0 0 0];

internalField   nonuniform List<scalar> 
4900
(
-6.13796986213555e-12
6.19089108031772e-12
-7.93067645493669e-12
1.87309278434208e-12
-6.71846978044365e-12
-1.12653967910631e-12
-4.7438919786547e-12
-1.89010291850859e-12
-3.11128889973304e-12
-1.54947222502215e-12
-1.99724744286241e-12
-1.03157486684505e-12
-1.28781474826905e-12
-6.27299715803277e-13
-8.44452113993309e-13
-3.61507925496466e-13
-5.64200207518324e-13
-1.98727585827461e-13
-3.82560397913727e-13
-1.00517383844723e-13
-2.60307932672042e-13
-4.15900211412703e-14
-1.74597927580139e-13
-5.54358747349472e-15
-1.12082711164496e-13
1.71401921468642e-14
-6.48859791108777e-14
3.19486553296645e-14
-2.8281648370567e-14
4.20423037061959e-14
6.79392302685758e-16
4.92039133567035e-14
2.39178779676678e-14
5.44648511961546e-14
4.27545151706886e-14
5.84256855375258e-14
5.81522590745719e-14
6.14449873890353e-14
7.08179745041541e-14
6.37782130536994e-14
8.13246099776231e-14
6.55598733318185e-14
9.01326222163233e-14
6.69019104462357e-14
9.7634417217584e-14
6.78736739216609e-14
1.04162377629377e-13
6.85344661783394e-14
1.10038539871164e-13
6.88961487240388e-14
1.15557180651232e-13
6.89854692764234e-14
1.21011539192376e-13
6.880475400841e-14
1.26708078465452e-13
6.83400414339205e-14
1.32973871931641e-13
6.75722527280792e-14
1.40174382563159e-13
6.64620907291173e-14
1.48748956333276e-13
6.49378560109049e-14
1.59228791927157e-13
6.29080251092188e-14
1.72289123421576e-13
6.02311922031009e-14
1.88841888209527e-13
5.66722824526486e-14
2.10190943598725e-13
5.18420293248252e-14
2.38246975384243e-13
4.51336033995809e-14
2.75952500716752e-13
3.55151895938384e-14
3.28042642227294e-13
2.11886485823965e-14
4.02397324340939e-13
-9.99443609273856e-16
5.12441248791023e-13
-3.66106062252924e-14
6.81071004486842e-13
-9.51396576472029e-14
9.47564493884871e-13
-1.92995842751853e-13
1.37659351873201e-12
-3.55590379407675e-13
2.07219258312924e-12
-6.22260087601405e-13
3.17636725707856e-12
-1.03083292855409e-12
4.81319234612997e-12
-1.56306140002441e-12
6.81940069964877e-12
-1.9312218341368e-12
8.06686630502531e-12
-1.17029009846154e-12
6.22498730892144e-12
1.91867800672989e-12
6.27777421833316e-12
-8.38488399809351e-12
1.46485691777541e-11
-1.29800885656053e-11
6.57072689349059e-12
-1.17130541715427e-11
-2.28669543272657e-12
-8.73698888997762e-12
-4.76117498594688e-12
-6.02357667897246e-12
-4.15982481575509e-12
-4.07781850890653e-12
-2.87538519291166e-12
-2.78105323345003e-12
-1.82276779356441e-12
-1.9337830751169e-12
-1.10798564179727e-12
-1.37202737093222e-12
-6.60195560379313e-13
-9.88101355883033e-13
-3.84704584989552e-13
-7.1536611925692e-13
-2.15179738996247e-13
-5.13848608865079e-13
-1.08538396852445e-13
-3.59614489603278e-13
-3.92047330659282e-14
-2.38107022219667e-13
7.70039730516096e-15
-1.40226258616617e-13
4.0805860982211e-14
-6.00555108993855e-14
6.50829054015746e-14
6.42483925179558e-15
8.34646010266906e-14
6.20881561421775e-14
9.76976343227162e-14
1.09080737886794e-13
1.08868854979005e-13
1.49067935857321e-13
1.17714354476575e-13
1.83400992075924e-13
1.24683937358166e-13
2.13209598496601e-13
1.30110112537873e-13
2.39472475232139e-13
1.34214877771593e-13
2.63061995095003e-13
1.37163013327698e-13
2.84796136235582e-13
1.39022666888755e-13
3.05457704552006e-13
1.39854958761983e-13
3.25828447820336e-13
1.39664235161528e-13
3.46714607154995e-13
1.38411241335171e-13
3.6897696872778e-13
1.36024353672436e-13
3.93563554189528e-13
1.32375806268671e-13
4.21584769766379e-13
1.27235052985329e-13
4.54354004808904e-13
1.20307280715423e-13
4.93490695537024e-13
1.11148886772336e-13
5.41101323522352e-13
9.90394430802768e-14
6.00060297817708e-13
8.28246626628574e-14
6.74394912207765e-13
6.07453200105441e-14
7.70048591667243e-13
2.98516670154369e-14
8.96149749067831e-13
-1.48457733020551e-14
1.06732580051155e-12
-8.20117320735237e-14
1.3076349822872e-12
-1.86659526653532e-13
1.65719989713285e-12
-3.54373357641634e-13
2.18285657709601e-12
-6.28306576156286e-13
2.99287238547975e-12
-1.07530781805321e-12
4.25342479054362e-12
-1.792557018739e-12
6.17120350770472e-12
-2.85815483397645e-12
8.88352942641732e-12
-4.1840088020772e-12
1.19103564106189e-11
-4.86456825879661e-12
1.32386869312833e-11
-2.40252973795188e-12
8.56594322480371e-12
6.68374803932405e-12
1.49029603219809e-11
-5.7256682758626e-12
2.04499358224724e-11
-1.11034762344909e-11
1.20504167714566e-11
-1.0872464197488e-11
-2.41387546865426e-12
-8.70575068561967e-12
-6.82682657736011e-12
-6.42421978721786e-12
-6.34285598325657e-12
-4.65241401191874e-12
-4.55032410960092e-12
-3.38723176507547e-12
-2.99209973007282e-12
-2.50443418547455e-12
-1.89565834885223e-12
-1.88081881579578e-12
-1.18930277841392e-12
-1.42831056739475e-12
-7.4329724006552e-13
-1.08944139736294e-12
-4.6073183895936e-13
-8.27771336606628e-13
-2.77500061355245e-13
-6.20253508739861e-13
-1.54625962142233e-13
-4.52068675243379e-13
-6.89940348731143e-14
-3.13406929891166e-13
-6.9574680146059e-15
-1.97541519475871e-13
3.95424241515815e-14
-9.96784447255254e-14
7.53755498360913e-14
-1.62643343361214e-14
1.03530150231962e-13
5.5431095341927e-14
1.2591766675438e-13
1.17591530170699e-13
1.43819806919108e-13
1.72015409543809e-13
1.58073955061128e-13
2.20238040246628e-13
1.69274036316168e-13
2.63606457555639e-13
1.77833036897195e-13
3.03340109203525e-13
1.84041928068775e-13
3.40582197499678e-13
1.88046823533778e-13
3.76444235478923e-13
1.89939481526416e-13
4.12030721436223e-13
1.89733560985667e-13
4.48479888646767e-13
1.87354071197438e-13
4.87002201004549e-13
1.82659132702941e-13
5.28928985611765e-13
1.75399411143848e-13
5.75780327281693e-13
1.65158907982582e-13
6.29335965982753e-13
1.5138275407199e-13
6.91748673243007e-13
1.33258831352327e-13
7.65738031993527e-13
1.09499919716909e-13
8.54868400019037e-13
7.8111272964293e-14
9.63946735290217e-13
3.60902669680826e-14
1.09973392059578e-12
-2.14676423250461e-14
1.27206499669964e-12
-1.02633499412356e-13
1.49582808399313e-12
-2.21134434426852e-13
1.79416364030721e-12
-4.00254199741756e-13
2.20368831844739e-12
-6.79073019503128e-13
2.78217221510468e-12
-1.1219142011727e-12
3.6185214635737e-12
-1.82674977962873e-12
4.83836183940358e-12
-2.92737976033933e-12
6.57350424293693e-12
-4.50779494527892e-12
8.84607807712078e-12
-6.36965986899071e-12
1.10590630273302e-11
-6.98776424303758e-12
1.13642649350563e-11
-2.61500977436998e-12
5.93322111594543e-12
1.22030475495442e-11
2.0891451531115e-11
-2.72273466111274e-12
2.32471770621673e-11
-6.85169575870773e-12
1.62769426243524e-11
-7.63175752948815e-12
-1.53614606208695e-12
-6.80985812523607e-12
-7.55457315091038e-12
-5.53949990892297e-12
-7.52213082215463e-12
-4.36926409696065e-12
-5.63150668345326e-12
-3.42278968463283e-12
-3.85080777615473e-12
-2.69075314645144e-12
-2.54080511568063e-12
-2.12761942265354e-12
-1.66622960052037e-12
-1.68981219296694e-12
-1.09550153244218e-12
-1.34403250345423e-12
-7.21488705684639e-13
-1.06624199572623e-12
-4.70843827472143e-13
-8.3946624184929e-13
-2.97529762658357e-13
-6.51687061209885e-13
-1.73471040179372e-13
-4.9427971433599e-13
-8.16204755472128e-14
-3.60926354376592e-13
-1.16080510727477e-14
-2.46883389067559e-13
4.30130489133948e-14
-1.48500793361163e-13
8.63272354810554e-14
-6.28918242141859e-14
1.21010422992813e-13
1.23075384332764e-14
1.48867211859508e-13
7.90706738799115e-14
1.71126769016892e-13
1.39103711467223e-13
1.88650344289073e-13
1.93918215139227e-13
2.02046537527723e-13
2.44897957533172e-13
2.11733956473728e-13
2.93343260992886e-13
2.1794391387388e-13
3.40516704143834e-13
2.20804203631031e-13
3.87678608281844e-13
2.20332625005197e-13
4.36121121773259e-13
2.16421071476414e-13
4.87220189769797e-13
2.08845899240106e-13
5.42479246489047e-13
1.97230089899773e-13
6.03592475798625e-13
1.80968151545469e-13
6.72525027384564e-13
1.59236214570523e-13
7.51619561790543e-13
1.30846597793878e-13
8.43761159695687e-13
9.39717047243759e-14
9.52599444252616e-13
4.58546561175036e-14
1.08287842086651e-12
-1.76018151984571e-14
1.24092264582277e-12
-1.02883930847509e-13
1.43535331527586e-12
-2.20365345622838e-13
1.67819013239359e-12
-3.87180541986818e-13
1.98642821776126e-12
-6.31603861239726e-13
2.38419507328578e-12
-9.99861100797787e-13
2.90500652892947e-12
-1.56567336601274e-12
3.59308777083254e-12
-2.43769682841803e-12
4.49576832789534e-12
-3.75271954496901e-12
5.62831906322891e-12
-5.56234951490557e-12
6.88277979788465e-12
-7.54439547457419e-12
7.73519655880269e-12
-7.7570759871293e-12
7.02623534304652e-12
-1.8195711084413e-12
2.88122077569711e-12
1.64302400505967e-11
2.38235866244431e-11
-6.78309830938692e-13
2.39953532682244e-11
-3.0325127666261e-12
1.8720638286294e-11
-4.40263512059864e-12
-7.82084101311024e-14
-4.67978614184311e-12
-7.19350066358541e-12
-4.34049413564524e-12
-7.78077557544162e-12
-3.77366872120211e-12
-6.11989869250357e-12
-3.18152758516072e-12
-4.36592847965126e-12
-2.64455912548293e-12
-3.00169060537355e-12
-2.18456108993047e-12
-2.05083748096127e-12
-1.79906364824233e-12
-1.40619172651173e-12
-1.47830783900739e-12
-9.67980097294581e-13
-1.21114177074463e-12
-6.64278439976465e-13
-9.87476199737665e-13
-4.47994700245664e-13
-7.98902511104795e-13
-2.89371741832258e-13
-6.38673316670363e-13
-1.69696164855484e-13
-5.01431815371132e-13
-7.72030186395157e-14
-3.82923548018561e-13
-4.33888985144439e-15
-2.7973810393422e-13
5.38263368904372e-14
-1.89099229978059e-13
1.00605051831588e-13
-1.08683605880252e-13
1.3825498109659e-13
-3.6527473384832e-14
1.68366846242587e-13
2.90886372336522e-14
1.92045378471306e-13
8.970116745655e-14
2.10084529021049e-13
1.46729555019973e-13
2.23018994189462e-13
2.01504865064336e-13
2.3116975435574e-13
2.55319176729676e-13
2.347031138279e-13
3.09468629533398e-13
2.33633870059774e-13
3.65275842842634e-13
2.27826794054285e-13
4.24149528274174e-13
2.16973396295618e-13
4.87615460225506e-13
2.00579152543286e-13
5.57380948577866e-13
1.77859218907693e-13
6.35400937260624e-13
1.4774240556572e-13
7.23981980639801e-13
1.08692659730778e-13
8.25893222137867e-13
5.84209248596731e-14
9.4452463743437e-13
-6.44787812579338e-15
1.08411230568417e-12
-9.08583153692913e-14
1.24997751521335e-12
-2.02382871548514e-13
1.4488303843847e-12
-3.52789340241078e-13
1.68900571116624e-12
-5.60845841584398e-13
1.98051868897836e-12
-8.56518635598194e-13
2.33444564912003e-12
-1.28710670948261e-12
2.76048513216202e-12
-1.92495898904477e-12
3.26120973957649e-12
-2.87157672454791e-12
3.81549242583522e-12
-4.23993071682115e-12
4.34664160186925e-12
-6.02573497038492e-12
4.66425271220894e-12
-7.79242730187022e-12
4.39987034140095e-12
-7.4195352722343e-12
3.08512188906768e-12
-4.28118321223369e-13
7.47305735809091e-13
1.88410789319576e-11
2.46152394329887e-11
3.89618429718681e-13
2.36693733824786e-11
-6.11306765911441e-13
1.98014635900924e-11
-2.1572085810797e-12
1.54491829921044e-12
-3.04494007732645e-12
-6.23259329233274e-12
-3.30438765955802e-12
-7.45146702184999e-12
-3.16646928527017e-12
-6.19022004117581e-12
-2.85222734364408e-12
-4.61402266235139e-12
-2.48551778129274e-12
-3.30319739523076e-12
-2.127856435327e-12
-2.34397074689128e-12
-1.80371267688155e-12
-1.66635559425374e-12
-1.52008213172661e-12
-1.18813095036344e-12
-1.27574571004561e-12
-8.45623280852183e-13
-1.06638167486526e-12
-5.94854588951942e-13
-8.86910769223528e-13
-4.0682573839474e-13
-7.32505120942272e-13
-2.6256755048156e-13
-5.98933956127511e-13
-1.49713377795335e-13
-4.82609595103902e-13
-6.00623317644058e-14
-3.80524614854595e-13
1.18981984299584e-14
-2.90150797748143e-13
6.99627712679564e-14
-2.09329608071091e-13
1.16759102079146e-13
-1.36198612518812e-13
1.54176311783063e-13
-6.91104267943724e-14
1.8353380923817e-13
-6.58490596157792e-15
2.0579432588474e-13
5.27578573318248e-14
2.21592242026289e-13
1.10211789981464e-13
2.31336666423131e-13
1.67040812689783e-13
2.35222057982555e-13
2.2450588044149e-13
2.33268089338099e-13
2.83893721906822e-13
2.25312873400354e-13
3.46569250207747e-13
2.10971077914588e-13
4.14005852932011e-13
1.89639261128595e-13
4.87833409178256e-13
1.60377360662877e-13
5.69896067618926e-13
1.21901648587072e-13
6.62335998783569e-13
7.23794908363509e-14
7.67662558423431e-13
9.15630955185784e-15
8.88845942981294e-13
-7.16021051644991e-14
1.02943599118426e-12
-1.75420670726753e-13
1.19360350912841e-12
-3.10494490147692e-13
1.38610173283966e-12
-4.89178797168788e-13
1.61187760063936e-12
-7.30444042533554e-13
1.87509009648248e-12
-1.06347939771603e-12
2.17671943011288e-12
-1.53241603273241e-12
2.5094035503628e-12
-2.20126464126242e-12
2.8482177468038e-12
-3.15393777024254e-12
3.13126333284177e-12
-4.4663199119329e-12
3.23671989893819e-12
-6.07388339952287e-12
2.95223032847377e-12
-7.44886679937045e-12
2.06382452578825e-12
-6.4685163875451e-12
5.5446353462892e-13
1.14750248502444e-12
-4.05762988951735e-13
1.98644496718779e-11
2.42474734783478e-11
8.19043882938357e-13
2.29056745828193e-11
5.17706151019207e-13
2.01706296720123e-11
-9.36858270987073e-13
3.06370187465083e-12
-2.01940860956471e-12
-5.08967328400382e-12
-2.55601479879154e-12
-6.85758232054182e-12
-2.6596346978292e-12
-6.03146544342784e-12
-2.52712413576408e-12
-4.69277919457143e-12
-2.28687240080358e-12
-3.49058618701232e-12
-2.01449988544806e-12
-2.56410325528183e-12
-1.74735695051339e-12
-1.88175641908351e-12
-1.50199247482077e-12
-1.38220405874203e-12
-1.28369407320103e-12
-1.0130713160183e-12
-1.09236919576683e-12
-7.35772719083931e-13
-9.25655115865005e-13
-5.23579913464695e-13
-7.8043447523249e-13
-3.58274452717149e-13
-6.53575521115728e-13
-2.27499198607867e-13
-5.42193928396254e-13
-1.22800929993692e-13
-4.43741901143109e-13
-3.83274072750967e-14
-3.55990588615113e-13
3.00378340612439e-14
-2.76995923509577e-13
8.52083070623384e-14
-2.05043349840636e-13
1.29304341718072e-13
-1.38597359483325e-13
1.63824813222314e-13
-7.62588888006997e-14
1.89870724103689e-13
-1.67233541510078e-14
2.08170309375018e-13
4.12431454343843e-14
2.19204373113108e-13
9.88440800486687e-14
2.23197649948149e-13
1.57280535756916e-13
2.20173188169311e-13
2.1778114618115e-13
2.09940490528685e-13
2.81632699941629e-13
1.92057292357701e-13
3.50224963795905e-13
1.65817046896197e-13
4.25069795260993e-13
1.30159781903614e-13
5.07861035208396e-13
8.3619135588722e-14
6.00524389480816e-13
2.41336023116066e-14
7.05257597545293e-13
-5.12234874019111e-14
8.24562699789925e-13
-1.46588087317304e-13
9.61268102087822e-13
-2.67812963130324e-13
1.11843434509489e-12
-4.23326610297737e-13
1.29907229009e-12
-6.25441854672762e-13
1.50539042944782e-12
-8.92332381110967e-13
1.73724727201835e-12
-1.25085056975547e-12
1.98901535137414e-12
-1.73965193419227e-12
2.24356686057259e-12
-2.4112533599473e-12
2.46272487143809e-12
-3.32849725125982e-12
2.56986032088724e-12
-4.52871656536636e-12
2.43760409274681e-12
-5.89634558538755e-12
1.87571108743085e-12
-6.84010534036378e-12
7.85902435420015e-13
-5.32853486018172e-12
-6.45583836070362e-13
2.63256047903404e-12
-8.90472263731721e-13
2.01604810597543e-11
2.33869129896184e-11
9.05140055901463e-13
2.20470609092244e-11
8.27190023971732e-13
2.03040923695165e-11
-4.13137680926176e-13
4.35573926699558e-12
-1.44658062848572e-12
-4.00803082729999e-12
-2.05006351041166e-12
-6.20868050736494e-12
-2.26211160303648e-12
-5.7759483774324e-12
-2.23604012131191e-12
-4.67664570494438e-12
-2.0833421987372e-12
-3.60189189258713e-12
-1.87746631052197e-12
-2.72914929476791e-12
-1.65897811670719e-12
-2.05986001733948e-12
-1.44865614381969e-12
-1.55254527929907e-12
-1.2555550700582e-12
-1.16658860358506e-12
-1.08247329310747e-12
-8.69674342075022e-13
-9.29132748808994e-13
-6.38151192394232e-13
-7.93862116139457e-13
-4.55189388374441e-13
-6.74515757111804e-13
-3.08900202792525e-13
-5.68881462160256e-13
-1.90892799366224e-13
-4.74870170116816e-13
-9.51875922747074e-14
-3.90570247669482e-13
-1.74883573610637e-14
-3.14259898353756e-13
4.53108918717033e-14
-2.44385276465819e-13
9.54994902073398e-14
-1.79536707592759e-13
1.34721253361372e-13
-1.18407379405179e-13
1.64181702850616e-13
-5.97773401855793e-14
1.84695095530516e-13
-2.4787819389812e-15
1.96796374787569e-13
5.46227898172332e-14
2.00742423997672e-13
1.12659876342415e-13
1.96559744227626e-13
1.72793104749435e-13
1.84028317155644e-13
2.36228151983548e-13
1.62663029498109e-13
3.04257150863813e-13
1.31669244491717e-13
3.78266983992664e-13
8.98946844538808e-14
4.59787847351786e-13
3.57296912967749e-14
5.50514695647248e-13
-3.30502477877316e-14
6.52323952258977e-13
-1.19552214677999e-13
7.67255487592441e-13
-2.28075073234541e-13
8.97458094682635e-13
-3.64581591156904e-13
1.04499855130659e-12
-5.37420239428387e-13
1.21142223603379e-12
-7.58388362449173e-13
1.39684844095944e-12
-1.04424146646253e-12
1.59821402463923e-12
-1.41866138892492e-12
1.80608125366565e-12
-1.91394131994035e-12
1.99902087937903e-12
-2.57061552281448e-12
2.13551988633721e-12
-3.43142869759103e-12
2.14096153662695e-12
-4.50052415750848e-12
1.90449891293529e-12
-5.62583581731764e-12
1.27823297564245e-12
-6.17843643588792e-12
2.36836397442346e-13
-4.24880027229498e-12
-9.86156789714264e-13
3.89704137647533e-12
-1.00019562153537e-12
2.02140316963269e-11
2.24094353325428e-11
8.2473397192923e-13
2.12588216798995e-11
7.48811938476552e-13
2.04218687420748e-11
-2.50035736198858e-13
5.39252223401874e-12
-1.13554768230256e-12
-3.08748165006407e-12
-1.70243439934968e-12
-5.60903908285249e-12
-1.94798144253117e-12
-5.49929055807729e-12
-1.9803637366193e-12
-4.61423503438437e-12
-1.88729918940667e-12
-3.66562681458183e-12
-1.73253262524122e-12
-2.85507068853655e-12
-1.55459034918227e-12
-2.20934298200364e-12
-1.37519830935985e-12
-1.70383277035048e-12
-1.20529286781581e-12
-1.30874469717807e-12
-1.04954960212678e-12
-9.98033662379543e-13
-9.09230477899831e-13
-7.5146239413206e-13
-7.83847731009343e-13
-5.53945584992356e-13
-6.72107160508361e-13
-3.94395730158733e-13
-5.72409715622408e-13
-2.64721273530908e-13
-4.83095016650875e-13
-1.59000076569964e-13
-4.02558559518643e-13
-7.28764273557538e-14
-3.29303493030029e-13
-3.13538106102183e-15
-2.61940086603436e-13
5.26214421724758e-14
-1.99182623072719e-13
9.61433872288499e-14
-1.39821336110039e-13
1.28712140831645e-13
-8.27233883665568e-14
1.51219686110446e-13
-2.6791336322144e-14
1.6423737249881e-13
2.90425031429252e-14
1.68050840435946e-13
8.58406267816561e-14
1.62693317238454e-13
1.4469166583513e-13
1.47917592205846e-13
2.06718234778039e-13
1.2320554707041e-13
2.73111062367297e-13
8.76941370161385e-14
3.45133661329948e-13
4.01600365913063e-14
4.24147800952868e-13
-2.11049606202398e-14
5.11626974425256e-13
-9.84351813540692e-14
6.09134557279208e-13
-1.95027576889461e-13
7.18277587159636e-13
-3.15223654373562e-13
8.40588921349825e-13
-4.64913104752476e-13
9.77281046298986e-13
-6.52127518371968e-13
1.12872200752002e-12
-8.87825045515957e-13
1.29348565282331e-12
-1.18697568784136e-12
1.46663813259117e-12
-1.56976574477011e-12
1.63686146365181e-12
-2.0621181680815e-12
1.78181424727879e-12
-2.6935574663175e-12
1.86210100205235e-12
-3.48976701100337e-12
1.81297888916049e-12
-4.42947293586469e-12
1.54739496238845e-12
-5.3380647540364e-12
9.6191600939029e-13
-5.56969997544197e-12
7.12075097249567e-14
-3.33237055758525e-12
-9.10340082219854e-13
4.90690660190124e-12
-9.21577090798466e-13
2.02521545016489e-11
2.15023648324771e-11
6.75576530476933e-13
2.06101081134546e-11
5.47989578107189e-13
2.05786483260334e-11
-2.31395449949718e-13
6.19764539255314e-12
-9.53609228353049e-13
-2.34180186789689e-12
-1.44759590141516e-12
-5.09337996686982e-12
-1.69096032648898e-12
-5.2355828499116e-12
-1.75404418145213e-12
-4.53170170674568e-12
-1.70197164020889e-12
-3.69883439090135e-12
-1.58674347243805e-12
-2.9518435827483e-12
-1.44255958815039e-12
-2.3354040211321e-12
-1.29028436222902e-12
-1.83829706770453e-12
-1.14152756732773e-12
-1.44000836680035e-12
-1.00208473252543e-12
-1.120315422076e-12
-8.74318216091549e-13
-8.62412951877819e-13
-7.58666288973589e-13
-6.53134295933663e-13
-6.54552899365011e-13
-4.82400865755389e-13
-5.60915133356757e-13
-3.42602120541203e-13
-4.76488592179926e-13
-2.28013748254821e-13
-3.99961411923015e-13
-1.34323497182091e-13
-3.30050157602267e-13
-5.82863368539276e-14
-2.65521062451653e-13
2.54807668446438e-15
-2.05217640785677e-13
5.00066901392541e-14
-1.4803130544854e-13
8.54210698500257e-14
-9.29105672528305e-14
1.09739792116583e-13
-3.88347717149119e-14
1.23566336318366e-13
1.51930786110743e-14
1.27209464117676e-13
7.01686744943558e-14
1.20704831970623e-13
1.27104617497433e-13
1.03786926222572e-13
1.87044046916638e-13
7.590904006886e-14
2.51071713992321e-13
3.61656991150983e-14
3.20327775937129e-13
-1.67204212528393e-14
3.96012204094295e-13
-8.45177993128408e-14
4.79382585123575e-13
-1.69616256029857e-13
5.7171122614173e-13
-2.75227978504532e-13
6.74211841587328e-13
-4.05635019855775e-13
7.87879905778533e-13
-5.66511079509596e-13
9.13211503896053e-13
-7.65390465348046e-13
1.04965486422855e-12
-1.01218995578669e-12
1.1946928958621e-12
-1.31992259925733e-12
1.34229502432491e-12
-1.70527494669249e-12
1.48051197218526e-12
-2.18826597952311e-12
1.58795850248457e-12
-2.78900058166168e-12
1.62975176083534e-12
-3.51966396262227e-12
1.55321331139436e-12
-4.34113307964202e-12
1.29404419388149e-12
-5.06697806916861e-12
7.86193468811557e-13
-5.04914835698622e-12
6.26578751294275e-14
-2.59418803181314e-12
-6.96993543728565e-13
5.68335210502268e-12
-7.63377659721104e-13
2.03342006775657e-11
2.07467661763662e-11
5.12729029174751e-13
2.01143809103453e-11
3.47986835312687e-13
2.07598545976284e-11
-2.52156320624835e-13
6.81125887787604e-12
-8.30257960686794e-13
-1.75172624481042e-12
-1.24718067924845e-12
-4.6656955313625e-12
-1.47358056548707e-12
-4.99938631300493e-12
-1.55162925716118e-12
-4.44453473999437e-12
-1.52801035662702e-12
-3.71379204093329e-12
-1.44359190767038e-12
-3.02793103609819e-12
-1.32759129954968e-12
-2.4433522917715e-12
-1.19909839337913e-12
-1.95900851287143e-12
-1.06962566211839e-12
-1.56198248962453e-12
-9.45523391070644e-13
-1.23721935015037e-12
-8.29892639122409e-13
-9.71161007610796e-13
-7.23867565383268e-13
-7.52601707428109e-13
-6.27455995472455e-13
-5.72583441264656e-13
-5.40055720671405e-13
-4.24100352814713e-13
-4.60753554859558e-13
-3.01734795594042e-13
-3.88503755051673e-13
-2.01303322051685e-13
-3.22226265274895e-13
-1.1959344269316e-13
-2.6084724180312e-13
-5.41466434571857e-14
-2.03330523089996e-13
-3.09704942359342e-15
-1.486717416668e-13
3.49201872779643e-14
-9.59018723736849e-14
6.08884629630318e-14
-4.40775198612825e-14
7.54386515822656e-14
7.72575892076501e-15
7.88973825261065e-14
6.04350242476877e-14
7.12981244381166e-14
1.14981442998212e-13
5.23723814421402e-14
1.72325976011748e-13
2.1542579710984e-14
2.33453211770396e-13
-2.21194005655871e-14
2.99379030148631e-13
-7.99219842793467e-14
3.71146634324116e-13
-1.53660103982836e-13
4.49809346754871e-13
-2.4573319157692e-13
5.36374873933855e-13
-3.59308020682629e-13
6.31704265687329e-13
-4.98518782958205e-13
7.36337468121721e-13
-6.68721058167547e-13
8.50190942196255e-13
-8.76827900058543e-13
9.72029005175865e-13
-1.13161088953402e-12
1.09861356086155e-12
-1.44408925805604e-12
1.22338731243568e-12
-1.82764376287247e-12
1.33456070230581e-12
-2.29707786915328e-12
1.4126448652274e-12
-2.86481623324896e-12
1.42795103617036e-12
-3.53285015122809e-12
1.33927542385968e-12
-4.25050422542566e-12
1.10090174376238e-12
-4.82667817178179e-12
6.74565744296956e-13
-4.62040140664365e-12
9.87520138905647e-14
-2.01456753518925e-12
-4.79107504864411e-13
6.26648086290152e-12
-5.87977940927896e-13
2.0447605840259e-11
2.01595198672404e-11
3.65423905342936e-13
1.97573599913104e-11
1.89429294162057e-13
2.09416076094486e-11
-2.72620357433288e-13
7.27687943826168e-12
-7.33838305913165e-13
-1.28776163552238e-12
-1.08132094988662e-12
-4.3161851216082e-12
-1.28560407641498e-12
-4.79372016511436e-12
-1.3694247268306e-12
-4.35981848650166e-12
-1.36547705339911e-12
-3.71718927294646e-12
-1.30509269504338e-12
-3.08802812940507e-12
-1.21261352078828e-12
-2.53577770319214e-12
-1.1049585339609e-12
-2.06684604428683e-12
-9.93045629652659e-13
-1.67433148372778e-12
-8.83373961807174e-13
-1.34760012824483e-12
-7.79479858146635e-13
-1.07605348471434e-12
-6.82992739651432e-13
-8.50387320464958e-13
-5.94374928628119e-13
-6.62804595402492e-13
-5.13403744548559e-13
-5.06979158245001e-13
-4.39472188938818e-13
-3.77873397538908e-13
-3.71777322248111e-13
-2.71496713581606e-13
-3.09426652295372e-13
-1.84723433640822e-13
-2.5149972355291e-13
-1.1512096121563e-13
-1.97076758477048e-13
-6.08218286033486e-14
-1.45258940426495e-13
-2.04396213467064e-14
-9.51610080126281e-14
7.02348403826337e-15
-4.59202616180453e-14
2.22220069498336e-14
3.31456489423487e-15
2.54930137930588e-14
5.33965476554403e-14
1.68689886996626e-14
1.05181270367281e-13
-3.92130287084845e-15
1.59541109808197e-13
-3.747101725163e-14
2.17359281773529e-13
-8.47206035610828e-14
2.79531574451393e-13
-1.46989026350583e-13
3.46951413683628e-13
-2.26069549204059e-13
4.20484882396873e-13
-3.2433270533023e-13
5.00899620824156e-13
-4.4484751548924e-13
5.88750433137273e-13
-5.91534966166404e-13
6.84202347249928e-13
-7.69363173237935e-13
7.86722853773479e-13
-9.84550569418994e-13
8.9459809999413e-13
-1.24469387292174e-12
1.00417516453619e-12
-1.55888221171702e-12
1.10878334186516e-12
-1.93749184441177e-12
1.19729071677771e-12
-2.39088262517355e-12
1.25250527890164e-12
-2.9254397324898e-12
1.24979697337812e-12
-3.53572803764659e-12
1.15779578867018e-12
-4.16430833617637e-12
9.44844839066362e-13
-4.6196748330886e-12
5.91718939078736e-13
-4.2730105033014e-12
1.35537643729966e-13
-1.56326506881979e-12
-3.02672366659085e-13
6.7007670425065e-12
-4.28457946113486e-13
2.05689018600311e-11
1.97265624995313e-11
2.46016454510899e-13
1.95117571001476e-11
7.66100742929718e-14
2.11069702762805e-11
-2.8214614663719e-13
7.6300838223933e-12
-6.51310054379084e-13
-9.24264464391006e-13
-9.39645660818194e-13
-4.03372650904909e-12
-1.12076597936144e-12
-4.61880090417672e-12
-1.20477564038017e-12
-4.28230725856217e-12
-1.21413241265956e-12
-3.7145671150225e-12
-1.172399372036e-12
-3.13669365536223e-12
-1.09947668694312e-12
-2.61582429839328e-12
-1.01001567108072e-12
-2.16363623773948e-12
-9.14037680157743e-13
-1.77786448750628e-12
-8.17894533787909e-13
-1.45154543482518e-12
-7.25309372515125e-13
-1.17670540979278e-12
-6.38232460135303e-13
-9.45806440037263e-13
-5.57464449932273e-13
-7.52196055681714e-13
-4.8308386414362e-13
-5.9026432250017e-13
-4.14745095002315e-13
-4.55394519493113e-13
-3.51857146468757e-13
-3.43837394731863e-13
-2.93700468943211e-13
-2.52594292495119e-13
-2.39498229919659e-13
-1.79287044443227e-13
-1.88444599999175e-13
-1.22076616582581e-13
-1.39743355951373e-13
-7.9565871083477e-14
-9.25967117486115e-14
-5.07582391862827e-14
-4.62206497855553e-14
-3.49849864241284e-14
1.61341521249008e-16
-3.19011196349988e-14
4.73232428849334e-14
-4.14708163964237e-14
9.60441837119845e-14
-6.39723094371302e-14
1.47107773970823e-13
-1.00000915543704e-13
2.01299562641153e-13
-1.50500496974904e-13
2.59397826534323e-13
-2.16780959458785e-13
3.2215498258169e-13
-3.0061055008855e-13
3.90265519798947e-13
-4.04300146556496e-13
4.64284369706926e-13
-5.30780603814446e-13
5.44512051551443e-13
-6.83717434037326e-13
6.30814496338416e-13
-8.67647070123307e-13
7.22330817281315e-13
-1.08806384310023e-12
8.17040932154205e-13
-1.35141151148242e-12
9.111249624941e-13
-1.66498836900252e-12
9.98098060033778e-13
-2.03651895024923e-12
1.06778171559505e-12
-2.47268794431401e-12
1.10536700241508e-12
-2.97527106382719e-12
1.090815150553e-12
-3.53362040465865e-12
1.00073952214349e-12
-4.08693894847642e-12
8.1370198058953e-13
-4.44559236929366e-12
5.22726860247325e-13
-3.99503938743876e-12
1.60463377616137e-13
-1.21367318838228e-12
-1.74086045428801e-13
7.02291878831215e-12
-2.98509357343673e-13
2.0680620197486e-11
1.9418460924762e-11
1.56285721120716e-13
1.9349644056315e-11
1.84459577088332e-15
2.12500357233697e-11
-2.80198908365631e-13
7.90005700992085e-12
-5.7712837912782e-13
-6.38983618850356e-13
-8.16010133382784e-13
-3.8063236815261e-12
-9.74663618721147e-13
-4.47170082344713e-12
-1.0554198756525e-12
-4.21325241279797e-12
-1.0733921445374e-12
-3.70844701607356e-12
-1.0460037638097e-12
-3.17608271716564e-12
-9.89269714506762e-13
-2.68471791837589e-12
-9.15628708569654e-13
-2.24961640474837e-12
-8.34049516624681e-13
-1.87198613386557e-12
-7.50522804539948e-13
-1.5478395334792e-12
-6.68775033442232e-13
-1.27146262599076e-12
-5.90925839940241e-13
-1.03691817492762e-12
-5.18006114591804e-13
-8.38637427277897e-13
-4.50327001263311e-13
-6.71725136139719e-13
-3.87756035002719e-13
-5.32004378195207e-13
-3.29885181868465e-13
-4.15997734718668e-13
-2.76150485614922e-13
-3.2086116183819e-13
-2.25906504996246e-13
-2.44295758734842e-13
-1.78462647012334e-13
-1.84506505819927e-13
-1.33116054165675e-13
-1.40107166748631e-13
-8.91582779603438e-14
-1.10107099864838e-13
-4.58861671652541e-14
-9.38304732263423e-14
-2.59965157771985e-15
-9.09307499458353e-14
4.13994191915161e-14
-1.01368905482509e-13
8.68091807664018e-14
-1.25423246993016e-13
1.34328012226152e-13
-1.63689115745384e-13
1.84643163713654e-13
-2.17099513086404e-13
2.3842179831346e-13
-2.86943402294452e-13
2.96285167961656e-13
-3.74943259852164e-13
3.58773344842005e-13
-4.83327731519712e-13
4.26260663109964e-13
-6.14862131977749e-13
4.98840290257378e-13
-7.72931643743635e-13
5.76148250346326e-13
-9.61617090831739e-13
6.57101860362265e-13
-1.18569686154729e-12
7.39526803277668e-13
-1.45053019978484e-12
8.19620145813362e-13
-1.76179346953877e-12
8.9129471073662e-13
-2.12494170056468e-12