/*--------------------------------*- C++ -*----------------------------------*\
  =========                 |
  \\      /  F ield         | OpenFOAM: The Open Source CFD Toolbox
   \\    /   O peration     | Website:  https://openfoam.org
    \\  /    A nd           | Version:  10
     \\/     M anipulation  |
\*---------------------------------------------------------------------------*/
FoamFile
{
    format      ascii;
    class       volScalarField;
    location    "5.4";
    object      rho;
}
// * * * * * * * * * * * * * * * * * * * * * * * * * * * * * * * * * * * * * //

dimensions      [1 -3 0 0 0 0 0];

internalField   nonuniform List<scalar> 
2500
(
1.14408800748061
1.1441257768235
1.14418383364679
1.14422114082131
1.14424153437672
1.14425206688507
1.14425731314355
1.14425982806842
1.14426098020058
1.14426147942925
1.14426169003283
1.14426177450741
1.14426180731477
1.14426182205228
1.1442618296962
1.1442618353237
1.14426183810631
1.1442618411073
1.14426184436515
1.14426184665806
1.14426184863235
1.1442618503648
1.14426185180309
1.14426185268545
1.14426185359516
1.14426185439783
1.14426185470413
1.14426185486263
1.14426185481333
1.14426185447544
1.14426185385962
1.14426185269424
1.14426185122413
1.14426184931226
1.14426184691766
1.14426184329084
1.14426183649973
1.14426182209676
1.14426178447313
1.14426169327245
1.14426147124664
1.14426094878422
1.14425977147527
1.14425723768217
1.14425199768457
1.1442415421639
1.14422124358733
1.14418379745926
1.14412515069504
1.1440884928636
1.14827322447795
1.1484366344982
1.14860302672954
1.14870968728292
1.1487703258695
1.14880313305608
1.14882027151951
1.14882886676739
1.14883297261294
1.14883483142029
1.14883563087047
1.14883595693218
1.14883608343627
1.14883613145952
1.14883614980971
1.14883615761652
1.1488361608608
1.1488361630983
1.14883616515318
1.14883616669721
1.1488361680779
1.14883616938496
1.14883617050997
1.14883617123952
1.14883617188183
1.14883617246513
1.14883617274693
1.14883617294171
1.14883617308987
1.14883617298093
1.14883617269209
1.14883617212275
1.14883617084261
1.14883616877812
1.14883616544935
1.14883615771913
1.14883613733951
1.14883608339736
1.14883594221947
1.14883558984726
1.14883474654802
1.14883282267309
1.14882864686979
1.14882001618294
1.14880294720912
1.14877037368651
1.14870994672986
1.14860271009258
1.14843421330029
1.14827427192395
1.15237533040149
1.15263249215961
1.15285770741035
1.15299835051248
1.15307773732143
1.1531205673386
1.15314293288318
1.15315416826433
1.15315955296911
1.15316200251461
1.15316305971099
1.15316349232882
1.15316366035392
1.15316372299428
1.15316374571487
1.15316375404712
1.15316375704686
1.15316375853327
1.15316375965111
1.15316376050137
1.15316376131753
1.15316376217842
1.15316376296701
1.15316376348426
1.15316376388141
1.15316376425335
1.15316376445208
1.15316376462108
1.15316376482801
1.1531637648718
1.15316376488624
1.15316376477093
1.15316376371254
1.15316376174187
1.15316375830397
1.15316374916579
1.15316372338437
1.1531636531155
1.15316346850096
1.15316300579767
1.15316189891093
1.15315937817164
1.15315391779512
1.15314264797398
1.15312036610424
1.1530777739182
1.15299847554122
1.15285665314617
1.15262765519872
1.15237162589263
1.15581524570146
1.15609487254839
1.15631023853584
1.15643963456917
1.15651025206095
1.15654717149188
1.15656593433168
1.15657515791122
1.156579505466
1.15658145849042
1.15658229301951
1.15658263178026
1.1565827623468
1.15658281043967
1.15658282747406
1.15658283332804
1.15658283521546
1.15658283595521
1.15658283642145
1.15658283678014
1.15658283717512
1.15658283766877
1.15658283816875
1.15658283849902
1.15658283871429
1.15658283891904
1.15658283903435
1.156582839151
1.15658283932925
1.15658283941592
1.15658283951608
1.1565828396963
1.15658283906833
1.15658283768578
1.15658283541682
1.15658282895743
1.15658281000219
1.15658275719858
1.15658261653036
1.15658225922175
1.15658139331554
1.15657939376871
1.15657499340229
1.15656573860966
1.15654701304747
1.1565101958827
1.156439407338
1.15630839437908
1.15608829049223
1.15580552279376
1.15834702281315
1.1585896277143
1.15875870145845
1.15885641635834
1.15890792852844
1.1589340080482
1.1589469067335
1.15895311774914
1.15895600268439
1.15895728592866
1.15895783070755
1.15895805090541
1.1589581354616
1.15895816641761
1.15895817721185
1.15895818072494
1.15895818170931
1.15895818198334
1.15895818210596
1.15895818219807
1.15895818233387
1.15895818256899
1.15895818285356
1.15895818304329
1.15895818313882
1.15895818322845
1.15895818328298
1.15895818335083
1.15895818347027
1.15895818355306
1.15895818367653
1.15895818393936
1.15895818362652
1.15895818283708
1.15895818159277
1.15895817772069
1.15895816601626
1.15895813291854
1.15895804380055
1.15895781526766
1.15895725612245
1.1589559508024
1.15895303967541
1.15894681141906
1.15893392488216
1.15890785864013
1.15885605229924
1.15875669351632
1.15858283117946
1.1583339994135
1.16001254812385
1.16019113670833
1.16030571119652
1.1603695277672
1.16040207624757
1.16041805785588
1.16042576107049
1.16042940034874
1.16043106958357
1.16043180656869
1.16043211826982
1.16043224407035
1.16043229233015
1.16043230994591
1.16043231601013
1.16043231788876
1.16043231831446
1.16043231834945
1.16043231834978
1.16043231834662
1.16043231835244
1.1604323184325
1.16043231857773
1.16043231867473
1.16043231870293
1.16043231872895
1.16043231874952
1.1604323187836
1.16043231885084
1.16043231891333
1.16043231902022
1.16043231924627
1.16043231912334
1.16043231875283
1.16043231817291
1.16043231609683
1.16043230967424
1.16043229134233
1.16043224157844
1.16043211313931
1.16043179684428
1.16043105254022
1.16042937474425
1.16042573125969
1.16041803539008
1.16040204153511
1.16036922307373
1.16030406337388
1.16018542998279
1.15999978971199
1.16100596709506
1.1611214426758
1.16119045794961
1.16122759200744
1.16124595774815
1.16125472154689
1.16125884486143
1.16126075896024
1.16126162737841
1.16126200867778
1.16126216966962
1.16126223467808
1.16126225963788
1.16126226873594
1.16126227183055
1.16126227272709
1.16126227287327
1.16126227284209
1.1612622727996
1.16126227278002
1.16126227276183
1.1612622727692
1.16126227283463
1.16126227287691
1.16126227287385
1.16126227287776
1.1612622728848
1.16126227289617
1.16126227292979
1.16126227297065
1.16126227304604
1.16126227319976
1.16126227316969
1.16126227303455
1.16126227280456
1.1612622717766
1.16126226855545
1.16126225932095
1.16126223409457
1.16126216872887
1.16126200713862
1.16126162483303
1.1612607558675
1.16125884447627
1.16125473011562
1.16124595937453
1.16122741189374
1.16118935202074
1.16111736947443
1.16099577021884
1.16154953940707
1.16161663128647
1.16165433009591
1.16167396979926
1.16168341110349
1.16168779876052
1.16168981692361
1.16169073860828
1.16169115276913
1.16169133387226
1.16169141032187
1.16169144125206
1.16169145315213
1.16169145748665
1.16169145894251
1.16169145932867
1.1616914593638
1.16169145933049
1.16169145929016
1.16169145926613
1.16169145925208
1.16169145924845
1.16169145926922
1.16169145928192
1.16169145927081
1.16169145926711
1.16169145926927
1.16169145927458
1.16169145929042
1.16169145931443
1.1616914593601
1.16169145944342
1.16169145945374
1.16169145942642
1.16169145934205
1.16169145886762
1.16169145736888
1.16169145306114
1.16169144123691
1.16169141054231
1.16169133454532
1.16169115419133
1.16169074172859
1.1616898244962
1.16168781573678
1.16168343064571
1.16167389169162
1.16165369616172
1.16161408396881
1.16154253245587
1.16182506398198
1.16186066341303
1.16187961430715
1.16188919354487
1.16189367936795
1.16189571376317
1.16189662985299
1.16189704185416
1.16189722538922
1.16189730540077
1.16189733920594
1.16189735292298
1.16189735821546
1.16189736014203
1.1618973607786
1.16189736093352
1.16189736093634
1.16189736091151
1.16189736088451
1.16189736086688
1.16189736085848
1.16189736085525
1.16189736085843
1.16189736085793
1.16189736084991
1.16189736084569
1.16189736084666
1.16189736084963
1.16189736085683
1.16189736086993
1.1618973608946
1.16189736093554
1.16189736094598
1.1618973609462
1.16189736092561
1.16189736072432
1.1618973600705
1.16189735818613
1.16189735299567
1.16189733952122
1.16189730617535
1.16189722695981
1.16189704503524
1.16189663673003
1.16189572835994
1.16189370096043
1.16188917233046
1.16187929593931
1.16185923699407
1.16182079365515
1.16195549620382
1.16197295976229
1.16198182664554
1.16198618372187
1.16198817519151
1.16198905819919
1.16198944796272
1.16198962072034
1.16198969706621
1.16198973027238
1.16198974432492
1.16198975004739
1.16198975226259
1.16198975306837
1.16198975332941
1.16198975338767
1.16198975338417
1.16198975336941
1.16198975335424
1.16198975334381
1.16198975333806
1.16198975333514
1.1619897533348
1.16198975333291
1.16198975332849
1.16198975332596
1.16198975332646
1.16198975332808
1.16198975333154
1.16198975333826
1.16198975335053
1.16198975336954
1.16198975337684
1.16198975337987
1.16198975337645
1.1619897532984
1.16198975302998
1.16198975224965
1.16198975009563
1.16198974451204
1.16198973072439
1.16198969799756
1.16198962265494
1.16198945226564
1.16198906774212
1.1619881916076
1.16198618528869
1.16198168448663
1.16197223293382
1.16195313986403
1.16201355924638
1.16202155598079
1.16202545218211
1.16202731664943
1.16202814986144
1.16202851166814
1.16202866840104
1.16202873691115
1.16202876696057
1.16202878000681
1.16202878553952
1.16202878780149
1.1620287886802
1.16202878899953
1.16202878910097
1.16202878912167
1.16202878911846
1.16202878911089
1.16202878910337
1.16202878909801
1.1620287890948
1.16202878909305
1.16202878909231
1.16202878909098
1.16202878908897
1.16202878908786
1.16202878908826
1.1620287890892
1.16202878909091
1.16202878909424
1.16202878910001
1.1620287891085
1.16202878911283
1.16202878911539
1.16202878911574
1.16202878908706
1.16202878898251
1.16202878867444
1.16202878782322
1.16202878562267
1.16202878020853
1.16202876738829
1.16202873784941
1.16202867063581
1.16202851698349
1.16202816009374
1.1620273234793
1.16202539539551
1.16202121478714
1.16201236442681
1.16203800295926
1.16204144763174
1.16204306711188
1.16204382308844
1.16204415391742
1.16204429482131
1.16204435479203
1.16204438065879
1.16204439192297
1.16204439680613
1.16204439888196
1.16204439973418
1.16204440006644
1.16204440018709
1.16204440022474
1.16204440023176
1.16204440022993
1.16204440022649
1.16204440022316
1.16204440022075
1.16204440021925
1.16204440021844
1.16204440021804
1.16204440021745
1.16204440021673
1.16204440021642
1.16204440021678
1.16204440021737
1.1620444002183
1.16204440021997
1.16204440022262
1.16204440022634
1.16204440022868
1.16204440023031
1.16204440023106
1.16204440022115
1.16204440018231
1.16204440006578
1.1620443997437
1.16204439891396
1.16204439688218
1.1620443920891
1.16204438105213
1.16204435581947
1.16204429746721
1.1620441594936
1.16204382884687
1.16204304689302
1.16204129864229
1.16203743993931
1.16204777798546
1.16204918277425
1.16204982329834
1.16205011544685
1.16205024081958
1.16205029326829
1.16205031522439
1.16205032457424
1.16205032861761
1.16205033036815
1.16205033111418
1.16205033142177
1.16205033154216
1.16205033158588
1.1620503315993
1.16205033160164
1.16205033160089
1.16205033159954
1.16205033159826
1.16205033159735
1.16205033159681
1.16205033159658
1.16205033159651
1.1620503315964
1.16205033159629
1.16205033159636
1.1620503315967
1.16205033159714
1.16205033159772
1.16205033159861
1.16205033159987
1.16205033160154
1.16205033160277
1.16205033160373
1.16205033160434
1.16205033160119
1.16205033158742
1.16205033154508
1.16205033142793
1.16205033112723
1.16205033039488
1.16205032867548
1.16205032472356
1.16205031565803
1.16205029447839
1.16205024356762
1.1620501189979
1.16204981701201
1.16204912178684
1.16204752925956
1.16205150099232
1.16205204627977
1.16205228851528
1.16205239664821
1.16205244221282
1.16205246096022
1.16205246868757
1.1620524719382
1.16205247333448
1.16205247393823
1.1620524741962
1.16205247430303
1.16205247434504
1.16205247436034
1.16205247436503
1.16205247436587
1.16205247436567
1.16205247436527
1.16205247436492
1.16205247436471
1.16205247436465
1.16205247436471
1.16205247436484
1.16205247436498
1.16205247436513
1.16205247436536
1.16205247436569
1.16205247436606
1.16205247436649
1.16205247436704
1.16205247436772
1.16205247436855
1.16205247436924
1.16205247436984
1.16205247437028
1.16205247436946
1.16205247436487
1.16205247435012
1.16205247430909
1.16205247420403
1.16205247394951
1.16205247335515
1.16205247199292
1.16205246886123
1.16205246147943
1.1620524434647
1.16205239851186
1.1620522869156
1.16205202273296
1.1620513972467
1.1620528496333
1.16205305201221
1.16205313996488
1.16205317845446
1.16205319439931
1.1620532008595
1.16205320348409
1.16205320457536
1.16205320504103
1.16205320524213
1.16205320532829
1.16205320536415
1.16205320537836
1.1620532053836
1.16205320538527
1.16205320538566
1.16205320538571
1.16205320538572
1.16205320538575
1.16205320538584
1.16205320538599
1.16205320538619
1.16205320538643
1.16205320538667
1.16205320538693
1.16205320538722
1.16205320538755
1.16205320538789
1.16205320538825
1.16205320538865
1.1620532053891
1.1620532053896
1.16205320539006
1.16205320539048
1.16205320539084
1.16205320539078
1.16205320538942
1.16205320538457
1.16205320537079
1.16205320533538
1.16205320524989
1.16205320505128
1.1620532045976
1.16205320355341
1.16205320107319
1.16205319493591
1.1620531793348
1.16205313971258
1.16205304339582
1.16205280853821
1.16205330829259
1.162053380391
1.16205341115599
1.16205342437653
1.1620534297673
1.16205343192045
1.16205343278354
1.16205343313843
1.1620534332889
1.1620534333538
1.16205343338169
1.16205343339339
1.16205343339809
1.1620534333999
1.16205343340056
1.16205343340083
1.16205343340099
1.16205343340115
1.16205343340133
1.16205343340155
1.16205343340179
1.16205343340205
1.16205343340233
1.16205343340262
1.16205343340291
1.16205343340322
1.16205343340355
1.16205343340387
1.16205343340421
1.16205343340455
1.16205343340491
1.16205343340529
1.16205343340565
1.16205343340599
1.16205343340631
1.16205343340649
1.16205343340624
1.16205343340482
1.16205343340046
1.16205343338901
1.16205343336129
1.16205343329705
1.16205343315073
1.16205343281369
1.1620534320078
1.16205342998808
1.16205342476304
1.1620534112003
1.16205337739291
1.16205329275988
1.16205344695167
1.16205347169031
1.16205348208769
1.16205348648241
1.16205348824825
1.16205348894424
1.16205348921974
1.16205348933181
1.16205348937902
1.16205348939936
1.16205348940815
1.1620534894119
1.16205348941347
1.16205348941415
1.16205348941448
1.16205348941471
1.16205348941492
1.16205348941514
1.16205348941538
1.16205348941563
1.1620534894159
1.16205348941619
1.16205348941649
1.16205348941679
1.1620534894171
1.16205348941742
1.16205348941774
1.16205348941806
1.16205348941838
1.1620534894187
1.16205348941903
1.16205348941935
1.16205348941967
1.16205348941999
1.16205348942029
1.16205348942054
1.16205348942065
1.16205348942039
1.16205348941918
1.16205348941573
1.16205348940713
1.16205348938709
1.16205348934138
1.16205348923592
1.16205348898211
1.16205348833835
1.16205348664479
1.16205348215592
1.16205347069788
1.16205344132882
1.16205347485472
1.16205348305439
1.16205348645789
1.16205348787511
1.16205348843684
1.16205348865548
1.16205348874098
1.16205348877539
1.16205348878979
1.16205348879599
1.16205348879871
1.16205348879991
1.16205348880048
1.1620534888008
1.16205348880104
1.16205348880125
1.16205348880148
1.16205348880172
1.16205348880198
1.16205348880225
1.16205348880253
1.16205348880283
1.16205348880313
1.16205348880344
1.16205348880375
1.16205348880406
1.16205348880438
1.1620534888047
1.16205348880501
1.16205348880533
1.16205348880564
1.16205348880595
1.16205348880625
1.16205348880655
1.16205348880684
1.16205348880711
1.16205348880734
1.16205348880745
1.16205348880727
1.1620534888064
1.16205348880395
1.16205348879802
1.16205348878428
1.16205348875235
1.16205348867481
1.16205348847573
1.16205348794329
1.16205348650327
1.1620534827441
1.16205347290096
1.16205346574501
1.16205346837712
1.16205346945847
1.16205346990269
1.16205347007652
1.16205347014334
1.16205347016914
1.1620534701794
1.16205347018366
1.1620534701855
1.16205347018635
1.16205347018677
1.16205347018703
1.16205347018724
1.16205347018744
1.16205347018766
1.16205347018789
1.16205347018814
1.1620534701884
1.16205347018868
1.16205347018897
1.16205347018926
1.16205347018957
1.16205347018987
1.16205347019019
1.1620534701905
1.16205347019081
1.16205347019112
1.16205347019143
1.16205347019174
1.16205347019205
1.16205347019235
1.16205347019264
1.16205347019293
1.16205347019322
1.16205347019349
1.16205347019375
1.16205347019398
1.16205347019412
1.16205347019406
1.16205347019353
1.16205347019198
1.16205347018812
1.16205347017886
1.16205347015597
1.16205347009624
1.16205346993363
1.16205346948502
1.16205346828861
1.16205346509423
1.16205344466068
1.16205344548075
1.16205344581473
1.16205344595024
1.16205344600261
1.16205344602246
1.16205344603
1.16205344603295
1.16205344603416
1.16205344603471
1.16205344603499
1.16205344603518
1.16205344603535
1.16205344603553
1.16205344603573
1.16205344603594
1.16205344603617
1.16205344603643
1.16205344603669
1.16205344603697
1.16205344603726
1.16205344603755
1.16205344603786
1.16205344603816
1.16205344603847
1.16205344603878
1.16205344603909
1.1620534460394
1.16205344603971
1.16205344604001
1.16205344604031
1.16205344604061
1.16205344604089
1.16205344604118
1.16205344604146
1.16205344604173
1.162053446042
1.16205344604226
1.16205344604249
1.16205344604267
1.16205344604272
1.16205344604248
1.16205344604159
1.16205344603914
1.16205344603271
1.1620534460154
1.16205344596717
1.1620534458313
1.16205344546134
1.16205344445531
1.16205341981689
1.16205342006531
1.16205342016564
1.16205342020586
1.1620534202212
1.16205342022689
1.162053420229
1.1620534202298
1.16205342023013
1.16205342023031
1.16205342023044
1.16205342023057
1.16205342023071
1.16205342023088
1.16205342023108
1.1620534202313
1.16205342023153
1.16205342023178
1.16205342023205
1.16205342023233
1.16205342023261
1.16205342023291
1.16205342023321
1.16205342023351
1.16205342023382
1.16205342023413
1.16205342023444
1.16205342023474
1.16205342023505
1.16205342023534
1.16205342023564
1.16205342023593
1.16205342023621
1.16205342023649
1.16205342023677
1.16205342023704
1.1620534202373
1.16205342023757
1.16205342023782
1.16205342023807
1.16205342023828
1.16205342023842
1.16205342023838
1.1620534202379
1.1620534202363
1.16205342023156
1.16205342021773
1.16205342017776
1.16205342006654
1.16205341975854
1.16205339382534
1.16205339389856
1.1620533939278
1.16205339393937
1.16205339394371
1.16205339394526
1.1620533939458
1.162053393946
1.16205339394609
1.16205339394617
1.16205339394626
1.16205339394638
1.16205339394653
1.1620533939467
1.1620533939469
1.16205339394711
1.16205339394735
1.1620533939476
1.16205339394787
1.16205339394815
1.16205339394843
1.16205339394873
1.16205339394903
1.16205339394933
1.16205339394963
1.16205339394994
1.16205339395024
1.16205339395055
1.16205339395084
1.16205339395114
1.16205339395143
1.16205339395172
1.162053393952
1.16205339395227
1.16205339395254
1.1620533939528
1.16205339395306
1.16205339395332
1.16205339395358
1.16205339395383
1.16205339395408
1.16205339395432
1.16205339395451
1.16205339395458
1.16205339395434
1.1620533939532
1.16205339394945
1.1620533939381
1.16205339390568
1.16205339381394
1.1620533674924
1.16205336751335
1.16205336752152
1.1620533675247
1.16205336752586
1.16205336752624
1.16205336752635
1.1620533675264
1.16205336752644
1.1620533675265
1.16205336752659
1.16205336752671
1.16205336752686
1.16205336752704
1.16205336752724
1.16205336752746
1.1620533675277
1.16205336752795
1.16205336752822
1.1620533675285
1.16205336752878
1.16205336752907
1.16205336752937
1.16205336752967
1.16205336752997
1.16205336753028
1.16205336753058
1.16205336753088
1.16205336753117
1.16205336753146
1.16205336753175
1.16205336753203
1.1620533675323
1.16205336753257
1.16205336753284
1.16205336753309
1.16205336753335
1.1620533675336
1.16205336753385
1.1620533675341
1.16205336753435
1.16205336753459
1.16205336753483
1.16205336753504
1.16205336753516
1.16205336753502
1.16205336753413
1.16205336753109
1.16205336752205
1.16205336749551
1.16205334106036
1.16205334106611
1.16205334106819
1.16205334106898
1.16205334106926
1.16205334106933
1.16205334106935
1.16205334106937
1.16205334106941
1.16205334106948
1.16205334106958
1.16205334106971
1.16205334106987
1.16205334107005
1.16205334107025
1.16205334107048
1.16205334107072
1.16205334107097
1.16205334107124
1.16205334107151
1.1620533410718
1.16205334107209
1.16205334107238
1.16205334107268
1.16205334107298
1.16205334107328
1.16205334107358
1.16205334107388
1.16205334107417
1.16205334107445
1.16205334107474
1.16205334107501
1.16205334107528
1.16205334107554
1.1620533410758
1.16205334107605
1.1620533410763
1.16205334107654
1.16205334107678
1.16205334107702
1.16205334107726
1.16205334107749
1.16205334107773
1.16205334107795
1.16205334107815
1.16205334107826
1.16205334107815
1.16205334107746
1.16205334107517
1.1620533410678
1.16205331460021
1.16205331460165
1.16205331460202
1.16205331460216
1.16205331460221
1.16205331460222
1.16205331460223
1.16205331460226
1.16205331460232
1.1620533146024
1.16205331460251
1.16205331460265
1.16205331460282
1.16205331460301
1.16205331460321
1.16205331460344
1.16205331460368
1.16205331460394
1.16205331460421
1.16205331460448
1.16205331460477
1.16205331460506
1.16205331460535
1.16205331460565
1.16205331460594
1.16205331460624
1.16205331460653
1.16205331460683
1.16205331460711
1.1620533146074
1.16205331460767
1.16205331460794
1.16205331460821
1.16205331460847
1.16205331460872
1.16205331460896
1.1620533146092
1.16205331460943
1.16205331460966
1.16205331460989
1.16205331461011
1.16205331461033
1.16205331461055
1.16205331461076
1.16205331461095
1.16205331461111
1.16205331461119
1.16205331461113
1.16205331461075
1.16205331460887
1.16205328813226
1.1620532881325
1.16205328813242
1.1620532881324
1.16205328813241
1.16205328813242
1.16205328813245
1.1620532881325
1.16205328813257
1.16205328813267
1.1620532881328
1.16205328813295
1.16205328813312
1.16205328813332
1.16205328813353
1.16205328813376
1.162053288134
1.16205328813426
1.16205328813453
1.16205328813481
1.16205328813509
1.16205328813538
1.16205328813567
1.16205328813596
1.16205328813626
1.16205328813655
1.16205328813684
1.16205328813713
1.16205328813741
1.16205328813769
1.16205328813797
1.16205328813823
1.16205328813849
1.16205328813874
1.16205328813898
1.16205328813922
1.16205328813945
1.16205328813967
1.16205328813989
1.1620532881401
1.16205328814031
1.16205328814051
1.16205328814071
1.1620532881409
1.16205328814107
1.16205328814122
1.16205328814133
1.16205328814143
1.16205328814156
1.16205328814122
1.16205326166219
1.16205326166212
1.16205326166192
1.16205326166187
1.16205326166189
1.16205326166193
1.16205326166198
1.16205326166205
1.16205326166214
1.16205326166226
1.1620532616624
1.16205326166256
1.16205326166274
1.16205326166294
1.16205326166316
1.1620532616634
1.16205326166364
1.1620532616639
1.16205326166417
1.16205326166445
1.16205326166473
1.16205326166502
1.16205326166531
1.1620532616656
1.16205326166589
1.16205326166618
1.16205326166647
1.16205326166675
1.16205326166703
1.16205326166731
1.16205326166757
1.16205326166783
1.16205326166809
1.16205326166833
1.16205326166857
1.1620532616688
1.16205326166902
1.16205326166923
1.16205326166943
1.16205326166963
1.16205326166983
1.16205326167001
1.16205326167019
1.16205326167035
1.1620532616705
1.16205326167063
1.16205326167072
1.16205326167085
1.1620532616711
1.16205326167117
1.16205323519156
1.16205323519141
1.1620532351912
1.16205323519116
1.1620532351912
1.16205323519126
1.16205323519134
1.16205323519143
1.16205323519154
1.16205323519167
1.16205323519183
1.162053235192
1.16205323519219
1.1620532351924
1.16205323519262
1.16205323519286
1.16205323519311
1.16205323519337
1.16205323519364
1.16205323519391
1.1620532351942
1.16205323519448
1.16205323519477
1.16205323519506
1.16205323519535
1.16205323519564
1.16205323519592
1.1620532351962
1.16205323519648
1.16205323519675
1.16205323519701
1.16205323519726
1.16205323519751
1.16205323519775
1.16205323519798
1.1620532351982
1.16205323519841
1.16205323519861
1.1620532351988
1.16205323519899
1.16205323519917
1.16205323519933
1.16205323519949
1.16205323519963
1.16205323519975
1.16205323519985
1.16205323519993
1.16205323520004
1.16205323520032
1.16205323520049
1.16205320872078
1.16205320872063
1.16205320872042
1.16205320872041
1.16205320872047
1.16205320872055
1.16205320872065
1.16205320872076
1.1620532087209
1.16205320872105
1.16205320872121
1.16205320872139
1.16205320872159
1.16205320872181
1.16205320872204
1.16205320872228
1.16205320872253
1.16205320872279
1.16205320872306
1.16205320872334
1.16205320872362
1.16205320872391
1.16205320872419
1.16205320872448
1.16205320872477
1.16205320872505
1.16205320872533
1.16205320872561
1.16205320872588
1.16205320872615
1.1620532087264
1.16205320872665
1.16205320872689
1.16205320872712
1.16205320872734
1.16205320872756
1.16205320872776
1.16205320872795
1.16205320872813
1.1620532087283
1.16205320872846
1.16205320872861
1.16205320872875
1.16205320872887
1.16205320872897
1.16205320872904
1.16205320872909
1.16205320872918
1.16205320872945
1.16205320872964
1.16205318224997
1.16205318224982
1.16205318224963
1.16205318224964
1.16205318224972
1.16205318224983
1.16205318224995
1.16205318225009
1.16205318225024
1.1620531822504
1.16205318225058
1.16205318225078
1.16205318225099
1.16205318225121
1.16205318225144
1.16205318225169
1.16205318225194
1.16205318225221
1.16205318225248
1.16205318225275
1.16205318225304
1.16205318225332
1.16205318225361
1.16205318225389
1.16205318225418
1.16205318225446
1.16205318225473
1.16205318225501
1.16205318225527
1.16205318225553
1.16205318225579
1.16205318225603
1.16205318225626
1.16205318225649
1.1620531822567
1.16205318225691
1.1620531822571
1.16205318225728
1.16205318225745
1.16205318225761
1.16205318225775
1.16205318225788
1.162053182258
1.16205318225809
1.16205318225817
1.16205318225822
1.16205318225825
1.16205318225831
1.16205318225856
1.16205318225876
1.16205315577915
1.16205315577901
1.16205315577884
1.16205315577887
1.16205315577898
1.16205315577912
1.16205315577926
1.16205315577941
1.16205315577958
1.16205315577976
1.16205315577995
1.16205315578016
1.16205315578038
1.1620531557806
1.16205315578084
1.16205315578109
1.16205315578135
1.16205315578162
1.16205315578189
1.16205315578217
1.16205315578245
1.16205315578273
1.16205315578302
1.1620531557833
1.16205315578358
1.16205315578386
1.16205315578413
1.1620531557844
1.16205315578467
1.16205315578492
1.16205315578517
1.16205315578541
1.16205315578563
1.16205315578585
1.16205315578606
1.16205315578625
1.16205315578644
1.16205315578661
1.16205315578676
1.16205315578691
1.16205315578704
1.16205315578715
1.16205315578724
1.16205315578732
1.16205315578737
1.1620531557874
1.1620531557874
1.16205315578744
1.16205315578768
1.16205315578786
1.16205312930832
1.1620531293082
1.16205312930805
1.16205312930811
1.16205312930824
1.1620531293084
1.16205312930856
1.16205312930874
1.16205312930893
1.16205312930912
1.16205312930933
1.16205312930954
1.16205312930977
1.16205312931
1.16205312931025
1.1620531293105
1.16205312931076
1.16205312931103
1.1620531293113
1.16205312931158
1.16205312931186
1.16205312931214
1.16205312931243
1.16205312931271
1.16205312931299
1.16205312931326
1.16205312931353
1.1620531293138
1.16205312931406
1.16205312931431
1.16205312931455
1.16205312931478
1.16205312931501
1.16205312931522
1.16205312931541
1.1620531293156
1.16205312931577
1.16205312931593
1.16205312931608
1.16205312931621
1.16205312931632
1.16205312931642
1.16205312931649
1.16205312931655
1.16205312931658
1.16205312931658
1.16205312931656
1.16205312931657
1.16205312931679
1.16205312931696
1.1620531028375
1.16205310283739
1.16205310283726
1.16205310283735
1.16205310283751
1.16205310283769
1.16205310283787
1.16205310283807
1.16205310283827
1.16205310283848
1.1620531028387
1.16205310283892
1.16205310283916
1.1620531028394
1.16205310283965
1.16205310283991
1.16205310284017
1.16205310284044
1.16205310284072
1.162053102841
1.16205310284128
1.16205310284156
1.16205310284184
1.16205310284212
1.1620531028424
1.16205310284267
1.16205310284294
1.1620531028432
1.16205310284345
1.1620531028437
1.16205310284394
1.16205310284416
1.16205310284438
1.16205310284458
1.16205310284477
1.16205310284495
1.16205310284512
1.16205310284526
1.1620531028454
1.16205310284551
1.16205310284561
1.16205310284569
1.16205310284575
1.16205310284578
1.16205310284579
1.16205310284576
1.16205310284572
1.16205310284571
1.1620531028459
1.16205310284605
1.16205307636666
1.16205307636658
1.16205307636647
1.16205307636659
1.16205307636677
1.16205307636698
1.16205307636719
1.1620530763674
1.16205307636762
1.16205307636784
1.16205307636807
1.16205307636831
1.16205307636855
1.1620530763688
1.16205307636906
1.16205307636932
1.16205307636959
1.16205307636986
1.16205307637013
1.16205307637041
1.16205307637069
1.16205307637097
1.16205307637125
1.16205307637153
1.1620530763718
1.16205307637207
1.16205307637234
1.1620530763726
1.16205307637285
1.16205307637309
1.16205307637332
1.16205307637354
1.16205307637375
1.16205307637395
1.16205307637413
1.1620530763743
1.16205307637446
1.1620530763746
1.16205307637472
1.16205307637482
1.16205307637491
1.16205307637497
1.16205307637501
1.16205307637502
1.162053076375
1.16205307637495
1.16205307637488
1.16205307637484
1.16205307637501
1.16205307637515
1.16205304989583
1.16205304989576
1.16205304989569
1.16205304989584
1.16205304989604
1.16205304989627
1.1620530498965
1.16205304989673
1.16205304989697
1.16205304989721
1.16205304989745
1.16205304989769
1.16205304989794
1.1620530498982
1.16205304989846
1.16205304989873
1.162053049899
1.16205304989927
1.16205304989955
1.16205304989983
1.16205304990011
1.16205304990039
1.16205304990067
1.16205304990094
1.16205304990122
1.16205304990148
1.16205304990174
1.162053049902
1.16205304990224
1.16205304990248
1.16205304990271
1.16205304990292
1.16205304990313
1.16205304990332
1.1620530499035
1.16205304990366
1.1620530499038