/*--------------------------------*- C++ -*----------------------------------*\
  =========                 |
  \\      /  F ield         | OpenFOAM: The Open Source CFD Toolbox
   \\    /   O peration     | Website:  https://openfoam.org
    \\  /    A nd           | Version:  10
     \\/     M anipulation  |
\*---------------------------------------------------------------------------*/
FoamFile
{
    format      ascii;
    class       volScalarField;
    location    "5.4";
    object      T;
}
// * * * * * * * * * * * * * * * * * * * * * * * * * * * * * * * * * * * * * //

dimensions      [0 0 0 1 0 0 0];

internalField   nonuniform List<scalar> 
2500
(
304.710985854489
304.700926882124
304.685466110978
304.675531885352
304.670101724502
304.667297325586
304.665900469563
304.665230856402
304.664924095652
304.664791173847
304.664735099802
304.664712608152
304.664703873114
304.664699949251
304.664697914085
304.664696415802
304.664695674985
304.664694876028
304.664694008682
304.66469339826
304.664692872675
304.664692411483
304.664692028615
304.664691793768
304.66469155164
304.664691338015
304.66469125655
304.664691214437
304.664691227652
304.664691317707
304.664691481759
304.664691792133
304.66469218364
304.664692692765
304.664693330415
304.664694296147
304.664696104375
304.664699939289
304.664709956789
304.664734239396
304.664793354754
304.664932462741
304.665245927034
304.665920564113
304.667315753357
304.670099653625
304.675504524103
304.68547574998
304.701093633861
304.710856582492
303.600370891008
303.557171868904
303.513197100176
303.485015146575
303.468995494589
303.460329115949
303.455801999508
303.453531620048
303.452447099389
303.451956115421
303.451744949783
303.451658824424
303.45162540991
303.451612725193
303.451607878267
303.451605816252
303.451604959378
303.45160436844
303.451603825739
303.451603417976
303.45160305336
303.451602708197
303.451602411121
303.451602218505
303.451602048933
303.451601894948
303.451601820603
303.451601769242
303.451601730196
303.451601759059
303.451601835441
303.45160198591
303.451602324127
303.45160286952
303.451603748854
303.451605790774
303.451611173878
303.451625422124
303.451662712664
303.451755787742
303.451978535731
303.452486706792
303.453589706569
303.455869448009
303.460378210589
303.468982865396
303.484946604213
303.513280772686
303.557811848904
303.600093951903
302.519639024788
302.452144415122
302.393059209999
302.356173210741
302.335356669104
302.324127116747
302.31826345224
302.3153179132
302.31390624511
302.313264070345
302.312986915798
302.312873500911
302.312829451591
302.312813029887
302.312807073529
302.312804889215
302.31280410287
302.312803713262
302.312803420282
302.312803197452
302.312802983566
302.312802757958
302.312802551302
302.312802415786
302.312802311756
302.312802214336
302.312802162325
302.312802118108
302.312802063948
302.312802052556
302.312802048858
302.312802079172
302.312802356722
302.312802873431
302.312803774787
302.312806170519
302.31281292943
302.312831351141
302.312879749654
302.313001051846
302.313291233354
302.31395207258
302.315383579573
302.318338149057
302.324179878709
302.335347076032
302.356140426444
302.393335744942
302.453413647332
302.520611531906
301.619279017037
301.546325793965
301.490161955058
301.456427699331
301.438020515893
301.428397977295
301.423507938334
301.421104113997
301.419971079376
301.419462096239
301.419244607848
301.419156322817
301.419122295694
301.419109762185
301.419105322882
301.419103797329
301.419103305512
301.419103112793
301.419102991356
301.419102897954
301.419102795093
301.419102666523
301.419102536306
301.419102450318
301.419102394301
301.419102341029
301.419102311065
301.419102280753
301.419102234386
301.419102211888
301.41910218587
301.419102138988
301.419102302728
301.419102663114
301.419103254509
301.419104937976
301.419109878
301.419123639304
301.419160299157
301.419253418087
301.419479083851
301.420000191487
301.421146989923
301.423558949745
301.428439274827
301.438035160986
301.456486935696
301.490642794001
301.548042615982
301.621816311844
300.96002865292
300.897008601286
300.853104909991
300.827736943241
300.814365484505
300.807596251722
300.804248365466
300.802636307339
300.801887533411
300.801554473491
300.801413078992
300.801355927863
300.801333981818
300.801325947409
300.801323145884
300.801322234142
300.801321978721
300.801321907666
300.801321875911
300.80132185208
300.801321816911
300.801321755968
300.801321682192
300.801321633033
300.801321608324
300.801321585146
300.801321571082
300.801321553561
300.801321522647
300.801321501245
300.801321469286
300.801321401155
300.801321482432
300.801321687408
300.801322010438
300.801323015487
300.801326053378
300.801334643774
300.80135777392
300.801417088465
300.801562211768
300.801901001459
300.802656573514
300.804273106742
300.807617840414
300.814383627753
300.827831452005
300.853626243438
300.89877374052
300.963412414174
300.527908785025
300.481648429422
300.451977342272
300.435453454993
300.427026446874
300.422888880145
300.420894593156
300.419952428819
300.419520286476
300.419329491412
300.419248796485
300.419216228588
300.419203734873
300.419199174464
300.419197604581
300.419197118292
300.41919700815
300.41919699916
300.419196999147
300.419197000038
300.419196998611
300.419196977963
300.419196940447
300.419196915419
300.419196908205
300.419196901555
300.419196896317
300.419196887583
300.419196870263
300.419196854171
300.419196826583
300.419196768148
300.419196800054
300.419196896053
300.419197046262
300.419197583805
300.419199246589
300.419203992519
300.419216875731
300.419250126828
300.419332011142
300.419524701068
300.419959059862
300.420902313271
300.422894698855
300.427035436434
300.435532346867
300.452404036098
300.483126442578
300.531214183776
300.2707541562
300.240891697925
300.223046900743
300.213446284391
300.208698244005
300.206432618074
300.205366666551
300.204871839913
300.204647339816
300.204548767914
300.204507149029
300.204490343367
300.204483890919
300.204481538981
300.204480739033
300.204480507324
300.204480469597
300.204480477726
300.204480488783
300.204480493919
300.204480498698
300.204480496874
300.204480480041
300.204480469194
300.204480470072
300.204480469147
300.204480467412
300.204480464561
300.204480455957
300.204480445481
300.204480426076
300.20448038642
300.204480394276
300.204480429291
300.204480488825
300.204480754641
300.204481587429
300.204483974758
300.204490496232
300.204507394349
300.204549168025
300.204648000137
300.204872641811
300.205366768558
300.206430405384
300.208697826081
300.213492851961
300.223332838907
300.24194494602
300.273391398165
300.130229107633
300.112894385086
300.103154913276
300.098081254267
300.095642278471
300.094508826771
300.093987482965
300.093749388545
300.093642400481
300.093595617073
300.09357586828
300.093567878287
300.093564804251
300.093563684589
300.093563308559
300.093563208866
300.093563199855
300.093563208525
300.093563219015
300.093563225296
300.093563229004
300.093563230021
300.093563224738
300.093563221541
300.093563224494
300.093563225537
300.093563225065
300.09356322378
300.093563219777
300.093563213658
300.093563201948
300.093563180505
300.093563177923
300.09356318506
300.093563206932
300.093563329563
300.093563716797
300.093564829659
300.093567884215
300.09357581345
300.093595445413
300.093642035384
300.093748584857
300.093985529204
300.094504443843
300.095637232692
300.098101434573
300.103318687272
300.113552508929
300.132039631891
300.059046968327
300.049853153257
300.044959174924
300.042485442805
300.041327042551
300.040801691686
300.040565126343
300.040458733833
300.040411338962
300.040390677333
300.040381947741
300.04037840558
300.040377038926
300.040376541471
300.040376377142
300.040376337196
300.04037633653
300.040376343008
300.040376350051
300.040376354678
300.040376356924
300.040376357837
300.040376357098
300.040376357311
300.040376359467
300.040376360642
300.040376360477
300.040376359797
300.040376358024
300.040376354728
300.040376348441
300.040376337952
300.040376335338
300.04037633536
300.040376340757
300.04037639281
300.040376561722
300.040377048397
300.040378388816
300.040381868433
300.040390479512
300.040410935671
300.040457914734
300.040563352885
300.040797924787
300.041321469148
300.042490923708
300.045041393173
300.050221528208
300.060149852066
300.025357804555
300.020848654071
300.018559246179
300.017434272118
300.016920087878
300.016692101638
300.01659146757
300.016546862833
300.016527150899
300.016518577326
300.016514949087
300.016513471619
300.016512899708
300.016512691709
300.016512624363
300.016512609379
300.016512610344
300.016512614222
300.016512618207
300.016512620975
300.016512622535
300.01651262337
300.016512623539
300.016512624108
300.016512625334
300.016512626074
300.01651262603
300.016512625697
300.016512624889
300.01651262324
300.016512620156
300.016512615331
300.016512613528
300.016512612825
300.016512613788
300.016512634015
300.016512703392
300.016512904941
300.016513461164
300.016514902876
300.016518462815
300.016526912711
300.016546365685
300.016590359008
300.0166896402
300.016915851882
300.017433870132
300.01859595357
300.021036323551
300.025966232483
300.010359419876
300.008294825152
300.007288915059
300.006807554382
300.006592439437
300.006499029807
300.006458565186
300.006440877522
300.006433119484
300.006429751262
300.006428322866
300.006427738908
300.006427512081
300.006427429682
300.006427403543
300.006427398256
300.006427399145
300.006427401166
300.006427403177
300.006427404632
300.006427405538
300.006427406068
300.00642740634
300.006427406766
300.00642740737
300.006427407742
300.006427407723
300.006427407568
300.006427407212
300.006427406437
300.006427405031
300.006427402922
300.006427401885
300.006427401305
300.006427401292
300.006427408772
300.00642743584
300.006427515452
300.006427735288
300.006428303491
300.006429701368
300.006433011325
300.006440637633
300.006457990635
300.006497659983
300.006589800224
300.006805793628
300.007303578585
300.008382916433
300.010667903068
300.004041805094
300.003152494332
300.002734394965
300.002539225539
300.002453815845
300.002417438789
300.00240195615
300.0023952781
300.002392370007
300.002391109317
300.002390573409
300.002390353417
300.002390267668
300.002390236562
300.002390226891
300.002390225134
300.002390225667
300.00239022662
300.002390227549
300.002390228244
300.002390228707
300.002390228995
300.00239022918
300.002390229415
300.002390229685
300.002390229849
300.00239022984
300.002390229772
300.002390229617
300.002390229272
300.00239022867
300.002390227793
300.002390227271
300.00239022693
300.002390226814
300.00239022945
300.002390239552
300.002390269713
300.002390352942
300.002390567233
300.00239109186
300.002392329378
300.002395178888
300.002401693296
300.00241675816
300.002452378756
300.002537741435
300.002739617399
300.003190961385
300.004187162953
300.001511368029
300.001148699232
300.000983337807
300.000907914932
300.000875547837
300.000862007225
300.000856338801
300.000853924912
300.00085288101
300.000852429064
300.000852236466
300.000852157076
300.000852126026
300.000852114778
300.000852111362
300.000852110813
300.000852111066
300.000852111479
300.000852111879
300.000852112185
300.000852112399
300.000852112539
300.000852112637
300.000852112747
300.000852112859
300.000852112925
300.000852112922
300.000852112893
300.000852112826
300.000852112682
300.000852112438
300.000852112091
300.000852111853
300.000852111684
300.000852111607
300.000852112495
300.000852116127
300.000852127136
300.00085215746
300.000852235172
300.000852424328
300.00085286832
300.000853888688
300.000856229241
300.000861697265
300.000874840879
300.000907000701
300.000984963272
300.001164446654
300.001575583251
300.000543382472
300.000402608492
300.000340071764
300.000312155485
300.000300392146
300.000295552077
300.000293557039
300.000292717764
300.000292357251
300.000292201364
300.000292134767
300.000292107203
300.000292096386
300.000292092473
300.00029209131
300.000292091147
300.000292091257
300.000292091424
300.000292091585
300.00029209171
300.000292091801
300.000292091863
300.000292091908
300.000292091955
300.000292091998
300.000292092023
300.000292092021
300.00029209201
300.000292091982
300.000292091925
300.000292091831
300.0002920917
300.000292091601
300.000292091526
300.000292091489
300.000292091779
300.000292093042
300.000292096927
300.0002921076
300.000292134807
300.000292200606
300.000292354153
300.000292705951
300.000293514584
300.000295420469
300.000300071435
300.000311676871
300.000340487284
300.000408689992
300.000570168479
300.000188377631
300.000136130592
300.000113424257
300.000103487454
300.000099370912
300.000097702982
300.000097025306
300.000096743506
300.000096623246
300.000096571308
300.000096549065
300.000096539822
300.000096536182
300.000096534867
300.000096534482
300.000096534434
300.000096534478
300.000096534541
300.000096534602
300.00009653465
300.000096534685
300.00009653471
300.000096534729
300.000096534747
300.000096534762
300.000096534771
300.00009653477
300.000096534766
300.000096534755
300.000096534734
300.0000965347
300.000096534653
300.000096534614
300.000096534584
300.000096534569
300.000096534662
300.00009653509
300.00009653642
300.00009654006
300.000096549286
300.000096571446
300.000096622823
300.000096740063
300.000097009775
300.000097650236
300.000099234845
300.000103262682
300.000113491915
300.000138357569
300.000198989446
300.000063134483
300.000044521209
300.0000365787
300.000033165485
300.000031773651
300.000031217662
300.000030994754
300.000030903067
300.000030864184
300.000030847411
300.00003084021
300.000030837206
300.000030836018
300.000030835588
300.000030835463
300.000030835448
300.000030835463
300.000030835484
300.000030835505
300.000030835522
300.000030835535
300.000030835544
300.00003083555
300.000030835557
300.000030835562
300.000030835564
300.000030835564
300.000030835563
300.000030835559
300.000030835551
300.00003083554
300.000030835524
300.00003083551
300.0000308355
300.000030835494
300.000030835525
300.000030835668
300.000030836111
300.000030837318
300.000030840358
300.000030847605
300.000030864289
300.000030902179
300.000030989319
300.000031197519
300.000031719104
300.000033068189
300.000036569769
300.000045297728
300.000067146993
300.000020503867
300.00001411719
300.000011432881
300.0000102982
300.000009842214
300.000009662431
300.000009591227
300.000009562235
300.000009550013
300.000009544745
300.000009542478
300.000009541527
300.000009541148
300.00000954101
300.000009540968
300.000009540962
300.000009540966
300.000009540972
300.000009540978
300.000009540983
300.000009540987
300.000009540989
300.000009540991
300.000009540993
300.000009540994
300.000009540995
300.000009540994
300.000009540994
300.000009540993
300.000009540991
300.000009540987
300.000009540983
300.000009540979
300.000009540976
300.000009540975
300.000009540986
300.000009541034
300.000009541179
300.00000954157
300.000009542546
300.000009544854
300.000009550128
300.000009562035
300.000009589384
300.000009655044
300.000009821389
300.00001025875
300.000011417759
300.000014375904
300.000021957995
300.000006466456
300.000004349556
300.000003470828
300.000003104854
300.000002959743
300.000002903211
300.000002881069
300.000002872136
300.00000286839
300.000002866775
300.000002866077
300.000002865781
300.000002865662
300.000002865617
300.000002865602
300.000002865598
300.000002865597
300.000002865598
300.000002865598
300.000002865599
300.000002865599
300.000002865599
300.000002865599
300.000002865599
300.000002865599
300.000002865599
300.000002865599
300.000002865599
300.000002865599
300.000002865599
300.000002865598
300.000002865597
300.000002865597
300.000002865597
300.000002865598
300.000002865603
300.00000286562
300.000002865668
300.000002865793
300.000002866101
300.000002866819
300.000002868446
300.000002872095
300.000002880454
300.000002900593
300.000002952123
300.000003089707
300.000003461588
300.000004432147
300.000006973341
300.000001984406
300.000001304859
300.000001025641
300.000000910878
300.000000865925
300.000000848602
300.000000841883
300.000000839194
300.000000838069
300.000000837583
300.000000837371
300.000000837279
300.00000083724
300.000000837224
300.000000837217
300.000000837213
300.000000837211
300.00000083721
300.000000837209
300.000000837208
300.000000837207
300.000000837206
300.000000837205
300.000000837205
300.000000837204
300.000000837204
300.000000837204
300.000000837204
300.000000837204
300.000000837204
300.000000837205
300.000000837205
300.000000837206
300.000000837207
300.000000837209
300.000000837213
300.00000083722
300.000000837237
300.000000837278
300.000000837374
300.000000837595
300.000000838087
300.000000839182
300.000000841676
300.000000847698
300.000000863238
300.000000905328
300.000001021244
300.000001330177
300.000002154892
300.000000593778
300.00000038204
300.000000295777
300.000000260729
300.000000247148
300.000000241964
300.00000023997
300.000000239175
300.000000238842
300.000000238696
300.00000023863
300.0000002386
300.000000238585
300.000000238577
300.000000238573
300.00000023857
300.000000238567
300.000000238565
300.000000238563
300.000000238562
300.00000023856
300.000000238559
300.000000238558
300.000000238557
300.000000238557
300.000000238557
300.000000238557
300.000000238557
300.000000238557
300.000000238557
300.000000238558
300.000000238559
300.00000023856
300.000000238562
300.000000238564
300.000000238567
300.000000238571
300.000000238578
300.000000238593
300.000000238625
300.000000238694
300.000000238842
300.000000239165
300.000000239896
300.000000241656
300.000000246228
300.000000258776
300.000000293938
300.000000389503
300.000000649255
300.000000173712
300.00000010956
300.000000083627
300.000000073193
300.000000069185
300.000000067666
300.000000067083
300.00000006685
300.000000066751
300.000000066705
300.000000066682
300.00000006667
300.000000066663
300.000000066658
300.000000066654
300.000000066651
300.000000066648
300.000000066645
300.000000066643
300.000000066642
300.00000006664
300.000000066639
300.000000066638
300.000000066637
300.000000066637
300.000000066636
300.000000066636
300.000000066636
300.000000066637
300.000000066637
300.000000066638
300.000000066639
300.000000066641
300.000000066642
300.000000066644
300.000000066647
300.00000006665
300.000000066655
300.000000066662
300.000000066674
300.000000066697
300.000000066744
300.00000006684
300.000000067052
300.000000067558
300.000000068875
300.000000072527
300.000000082919
300.000000111676
300.000000191217
300.000000049962
300.000000031046
300.000000023472
300.000000020446
300.000000019289
300.000000018851
300.000000018682
300.000000018612
300.000000018579
300.000000018562
300.000000018552
300.000000018545
300.00000001854
300.000000018536
300.000000018532
300.000000018529
300.000000018526
300.000000018524
300.000000018522
300.00000001852
300.000000018518
300.000000018517
300.000000018516
300.000000018515
300.000000018515
300.000000018514
300.000000018514
300.000000018514
300.000000018515
300.000000018515
300.000000018516
300.000000018517
300.000000018519
300.00000001852
300.000000018523
300.000000018525
300.000000018528
300.000000018532
300.000000018537
300.000000018543
300.000000018553
300.00000001857
300.000000018601
300.000000018664
300.000000018809
300.000000019183
300.000000020224
300.000000023215
300.000000031621
300.000000055326
300.000000014352
300.000000008934
300.000000006807
300.000000005958
300.000000005631
300.000000005505
300.000000005454
300.00000000543
300.000000005417
300.000000005408
300.000000005401
300.000000005396
300.000000005391
300.000000005387
300.000000005384
300.000000005381
300.000000005378
300.000000005375
300.000000005373
300.000000005371
300.00000000537
300.000000005368
300.000000005367
300.000000005366
300.000000005366
300.000000005366
300.000000005366
300.000000005366
300.000000005366
300.000000005367
300.000000005368
300.000000005369
300.00000000537
300.000000005372
300.000000005374
300.000000005377
300.00000000538
300.000000005383
300.000000005387
300.000000005392
300.000000005398
300.000000005407
300.000000005419
300.00000000544
300.000000005484
300.000000005591
300.000000005884
300.000000006717
300.000000009082
300.000000015949
300.000000004328
300.000000002839
300.00000000229
300.000000002066
300.000000001975
300.000000001938
300.00000000192
300.000000001909
300.000000001901
300.000000001895
300.000000001889
300.000000001884
300.00000000188
300.000000001876
300.000000001872
300.000000001869
300.000000001866
300.000000001863
300.000000001861
300.00000000186
300.000000001858
300.000000001857
300.000000001856
300.000000001855
300.000000001854
300.000000001854
300.000000001854
300.000000001854
300.000000001854
300.000000001855
300.000000001856
300.000000001857
300.000000001859
300.00000000186
300.000000001863
300.000000001865
300.000000001868
300.000000001872
300.000000001875
300.00000000188
300.000000001885
300.000000001891
300.000000001898
300.000000001908
300.000000001924
300.000000001957
300.000000002039
300.000000002258
300.000000002873
300.000000004788
300.000000001565
300.000000001193
300.000000001091
300.000000001043
300.000000001018
300.000000001004
300.000000000996
300.000000000989
300.000000000982
300.000000000976
300.000000000971
300.000000000966
300.000000000962
300.000000000958
300.000000000954
300.000000000951
300.000000000948
300.000000000946
300.000000000943
300.000000000942
300.00000000094
300.000000000939
300.000000000938
300.000000000937
300.000000000936
300.000000000936
300.000000000936
300.000000000936
300.000000000936
300.000000000937
300.000000000938
300.000000000939
300.000000000941
300.000000000943
300.000000000945
300.000000000947
300.00000000095
300.000000000954
300.000000000957
300.000000000962
300.000000000966
300.000000000972
300.000000000977
300.000000000984
300.000000000992
300.000000001006
300.00000000103
300.000000001079
300.000000001197
300.000000001691
300.000000000819
300.000000000757
300.000000000778
300.000000000779
300.000000000772
300.000000000765
300.000000000759
300.000000000753
300.000000000747
300.000000000741
300.000000000736
300.000000000731
300.000000000727
300.000000000723
300.000000000719
300.000000000716
300.000000000713
300.000000000711
300.000000000708
300.000000000707
300.000000000705
300.000000000704
300.000000000703
300.000000000702
300.000000000701
300.000000000701
300.000000000701
300.000000000701
300.000000000701
300.000000000702
300.000000000703
300.000000000704
300.000000000706
300.000000000708
300.00000000071
300.000000000712
300.000000000715
300.000000000719
300.000000000722
300.000000000727
300.000000000731
300.000000000736
300.000000000742
300.000000000748
300.000000000754
300.000000000762
300.000000000771
300.000000000773
300.000000000754
300.000000000848
300.000000000621
300.000000000644
300.000000000699
300.000000000713
300.00000000071
300.000000000705
300.000000000699
300.000000000693
300.000000000687
300.000000000682
300.000000000677
300.000000000672
300.000000000667
300.000000000663
300.00000000066
300.000000000657
300.000000000654
300.000000000651
300.000000000649
300.000000000647
300.000000000646
300.000000000645
300.000000000644
300.000000000643
300.000000000642
300.000000000642
300.000000000642
300.000000000642
300.000000000642
300.000000000643
300.000000000644
300.000000000645
300.000000000647
300.000000000648
300.000000000651
300.000000000653
300.000000000656
300.000000000659
300.000000000663
300.000000000667
300.000000000672
300.000000000677
300.000000000683
300.000000000688
300.000000000694
300.000000000701
300.000000000706
300.000000000696
300.000000000639
300.000000000624
300.000000000571
300.000000000616
300.00000000068
300.000000000697
300.000000000695
300.00000000069
300.000000000685
300.000000000679
300.000000000673
300.000000000667
300.000000000662
300.000000000657
300.000000000653
300.000000000649
300.000000000645
300.000000000642
300.000000000639
300.000000000637
300.000000000635
300.000000000633
300.000000000631
300.00000000063
300.000000000629
300.000000000628
300.000000000628
300.000000000627
300.000000000627
300.000000000627
300.000000000628
300.000000000628
300.000000000629
300.00000000063
300.000000000632
300.000000000634
300.000000000636
300.000000000638
300.000000000641
300.000000000645
300.000000000648
300.000000000653
300.000000000657
300.000000000662
300.000000000668
300.000000000674
300.00000000068
300.000000000686
300.000000000691
300.000000000677
300.000000000611
300.000000000566
300.000000000559
300.00000000061
300.000000000676
300.000000000693
300.000000000692
300.000000000687
300.000000000681
300.000000000675
300.000000000669
300.000000000663
300.000000000658
300.000000000653
300.000000000648
300.000000000644
300.000000000641
300.000000000638
300.000000000635
300.000000000633
300.000000000631
300.000000000629
300.000000000627
300.000000000626
300.000000000625
300.000000000624
300.000000000624
300.000000000623
300.000000000623
300.000000000624
300.000000000624
300.000000000625
300.000000000625
300.000000000627
300.000000000628
300.00000000063
300.000000000632
300.000000000635
300.000000000637
300.000000000641
300.000000000645
300.000000000649
300.000000000653
300.000000000659
300.000000000664
300.00000000067
300.000000000676
300.000000000683
300.000000000688
300.000000000674
300.000000000606
300.000000000552
300.000000000558
300.00000000061
300.000000000676
300.000000000693
300.000000000691
300.000000000686
300.00000000068
300.000000000673
300.000000000667
300.000000000661
300.000000000656
300.000000000651
300.000000000647
300.000000000643
300.000000000639
300.000000000636
300.000000000634
300.000000000631
300.000000000629
300.000000000627
300.000000000626
300.000000000625
300.000000000624
300.000000000623
300.000000000622
300.000000000622
300.000000000622
300.000000000622
300.000000000623
300.000000000623
300.000000000624
300.000000000625
300.000000000627
300.000000000629
300.000000000631
300.000000000633
300.000000000636
300.000000000639
300.000000000643
300.000000000647
300.000000000652
300.000000000657
300.000000000663
300.000000000669
300.000000000675
300.000000000682
300.000000000688
300.000000000674
300.000000000606
300.000000000551
300.000000000559
300.000000000612
300.000000000677
300.000000000694
300.000000000691
300.000000000685
300.000000000679
300.000000000672
300.000000000666
300.00000000066
300.000000000655
300.00000000065
300.000000000646
300.000000000642
300.000000000638
300.000000000635
300.000000000633
300.00000000063
300.000000000628
300.000000000627
300.000000000625
300.000000000624
300.000000000623
300.000000000622
300.000000000622
300.000000000622
300.000000000621
300.000000000622
300.000000000622
300.000000000623
300.000000000623
300.000000000625
300.000000000626
300.000000000628
300.00000000063
300.000000000632
300.000000000635
300.000000000639
300.000000000642
300.000000000647
300.000000000651
300.000000000657
300.000000000662
300.000000000669
300.000000000675
300.000000000683
300.000000000689
300.000000000676
300.000000000608
300.000000000552
300.000000000562
300.000000000615
300.000000000679
300.000000000695
300.000000000691
300.000000000685
300.000000000678
300.000000000671
300.000000000665
300.000000000659
300.000000000654
300.000000000649
300.000000000645
300.000000000641
300.000000000637
300.000000000634
300.000000000632
300.000000000629
300.000000000627
300.000000000626
300.000000000624
300.000000000623
300.000000000622
300.000000000622
300.000000000621
300.000000000621
300.000000000621
300.000000000621
300.000000000621
300.000000000622
300.000000000623
300.000000000624
300.000000000625
300.000000000627
300.000000000629
300.000000000631
300.000000000634
300.000000000638
300.000000000641
300.000000000646
300.00000000065
300.000000000656
300.000000000662
300.000000000668
300.000000000675
300.000000000683
300.00000000069
300.000000000678
300.000000000611
300.000000000555
300.000000000565
300.000000000618
300.000000000682
300.000000000696
300.000000000692
300.000000000685
300.000000000677
300.00000000067
300.000000000664
300.000000000658
300.000000000652
300.000000000647
300.000000000643
300.000000000639
300.000000000636
300.000000000633
300.000000000631
300.000000000628
300.000000000626
300.000000000625
300.000000000623
300.000000000622
300.000000000621
300.000000000621
300.00000000062
300.00000000062
300.00000000062
300.00000000062
300.00000000062
300.000000000621
300.000000000622
300.000000000623
300.000000000624
300.000000000626
300.000000000628
300.00000000063
300.000000000633
300.000000000636
300.00000000064
300.000000000644
300.000000000649
300.000000000655
300.000000000661
300.000000000668
300.000000000675
300.000000000684
300.000000000691
300.00000000068
300.000000000615
300.000000000559
300.000000000569
300.000000000622
300.000000000684
300.000000000697
300.000000000692
300.000000000684
300.000000000676
300.000000000669
300.000000000662
300.000000000656
300.000000000651
300.000000000646
300.000000000642
300.000000000638
300.000000000635
300.000000000632
300.000000000629
300.000000000627
300.000000000625
300.000000000624
300.000000000622
300.000000000621
300.00000000062
300.00000000062
300.000000000619
300.000000000619
300.000000000619
300.000000000619
300.00000000062
300.00000000062
300.000000000621
300.000000000622
300.000000000623
300.000000000625
300.000000000627
300.000000000629
300.000000000632
300.000000000635
300.000000000639
300.000000000643
300.000000000648
300.000000000654
300.00000000066
300.000000000667
300.000000000675
300.000000000684
300.000000000693
300.000000000683
300.000000000619
300.000000000563
300.000000000574
300.000000000627
300.000000000688
300.000000000698
300.000000000692
300.000000000684
300.000000000675
300.000000000667
300.00000000066
300.000000000654
300.000000000649
300.000000000644
300.00000000064
300.000000000636
300.000000000633
300.00000000063
300.000000000628
300.000000000626
300.000000000624
300.000000000622
300.000000000621
300.00000000062
300.000000000619
300.000000000619
300.000000000618
300.000000000618
300.000000000618
300.000000000618
300.000000000618
300.000000000619
300.00000000062
300.000000000621
300.000000000622
300.000000000624
300.000000000626