/*--------------------------------*- C++ -*----------------------------------*\
  =========                 |
  \\      /  F ield         | OpenFOAM: The Open Source CFD Toolbox
   \\    /   O peration     | Website:  https://openfoam.org
    \\  /    A nd           | Version:  10
     \\/     M anipulation  |
\*---------------------------------------------------------------------------*/
FoamFile
{
    format      ascii;
    class       volVectorField;
    location    "5.4";
    object      U;
}
// * * * * * * * * * * * * * * * * * * * * * * * * * * * * * * * * * * * * * //

dimensions      [0 1 -1 0 0 0 0];

internalField   nonuniform List<vector> 
2500
(
(-1.55813978187196e-06 -3.80163093954376e-06 7.07759488806965e-25)
(-3.68777361446334e-06 -4.99075919997715e-06 4.90998654337093e-24)
(-3.34252222595415e-06 -5.2907509171015e-06 9.53604244179615e-25)
(-2.52050518024965e-06 -5.38138740269431e-06 5.48070183690066e-25)
(-1.65036279899337e-06 -5.36047393729169e-06 8.39316300996309e-25)
(-1.06595272722886e-06 -5.3227960192923e-06 -3.62804515064248e-25)
(-6.80401680892656e-07 -5.28863810857575e-06 6.53184890661777e-26)
(-4.42338475947233e-07 -5.26469554674984e-06 5.12959910485292e-26)
(-2.93322394247368e-07 -5.24946185784836e-06 -1.08313891195463e-25)
(-1.97747053074593e-07 -5.2403859492518e-06 6.24466224734593e-24)
(-1.3465166576693e-07 -5.23534600315351e-06 2.78013094390157e-24)
(-9.1077795074486e-08 -5.232626393021e-06 7.85852505039761e-24)
(-5.97747882037876e-08 -5.23117933793232e-06 6.69866397309351e-24)
(-3.64414214872738e-08 -5.2304161853536e-06 2.18528214691802e-24)
(-1.85069356597987e-08 -5.22999898203586e-06 6.86228328257667e-24)
(-4.40592568593223e-09 -5.229761578815e-06 1.77108122727409e-24)
(6.86223139630594e-09 -5.22962815049203e-06 7.49276108168023e-24)
(1.59721605541791e-08 -5.22954351305713e-06 7.10489011093687e-24)
(2.34061058110498e-08 -5.22950745162585e-06 1.71832768213761e-24)
(2.95069406047062e-08 -5.22949364006466e-06 6.04515853248868e-24)
(3.45506288029772e-08 -5.22949472041293e-06 7.75442977455127e-25)
(3.87554000053617e-08 -5.2295076323617e-06 -1.53409716872547e-27)
(4.23053645759722e-08 -5.22952663301787e-06 6.50352883564267e-24)
(4.53582715268404e-08 -5.22955689114073e-06 8.15469774329155e-25)
(4.80445394965442e-08 -5.22959121280965e-06 1.57414672093233e-25)
(5.05041492335536e-08 -5.22962521923985e-06 5.81873600596256e-24)
(5.28672703079192e-08 -5.22966700374717e-06 3.03243189173434e-25)
(5.52539926447598e-08 -5.22971137523964e-06 1.29158046582658e-24)
(5.78052182359156e-08 -5.22976499899464e-06 6.0945181827781e-24)
(6.06720038380999e-08 -5.22981768704643e-06 -2.16392867382333e-25)
(6.40237697028724e-08 -5.22987772110752e-06 4.11326885518308e-25)
(6.80732883462843e-08 -5.22995527209862e-06 -9.73085339891194e-25)
(7.30728466480455e-08 -5.23005316048611e-06 8.80698912290681e-25)
(7.93560387202089e-08 -5.23017619788836e-06 9.81696207854832e-25)
(8.73956086654252e-08 -5.2303553340728e-06 -1.10454776304241e-25)
(9.78591603771671e-08 -5.23063938482847e-06 5.60387983939799e-24)
(1.11753351436683e-07 -5.23110018575005e-06 -6.46162824532745e-24)
(1.30646077396564e-07 -5.2319188531193e-06 -7.74285864365325e-25)
(1.5711006039656e-07 -5.23341709654595e-06 4.42988109846779e-27)
(1.95481733048653e-07 -5.23620504264948e-06 -3.81551627028655e-24)
(2.53002206795758e-07 -5.24129521564494e-06 -8.22664827965324e-24)
(3.4271484081502e-07 -5.25034208798851e-06 -8.05145890180865e-24)
(4.85444520967289e-07 -5.26542090823431e-06 -4.28094656683501e-24)
(7.17156785299409e-07 -5.28911830537481e-06 -8.23539633151017e-24)
(1.09656566775208e-06 -5.32313619046752e-06 -8.30911947612688e-24)
(1.67820849039213e-06 -5.36155141838082e-06 -4.85817655182282e-24)
(2.55414671246688e-06 -5.38449979817792e-06 -8.53949749553647e-24)
(3.39815963328071e-06 -5.29404435409784e-06 -8.18368393587251e-24)
(3.74827671647118e-06 -4.98326388375346e-06 -4.12322405761322e-24)
(1.57699267572189e-06 -3.7915985078222e-06 -4.94860574216621e-24)
(-1.64915149130701e-06 -5.00861329824405e-06 6.18043546643526e-25)
(-5.95700620960723e-06 -7.53129306450759e-06 6.57565622383748e-25)
(-5.71953874905766e-06 -8.90260494036296e-06 1.10222365708926e-24)
(-4.52780942337974e-06 -9.23121739627209e-06 8.63686309580519e-25)
(-3.11101291482743e-06 -9.07614172090177e-06 3.74329299168292e-25)
(-2.10775294277773e-06 -8.8316987831661e-06 -2.5586457032471e-24)
(-1.42102076726493e-06 -8.63718527670452e-06 -1.68842845730488e-25)
(-9.78591521703144e-07 -8.50642606238274e-06 -2.41681233555601e-25)
(-6.89616791947493e-07 -8.4255669909286e-06 -2.56583161691504e-24)
(-4.94768424049449e-07 -8.37714106563741e-06 9.63817098794856e-25)
(-3.58786432569717e-07 -8.34864213844215e-06 5.92626534271282e-24)
(-2.59555061970608e-07 -8.33172945474026e-06 5.80360844779712e-24)
(-1.84448891500968e-07 -8.32141317780973e-06 1.96404125116803e-24)
(-1.2581157493233e-07 -8.31485032554518e-06 3.82701376115252e-24)
(-7.88792131381585e-08 -8.31045499379129e-06 1.84689004993091e-24)
(-4.06378758770673e-08 -8.30735568202456e-06 1.93814575959767e-24)
(-9.04702345177096e-09 -8.30507495150811e-06 4.84070209672123e-24)
(1.73161874519788e-08 -8.30334622250685e-06 2.75147199991448e-24)
(3.95057193256326e-08 -8.30201646525584e-06 1.58817398678455e-24)
(5.83280301338108e-08 -8.30097745639453e-06 9.33773335052747e-25)
(7.44197263456174e-08 -8.30016840297503e-06 2.77091889288062e-25)
(8.83086660716599e-08 -8.29954830927287e-06 -2.42919146401904e-24)
(1.00445169333004e-07 -8.29908760122829e-06 3.41522970124984e-24)
(1.11232354067929e-07 -8.2987561479489e-06 7.57034535911235e-25)
(1.21025766628612e-07 -8.29856151386448e-06 -1.66675914713934e-24)
(1.30170372404862e-07 -8.29847792530786e-06 3.30272051097362e-24)
(1.39010289897029e-07 -8.29851644217597e-06 -1.4174823627488e-24)
(1.47874773008606e-07 -8.29867739861071e-06 3.39505719200677e-24)
(1.57133765347523e-07 -8.29897336438703e-06 3.04715198105645e-24)
(1.6717988992519e-07 -8.29941321381851e-06 -2.40462574047957e-24)
(1.7843715387075e-07 -8.30003092157785e-06 1.95190953594372e-24)
(1.91437488074227e-07 -8.3008685729042e-06 -3.19900570695275e-24)
(2.06807529662699e-07 -8.3019866417658e-06 3.52211037137912e-24)
(2.25324576585178e-07 -8.30347181112411e-06 3.55775111034719e-24)
(2.48035212882506e-07 -8.30551042985701e-06 -2.40925715019273e-24)
(2.76383706344374e-07 -8.30837706986192e-06 2.15471132714504e-24)
(3.12417703753637e-07 -8.31254440284401e-06 -3.55006007615616e-24)
(3.5917436799707e-07 -8.31889798275829e-06 -6.06641026072669e-25)
(4.21433429018843e-07 -8.32902670232082e-06 1.03785249190865e-24)
(5.06925049199397e-07 -8.34580242479418e-06 -8.95557342713378e-24)
(6.2830308035118e-07 -8.37417891779458e-06 -7.24406172734697e-24)
(8.07872767694438e-07 -8.42241548810348e-06 -6.84170990614204e-24)
(1.08070750322196e-06 -8.50300508297871e-06 -1.0012096719246e-23)
(1.50688573310789e-06 -8.63369504266483e-06 -7.04773026578827e-24)
(2.17779267266055e-06 -8.82945975078844e-06 -7.32859081659224e-24)
(3.17146941056314e-06 -9.07944194027388e-06 -1.09931588537336e-23)
(4.59480381639097e-06 -9.24598694760146e-06 -7.49724802657655e-24)
(5.82572421061538e-06 -8.91758527847145e-06 -7.09518806797757e-24)
(6.079943275789e-06 -7.50442629480699e-06 -9.61678503634158e-24)
(1.69230844020135e-06 -4.9541009200642e-06 -4.40551620904428e-24)
(-4.50514976879155e-07 -6.19028725759791e-08 5.06489012920969e-26)
(-4.96184750190393e-06 -2.26573047521071e-06 -6.30230827739261e-24)
(-5.09274549177009e-06 -4.6326727892092e-06 5.15793790620023e-25)
(-4.34249151499576e-06 -5.21891471593804e-06 2.40499176586421e-25)
(-3.19438027960494e-06 -4.97276246962361e-06 -5.39273976764575e-24)
(-2.31762468041186e-06 -4.55302745690961e-06 -6.55011337854272e-24)
(-1.67323543753348e-06 -4.21925663721736e-06 -5.33220919200717e-25)
(-1.22914397919359e-06 -3.99535159439139e-06 -5.49336965251144e-25)
(-9.19655242479757e-07 -3.85635812511442e-06 -7.19034374785142e-24)
(-6.9722133106758e-07 -3.77162961230669e-06 -5.21958584972525e-24)
(-5.32738893070954e-07 -3.71982351720144e-06 9.30583551345545e-24)
(-4.06718026216718e-07 -3.68735594099021e-06 3.43883632889007e-24)
(-3.07481869738913e-07 -3.6662557870529e-06 -3.78719593070826e-24)
(-2.27544753616396e-07 -3.65192206098731e-06 6.19367506889532e-24)
(-1.61955548141936e-07 -3.64174954209097e-06 -5.13722925561844e-24)
(-1.07378258061559e-07 -3.63423553775176e-06 9.99043973108477e-25)
(-6.14518615226217e-08 -3.62850393258249e-06 1.94547529445579e-24)
(-2.24398612058423e-08 -3.62404382978272e-06 -2.85877437450394e-24)
(1.09812053759776e-08 -3.62051275803283e-06 3.67826225830206e-25)
(3.98400343875595e-08 -3.61769858228287e-06 -4.98663017371315e-24)
(6.49850232341639e-08 -3.61546871821101e-06 -7.44290312796302e-25)
(8.71245364209748e-08 -3.61372088250378e-06 -7.39151292018129e-24)
(1.06880322110713e-07 -3.612389371492e-06 7.69523916183545e-25)
(1.24798662038542e-07 -3.61141654157472e-06 2.18654713070502e-25)
(1.41378673722462e-07 -3.61079497978199e-06 -5.08397364458352e-24)
(1.57114681454521e-07 -3.61049356209159e-06 2.83148560545687e-25)
(1.72480384595696e-07 -3.61052212020144e-06 -4.97527045127274e-24)
(1.87950921235662e-07 -3.61088604876495e-06 7.32807463702274e-24)
(2.04037024875143e-07 -3.61160023173411e-06 9.2697020930423e-25)
(2.21286271325635e-07 -3.612724207391e-06 -5.68195509697754e-24)
(2.40299992617547e-07 -3.61431574777132e-06 6.26937022637513e-24)
(2.61790424616222e-07 -3.61646237460868e-06 -6.53988853827544e-24)
(2.86597394206467e-07 -3.61929940093307e-06 7.43054698442304e-24)
(3.15741884642632e-07 -3.62305152964114e-06 6.87234042055763e-24)
(3.50545103941382e-07 -3.62805873480599e-06 -6.63256390993351e-24)
(3.927598877916e-07 -3.63484024926851e-06 -1.83592139085699e-25)
(4.4476908590128e-07 -3.64429784702476e-06 -1.12596030925481e-24)
(5.09923577569465e-07 -3.65792610656489e-06 9.1685297615949e-26)
(5.93187487053917e-07 -3.67837033126911e-06 4.05023576370849e-24)
(7.02123488008127e-07 -3.71025632894052e-06 -9.82384103836257e-24)
(8.48414417565767e-07 -3.76159716965712e-06 -4.64896683126594e-24)
(1.05179939758053e-06 -3.8460132449672e-06 -4.21336305569962e-24)
(1.3412375817951e-06 -3.98497207423091e-06 -1.13945559058218e-23)
(1.7652223823557e-06 -4.20971005632266e-06 -4.49232008352195e-24)
(2.38995463838524e-06 -4.54713450151163e-06 -4.80353853685222e-24)
(3.25346019663087e-06 -4.97824894117755e-06 -1.26366401249882e-23)
(4.40482040621759e-06 -5.24637711730596e-06 -4.68868073665787e-24)
(5.19413727925362e-06 -4.66341333095799e-06 -4.53073787234992e-24)
(5.10089083729733e-06 -2.22968284240616e-06 -1.20236923610367e-23)
(5.14686729906478e-07 4.07840500140861e-08 -2.57296874718405e-24)
(1.74881128943231e-07 4.23598721105695e-06 2.48168799716837e-25)
(-2.84026214509706e-06 2.8505236114846e-06 -4.75780124071086e-24)
(-3.29678348816818e-06 -4.7901363098168e-07 7.19177810967999e-25)
(-3.19015098078495e-06 -1.49230917781008e-06 3.43944321527764e-25)
(-2.61303099559273e-06 -1.36520416348573e-06 -2.15079106944628e-24)
(-2.08537520707154e-06 -9.27765509391506e-07 -2.71181089116474e-24)
(-1.63495420805029e-06 -5.49681840442058e-07 9.88422166045669e-27)
(-1.28561681761501e-06 -2.83575847790177e-07 6.12428900389892e-27)
(-1.01747482505827e-06 -1.11407868023653e-07 -2.69615720130903e-24)
(-8.08638238076289e-07 -1.69259337853779e-09 -4.55002966388626e-24)
(-6.44451363228135e-07 6.88562685659988e-08 4.51983467658686e-24)
(-5.12833360820022e-07 1.15430025935415e-07 5.92590670882106e-25)
(-4.05756752095158e-07 1.47245598957716e-07 -2.71630812227347e-24)
(-3.17435531444252e-07 1.69787198996908e-07 2.37952823170593e-24)
(-2.43663106299019e-07 1.8634207000315e-07 -4.18926252990704e-24)
(-1.81390675107353e-07 1.98879785969604e-07 8.03474162836869e-25)
(-1.28326812462397e-07 2.08611825277667e-07 -6.28835994467691e-25)
(-8.27129032583737e-08 2.16307181225294e-07 -1.8948450599317e-24)
(-4.3167437058406e-08 2.22446624412079e-07 6.1297309889009e-25)
(-8.58755977493308e-09 2.2737469199285e-07 -4.27530775371315e-24)
(2.19490613326303e-08 2.3130977176264e-07 -3.26509038058945e-27)
(4.92258604837123e-08 2.34415149506713e-07 -2.51112319815781e-24)
(7.39301444175107e-08 2.36796790979025e-07 -6.42570539296363e-25)
(9.66809965816963e-08 2.38519613211647e-07 4.2270752889684e-25)
(1.18051233959712e-07 2.39646154782589e-07 -1.8631723348241e-24)
(1.38590438200541e-07 2.40184059135075e-07 -1.12567687292592e-24)
(1.58839384660657e-07 2.4014265423377e-07 -1.81730862157279e-24)
(1.79346500425172e-07 2.39497392323309e-07 2.61448968351896e-24)
(2.00680127347757e-07 2.38223075253871e-07 -8.47673224762262e-25)
(2.23459667229186e-07 2.3623529693662e-07 -2.66287067618135e-24)
(2.48367324790325e-07 2.33429778365228e-07 1.64300087540874e-24)
(2.76186874021382e-07 2.29657962359647e-07 -3.24622644332369e-24)
(3.07831719908007e-07 2.24708024563519e-07 3.07424703439801e-24)
(3.44408011341905e-07 2.18230317915078e-07 3.13143028513281e-24)
(3.87301643357679e-07 2.09723315153466e-07 -2.76157437781681e-24)
(4.38266742287436e-07 1.98430936693917e-07 -6.98430950590299e-25)
(4.9960970494758e-07 1.83118416684511e-07 9.37411822078676e-25)
(5.74388285558036e-07 1.61808318648516e-07 1.48884731030339e-25)
(6.66800392580387e-07 1.31199434425182e-07 1.80402008548139e-24)
(7.82670351269494e-07 8.57548591662789e-08 -4.52660712594432e-24)
(9.29978104749173e-07 1.61957047663431e-08 1.50778725732283e-25)
(1.12103016540213e-06 -9.27747557444982e-08 -2.49435940415869e-25)
(1.37031167257145e-06 -2.64757585049415e-07 -4.81963915246815e-24)
(1.70060166839281e-06 -5.32225494218285e-07 -7.98871768426657e-25)
(2.13193153522056e-06 -9.16172345511341e-07 -9.87736047895439e-25)
(2.64535119524507e-06 -1.37104259592489e-06 -5.93510316211042e-24)
(3.22132402177989e-06 -1.53175306790598e-06 5.53111448312526e-25)
(3.35686993034045e-06 -5.30940534483255e-07 6.62798355575358e-25)
(2.94881676087451e-06 2.88255974633359e-06 -5.44448814490273e-24)
(-1.11939720224304e-07 4.35470357522768e-06 1.32049536047668e-24)
(3.05798863952587e-07 6.73185261630516e-06 8.73710982273318e-25)
(-9.67985861914991e-07 5.92121502083143e-06 5.20483170929762e-25)
(-1.61869884970054e-06 1.96122322087702e-06 1.36797760133724e-24)
(-1.9934963897892e-06 5.11888318093999e-07 5.79417619629625e-25)
(-1.92381680831131e-06 4.13723094766953e-07 3.00061871978749e-25)
(-1.72573729853317e-06 7.65966596099757e-07 -3.88514191887917e-26)
(-1.47546635498521e-06 1.12402785105183e-06 5.14333025146818e-25)
(-1.23603977690367e-06 1.39698492776594e-06 5.58889690161934e-25)
(-1.02653697722739e-06 1.58451687601261e-06 6.40702950453752e-26)
(-8.47699368356178e-07 1.71050016540292e-06 -5.13036650820728e-26)
(-6.98258791086339e-07 1.7955904452141e-06 2.19049325934696e-24)
(-5.73361972756373e-07 1.8542580902174e-06 1.51210930190414e-24)
(-4.68817908089573e-07 1.89583974981938e-06 2.1542392404072e-25)
(-3.80847448920677e-07 1.92618204940198e-06 1.28760011581436e-24)
(-3.06281950130407e-07 1.9489710316749e-06 -4.97249544271495e-27)
(-2.42609686917276e-07 1.96650835674251e-06 1.34110906563852e-24)
(-1.87811208746078e-07 1.98027749522649e-06 1.27311682223519e-24)
(-1.40274147984643e-07 1.99125013429701e-06 9.29285528834514e-25)
(-9.86838693281826e-08 2.00005943608923e-06 1.55471914265172e-24)
(-6.19631623607211e-08 2.00714656994219e-06 3.14691781835753e-25)
(-2.92003255078901e-08 2.01282122254545e-06 1.06217944191522e-24)
(3.87275056209951e-10 2.01729005466687e-06 2.58839948237568e-25)
(2.74901857455157e-08 2.02070927650496e-06 7.887590821247e-25)
(5.27480178084089e-08 2.02317895717031e-06 9.52738667289537e-25)
(7.67416366163106e-08 2.02476316483339e-06 4.5671367200023e-25)
(1.00034041737642e-07 2.02548652272403e-06 6.7316239648486e-25)
(1.23179364562226e-07 2.02536081542056e-06 2.2926600578271e-25)
(1.46738995111416e-07 2.02435207934355e-06 7.18408602787667e-25)
(1.71296105932857e-07 2.02240297337663e-06 1.40219144130202e-25)
(1.97474707712144e-07 2.01942952445166e-06 -5.03137915663639e-25)
(2.25970143705653e-07 2.01527032935935e-06 2.74793480865379e-26)
(2.57564688378037e-07 2.00972366497841e-06 -1.37785954482876e-24)
(2.93161372935905e-07 2.00249027111725e-06 4.17196090395568e-25)
(3.33839195478878e-07 1.99313421149367e-06 6.22970060988623e-25)
(3.80912816082784e-07 1.98098862520944e-06 -5.13080770691111e-25)
(4.35984919622297e-07 1.96509403806177e-06 -5.91277632555307e-26)
(5.01069530309892e-07 1.94396055380998e-06 1.42667587782783e-25)
(5.78674341102853e-07 1.91527804670635e-06 -2.45031487569501e-25)
(6.71935999605762e-07 1.87535738321402e-06 4.26418811266017e-25)
(7.84632119814711e-07 1.81829290701387e-06 -1.65078150356641e-24)
(9.2085075321075e-07 1.73470818684087e-06 -6.37416692877333e-25)
(1.085576275845e-06 1.60999460068691e-06 -2.98921375153964e-25)
(1.27975887628005e-06 1.42309079209387e-06 -1.58268025198786e-24)
(1.50325687329983e-06 1.1488626943435e-06 -4.42562188976099e-25)
(1.73656852057605e-06 7.83781131301168e-07 -5.0371291960531e-25)
(1.92029843356273e-06 4.09695000556727e-07 -2.18275352735266e-24)
(1.98440510354119e-06 4.64733121312756e-07 -3.57082667939002e-25)
(1.62634620515957e-06 1.89102109364181e-06 -3.19914019075124e-25)
(1.02051214021524e-06 5.94582867389413e-06 -2.33279567805016e-24)
(-2.65398945617153e-07 6.85191052004818e-06 2.09976427357062e-25)
(2.54680047731951e-07 7.52563219199649e-06 1.12091485189262e-24)
(1.80000552994638e-07 6.96906417072983e-06 2.85226185234717e-24)
(-5.34920430188585e-07 2.82429686266402e-06 1.57012652445797e-24)
(-1.13428329555266e-06 1.08901959066649e-06 6.26699893865617e-25)
(-1.37448067387687e-06 7.93296589905943e-07 8.10810291644553e-25)
(-1.39436889924432e-06 1.04048750159041e-06 1.18548160828493e-24)
(-1.29152009516951e-06 1.35678531132409e-06 6.7097757127574e-25)
(-1.14171061670654e-06 1.62005046473522e-06 7.30325088723194e-25)
(-9.86291652252919e-07 1.81214648641358e-06 1.38793964822105e-24)
(-8.39764499317879e-07 1.94761565740947e-06 1.68802349931719e-24)
(-7.09850329180125e-07 2.04306378323992e-06 1.02017380666046e-24)
(-5.96969141208782e-07 2.11128680037418e-06 1.74421642314688e-24)
(-4.99973802018432e-07 2.16107636202938e-06 1.91153085595679e-24)
(-4.16834707574399e-07 2.19826504660425e-06 7.79092293785546e-25)
(-3.45400900736534e-07 2.22668594282789e-06 1.76519666705461e-24)
(-2.83757180083567e-07 2.24884102734997e-06 1.49633277077671e-24)
(-2.30231492669554e-07 2.26638780660858e-06 1.99035063042395e-24)
(-1.83425674410137e-07 2.28044769115282e-06 2.47495855488885e-24)
(-1.4216254040896e-07 2.29178403580056e-06 1.85148226423711e-24)
(-1.05443970050338e-07 2.30091886416444e-06 2.112583003236e-24)
(-7.24165449372942e-08 2.30822752065297e-06 1.43069718208886e-24)
(-4.23343547141709e-08 2.31397379397489e-06 1.42490241995347e-24)
(-1.4528198861511e-08 2.31835219573693e-06 1.54058488915279e-24)
(1.16114014512759e-08 2.32148447693497e-06 1.12427556603898e-24)
(3.66547405495559e-08 2.32344569006694e-06 1.60809069661864e-24)
(6.11504441248117e-08 2.32428403279792e-06 1.64791334865992e-24)
(8.56350568589893e-08 2.32399594699757e-06 1.08542234525303e-24)
(1.10653186090123e-07 2.32255217094349e-06 -8.66084778491814e-26)
(1.3677729026207e-07 2.31987337474507e-06 7.66749723931506e-25)
(1.64609819912763e-07 2.31584904814332e-06 5.75568321856849e-25)
(1.94811939716846e-07 2.31028651798479e-06 -5.29950047758024e-25)
(2.28127894037376e-07 2.30293456232174e-06 -2.87698102694699e-25)
(2.6540664292139e-07 2.29342186118492e-06 -7.79359321239491e-25)
(3.07641277715003e-07 2.28122100600661e-06 -6.12913512350444e-25)
(3.560034197957e-07 2.26556136990577e-06 5.31785409357001e-25)
(4.11875793002459e-07 2.24531307638864e-06 6.22483835105755e-25)
(4.76912526866881e-07 2.2188223161265e-06 -4.24944767958465e-25)
(5.53012966468485e-07 2.18359148562498e-06 -4.73510851082085e-25)
(6.42275738207431e-07 2.13577778024929e-06 -3.85399514183814e-25)
(7.46702553830423e-07 2.06952358160119e-06 4.04546930865323e-25)
(8.67281212786291e-07 1.97596864213275e-06 -7.26938352580751e-25)
(1.00362228703543e-06 1.84222797403966e-06 -5.82599597155255e-25)
(1.14753868946085e-06 1.65127506739982e-06 4.17453928594618e-25)
(1.28480245387334e-06 1.38724151933099e-06 -5.41588377559649e-25)
(1.37312259935694e-06 1.06382033735202e-06 -5.50166778987592e-25)
(1.33940036277073e-06 7.92533543972921e-07 2.78851765594066e-25)
(1.09048306012104e-06 1.03904696838563e-06 -6.1454618023566e-25)
(4.98522936789285e-07 2.74283869014122e-06 -5.44910094223948e-25)
(-1.83232443325596e-07 6.98580759155711e-06 6.64919416771903e-25)
(-2.41861141592435e-07 7.64076654101433e-06 -5.06062893563026e-26)
(2.04583659777414e-07 7.21154026377483e-06 9.62302541123075e-25)
(6.662200824166e-07 6.74894143988086e-06 3.38284041711335e-24)
(-1.83213752606986e-08 2.73992063867671e-06 1.29537406303168e-24)
(-6.4214789282726e-07 8.71678596227744e-07 4.61136371543003e-25)
(-1.0091718534235e-06 4.41252615222252e-07 5.11957652421083e-25)
(-1.13747706370222e-06 5.96407787544467e-07 1.02613626567378e-24)
(-1.12377399563408e-06 8.68602105286188e-07 5.14868278358729e-25)
(-1.03634211818636e-06 1.11565603429916e-06 5.7176460591932e-25)
(-9.23700295157316e-07 1.30617793942758e-06 1.28611808109797e-24)
(-8.05906815987164e-07 1.4463734300467e-06 1.82969592388269e-24)
(-6.95324178519919e-07 1.54878647858758e-06 5.90732805060536e-25)
(-5.95604844972918e-07 1.62421148016704e-06 1.84082146890375e-24)
(-5.07717361017666e-07 1.68063535383976e-06 2.23135567628775e-24)
(-4.30997289122135e-07 1.72361278073511e-06 6.44808453070478e-25)
(-3.64174664025973e-07 1.75694644157689e-06 1.98372335885758e-24)
(-3.05897847392433e-07 1.78321215580571e-06 1.22594458677383e-24)
(-2.54857027726007e-07 1.80418107226066e-06 2.06412136805096e-24)
(-2.09887801699586e-07 1.82106337573241e-06 2.56255572978308e-24)
(-1.69971861667742e-07 1.83472048741075e-06 1.52498204063555e-24)
(-1.34221124481519e-07 1.84573508614172e-06 2.40925221351189e-24)
(-1.01850401434666e-07 1.85454097641131e-06 1.18446944631614e-24)
(-7.21670822997337e-08 1.86145539082357e-06 1.31640900964324e-24)
(-4.45517997486706e-08 1.86669257396329e-06 1.72599281591117e-24)
(-1.8423910378376e-08 1.87039778717266e-06 9.10051672704729e-25)
(6.76199495791581e-09 1.87267032636235e-06 1.38687574384604e-24)
(3.15247681665701e-08 1.87355568742417e-06 1.896548988068e-24)
(5.63747103370589e-08 1.87305464774239e-06 9.40794524682151e-25)
(8.1833911802863e-08 1.87113412483073e-06 -9.62890519803387e-26)
(1.08442777742765e-07 1.86770357687517e-06 1.14883430234899e-24)
(1.36768771044868e-07 1.86261889482394e-06 6.61506710045001e-25)
(1.67435127887319e-07 1.85566112300084e-06 -4.05172201330591e-25)
(2.01126254630388e-07 1.84654208587932e-06 -3.22523525479719e-26)
(2.38612108067392e-07 1.83483577229312e-06 -7.6119953308157e-25)
(2.80783665010485e-07 1.81993764785398e-06 -6.41629948716655e-25)
(3.28645492036996e-07 1.800994710858e-06 6.02229615143904e-25)
(3.83339432382913e-07 1.77678561709394e-06 9.84929108772301e-25)
(4.46155043076351e-07 1.74555707435648e-06 -7.67173922630915e-25)
(5.18412472902831e-07 1.70473022593301e-06 -4.40884798000824e-25)
(6.0132853831464e-07 1.65051020514018e-06 -3.49570906251026e-25)
(6.95506481370746e-07 1.57730220875135e-06 7.51500018905214e-25)
(7.99795798514843e-07 1.47710169047741e-06 -1.10410047965635e-24)
(9.10514290524547e-07 1.33904630237844e-06 -1.00443200831952e-24)
(1.01471698283431e-06 1.15022982174914e-06 6.72576798843842e-25)
(1.0924113389098e-06 9.03158805353318e-07 -8.15244465651e-25)
(1.09385636637484e-06 6.24330384257722e-07 -8.42881332343277e-25)
(9.52919800055605e-07 4.44066503358174e-07 6.96610094425687e-25)
(5.76025500774e-07 8.21187270993844e-07 -1.05806027428909e-24)
(-4.5045621213786e-08 2.65140558846858e-06 -8.29074224236408e-25)
(-7.08034317769538e-07 6.75504718953496e-06 1.33308970138345e-24)
(-2.11719939563424e-07 7.31597016396604e-06 -5.16520953590287e-25)
(1.91544670641308e-07 6.45808060593816e-06 6.01723925591026e-25)
(7.39238520687008e-07 6.08057541106653e-06 2.17461247586493e-24)
(1.40056643329228e-07 2.34494413007273e-06 8.06624477213509e-25)
(-4.04440747232889e-07 4.40144824261737e-07 2.52236898933356e-25)
(-7.83794509221569e-07 -7.33407316376112e-08 1.47990516501378e-26)
(-9.48205961882529e-07 8.11329408152506e-09 6.91821606307086e-25)
(-9.81115260707204e-07 2.38982673216306e-07 3.18428194613478e-25)
(-9.340446261836e-07 4.66596053323248e-07 3.59315294671706e-25)
(-8.53335373823244e-07 6.51145103045195e-07 9.08078827705365e-25)
(-7.59357955567899e-07 7.92172191570599e-07 1.12023603496844e-24)
(-6.66090455162599e-07 8.985407078829e-07 2.13941883031783e-25)
(-5.78880370811473e-07 9.79000252224717e-07 9.64001056672599e-25)
(-5.00043294489125e-07 1.0405307536322e-06 1.32453677616003e-24)
(-4.29940935363752e-07 1.08823760096249e-06 3.10026077973814e-25)
(-3.68024672467769e-07 1.12574114627755e-06 1.22689120451774e-24)
(-3.13435652129494e-07 1.15560394310809e-06 7.39665743318345e-25)
(-2.65204655457825e-07 1.17962274207475e-06 1.16755915422896e-24)
(-2.22400366957139e-07 1.19905272203288e-06 1.56391980291503e-24)
(-1.84168369858729e-07 1.21480719466987e-06 9.33195767846643e-25)
(-1.49732655808465e-07 1.22753782451483e-06 1.42000684021765e-24)
(-1.18381507875732e-07 1.23772049183534e-06 7.34633014296537e-25)
(-8.94873728063365e-08 1.24568968846791e-06 8.88310638520498e-25)
(-6.24757829328756e-08 1.2516934355875e-06 9.43560836895425e-25)
(-3.68027831786057e-08 1.25590484735821e-06 5.50984829580507e-25)
(-1.19558618605051e-08 1.25843013147802e-06 9.31180506468822e-25)
(1.25530701502329e-08 1.2593219821358e-06 1.0280434186764e-24)
(3.72101082977971e-08 1.25857978183432e-06 6.33113057914666e-25)
(6.2505549745558e-08 1.25616938703031e-06 -1.55177518585816e-25)
(8.89472667230934e-08 1.25198451234126e-06 5.89588345888319e-25)
(1.17065119509792e-07 1.24586233555198e-06 5.04480202343098e-25)
(1.47436728221527e-07 1.23756564066857e-06 -2.9461885393596e-25)
(1.8068757544002e-07 1.22676061311922e-06 1.03615575325105e-25)
(2.17502143498437e-07 1.21298624381536e-06 -5.62905852146473e-25)
(2.58655253880607e-07 1.19559153760375e-06 -4.89465704334317e-25)
(3.04992448961019e-07 1.1736643819647e-06 4.68392903107579e-25)
(3.57422720134768e-07 1.14594420117537e-06 5.43680242101075e-25)
(4.16883750935575e-07 1.11063400541353e-06 -3.83166975660178e-25)
(4.84200154181483e-07 1.06520230264176e-06 -2.73172157109193e-25)
(5.5985515667601e-07 1.00603078257906e-06 -2.37858445274114e-25)
(6.43431467856619e-07 9.27995855974352e-07 1.12897729295239e-24)
(7.32420077987357e-07 8.24117020942635e-07 -4.05427841461063e-25)
(8.21395388184129e-07 6.85630830956522e-07 -3.97066644770399e-25)
(8.95800550760774e-07 5.03364482447218e-07 8.86613718441615e-25)
(9.35238863061833e-07 2.76553882753958e-07 -3.67483198902255e-25)
(8.92102177132049e-07 3.97131632572159e-08 -3.58518082554201e-25)
(7.1683032265042e-07 -6.73827829239046e-08 9.74944532668767e-25)
(3.28255994403387e-07 3.89424446886782e-07 -4.46140303122411e-25)
(-2.14286111898899e-07 2.2505352191322e-06 -3.64899720879168e-25)
(-7.99188259516864e-07 6.07194844491755e-06 1.82102435571033e-24)
(-2.08196198874856e-07 6.5451789581586e-06 -1.20827038094747e-25)
(1.89792186604638e-07 5.69876856329446e-06 3.53311094407145e-25)
(6.2557872561309e-07 5.44984908324277e-06 1.63836352305026e-24)
(1.33235818479164e-07 1.99012142789115e-06 4.69947452544001e-25)
(-3.02353105671123e-07 9.04642626483077e-08 1.7197470301475e-25)
(-6.42039007052434e-07 -4.75238139453182e-07 4.42726691191773e-25)
(-8.05903060326044e-07 -4.52636883789714e-07 7.61263489282088e-25)
(-8.6017538987603e-07 -2.59689776771818e-07 2.08190669999143e-25)
(-8.38744960236192e-07 -5.32360089888185e-08 2.26561938884218e-25)
(-7.8164412995106e-07 1.22117577839356e-07 8.42791555232933e-25)
(-7.07071268210544e-07 2.60851518199276e-07 8.57212949881577e-25)
(-6.28828248116275e-07 3.68626023258268e-07 -2.24024930190328e-25)
(-5.52984445595807e-07 4.52214211834209e-07 4.22967855305721e-25)
(-4.82656322305362e-07 5.17467947874686e-07 9.56608631090688e-25)
(-4.18935395743371e-07 5.68914703697996e-07 -1.53805895765813e-25)
(-3.61842147263656e-07 6.09891407147536e-07 9.19647485568022e-25)
(-3.10939376755816e-07 6.42851126750799e-07 3.95605414944205e-25)
(-2.65574670258685e-07 6.6954764072162e-07 5.77930082521444e-25)
(-2.25030370993547e-07 6.91261510499271e-07 1.11592585392032e-24)
(-1.88595314741024e-07 7.08920861465395e-07 5.34984231033177e-25)
(-1.55606149208061e-07 7.2321599047957e-07 1.06153283850769e-24)
(-1.25443183082786e-07 7.34653771523738e-07 4.32646700435102e-25)
(-9.75340950396134e-08 7.43584670218549e-07 7.46504910645119e-25)
(-7.1346504390982e-08 7.50291606723083e-07 4.62342015206303e-25)
(-4.63773304972534e-08 7.54953935076582e-07 3.0760159202795e-25)
(-2.21482409924511e-08 7.57691888755538e-07 8.29306652226669e-25)
(1.79779650081165e-09 7.58563333589613e-07 5.42326549548888e-25)
(2.59198033985789e-08 7.57576069321233e-07 6.1411763646665e-25)
(5.06805001319601e-08 7.54677426761272e-07 -4.23624585650053e-25)
(7.65495485971399e-08 7.49759370225984e-07 2.44748505042319e-25)
(1.04022570580939e-07 7.42642009337383e-07 5.33759380403448e-25)
(1.33627607149698e-07 7.33072374213904e-07 -4.51863301456739e-25)
(1.65926890180552e-07 7.20688352631368e-07 2.65780146743153e-25)
(2.01528271781164e-07 7.04998997304476e-07 -6.4257782652886e-25)
(2.41093028826881e-07 6.85326181567847e-07 -5.82646945777347e-25)
(2.85310743317533e-07 6.60734658223983e-07 5.37321874783019e-25)
(3.34869245909627e-07 6.2995115702712e-07 2.71319420186515e-25)
(3.90403668549151e-07 5.91219687845786e-07 -1.55086584428163e-25)
(4.52313649343035e-07 5.42131750539645e-07 -1.58738817839515e-25)
(5.20513905253611e-07 4.79356048246673e-07 -4.18832069557955e-25)
(5.93846695751857e-07 3.98376964499785e-07 6.99573865333366e-25)
(6.69014244520096e-07 2.93341422574355e-07 -1.00402951318345e-25)
(7.3987122288129e-07 1.575273410246e-07 -1.02983430561142e-25)
(7.92069478328609e-07 -1.49863928995743e-08 7.68395965193176e-25)
(8.07410603485281e-07 -2.19883035325477e-07 -9.80377458636306e-26)
(7.44739242109702e-07 -4.18211780736328e-07 -8.05946461563836e-26)