/*--------------------------------*- C++ -*----------------------------------*\
  =========                 |
  \\      /  F ield         | OpenFOAM: The Open Source CFD Toolbox
   \\    /   O peration     | Website:  https://openfoam.org
    \\  /    A nd           | Version:  10
     \\/     M anipulation  |
\*---------------------------------------------------------------------------*/
FoamFile
{
    format      ascii;
    class       volScalarField;
    location    "5.4";
    object      wallHeatFlux;
}
// * * * * * * * * * * * * * * * * * * * * * * * * * * * * * * * * * * * * * //

dimensions      [1 0 -3 0 0 0 0];

internalField   uniform 0;

boundaryField
{
    back
    {
        type            calculated;
        value           uniform 0;
    }
    bottom
    {
        type            calculated;
        value           nonuniform List<scalar> 
50
(
111.586323274054
114.2097056103
118.241497550065
120.831246353894
122.246122402757
122.976275610539
123.339856219131
123.513515188056
123.592487160021
123.626720922853
123.640588272377
123.645970266311
123.647958643219
123.64859013227
123.64877386395
123.648761992826
123.648776685685
123.648743348687
123.648691875737
123.648673627801
123.648657987709
123.648649111209
123.648642453062
123.648644921867
123.648637898443
123.648633123862
123.648638199342
123.6486425382
123.648653765623
123.64866664815
123.648682506874
123.648715819877
123.648727973852
123.648735600299
123.648737839912
123.648685227702
123.648447002348
123.647623551505
123.645422296157
123.639457161585
123.624468075207
123.588697298835
123.50756392752
123.332077508624
122.969302049761
122.243743392971
120.83493001773
118.235690233221
114.162524171215
111.616712066123
)
;
    }
    left
    {
        type            calculated;
        value           uniform 0;
    }
    front
    {
        type            calculated;
        value           uniform 0;
    }
    right
    {
        type            calculated;
        value           uniform 0;
    }
    top
    {
        type            calculated;
        value           uniform 0;
    }
}


// ************************************************************************* //
