/*--------------------------------*- C++ -*----------------------------------*\
  =========                 |
  \\      /  F ield         | OpenFOAM: The Open Source CFD Toolbox
   \\    /   O peration     | Website:  https://openfoam.org
    \\  /    A nd           | Version:  10
     \\/     M anipulation  |
\*---------------------------------------------------------------------------*/
FoamFile
{
    format      ascii;
    class       volScalarField;
    location    "4.2";
    object      alphat;
}
// * * * * * * * * * * * * * * * * * * * * * * * * * * * * * * * * * * * * * //

dimensions      [1 -1 -1 0 0 0 0];

internalField   nonuniform List<scalar> 
2500
(
1.6087507619466e-14
3.11835319512271e-13
1.30764131383531e-12
2.19105058405001e-12
2.85477509423841e-12
3.29539672551494e-12
3.55648115175664e-12
3.69575267922817e-12
3.7631972031218e-12
3.79308441958815e-12
3.80529347295601e-12
3.80992170981547e-12
3.81155909446638e-12
3.8121019459303e-12
3.81227070676192e-12
3.81231944810706e-12
3.81233187770434e-12
3.81233397039232e-12
3.81233344883784e-12
3.81233244320293e-12
3.81233144920962e-12
3.81233057697316e-12
3.81232984353546e-12
3.81232924457356e-12
3.81232878426854e-12
3.812328468047e-12
3.8123283073359e-12
3.81232831650144e-12
3.81232841254939e-12
3.81232853460115e-12
3.8123287693543e-12
3.81232889522556e-12
3.81232797694723e-12
3.81232262425012e-12
3.81230194595175e-12
3.81223125389372e-12
3.81200554928627e-12
3.81132443978498e-12
3.80937961183491e-12
3.80413982503878e-12
3.790878526389e-12
3.75952340827485e-12
3.69070205487571e-12
3.55147232195177e-12
3.29387727370115e-12
2.86166125303971e-12
2.20961427635674e-12
1.3336177808447e-12
3.24700768533911e-13
1.72554859987089e-14
1.58407490537979e-12
8.06162506498315e-11
3.4542786206954e-10
5.79965260202763e-10
7.57313812658591e-10
8.7609314289381e-10
9.47205597856486e-10
9.85570537509065e-10
1.004370425191e-09
1.01280229203425e-09
1.01628838158529e-09
1.01762563274994e-09
1.01810424295769e-09
1.01826473958638e-09
1.01831522030685e-09
1.01832999787986e-09
1.01833385746462e-09
1.01833457006521e-09
1.01833446452934e-09
1.01833420185547e-09
1.01833393567004e-09
1.01833370115397e-09
1.01833350404121e-09
1.01833334349868e-09
1.01833322006665e-09
1.01833313562453e-09
1.01833309287807e-09
1.01833309639144e-09
1.01833312471455e-09
1.01833315791996e-09
1.01833322030132e-09
1.01833324363413e-09
1.01833293505835e-09
1.01833127447595e-09
1.01832502692474e-09
1.01830392325024e-09
1.01823720088366e-09
1.01803775650581e-09
1.01747376626398e-09
1.01596938655625e-09
1.0122011156058e-09
1.00338531786359e-09
9.84242361981712e-10
9.45927443092325e-10
8.75773600890031e-10
7.59204109011088e-10
5.84847480714777e-10
3.52143315030064e-10
8.38408915748639e-11
1.69307249898938e-12
5.5910225132766e-12
1.44142205444724e-09
4.83234866811965e-07
8.07780648675612e-07
1.05126266722992e-06
1.21412202998896e-06
1.31191041354084e-06
1.36498071433373e-06
1.39119232304282e-06
1.40305491221051e-06
1.40800684594926e-06
1.40992531698528e-06
1.41061888819524e-06
1.41085386054017e-06
1.41092856977364e-06
1.4109507255465e-06
1.41095664491974e-06
1.41095782919399e-06
1.4109577507148e-06
1.41095741956068e-06
1.41095707137897e-06
1.41095676181307e-06
1.41095650088363e-06
1.41095628820371e-06
1.41095612414061e-06
1.41095601122479e-06
1.41095595291506e-06
1.41095595612313e-06
1.4109559912051e-06
1.41095603268965e-06
1.41095610869369e-06
1.41095611841816e-06
1.41095562100215e-06
1.41095312727066e-06
1.41094393554529e-06
1.41091316208334e-06
1.41081653045391e-06
1.410529525563e-06
1.40972316251369e-06
1.40758656983461e-06
1.40227128150147e-06
1.38992220355112e-06
1.36328721161622e-06
1.31030037207762e-06
1.21373698153078e-06
1.05365512511499e-06
8.13916569585724e-07
4.91678371914571e-07
1.49260085403843e-09
5.90633655303115e-12
9.83644089183946e-12
2.55378176275479e-09
8.54933466209082e-07
1.41911935727813e-06
1.83816413215142e-06
2.11682934827933e-06
2.28373218911759e-06
2.3743016079309e-06
2.41910346884524e-06
2.43943317598971e-06
2.44794838392828e-06
2.45126024741656e-06
2.45246275870511e-06
2.45287209714891e-06
2.45300295190633e-06
2.4530420274104e-06
2.45305259815999e-06
2.45305479771761e-06
2.45305473518911e-06
2.45305421086422e-06
2.45305364425103e-06
2.45305313651063e-06
2.45305270705717e-06
2.45305235627653e-06
2.453052084241e-06
2.45305189475775e-06
2.45305179354324e-06
2.45305179177178e-06
2.45305183840235e-06
2.45305190727847e-06
2.45305202494136e-06
2.45305202945088e-06
2.45305117079113e-06
2.45304696634649e-06
2.45303148179649e-06
2.45297956342806e-06
2.452816202425e-06
2.45232999577516e-06
2.45096136912925e-06
2.44732906087952e-06
2.43828073090605e-06
2.41723568060602e-06
2.37179999122993e-06
2.28130489467435e-06
2.11607764980241e-06
1.84126828690825e-06
1.42744139476279e-06
8.66470692443658e-07
2.62342150476123e-09
1.02605480954943e-11
1.38735957149243e-11
3.60446914469137e-09
1.19950271767116e-06
1.97912567499453e-06
2.55364055836353e-06
2.93398663921765e-06
3.16136741468804e-06
3.28476108295069e-06
3.34588429207038e-06
3.37368395121305e-06
3.38536244595731e-06
3.38992036205179e-06
3.39158176765592e-06
3.39214979011846e-06
3.39233229639995e-06
3.39238716203698e-06
3.39240219102199e-06
3.39240544146498e-06
3.39240547061253e-06
3.39240482460142e-06
3.39240410102986e-06
3.39240344605444e-06
3.39240288941138e-06
3.39240243311687e-06
3.39240207692334e-06
3.39240182495056e-06
3.39240168431227e-06
3.39240166662787e-06
3.39240171289397e-06
3.39240180204849e-06
3.39240193982321e-06
3.39240191455968e-06
3.39240072208773e-06
3.39239505973467e-06
3.39237424627111e-06
3.39230438602691e-06
3.39208414240265e-06
3.39142723822742e-06
3.38957436922604e-06
3.38464804871184e-06
3.37235746830871e-06
3.34373486080658e-06
3.28186999535941e-06
3.15850731784679e-06
2.9329088655013e-06
2.55672443578799e-06
1.98785804594235e-06
1.21176190002846e-06
3.6800111571046e-09
1.43435788861437e-11
1.7532927809e-11
4.55762070331907e-09
1.50822297315688e-06
2.47597064819871e-06
3.18467413007823e-06
3.65226182815816e-06
3.93144295572918e-06
4.08298835995168e-06
4.15815868739103e-06
4.19242019500586e-06
4.20685231656175e-06
4.21250281204401e-06
4.214569882202e-06
4.21527947358134e-06
4.21550856207651e-06
4.21557787885493e-06
4.21559710044181e-06
4.21560141690372e-06
4.21560161250506e-06
4.21560091675999e-06
4.21560009911313e-06
4.21559934924096e-06
4.2155987080442e-06
4.2155981795986e-06
4.21559776374278e-06
4.21559746432765e-06
4.21559728852631e-06
4.21559724576035e-06
4.21559728296412e-06
4.2155973800395e-06
4.21559751419932e-06
4.21559743001263e-06
4.21559592141211e-06
4.21558901347878e-06
4.21556372816156e-06
4.21547884519593e-06
4.21521084272771e-06
4.21441004316825e-06
4.21214730208703e-06
4.20612167533277e-06
4.19106812202893e-06
4.15597182026506e-06
4.08004257715029e-06
3.9284918622427e-06
3.65100686486405e-06
3.18741079687664e-06
2.48412746936742e-06
1.51984193557735e-06
4.63174395543869e-09
1.80106312070246e-11
2.07304457508765e-11
5.39290301487966e-09
1.77648527718293e-06
2.90434762093385e-06
3.72627078257455e-06
4.26718249677881e-06
4.58988215161142e-06
4.76512735962144e-06
4.85216927979202e-06
4.89192045097075e-06
4.90870663597464e-06
4.91529788034792e-06
4.91771704565233e-06
4.91855062227003e-06
4.91882094593975e-06
4.91890324305341e-06
4.9189263310124e-06
4.91893170358193e-06
4.91893212970877e-06
4.91893144689959e-06
4.91893059186224e-06
4.91892979512025e-06
4.9189291082693e-06
4.91892853822946e-06
4.91892808527315e-06
4.91892775251388e-06
4.91892754629946e-06
4.91892747310731e-06
4.91892749377139e-06
4.91892758369015e-06
4.9189276923607e-06
4.91892752381214e-06
4.91892571262323e-06
4.9189177444679e-06
4.9188887510159e-06
4.91879147818563e-06
4.91848403037602e-06
4.91756399278383e-06
4.91496040870658e-06
4.90801766171146e-06
4.89065281563102e-06
4.85012969782312e-06
4.7623918347e-06
4.58714430307704e-06
4.26598151909527e-06
3.72865083834847e-06
2.91155668614357e-06
1.78684459090692e-06
5.4619020345349e-09
2.11944494014644e-11
2.3435001271742e-11
6.10229214304789e-09
2.00308485470455e-06
3.26403620906474e-06
4.17948981933938e-06
4.78084311652903e-06
5.13943894609504e-06
5.33428559167907e-06
5.43118752422035e-06
5.47552267665328e-06
5.49428696294568e-06
5.50167434160209e-06
5.50439383527473e-06
5.50533410924983e-06
5.50564029375665e-06
5.50573404191285e-06
5.50576062541624e-06
5.50576701937974e-06
5.50576772578543e-06
5.50576710335528e-06
5.50576625724381e-06
5.50576545319162e-06
5.50576475302721e-06
5.50576416692921e-06
5.50576369571864e-06
5.50576334166054e-06
5.505763109742e-06
5.5057630033504e-06
5.5057630014223e-06
5.50576307127614e-06
5.50576313879531e-06
5.50576286561725e-06
5.50576076064855e-06
5.50575190052987e-06
5.50571987284647e-06
5.50561254096743e-06
5.50527305604068e-06
5.50425591128501e-06
5.5013738722551e-06
5.49367970094913e-06
5.47441660217457e-06
5.42942839046686e-06
5.3319623420987e-06
5.13717601751398e-06
4.77997135476022e-06
4.18172187028537e-06
3.27036212185073e-06
2.0120948917681e-06
6.16503524169588e-09
2.38760533085462e-11
2.56540060383255e-11
6.68719624561657e-09
2.1893846691631e-06
3.55846291257125e-06
4.5496004508176e-06
5.19982635839232e-06
5.58749283124333e-06
5.79826526015542e-06
5.90321450739534e-06
5.95131161953861e-06
5.97170962846802e-06
5.97975921293167e-06
5.98273047347125e-06
5.98376097837782e-06
5.98409780491508e-06
5.98420147490003e-06
5.98423115333515e-06
5.98423851532059e-06
5.98423953967838e-06
5.98423900129711e-06
5.98423819803372e-06
5.98423741636588e-06
5.98423672763177e-06
5.98423614512017e-06
5.98423567036911e-06
5.98423530485987e-06
5.98423505227755e-06
5.98423491447445e-06
5.9842348825296e-06
5.98423491409946e-06
5.98423492990204e-06
5.98423453238797e-06
5.98423216548724e-06
5.984222562184e-06
5.98418808834207e-06
5.98407272454978e-06
5.98370767277038e-06
5.9826128614917e-06
5.97950748875874e-06
5.97120905876445e-06
5.95041619399884e-06
5.90182395996512e-06
5.79649772075944e-06
5.58591516803756e-06
5.19956060344359e-06
4.55200901225014e-06
3.56423478805443e-06
2.19729284721891e-06
6.74425486559764e-09
2.60713117045349e-11
2.74222078329747e-11
7.15588046246852e-09
2.33856447474763e-06
3.79352139741415e-06
4.84463990500004e-06
5.53361639948857e-06
5.94438653775197e-06
6.16786312669055e-06
6.27926279132243e-06
6.3303925789541e-06
6.35211611582908e-06
6.3607068203369e-06
6.36388542231856e-06
6.36499088417165e-06
6.36535342683387e-06
6.3654655375554e-06
6.36549790232603e-06
6.36550614851007e-06
6.36550748754361e-06
6.36550707127039e-06
6.36550633382871e-06
6.36550559481245e-06
6.36550493470039e-06
6.36550436972569e-06
6.36550390216313e-06
6.36550353301697e-06
6.3655032648886e-06
6.36550309891509e-06
6.36550302819297e-06
6.36550301444216e-06
6.36550296805886e-06
6.36550244871502e-06
6.36549985299541e-06
6.36548963358575e-06
6.3654532194803e-06
6.36533155616591e-06
6.36494647956829e-06
6.36379072981732e-06
6.360509685764e-06
6.35173481727468e-06
6.32973342740742e-06
6.27828999742435e-06
6.16674011840732e-06
5.94364516908638e-06
5.53419686184277e-06
4.84757491906286e-06
3.79918219711795e-06
2.34578808990818e-06
7.20877428201257e-09
2.78201021002166e-11
2.87918279008516e-11
7.52113684632052e-09
2.45496314773979e-06
3.97659866206143e-06
5.07425989278654e-06
5.7933501967876e-06
6.22212873904115e-06
6.45554914161105e-06
6.57202355883361e-06
6.62555335258492e-06
6.64833280046633e-06
6.65735766662915e-06
6.66070393235794e-06
6.66187053317436e-06
6.66225426378069e-06
6.66237342173376e-06
6.66240807630069e-06
6.66241710507751e-06
6.66241874841384e-06
6.66241846671647e-06
6.662417807471e-06
6.66241712290099e-06
6.66241650176958e-06
6.66241596306758e-06
6.66241550988187e-06
6.66241514295352e-06
6.66241486399128e-06
6.66241467346127e-06
6.66241456447106e-06
6.66241450426874e-06
6.66241438556148e-06
6.66241375386918e-06
6.66241096242224e-06
6.66240024297449e-06
6.66236231677974e-06
6.66223580618268e-06
6.661835353814e-06
6.66063274901502e-06
6.65721632762202e-06
6.64807349432897e-06
6.6251370562941e-06
6.57148481487027e-06
6.45510988881102e-06
6.22231140834837e-06
5.79495295891757e-06
5.07802796386987e-06
3.98258888518048e-06
2.46195805385197e-06
7.57172235877171e-09
2.91769676846987e-11
2.98239092248281e-11
7.79818026988523e-09
2.54349900047996e-06
4.1157442310723e-06
5.24875749139168e-06
5.99077551360186e-06
6.43331463011446e-06
6.67436822323225e-06
6.79475928617131e-06
6.85015271626634e-06
6.87375761606438e-06
6.88312436537759e-06
6.88660370196561e-06
6.88781924825318e-06
6.88822011105004e-06
6.88834504093555e-06
6.88838161001675e-06
6.88839131633603e-06
6.88839323886928e-06
6.8883930902284e-06
6.88839251324347e-06
6.88839188803475e-06
6.88839131073223e-06
6.88839080285371e-06
6.88839036832337e-06
6.88839000779352e-06
6.88838972227885e-06
6.88838951163413e-06
6.88838936906159e-06
6.88838926297587e-06
6.88838907622974e-06
6.88838834791351e-06
6.88838538652762e-06
6.88837426902384e-06
6.88833518651483e-06
6.88820502038278e-06
6.88779300472763e-06
6.88655512620958e-06
6.88303658023239e-06
6.87361559737552e-06
6.84997115809339e-06
6.79464445537392e-06
6.67460920319234e-06
6.43444754162027e-06
5.99349862535227e-06
5.25357934600453e-06
4.12242532300462e-06
2.55066955480763e-06
7.848212789507e-09
3.02031934301227e-11
3.05811581870782e-11
8.00285510613503e-09
2.60918125412113e-06
4.21898176095148e-06
5.37827708272517e-06
6.13739411906269e-06
6.59023816015118e-06
6.83703653057036e-06
6.96039209444733e-06
7.01720504497157e-06
7.04144302525777e-06
7.0510739293958e-06
7.0546569028491e-06
7.05591089966062e-06
7.05632535472702e-06
7.05645492116138e-06
7.05649305750947e-06
7.05650333452462e-06
7.05650550326255e-06
7.05650548136725e-06
7.05650498473341e-06
7.05650441864763e-06
7.05650388586043e-06
7.05650341015905e-06
7.05650299627896e-06
7.05650264491025e-06
7.05650235657646e-06
7.05650213056896e-06
7.05650195995898e-06
7.05650181323007e-06
7.05650156847723e-06
7.05650075636687e-06
7.05649765399937e-06
7.0564862264152e-06
7.05644627723504e-06
7.05631341132283e-06
7.05589288397499e-06
7.05462902090373e-06
7.05103510282421e-06
7.04140843849447e-06
7.01723962306518e-06
6.96067132541663e-06
6.83792012553699e-06
6.59229342832647e-06
6.14125718188417e-06
5.38427057608213e-06
4.22659779162053e-06
2.61683061515248e-06
8.05373017980246e-09
3.09604182828964e-11
3.11226158545483e-11
8.15025942796574e-09
2.6567363165053e-06
4.29378864023381e-06
5.47220951463523e-06
6.2438171068346e-06
6.70422360228975e-06
6.95526041706399e-06
7.08081625104162e-06
7.13868968683539e-06
7.16340397107623e-06
7.17323511751397e-06
7.17689728680926e-06
7.17818092269605e-06
7.1786059584319e-06
7.17873917799647e-06
7.17877857092979e-06
7.1787893165303e-06
7.17879169616295e-06
7.17879178941688e-06
7.17879136703685e-06
7.17879085637991e-06
7.17879036597199e-06
7.17878992159819e-06
7.17878952874566e-06
7.17878918821901e-06
7.17878890021782e-06
7.17878866356184e-06
7.17878847105724e-06
7.17878829090286e-06
7.17878799843597e-06
7.17878711734015e-06
7.17878390237192e-06
7.17877223895288e-06
7.1787316538254e-06
7.17859683639128e-06
7.17817017904716e-06
7.17688759193595e-06
7.17323926663742e-06
7.16346385787388e-06
7.13891523935408e-06
7.08144664620735e-06
6.95672468476811e-06
6.70713102102509e-06
6.24877168600863e-06
5.47939355910673e-06
4.30245960874196e-06
2.66505074589133e-06
8.20291093482548e-09
3.15060112626672e-11
3.15002757683866e-11
8.25383782554302e-09
2.69036110597867e-06
4.3467578989937e-06
5.53880477549753e-06
6.31935054587344e-06
6.78519614668678e-06
7.03929868801432e-06
7.16645596366598e-06
7.22510649343385e-06
7.25017233246217e-06
7.26015241454397e-06
7.26387396946556e-06
7.26518002560264e-06
7.26561314351312e-06
7.26574918678534e-06
7.26578956713882e-06
7.26580068850229e-06
7.26580324390202e-06
7.26580343793952e-06
7.26580308112933e-06
7.2658026202047e-06
7.26580216836956e-06
7.26580175312998e-06
7.2658013806294e-06
7.26580105182789e-06
7.26580076672924e-06
7.26580052378487e-06
7.26580031549458e-06
7.26580010967273e-06
7.26579977987165e-06
7.26579884465496e-06
7.26579554303702e-06
7.26578370487816e-06
7.26574266340867e-06
7.2656064659448e-06
7.26517549022493e-06
7.26387970685689e-06
7.26019297234759e-06
7.25031236806084e-06
7.2254947348867e-06
7.16738773354985e-06
7.04126721910807e-06
6.78885713183452e-06
6.32529733024444e-06
5.54711733520746e-06
4.35649506919982e-06
2.69941866452899e-06
8.30875146158546e-09
3.18902272077753e-11
3.17574729784458e-11
8.32491595734946e-09
2.71359667652958e-06
4.38343187765489e-06
5.58498626665758e-06
6.37179945423044e-06
6.84147981863138e-06
7.09775678677699e-06
7.22605731808126e-06
7.28526648916703e-06
7.31058693515774e-06
7.32067572823173e-06
7.32444098912829e-06
7.32576369186872e-06
7.32620286943427e-06
7.3263410546137e-06
7.3263821957557e-06
7.32639361200337e-06
7.32639631127035e-06
7.32639659124207e-06
7.32639628951702e-06
7.32639587178122e-06
7.32639545399752e-06
7.3263950650705e-06
7.32639471169667e-06
7.3263943949956e-06
7.32639411486422e-06
7.32639386948501e-06
7.3263936510712e-06
7.3263934270537e-06
7.32639306976926e-06
7.32639209421763e-06
7.32638872854225e-06
7.32637676462547e-06
7.32633540338391e-06
7.32619825165441e-06
7.32576430048795e-06
7.32445942040004e-06
7.32074616481314e-06
7.31079279491108e-06
7.28578879417383e-06
7.22723899322131e-06
7.1001476229659e-06
6.84578129628498e-06
6.37860785734944e-06
5.59430918067033e-06
4.39416503745235e-06
2.7233899545609e-06
8.38221150635782e-09
3.21549235949947e-11
3.19286618873757e-11
8.37259240042699e-09
2.72930051379412e-06
4.40827670589506e-06
5.61633081590779e-06
6.40745187786075e-06
6.87978345903709e-06
7.13757322856549e-06
7.26667453297505e-06
7.32627781413265e-06
7.35177924792523e-06
7.36194593676873e-06
7.36574277800193e-06
7.36707761640222e-06
7.36752125501877e-06
7.36766103548253e-06
7.3677027519896e-06
7.36771439502286e-06
7.36771721197687e-06
7.36771756493304e-06
7.36771730511836e-06
7.3677169239403e-06
7.36771653562525e-06
7.36771617005951e-06
7.36771583437676e-06
7.36771552984022e-06
7.36771525629535e-06
7.36771501173971e-06
7.36771478814556e-06
7.36771455261113e-06
7.36771417662985e-06
7.36771317279747e-06
7.36770976191958e-06
7.36769771047724e-06
7.36765613087574e-06
7.36751833434845e-06
7.36708237820371e-06
7.36577136403283e-06
7.36204019354e-06
7.35203758085593e-06
7.32690725963926e-06
7.26805694996384e-06
7.14030607384587e-06
6.88460991060204e-06
6.4149784867497e-06
5.62651529609605e-06
4.41988467326729e-06
2.73976437503381e-06
8.43213341875307e-09
3.23334833048097e-11
3.20401227379164e-11
8.40387812374607e-09
2.73968862862372e-06
4.42475642302779e-06
5.63716625506608e-06
6.43119109547079e-06
6.90532083841682e-06
7.16414341778697e-06
7.29379525307313e-06
7.35367149310994e-06
7.37929925482187e-06
7.38952075737761e-06
7.39334001062835e-06
7.39468353932762e-06
7.39513040426296e-06
7.39527135218489e-06
7.39531349642043e-06
7.39532531030781e-06
7.39532821866861e-06
7.39532862886783e-06
7.3953284077309e-06
7.3953280573451e-06
7.39532769433257e-06
7.3953273494024e-06
7.39532703002419e-06
7.39532673758248e-06
7.39532647190393e-06
7.3953262308644e-06
7.39532600624824e-06
7.39532576488918e-06
7.39532537769444e-06
7.39532435567381e-06
7.39532091480783e-06
7.39530880496117e-06
7.39526708062485e-06
7.39512885896105e-06
7.39469158208372e-06
7.39337652173482e-06
7.38963351035107e-06
7.37959828632169e-06
7.35438416651479e-06
7.29533423015881e-06
7.16714476628416e-06
6.91056343758575e-06
6.43929461694456e-06
5.64805483549102e-06
4.43709468871696e-06
2.75072648105887e-06
8.46537915776726e-09
3.24515317109052e-11
3.21111689373674e-11
8.42397735044788e-09
2.74641870052109e-06
4.43546553256663e-06
5.65073796098408e-06
6.44668314094235e-06
6.92200982711588e-06
7.18152462554781e-06
7.31154811909572e-06
7.37161003576615e-06
7.39732441524405e-06
7.4075838133373e-06
7.41141869541637e-06
7.41276833981324e-06
7.4132174982755e-06
7.41335928636719e-06
7.41340174366546e-06
7.41341368484444e-06
7.41341666234859e-06
7.41341711945555e-06
7.41341693122085e-06
7.41341660674643e-06
7.41341626548731e-06
7.41341593884902e-06
7.41341563455607e-06
7.41341535408605e-06
7.41341509726962e-06
7.41341486190403e-06
7.41341463963702e-06
7.41341439710195e-06
7.41341400480774e-06
7.41341297274049e-06
7.41340951378964e-06
7.41339736721616e-06
7.41335555048777e-06
7.41321705618555e-06
7.41277892993682e-06
7.41146126017664e-06
7.40771059221661e-06
7.39765423184778e-06
7.37238569398719e-06
7.31320591530266e-06
7.18473080947817e-06
6.92757234846154e-06
6.4552348198273e-06
5.66218076309951e-06
4.44838771826427e-06
2.7579236238638e-06
8.48709165485263e-09
3.25280768436378e-11
3.21555202213851e-11
8.43662357655859e-09
2.7506901979223e-06
4.44228522924746e-06
5.65940308478731e-06
6.45659454716909e-06
6.93270340053894e-06
7.1926737979822e-06
7.32294374717742e-06
7.38312975834405e-06
7.40890250077212e-06
7.41918764928285e-06
7.42303324501044e-06
7.42438712097156e-06
7.42483788298058e-06
7.42498026617622e-06
7.42502294938004e-06
7.42503498485134e-06
7.42503801492911e-06
7.42503850968397e-06
7.42503834896331e-06
7.42503804642272e-06
7.42503772404822e-06
7.42503741381478e-06
7.42503712362935e-06
7.4250368550385e-06
7.42503660788366e-06
7.42503637991923e-06
7.42503616269911e-06
7.42503592270881e-06
7.4250355301942e-06
7.42503449449841e-06
7.42503102659776e-06
7.42501885918744e-06
7.42497698669466e-06
7.42483832369856e-06
7.42439966625756e-06
7.42308035479492e-06
7.41932484963648e-06
7.40925509328226e-06
7.38395197852524e-06
7.3246895305094e-06
7.19603225266095e-06
6.93850517922448e-06
6.46548413042974e-06
5.67126802872631e-06
4.45565742296046e-06
2.7625596635876e-06
8.5010051746093e-09
3.25767851335365e-11
3.21826183860566e-11
8.44441102659804e-09
2.75334422654779e-06
4.44653817643543e-06
5.66482243355732e-06
6.46280731832012e-06
6.93941779701391e-06
7.19968260697289e-06
7.33011307622539e-06
7.39038057466174e-06
7.41619196563536e-06
7.42649431504752e-06
7.43034713208059e-06
7.43170388767394e-06
7.43215575286394e-06
7.43229855126827e-06
7.43234139539197e-06
7.43235350020903e-06
7.4323565704604e-06
7.43235709546573e-06
7.43235695779663e-06
7.43235667402517e-06
7.43235636827753e-06
7.43235607296787e-06
7.43235579612982e-06
7.43235553935152e-06
7.43235530249527e-06
7.43235508329525e-06
7.43235487324292e-06
7.43235463872287e-06
7.43235424980792e-06
7.43235321545971e-06
7.4323497455341e-06
7.43233756884179e-06
7.43229566601225e-06
7.43215690437059e-06
7.43171792743206e-06
7.43039761532695e-06
7.42663913867416e-06
7.41656110886815e-06
7.39123655364031e-06
7.33192268403692e-06
7.20315180634659e-06
6.94539437802214e-06
6.47194534364065e-06
5.67700020170356e-06
4.46024682594556e-06
2.76548881398988e-06
8.50975237565372e-09
3.26072020610192e-11
3.21987618473004e-11
8.44908650953904e-09
2.75495252109469e-06
4.44912628622885e-06
5.66813129078945e-06
6.46661045797855e-06
6.94353600182036e-06
7.20398727750731e-06
7.33452028664171e-06
7.39484030061835e-06
7.4206768235768e-06
7.43099046097816e-06
7.43484806181826e-06
7.43620674425478e-06
7.43665935622348e-06
7.43680244010248e-06
7.43684539751305e-06
7.43685755308667e-06
7.43686065425405e-06
7.43686120370264e-06
7.43686108548178e-06
7.43686081798269e-06
7.43686052710935e-06
7.43686024559529e-06
7.43685998154613e-06
7.43685973656596e-06
7.43685951054153e-06
7.43685930121731e-06
7.43685910003631e-06
7.43685887331501e-06
7.43685849102204e-06
7.43685746191608e-06
7.43685399526639e-06
7.4368418178045e-06
7.43679990248713e-06
7.43666108964428e-06
7.43622193391993e-06
7.43490104350826e-06
7.43114081913462e-06
7.42105786790341e-06
7.395720456196e-06
7.33637556623546e-06
7.20753583605195e-06
6.94963825506282e-06
6.47592796633126e-06
5.68053643807126e-06
4.46308118537076e-06
2.76729992793582e-06
8.51513694978782e-09
3.26258110034637e-11
3.22080106094189e-11
8.45178616970143e-09
2.75589052563799e-06
4.45064399854701e-06
5.67008005711203e-06
6.46885789148324e-06
6.94597575075927e-06
7.2065420092249e-06
7.3371389035708e-06
7.39749198217249e-06
7.42334449260953e-06
7.43366538515149e-06
7.43752609303324e-06
7.43888604078765e-06
7.43933914946659e-06
7.43948242660592e-06
7.43952546285001e-06
7.43953765549639e-06
7.43954078066223e-06
7.43954134994747e-06
7.43954124817601e-06
7.43954099492108e-06
7.43954071753085e-06
7.43954044893119e-06
7.43954019725899e-06
7.4395399640832e-06
7.43953974932459e-06
7.4395395507867e-06
7.43953935986127e-06
7.43953914281775e-06
7.43953876957078e-06
7.43953774880121e-06
7.43953428958316e-06
7.4395221178344e-06
7.43948020306506e-06
7.43934137232529e-06
7.43890213396736e-06
7.43758094895657e-06
7.43381978967828e-06
7.42373412576032e-06
7.39838948111628e-06
7.33902687901288e-06
7.21014739478032e-06
6.95216818829544e-06
6.47830467347307e-06
5.68264976876959e-06
4.46477812147256e-06
2.76838644696966e-06
8.51835754597084e-09
3.26368876855754e-11
3.22128604039191e-11
8.45321432676092e-09
2.75639324197682e-06
4.45146506098985e-06
5.67114222854054e-06
6.47008994155118e-06
6.9473189590342e-06
7.20795273125339e-06
7.33858772283697e-06
7.39896082949012e-06
7.42482316194834e-06
7.43514857361675e-06
7.4390112432887e-06
7.44037200102046e-06
7.44082543262424e-06
7.44096883809748e-06
7.4410119284385e-06
7.44102414795674e-06
7.44102729188263e-06
7.44102787768365e-06
7.44102778976693e-06
7.44102754908508e-06
7.44102728406658e-06
7.44102702771653e-06
7.44102678818158e-06
7.44102656685945e-06
7.44102636372247e-06
7.44102617676556e-06
7.44102599728683e-06
7.441025791512e-06
7.44102542933852e-06
7.441024419476e-06
7.44102097111692e-06
7.44100881036889e-06
7.44096690652214e-06
7.44082808349147e-06
7.44038883390092e-06
7.43906755889003e-06
7.4353060371893e-06
7.42521918720712e-06
7.39987113877302e-06
7.34049978006663e-06
7.21159994372225e-06
6.95357786080262e-06
6.47963226366466e-06
5.68383404831621e-06
4.46573283907079e-06
2.76900057765299e-06
8.52017968112335e-09
3.26431481221309e-11
3.22147095364655e-11
8.45376867849696e-09
2.75659472242611e-06
4.45180404237456e-06
5.67159100179038e-06
6.47061969978165e-06
6.94790395813176e-06
7.20857258992116e-06
7.33922796281192e-06
7.3996121643464e-06
7.42548009190953e-06
7.43580814919783e-06
7.43967199891754e-06
7.44103325832427e-06
7.44148689770137e-06
7.44163039087219e-06
7.44167352192815e-06
7.44168576435976e-06
7.44168892631206e-06
7.44168952860749e-06
7.44168945450867e-06
7.44168922673374e-06
7.44168897437628e-06
7.44168873043855e-06
7.44168850305994e-06
7.44168829364871e-06
7.44168810220674e-06
7.44168792673149e-06
7.4416877584828e-06
7.44168756366316e-06
7.44168721216444e-06
7.44168621279373e-06
7.44168277513867e-06
7.44167062642267e-06
7.44162873863505e-06
7.44148994138463e-06
7.44105073709324e-06
7.43972953712673e-06
7.43596810793549e-06
7.42588125570752e-06
7.40053269947206e-06
7.34115920697794e-06
7.21225309698576e-06
6.95421582191749e-06
6.48023834223592e-06
5.68438069120238e-06
4.46617935246555e-06
2.76929226149008e-06
8.52105871329027e-09
3.26462035433622e-11
3.22141314035433e-11
8.45361448088918e-09
2.75655253950894e-06
4.45175521264914e-06
5.67154822029773e-06
6.47058837551547e-06
6.94788459704469e-06
7.20856309640309e-06
7.33922544466969e-06
7.39961401824223e-06
7.42548441695787e-06
7.43581376005087e-06
7.43967823299282e-06
7.44103978064118e-06
7.44149355254652e-06
7.4416371105638e-06
7.44168027805762e-06
7.44169254493954e-06
7.44169572767679e-06
7.44169634920736e-06
7.44169629208836e-06
7.44169607946057e-06
7.44169584134409e-06
7.44169561078047e-06
7.44169539591731e-06
7.44169519839042e-06
7.44169501816629e-06
7.44169485303556e-06
7.44169469432145e-06
7.44169450817701e-06
7.44169416447704e-06
7.44169317218373e-06
7.44168974157508e-06
7.44167760203194e-06
7.44163573149782e-06
7.44149697478767e-06
7.44105787047469e-06
7.43973690930161e-06
7.43597601667846e-06
7.42589028395591e-06
7.40054387569601e-06
7.34117413433027e-06
7.21227390906122e-06
6.95424476613899e-06
6.4802768240654e-06
5.68442775432772e-06
4.4662297264261e-06
2.76933424441174e-06
8.52121877937527e-09
3.26468577531513e-11
3.22110176977035e-11
8.45272560252332e-09
2.75626013885182e-06
4.4513112057264e-06
5.67100767580419e-06
6.46999167500399e-06
6.94725854989185e-06
7.20792356074867e-06
7.33858064614475e-06
7.39896759746969e-06
7.4248377655026e-06
7.43516724477682e-06
7.43903188050263e-06
7.44039354248657e-06
7.44084738530709e-06
7.44099098823561e-06
7.44103418687808e-06
7.44104647756274e-06
7.44104968129833e-06
7.4410503229878e-06
7.44105028417199e-06
7.44105008748838e-06
7.44104986411482e-06
7.44104964721657e-06
7.44104944498835e-06
7.44104925915784e-06
7.44104908969638e-06
7.44104893432694e-06
7.44104878434289e-06
7.44104860583916e-06
7.44104826868583e-06
7.44104728211689e-06
7.44104385754413e-06
7.44103172794758e-06
7.44098988154927e-06
7.44085119063246e-06
7.44041226293567e-06
7.43909175263178e-06
7.43533194568192e-06
7.42524867110829e-06
7.39990748180278e-06
7.34054810000825e-06
7.21166704463858e-06
6.95367088871579e-06
6.4797556402005e-06
5.68398463130063e-06
4.46589376441849e-06
2.76913432440789e-06
8.52068834011858e-09
3.26452197149115e-11
3.22046058142496e-11
8.45088714997432e-09
2.7556465845512e-06
4.4503623930132e-06
5.66983434492587e-06
6.46867917640956e-06
6.94586692085381e-06
7.2064909070033e-06
7.33712867449798e-06
7.39750738171797e-06
7.42337439723075e-06
7.43370280995603e-06
7.43756714204554e-06
7.43892874645532e-06
7.4393825992302e-06
7.43952622584827e-06
7.4395694481123e-06
7.43958175958844e-06
7.4395849824313e-06
7.43958564314404e-06
7.43958562199686e-06
7.43958544065397e-06
7.43958523149658e-06
7.43958502783864e-06
7.43958483793092e-06
7.43958466356421e-06
7.43958450472795e-06
7.43958435911322e-06
7.43958421797173e-06
7.43958404734477e-06
7.43958371714826e-06
7.43958273708398e-06
7.43957932036956e-06
7.4395672056609e-06
7.43952539759435e-06
7.43938681318122e-06
7.43894817534481e-06
7.43762841770653e-06
7.43387046176547e-06
7.42379148304501e-06
7.39845967190795e-06
7.33911948289421e-06
7.21027512576124e-06
6.95234433706948e-06
6.47853732525187e-06
5.68293276814259e-06
4.46507971598689e-06
2.76863634015083e-06
8.51930920329004e-09
3.26407849306103e-11
3.21932763374354e-11
8.44764620774178e-09
2.75456363911457e-06
4.44867789991061e-06