/*--------------------------------*- C++ -*----------------------------------*\
  =========                 |
  \\      /  F ield         | OpenFOAM: The Open Source CFD Toolbox
   \\    /   O peration     | Website:  https://openfoam.org
    \\  /    A nd           | Version:  10
     \\/     M anipulation  |
\*---------------------------------------------------------------------------*/
FoamFile
{
    format      ascii;
    class       volScalarField;
    location    "4.2";
    object      h;
}
// * * * * * * * * * * * * * * * * * * * * * * * * * * * * * * * * * * * * * //

dimensions      [0 2 -2 0 0 0 0];

internalField   nonuniform List<scalar> 
2500
(
6806.02868898673
6788.17340336821
6768.41613676142
6757.68833066342
6752.66369781439
6750.42494299081
6749.46588788841
6749.07342175177
6748.92076227056
6748.86509872475
6748.84444415728
6748.83698263525
6748.83421189275
6748.83249626548
6748.83123065774
6748.82997331482
6748.82931128263
6748.82852316873
6748.82763839985
6748.82700986737
6748.82645235004
6748.82594346453
6748.8255126469
6748.82526332874
6748.82500325225
6748.82474805077
6748.82465086842
6748.82458047952
6748.8245533591
6748.82462929663
6748.82476223124
6748.82500673294
6748.82537771066
6748.82585424945
6748.82634824336
6748.82693661625
6748.82776069046
6748.82900102375
6748.83235874442
6748.84051853112
6748.86288183715
6748.92397151355
6749.08491294144
6749.48893074608
6750.45831881716
6752.68673461744
6757.6758569553
6768.4169712842
6788.4205553899
6805.88740575853
5416.37472286809
5352.56282244043
5297.252432226
5266.31595299625
5250.79700728365
5243.36995564638
5239.96632060958
5238.48890341455
5237.88601526373
5237.65545161284
5237.57196884892
5237.54338350209
5237.53407323599
5237.53083498173
5237.52949532409
5237.52868479088
5237.52826860352
5237.52784089616
5237.52736599868
5237.52699084866
5237.52662448259
5237.52624396433
5237.52590519364
5237.52571462743
5237.52555599485
5237.52538121006
5237.52531121509
5237.52525295126
5237.52516767303
5237.52520367221
5237.52525871598
5237.52531680309
5237.52564367956
5237.52608917052
5237.52642656074
5237.52694229327
5237.52827155762
5237.53198264576
5237.5432815403
5237.57614783774
5237.66878217404
5237.91722338363
5238.54722592147
5240.0549545395
5243.46901482363
5250.844615382
5266.2563353063
5297.28458557437
5353.46941115914
5416.41844140588
4149.33089062428
4061.08898298015
3992.14407591885
3954.14723394898
3935.15536605454
3926.07523942535
3921.90769527964
3920.09166342721
3919.34664476381
3919.05982560362
3918.95579317237
3918.92025693171
3918.90886347084
3918.90527023955
3918.90408941808
3918.90361523537
3918.90342851994
3918.90326384971
3918.90306984741
3918.90289953924
3918.90270400241
3918.90246339363
3918.90222963657
3918.90209866501
3918.90201469279
3918.90190978863
3918.90187332312
3918.9018365606
3918.90173697058
3918.9017287258
3918.90172828967
3918.90169656856
3918.90196332913
3918.90233261304
3918.90250951771
3918.90287812116
3918.90425501421
3918.90860803133
3918.92214333062
3918.96230315278
3919.07600379048
3919.38096045144
3920.15307145694
3921.99783431887
3926.17128057466
3935.19707047944
3954.10749616172
3992.35352272886
4062.71247813398
4151.42926174278
3188.75150187083
3104.96764363569
3046.9506087662
3016.11245007254
3001.29547790005
2994.46895502903
2991.42686791059
2990.12881386538
2989.60375873362
2989.40343665352
2989.33124036858
2989.30673334693
2989.29898198848
2989.29662969994
2989.29592932702
2989.29572815869
2989.29569976286
2989.2956769464
2989.29563344373
2989.29558131327
2989.29550052795
2989.29537188666
2989.29522854188
2989.29514409996
2989.29510628539
2989.29505482858
2989.29503976149
2989.29502484882
2989.29496804584
2989.29495960488
2989.29494460397
2989.29487388254
2989.29502785415
2989.29525143242
2989.2953166961
2989.29549059897
2989.29629432273
2989.29906935368
2989.30794486623
2989.33477233509
2989.41184326381
2989.62157598003
2990.16111990767
2991.47529627023
2994.52257390732
3001.3271736031
3016.1449740069
3047.34223898411
3106.88384063882
3192.62814497701
2561.39488364576
2498.42927209282
2459.10893934105
2438.95116987735
2429.62523306399
2425.47769175874
2423.67952395149
2422.92597624127
2422.62427262256
2422.50969275337
2422.46844151819
2422.45445104575
2422.45005888213
2422.44875019077
2422.44841439627
2422.44837719159
2422.44839925561
2422.44841474163
2422.44842095027
2422.44842091795
2422.44840140438
2422.44834607971
2422.44826803739
2422.44821918214
2422.44820940841
2422.44819605616
2422.44819365108
2422.44818956456
2422.44816515758
2422.44815927934
2422.44814154453
2422.44807454711
2422.44814625852
2422.44823849299
2422.44823785457
2422.4483193839
2422.44872474272
2422.45018964215
2422.45501375244
2422.46980483065
2422.51270907188
2422.63060964264
2422.9374400473
2423.69648513326
2425.49544152788
2429.63550635317
2438.99310752806
2459.4820066972
2500.11135098947
2565.62526784431
2199.51776499007
2159.59308560573
2136.82426684745
2125.53926291867
2120.49127884608
2118.31644603904
2117.39656863893
2117.01695735497
2116.86606713689
2116.80884632243
2116.78819902898
2116.78117998711
2116.77898543937
2116.77835165147
2116.77822315729
2116.77823201201
2116.77825735975
2116.77828207947
2116.77829641434
2116.77829737497
2116.77829739988
2116.77828455203
2116.77824521155
2116.77822196836
2116.7782264584
2116.77822863957
2116.77823117423
2116.77823026645
2116.77822056606
2116.77821657181
2116.77820218607
2116.77815654299
2116.77818448003
2116.77821621732
2116.77820486857
2116.7782356756
2116.77840940665
2116.77909045759
2116.78140538721
2116.78858463343
2116.80953032134
2116.86741245106
2117.01919262656
2117.39915802811
2118.31668707225
2120.48649142685
2125.56002415574
2137.07570075537
2160.78098473371
2202.98268343927
2011.66336399671
1989.50072066777
1977.83837829589
1972.23582305055
1969.80242595241
1968.78302658157
1968.36131137014
1968.18957867336
1968.12166904186
1968.09589990046
1968.08656209721
1968.08337442539
1968.08237954452
1968.08210593684
1968.08206484802
1968.08207688982
1968.08209595069
1968.0821141386
1968.08212600895
1968.08212784156
1968.0821317787
1968.08213143237
1968.0821142455
1968.08210567251
1968.08211178272
1968.08211591573
1968.08211818623
1968.08211875607
1968.08211547183
1968.08211272331
1968.08210385364
1968.0820780747
1968.08208685792
1968.08209522922
1968.08208472856
1968.08209728273
1968.08216485922
1968.08244916108
1968.08346095893
1968.08662979278
1968.09589968716
1968.12156933519
1968.18915853427
1968.35983079451
1968.77851387124
1969.79289404264
1972.23794928559
1977.97191153808
1990.20985147948
2013.99755188815
1922.60546003298
1911.56837830517
1906.1594015867
1903.63551142969
1902.56711044968
1902.13041093311
1901.95331954807
1901.8820478005
1901.85397073453
1901.84329569601
1901.83940708891
1901.83807298714
1901.83765720689
1901.8375487091
1901.83753794777
1901.83754650587
1901.83755770704
1901.83756815704
1901.8375755228
1901.83757836924
1901.83758046508
1901.83758091107
1901.83757552623
1901.83757346959
1901.83757754993
1901.83758017053
1901.83758140364
1901.83758209632
1901.83758098918
1901.83757928836
1901.83757477281
1901.83756212448
1901.83756395823
1901.83756501161
1901.83755902629
1901.8375627453
1901.8375855255
1901.8376965873
1901.83810762025
1901.83940480478
1901.84320019143
1901.85370056737
1901.88138029056
1901.95168276704
1902.12641739697
1902.55891081865
1903.63002333836
1906.21790135323
1911.93825127082
1923.96264553433
1883.59089796299
1878.57285831204
1876.26242475554
1875.21357965698
1874.77951377013
1874.6058739886
1874.5367140684
1874.5091750705
1874.49835803746
1874.49423427751
1874.49272366568
1874.49220273323
1874.4920409721
1874.49200155166
1874.49199938779
1874.49200350042
1874.4920091253
1874.49201430462
1874.49201812868
1874.49202000716
1874.49202096892
1874.49202106836
1874.49202013907
1874.49202062717
1874.49202233844
1874.49202356288
1874.49202410698
1874.49202450642
1874.49202410236
1874.49202319334
1874.49202114304
1874.49201557291
1874.49201527577
1874.49201503362
1874.49201266986
1874.49201335001
1874.49202007795
1874.49206068149
1874.49221767324
1874.492716696
1874.49417421885
1874.49819320741
1874.50877325407
1874.53573434303
1874.60346263966
1874.77427022428
1875.20763304446
1876.28382751669
1878.74537859391
1884.29264678313
1867.6448288117
1865.53434628454
1864.61373993326
1864.2066308135
1864.04150727501
1863.97668723569
1863.95128523419
1863.94126899229
1863.93734441957
1863.93584379955
1863.93529105628
1863.93509952951
1863.93504031059
1863.9350267002
1863.9350265624
1863.9350285486
1863.93503108245
1863.93503339145
1863.93503515441
1863.93503617127
1863.93503673304
1863.935036877
1863.93503685964
1863.93503732763
1863.9350380346
1863.93503853148
1863.9350387421
1863.93503891094
1863.93503875195
1863.93503832366
1863.93503746907
1863.93503534759
1863.93503495655
1863.93503456434
1863.93503365261
1863.93503349371
1863.93503509669
1863.93504924719
1863.93510621801
1863.9352883569
1863.93581858169
1863.93727304299
1863.94108895602
1863.95082415922
1863.97548578546
1864.03870046986
1864.2025790212
1864.62010637072
1865.60753161953
1867.97416083214
1861.51567359371
1860.68608836712
1860.34051562244
1860.19148424816
1860.13212668537
1860.10920784933
1860.10035654381
1860.09689804814
1860.09554601237
1860.09502751779
1860.09483555249
1860.09476875723
1860.09474822563
1860.0947437466
1860.09474389314
1860.09474476974
1860.094745817
1860.09474676422
1860.09474750658
1860.09474798101
1860.09474828786
1860.09474842219
1860.0947484919
1860.09474871757
1860.09474899054
1860.09474917553
1860.09474924963
1860.0947493073
1860.09474924238
1860.0947490606
1860.09474872782
1860.09474796937
1860.09474772291
1860.09474747924
1860.09474710042
1860.09474695376
1860.09474730732
1860.09475197587
1860.0947717272
1860.09483523413
1860.0950193137
1860.09552097967
1860.0968305919
1860.10016925881
1860.1086802965
1860.13080214623
1860.18926598593
1860.34185586101
1860.71468252769
1861.658056096
1859.28543492981
1858.97814687014
1858.85499556936
1858.80314466077
1858.78283389905
1858.77510470172
1858.77215846481
1858.77101701053
1858.77057177878
1858.77040057722
1858.77033690128
1858.77031466605
1858.77030787126
1858.77030645909
1858.77030657123
1858.77030692575
1858.77030732822
1858.7703076905
1858.77030798054
1858.77030817834
1858.77030831792
1858.77030839382
1858.77030844223
1858.77030853582
1858.77030863425
1858.77030869895
1858.77030872311
1858.77030873866
1858.77030871264
1858.77030864253
1858.77030852025
1858.77030826299
1858.77030814464
1858.77030802617
1858.77030786615
1858.7703077743
1858.77030783726
1858.77030934311
1858.7703159287
1858.77033719366
1858.7703985279
1858.77056445814
1858.77099496614
1858.77208996195
1858.77489352161
1858.78226629097
1858.80208942975
1858.8550252833
1858.98853523966
1859.342789424
1858.51285660286
1858.40487385258
1858.36295421528
1858.34570233165
1858.33904769811
1858.3365474537
1858.3356054201
1858.33524331829
1858.33510240182
1858.33504809173
1858.33502781111
1858.33502070764
1858.3350185472
1858.33501811785
1858.33501817332
1858.33501830574
1858.33501845048
1858.33501858043
1858.33501868636
1858.33501876176
1858.33501881708
1858.33501885103
1858.33501887492
1858.33501891021
1858.33501894352
1858.33501896496
1858.33501897236
1858.3350189755
1858.33501896578
1858.33501894062
1858.3350188978
1858.33501881437
1858.33501876547
1858.33501871542
1858.33501865143
1858.33501860626
1858.33501861352
1858.33501908898
1858.33502121104
1858.3350280777
1858.33504777657
1858.3351006589
1858.3352369181
1858.33558225666
1858.33646871405
1858.33882246022
1858.34524917631
1858.36278970245
1858.40840887119
1858.53457525787
1858.256849552
1858.22064954579
1858.2069538242
1858.20143688471
1858.19933906706
1858.1985597185
1858.19826906869
1858.19815815599
1858.19811509455
1858.19809846712
1858.19809223624
1858.19809004741
1858.19808938318
1858.19808925546
1858.1980892773
1858.19808932277
1858.19808937123
1858.19808941471
1858.19808945071
1858.19808947709
1858.19808949671
1858.19808950964
1858.19808951927
1858.19808953136
1858.19808954186
1858.19808954848
1858.1980895506
1858.19808955099
1858.19808954764
1858.19808953917
1858.19808952496
1858.19808949905
1858.19808948106
1858.1980894623
1858.19808943888
1858.19808942067
1858.19808942071
1858.19808956854
1858.19809023248
1858.19809237846
1858.19809849805
1858.19811479823
1858.19815649134
1858.1982616786
1858.19853195063
1858.19925514176
1858.20125717777
1858.20683653734
1858.22178243727
1858.2646365317
1858.17536678181
1858.1637350633
1858.15942339853
1858.15772076897
1858.15708193613
1858.15684696113
1858.15676010761
1858.15672718121
1858.15671442743
1858.15670949471
1858.15670763977
1858.15670698555
1858.15670678605
1858.15670674739
1858.15670675388
1858.15670676758
1858.15670678209
1858.15670679514
1858.15670680608
1858.15670681419
1858.1567068202
1858.15670682429
1858.15670682739
1858.15670683099
1858.15670683392
1858.15670683568
1858.15670683621
1858.1567068362
1858.15670683518
1858.15670683261
1858.15670682829
1858.15670682077
1858.15670681504
1858.15670680904
1858.15670680164
1858.15670679583
1858.15670679639
1858.1567068427
1858.15670704595
1858.15670769757
1858.15670954226
1858.15671441656
1858.15672678981
1858.15675784051
1858.15683759031
1858.15705226594
1858.15765396371
1858.15936461429
1858.16407835033
1858.17802589274
1858.1503672932
1858.14677071956
1858.14545853652
1858.14494971347
1858.14476116416
1858.144692423
1858.14466720807
1858.14465770379
1858.14465402964
1858.1446526056
1858.14465206729
1858.1446518757
1858.14465181571
1858.14465180254
1858.14465180295
1858.1446518057
1858.14465180882
1858.14465181166
1858.14465181405
1858.14465181569
1858.14465181686
1858.1446518176
1858.14465181809
1858.14465181883
1858.14465181936
1858.14465181961
1858.14465181972
1858.14465181972
1858.14465181949
1858.14465181892
1858.14465181791
1858.14465181615
1858.14465181491
1858.1446518137
1858.1446518122
1858.14465181119
1858.14465181293
1858.14465182861
1858.14465189034
1858.14465208408
1858.14465262606
1858.14465404468
1858.14465761632
1858.14466652503
1858.14468936762
1858.14475113116
1858.1449261857
1858.14543347271
1858.14686932613
1858.1512363985
1858.14295082904
1858.14187703287
1858.14148995689
1858.14134229539
1858.1412882057
1858.14126864001
1858.14126150857
1858.14125883247
1858.14125779843
1858.14125739557
1858.14125724126
1858.14125718464
1858.14125716537
1858.14125715946
1858.1412571576
1858.14125715675
1858.14125715619
1858.14125715574
1858.14125715533
1858.14125715487
1858.14125715441
1858.14125715395
1858.14125715354
1858.1412571533
1858.14125715309
1858.14125715293
1858.14125715284
1858.14125715283
1858.14125715289
1858.14125715298
1858.14125715307
1858.14125715309
1858.14125715339
1858.14125715386
1858.14125715442
1858.14125715537
1858.14125715744
1858.14125716376
1858.14125718352
1858.14125724125
1858.1412573981
1858.14125780221
1858.14125880862
1858.14126129993
1858.141267668
1858.14128493825
1858.14133438272
1858.14148030333
1858.14190390944
1858.1432238408
1858.14081755481
1858.14050709959
1858.14039617561
1858.14035445863
1858.14033933686
1858.1403339043
1858.14033193326
1858.14033119472
1858.14033090787
1858.14033079414
1858.14033074871
1858.14033073036
1858.14033072254
1858.14033071863
1858.1403307161
1858.1403307141
1858.14033071239
1858.1403307109
1858.1403307096
1858.14033070845
1858.14033070744
1858.14033070658
1858.14033070586
1858.14033070531
1858.14033070488
1858.1403307046
1858.14033070445
1858.14033070446
1858.14033070461
1858.14033070491
1858.14033070535
1858.14033070593
1858.14033070674
1858.14033070777
1858.14033070903
1858.14033071062
1858.14033071279
1858.1403307164
1858.14033072404
1858.14033074252
1858.14033078871
1858.14033090313
1858.14033118214
1858.14033186426
1858.14033359756
1858.140338304
1858.14035190035
1858.14039272129
1858.1405140431
1858.14090027139
1858.14022117222
1858.14013405006
1858.14010311389
1858.14009160961
1858.14008747663
1858.14008599989
1858.14008546451
1858.14008526235
1858.14008518184
1858.14008514796
1858.14008513263
1858.14008512485
1858.14008512016
1858.1400851168
1858.14008511405
1858.14008511169
1858.14008510961
1858.14008510779
1858.14008510619
1858.14008510481
1858.14008510362
1858.14008510262
1858.14008510179
1858.14008510114
1858.14008510065
1858.14008510032
1858.14008510016
1858.14008510018
1858.14008510037
1858.14008510074
1858.14008510129
1858.14008510204
1858.14008510303
1858.14008510425
1858.14008510575
1858.14008510755
1858.14008510975
1858.14008511261
1858.14008511684
1858.14008512429
1858.14008513952
1858.14008517334
1858.14008525129
1858.14008543631
1858.14008589978
1858.14008715505
1858.14009080829
1858.14010194596
1858.14013574133
1858.14024541445
1858.14005878246
1858.14003502165
1858.14002661605
1858.14002350604
1858.14002239488
1858.14002199873
1858.14002185353
1858.14002179656
1858.14002177178
1858.14002175947
1858.14002175229
1858.14002174736
1858.14002174352
1858.14002174028
1858.14002173746
1858.14002173497
1858.14002173277
1858.14002173083
1858.14002172913
1858.14002172767
1858.14002172641
1858.14002172535
1858.14002172448
1858.14002172379
1858.14002172328
1858.14002172294
1858.14002172278
1858.1400217228
1858.140021723
1858.1400217234
1858.14002172399
1858.14002172481
1858.14002172585
1858.14002172715
1858.14002172873
1858.14002173061
1858.14002173283
1858.14002173549
1858.14002173878
1858.14002174321
1858.14002174997
1858.14002176189
1858.14002178556
1858.14002183721
1858.14002196119
1858.14002229232
1858.14002325925
1858.14002623745
1858.14003540315
1858.14006566936
1858.14001563301
1858.14000934706
1858.14000712492
1858.14000629147
1858.14000599225
1858.14000588473
1858.14000584335
1858.14000582491
1858.14000581491
1858.14000580833
1858.14000580333
1858.14000579916
1858.14000579554
1858.14000579233
1858.14000578947
1858.14000578693
1858.14000578467
1858.14000578269
1858.14000578095
1858.14000577944
1858.14000577815
1858.14000577707
1858.14000577618
1858.14000577547
1858.14000577495
1858.14000577461
1858.14000577445
1858.14000577447
1858.14000577468
1858.14000577509
1858.14000577571
1858.14000577655
1858.14000577762
1858.14000577896
1858.14000578057
1858.14000578248
1858.14000578472
1858.14000578733
1858.14000579037
1858.14000579398
1858.14000579846
1858.14000580453
1858.14000581384
1858.14000583045
1858.14000586568
1858.1400059551
1858.14000621369
1858.14000700458
1858.14000942102
1858.1400175296
1858.14000442522
1858.14000283464
1858.14000226889
1858.14000203915
1858.14000195348
1858.14000192154
1858.14000190728
1858.14000189891
1858.14000189279
1858.14000188774
1858.14000188331
1858.14000187935
1858.14000187579
1858.14000187258
1858.1400018697
1858.14000186713
1858.14000186485
1858.14000186284
1858.14000186108
1858.14000185956
1858.14000185825
1858.14000185715
1858.14000185625
1858.14000185554
1858.14000185501
1858.14000185466
1858.1400018545
1858.14000185453
1858.14000185475
1858.14000185516
1858.14000185579
1858.14000185665
1858.14000185774
1858.14000185909
1858.14000186072
1858.14000186265
1858.1400018649
1858.1400018675
1858.14000187047
1858.14000187385
1858.14000187772
1858.14000188224
1858.14000188779
1858.14000189534
1858.14000190781
1858.14000193532
1858.14000201126
1858.1400022293
1858.14000284137
1858.14000492813
1858.14000157508
1858.14000121597
1858.14000108401
1858.14000101108
1858.14000098052
1858.14000096802
1858.14000096076
1858.14000095502
1858.14000094993
1858.14000094529
1858.14000094103
1858.14000093713
1858.14000093358
1858.14000093036
1858.14000092748
1858.14000092489
1858.1400009226
1858.14000092058
1858.14000091881
1858.14000091727
1858.14000091595
1858.14000091484
1858.14000091394
1858.14000091322
1858.14000091269
1858.14000091234
1858.14000091218
1858.14000091221
1858.14000091243
1858.14000091286
1858.1400009135
1858.14000091436
1858.14000091546
1858.14000091683
1858.14000091847
1858.14000092041
1858.14000092267
1858.14000092526
1858.14000092821
1858.14000093153
1858.14000093522
1858.14000093932
1858.14000094387
1858.14000094909
1858.14000095579
1858.14000096773
1858.1400009975
1858.1400010687
1858.14000120937
1858.1400016991
1858.14000086451
1858.14000082122
1858.14000080048
1858.1400007675
1858.14000075092
1858.14000074337
1858.14000073791
1858.14000073286
1858.14000072805
1858.14000072353
1858.14000071932
1858.14000071545
1858.1400007119
1858.14000070869
1858.1400007058
1858.14000070321
1858.14000070091
1858.14000069888
1858.1400006971
1858.14000069556
1858.14000069424
1858.14000069313
1858.14000069222
1858.1400006915
1858.14000069097
1858.14000069062
1858.14000069046
1858.14000069049
1858.14000069072
1858.14000069115
1858.14000069179
1858.14000069266
1858.14000069377
1858.14000069514
1858.14000069679
1858.14000069874
1858.140000701
1858.1400007036
1858.14000070654
1858.14000070983
1858.14000071346
1858.14000071744
1858.14000072172
1858.14000072633
1858.14000073157
1858.14000073963
1858.14000075794
1858.14000079225
1858.1400008124
1858.14000088811
1858.14000069072
1858.14000072674
1858.14000073393
1858.14000071093
1858.14000069783
1858.14000069151
1858.14000068651
1858.14000068164
1858.14000067691
1858.14000067243
1858.14000066824
1858.14000066438
1858.14000066084
1858.14000065763
1858.14000065474
1858.14000065215
1858.14000064985
1858.14000064782
1858.14000064604
1858.1400006445
1858.14000064318
1858.14000064207
1858.14000064115
1858.14000064044
1858.14000063991
1858.14000063957
1858.14000063941
1858.14000063944
1858.14000063967
1858.1400006401
1858.14000064075
1858.14000064162
1858.14000064274
1858.14000064411
1858.14000064576
1858.14000064771
1858.14000064998
1858.14000065257
1858.14000065551
1858.14000065879
1858.1400006624
1858.14000066634
1858.14000067055
1858.14000067499
1858.14000067987
1858.14000068699
1858.14000070251
1858.14000072776
1858.14000071775
1858.14000068837
1858.14000064918
1858.14000070474
1858.14000071873
1858.14000069811
1858.14000068582
1858.14000067977
1858.14000067486
1858.14000067002
1858.14000066531
1858.14000066084
1858.14000065666
1858.1400006528
1858.14000064926
1858.14000064606
1858.14000064317
1858.14000064059
1858.1400006383
1858.14000063627
1858.1400006345
1858.14000063296
1858.14000063164
1858.14000063054
1858.14000062963
1858.14000062892
1858.14000062839
1858.14000062805
1858.1400006279
1858.14000062794
1858.14000062817
1858.1400006286
1858.14000062925
1858.14000063012
1858.14000063124
1858.14000063261
1858.14000063426
1858.14000063621
1858.14000063847
1858.14000064107
1858.140000644
1858.14000064728
1858.14000065089
1858.14000065481
1858.14000065901
1858.14000066343
1858.14000066825
1858.14000067518
1858.14000069008
1858.1400007132
1858.14000069588
1858.14000064035
1858.14000063979
1858.14000070006
1858.14000071554
1858.14000069538
1858.14000068318
1858.14000067713
1858.14000067219
1858.14000066732
1858.1400006626
1858.14000065811
1858.14000065393
1858.14000065007
1858.14000064655
1858.14000064335
1858.14000064047
1858.1400006379
1858.14000063562
1858.14000063361
1858.14000063184
1858.14000063031
1858.14000062901
1858.14000062791
1858.14000062701
1858.1400006263
1858.14000062578
1858.14000062545
1858.1400006253
1858.14000062534
1858.14000062557
1858.140000626
1858.14000062665
1858.14000062752
1858.14000062864
1858.14000063001
1858.14000063166
1858.1400006336
1858.14000063586
1858.14000063844
1858.14000064138
1858.14000064465
1858.14000064827
1858.14000065221
1858.14000065643
1858.14000066088
1858.14000066574
1858.14000067269
1858.14000068755
1858.14000071032
1858.14000069139
1858.14000062948
1858.14000063823
1858.14000069961
1858.14000071522
1858.14000069496
1858.14000068264
1858.14000067647
1858.14000067144
1858.14000066651
1858.14000066174
1858.14000065723
1858.14000065304
1858.14000064918
1858.14000064566
1858.14000064248
1858.14000063962
1858.14000063707
1858.1400006348
1858.1400006328
1858.14000063105
1858.14000062954
1858.14000062825
1858.14000062716
1858.14000062627
1858.14000062557
1858.14000062506
1858.14000062473
1858.14000062459
1858.14000062463
1858.14000062486
1858.1400006253
1858.14000062594
1858.14000062681
1858.14000062792
1858.14000062928
1858.14000063092
1858.14000063285
1858.14000063511
1858.14000063769
1858.14000064062
1858.1400006439
1858.14000064753
1858.1400006515
1858.14000065577
1858.14000066029
1858.14000066524
1858.14000067232
1858.14000068733
1858.14000071022
1858.14000069116
1858.1400006277
1858.14000063872
1858.14000070035
1858.14000071567
1858.14000069511
1858.14000068255
1858.14000067619
1858.14000067102
1858.14000066599
1858.14000066115
1858.1400006566
1858.14000065239
1858.14000064854
1858.14000064503
1858.14000064186
1858.14000063903
1858.1400006365
1858.14000063425
1858.14000063228
1858.14000063055
1858.14000062906
1858.14000062778
1858.14000062671
1858.14000062584
1858.14000062515
1858.14000062465
1858.14000062433
1858.14000062419
1858.14000062423
1858.14000062446
1858.1400006249
1858.14000062554
1858.1400006264
1858.1400006275
1858.14000062885
1858.14000063048
1858.1400006324
1858.14000063464
1858.14000063722
1858.14000064014
1858.14000064343
1858.14000064709
1858.1400006511
1858.14000065543
1858.14000066006
1858.14000066515
1858.14000067242
1858.14000068768
1858.14000071089
1858.14000069213
1858.14000062831
1858.14000063992
1858.14000070159
1858.14000071643
1858.14000069543
1858.14000068253
1858.14000067592
1858.14000067057
1858.1400006654
1858.14000066048
1858.14000065588
1858.14000065166
1858.1400006478
1858.14000064431
1858.14000064116
1858.14000063835
1858.14000063585
1858.14000063364
1858.14000063169
1858.14000062999
1858.14000062852
1858.14000062727
1858.14000062622
1858.14000062536
1858.14000062469
1858.1400006242
1858.14000062388
1858.14000062375
1858.14000062379
1858.14000062403
1858.14000062446
1858.14000062509
1858.14000062594
1858.14000062703
1858.14000062837
1858.14000062998
1858.14000063189
1858.14000063411
1858.14000063668
1858.1400006396
1858.1400006429
1858.14000064658
1858.14000065065
1858.14000065508
1858.14000065984
1858.14000066512
1858.14000067265
1858.14000068824
1858.14000071191
1858.14000069364
1858.14000062973
1858.14000064157
1858.14000070321
1858.14000071741
1858.14000069584
1858.14000068251
1858.14000067559
1858.14000067
1858.14000066467
1858.14000065965
1858.14000065499
1858.14000065074
1858.14000064689
1858.14000064341
1858.1400006403
1858.14000063752
1858.14000063505
1858.14000063288
1858.14000063097
1858.1400006293
1858.14000062786
1858.14000062663
1858.14000062561
1858.14000062477
1858.14000062412
1858.14000062364
1858.14000062333
1858.1400006232
1858.14000062325
1858.14000062348
1858.1400006239
1858.14000062453
1858.14000062537
1858.14000062644
1858.14000062776
1858.14000062935
1858.14000063124
1858.14000063345
1858.140000636
1858.14000063892
1858.14000064222
1858.14000064594
1858.14000065007
1858.14000065461
1858.14000065953
1858.14000066505
1858.1400006729
1858.14000068893
1858.14000071318
1858.14000069556
1858.14000063165
1858.14000064365
1858.14000070523
1858.14000071861
1858.14000069632
1858.14000068247
1858.14000067515
1858.14000066929
1858.14000066377
1858.14000065863
1858.14000065391
1858.14000064963
1858.14000064578
1858.14000064233
1858.14000063925
1858.14000063652
1858.14000063409
1858.14000063196
1858.14000063009
1858.14000062846
1858.14000062706
1858.14000062586
1858.14000062487
1858.14000062405
1858.14000062341
1858.14000062295
1858.14000062266
1858.14000062253
1858.14000062258
1858.14000062281
1858.14000062323
1858.14000062384
1858.14000062467
1858.14000062572
1858.14000062702
1858.14000062859
1858.14000063045
1858.14000063263
1858.14000063516
1858.14000063807
1858.14000064138
1858.14000064513
1858.14000064933
1858.140000654
1858.14000065912
1858.14000066492
1858.14000067316
1858.14000068973
1858.14000071471
1858.14000069791
1858.14000063403
1858.1400006462
1858.14000070769
1858.14000072006
1858.14000069688
1858.14000068238
1858.1400006746
1858.14000066841
1858.14000066268
1858.1400006574
1858.14000065262
1858.14000064833
1858.14000064449
1858.14000064106
1858.14000063803
1858.14000063534
1858.14000063297
1858.14000063089
1858.14000062906
1858.14000062748
1858.14000062612
1858.14000062496
1858.14000062399
1858.1400006232
1858.14000062259
1858.14000062214
1858.14000062186
1858.14000062174
1858.14000062179
1858.14000062202
1858.14000062243
1858.14000062303
1858.14000062383
1858.14000062486
1858.14000062614
1858.14000062767
1858.1400006295
1858.14000063166
1858.14000063416
1858.14000063705
1858.14000064037
1858.14000064415
1858.14000064843
1858.14000065323
1858.14000065857
1858.1400006647
1858.14000067341
1858.14000069063
1858.14000071652
1858.14000070074
1858.14000063692
1858.14000064933
1858.14000071067
1858.14000072177
1858.14000069751
1858.14000068223
1858.14000067391
1858.14000066735
1858.14000066138
1858.14000065597
1858.14000065112
1858.14000064681
1858.14000064299
1858.14000063961
1858.14000063663
1858.140000634
1858.14000063168
1858.14000062966
1858.14000062789
1858.14000062636
1858.14000062504
1858.14000062392
1858.14000062299
1858.14000062223
1858.14000062164
1858.14000062121
1858.14000062094
1858.14000062083
1858.14000062089
1858.14000062111
1858.1400006215
1858.14000062209
1858.14000062288
1858.14000062388
1858.14000062512
1858.14000062662
1858.14000062841
1858.14000063053
1858.140000633
1858.14000063587
1858.14000063919
1858.140000643
1858.14000064735
1858.14000065229
1858.14000065788
1858.14000066438
1858.14000067363
1858.14000069164
1858.14000071862
1858.14000070412
1858.14000064041
1858.14000065316
1858.14000071428
1858.14000072379
1858.1400006982
1858.14000068199
1858.14000067305
1858.14000066608
1858.14000065986
1858.14000065431
1858.14000064941
1858.14000064509
1858.1400006413
1858.14000063797
1858.14000063505
1858.14000063249
1858.14000063024
1858.14000062828
1858.14000062658
1858.1400006251
1858.14000062384
1858.14000062276
1858.14000062187
1858.14000062114
1858.14000062057
1858.14000062017
1858.14000061991
1858.14000061981
1858.14000061986
1858.14000062008
1858.14000062047
1858.14000062103
1858.14000062179
1858.14000062277
1858.14000062397
1858.14000062543
1858.14000062718
1858.14000062925