/*--------------------------------*- C++ -*----------------------------------*\
  =========                 |
  \\      /  F ield         | OpenFOAM: The Open Source CFD Toolbox
   \\    /   O peration     | Website:  https://openfoam.org
    \\  /    A nd           | Version:  10
     \\/     M anipulation  |
\*---------------------------------------------------------------------------*/
FoamFile
{
    format      ascii;
    class       volScalarField;
    location    "4.2";
    object      k;
}
// * * * * * * * * * * * * * * * * * * * * * * * * * * * * * * * * * * * * * //

dimensions      [0 2 -2 0 0 0 0];

internalField   nonuniform List<scalar> 
2500
(
1.80393261664973e-09
3.49687491293032e-08
1.46621189471127e-07
2.45660400134034e-07
3.20068380840841e-07
3.69464985522135e-07
3.98734509072932e-07
4.143480350431e-07
4.2190920219171e-07
4.25259864739198e-07
4.26628627646079e-07
4.27147501939218e-07
4.27331069538441e-07
4.27391926348086e-07
4.27410843297353e-07
4.27416304233577e-07
4.2741769589786e-07
4.27417928231375e-07
4.27417867174967e-07
4.27417752629368e-07
4.27417639599046e-07
4.27417540375282e-07
4.27417456935541e-07
4.27417389086537e-07
4.274173367319e-07
4.27417300554625e-07
4.27417282270813e-07
4.27417283106702e-07
4.27417293822434e-07
4.27417307732298e-07
4.27417334450187e-07
4.27417349314657e-07
4.27417247414083e-07
4.27416648642847e-07
4.27414331739865e-07
4.27406407842662e-07
4.27381105398324e-07
4.27304746332159e-07
4.27086711420488e-07
4.26499274882434e-07
4.25012543328e-07
4.21497320149969e-07
4.13781807666938e-07
3.98172989579883e-07
3.69294694390823e-07
3.20840470794626e-07
2.47741738610127e-07
1.4953383687992e-07
3.64115097288166e-08
1.93489937802417e-09
4.39846178370389e-08
9.94450955606923e-07
4.25951854387534e-06
7.15017963517292e-06
9.33569413906884e-06
1.07994054531308e-05
1.1675732033902e-05
1.21485197422584e-05
1.23802053630693e-05
1.24841204771143e-05
1.25270842519591e-05
1.25435652690005e-05
1.25494639981308e-05
1.25514420618464e-05
1.25520641922598e-05
1.25522462783686e-05
1.25522938185125e-05
1.25523025670199e-05
1.2552301227039e-05
1.25522979583455e-05
1.25522946470904e-05
1.25522917250349e-05
1.25522892674629e-05
1.25522872728771e-05
1.25522857383568e-05
1.25522846831064e-05
1.25522841504429e-05
1.25522841889578e-05
1.25522845310581e-05
1.25522849433315e-05
1.25522857168044e-05
1.25522860092033e-05
1.2552282232541e-05
1.25522618004053e-05
1.25521848189858e-05
1.25519247311523e-05
1.2551102400425e-05
1.25486442938493e-05
1.25416933080345e-05
1.25231525645606e-05
1.24767112788446e-05
1.23680651349144e-05
1.21321527869697e-05
1.16599836399708e-05
1.07954735493345e-05
9.35899946273973e-06
7.21036792562851e-06
4.34232863565667e-06
1.03423503367634e-06
4.70111406631859e-08
1.53956871659852e-07
4.40761858521018e-06
2.12684713217381e-05
3.55437046748677e-05
4.62515316244639e-05
5.341352264297e-05
5.77139938980687e-05
6.00479611136809e-05
6.12007564262408e-05
6.17224938292153e-05
6.19402943553032e-05
6.20246761906552e-05
6.20551827413775e-05
6.20655180474811e-05
6.20688041324739e-05
6.20697786032555e-05
6.20700389287808e-05
6.20700909594203e-05
6.2070087427692e-05
6.20700727901186e-05
6.20700573931507e-05
6.20700436765031e-05
6.20700321022446e-05
6.20700226926083e-05
6.20700154409248e-05
6.20700104307159e-05
6.20700078507091e-05
6.20700079768354e-05
6.2070009479429e-05
6.20700113010553e-05
6.20700146444365e-05
6.20700150592781e-05
6.20699932864037e-05
6.20698837346514e-05
6.2069479449667e-05
6.20681258310811e-05
6.20638754282706e-05
6.20512514454947e-05
6.2015783892339e-05
6.1921808448962e-05
6.16880273174145e-05
6.11448956893975e-05
5.99734851578282e-05
5.76431986795489e-05
5.33966168074026e-05
4.63568033551578e-05
3.58136861162163e-05
2.16401226535024e-05
4.56416330156217e-06
1.62641746819139e-07
2.69149392510872e-07
7.75990136843692e-06
3.73938914009943e-05
6.20581348827899e-05
8.03751013162029e-05
9.25557682204639e-05
9.9851381700584e-05
0.000103810447786638
0.00010576893078388
0.000106657652425202
0.000107029905885672
0.000107174690768934
0.000107227261810074
0.000107245157351799
0.000107250878123378
0.000107252586450899
0.00010725304860814
0.00010725314476175
0.000107253141997128
0.000107253119035592
0.000107253094204788
0.000107253071914091
0.000107253053035844
0.000107253037639122
0.000107253025718378
0.000107253017397327
0.000107253012961389
0.000107253012873431
0.000107253014872004
0.000107253017877497
0.000107253023011401
0.000107253023158458
0.000107252985725141
0.000107252802055848
0.000107252125082365
0.000107249855216375
0.000107242713271124
0.000107221457176108
0.000107161623988945
0.000107002830165941
0.000106607270793192
0.000105687279114586
0.000103701092958188
9.97452853062278e-05
9.25229339330524e-05
8.05108496802549e-05
6.24220712737222e-05
3.78986156810713e-05
7.97160911578995e-06
2.80761208719789e-07
3.78043806644991e-07
1.09086446256501e-05
5.22612866531875e-05
8.6217264806099e-05
0.000111238161849377
0.000127802760617736
0.00013770569517109
0.000143079873646844
0.000145742028955836
0.000146952831582533
0.000147461489754762
0.000147660012298734
0.000147732376417596
0.000147757117370249
0.000147765066750203
0.000147767456581396
0.000147768111243919
0.000147768252843821
0.000147768254119686
0.000147768225980506
0.000147768194443829
0.000147768165860034
0.000147768141537207
0.000147768121613982
0.000147768106089262
0.000147768095100735
0.000147768088972486
0.000147768088198275
0.000147768090189753
0.00014776809406752
0.000147768100051497
0.000147768098885531
0.000147768047013447
0.000147767800459921
0.000147766893855106
0.000147763850924212
0.00014775425782873
0.000147725645470806
0.000147644941906603
0.000147430372979124
0.00014689505482946
0.000145648408861561
0.000142953952533412
0.000137581127954678
0.000127755828444536
0.000111372505039902
8.65976998477639e-05
5.27955390047788e-05
1.11373907136184e-05
3.90861401731923e-07
4.76613358398377e-07
1.37623459569465e-05
6.55717485518913e-05
0.000107637649214732
0.000138442417289764
0.000158766844852328
0.000170902036989138
0.000177489354137027
0.000180756861455197
0.000182246154068082
0.000182873499025564
0.000183119119728197
0.000183208973397943
0.000183239818838084
0.000183249777247072
0.00018325279048504
0.000183253626085822
0.000183253813754326
0.000183253822274812
0.000183253792031867
0.00018325375648866
0.000183253723875992
0.00018325369595528
0.000183253672955457
0.00018325365488365
0.000183253641870748
0.000183253634231805
0.000183253632371766
0.000183253633977347
0.000183253638192495
0.00018325364400708
0.000183253640292061
0.000183253574746639
0.000183253274494755
0.000183252175318562
0.000183248485460913
0.000183236835501781
0.000183202025264617
0.000183103665850717
0.00018284173823981
0.000182187379754638
0.000180661799061397
0.000177361302257234
0.000170773754231883
0.000158712290816878
0.000138561379781095
0.000107992264838708
6.60770066361314e-05
1.39862812076984e-05
4.89610447125015e-07
5.62832748387035e-07
1.62662320257876e-05
7.71533616528549e-05
0.000126132119312067
0.000161824582970855
0.00018531405732938
0.000199327613677666
0.000206937858492731
0.000210717781834038
0.000212444041139138
0.000213173010549887
0.000213459247505999
0.000213564304470975
0.000213600504257007
0.000213612243688264
0.000213615817665938
0.000213616820346224
0.000213617053689662
0.000213617072212353
0.000213617042562456
0.00021361700543609
0.000213616970835266
0.000213616940982859
0.000213616916215468
0.000213616896553525
0.000213616882108628
0.000213616873156609
0.000213616869978997
0.000213616870871856
0.000213616874773021
0.000213616879479844
0.000213616872123749
0.000213616793480817
0.000213616447455449
0.000213615188326625
0.000213610964025727
0.000213597612422598
0.000213557657865416
0.000213444592072729
0.000213143090198669
0.000212388990866747
0.000210629207669249
0.000206819060746013
0.000199208713506194
0.000185261896050111
0.000161927933857113
0.000126445201622553
7.76033389382881e-05
1.64744263984534e-05
5.75439383858489e-07
6.35885750387866e-07
1.83963976278047e-05
8.69532947840562e-05
0.000141688430317896
0.000181426036747139
0.000207529373840307
0.000223095229619156
0.000231553116696989
0.000235759436320332
0.000237683939764083
0.000238498462149702
0.000238819134667316
0.000238937183003054
0.000238977998663395
0.000238991289640242
0.000238995359115864
0.000238996513082469
0.000238996790651324
0.000238996821327234
0.000238996794313268
0.000238996757588443
0.000238996722686719
0.000238996692285341
0.000238996666840675
0.000238996646392815
0.000238996631028034
0.000238996620962927
0.000238996616345878
0.000238996616260561
0.000238996619290232
0.000238996622214081
0.000238996610335882
0.000238996518965458
0.000238996134363221
0.000238994744081827
0.000238990084977702
0.00023897534850075
0.000238931196003636
0.000238806091819223
0.000238472101850927
0.000237635926642326
0.000235683074632038
0.000231452266993178
0.000222996996913507
0.000207491526449016
0.000181522917206034
0.000141963026471486
8.7344451621587e-05
1.85855929911666e-05
6.47859099186493e-07
6.95916088510931e-07
2.01552773728122e-05
9.50216606069929e-05
0.000154440060768525
0.000197455632699647
0.00022567560192406
0.000242500449480629
0.000251648049896855
0.000256202889244636
0.000258290324378446
0.000259175607021494
0.000259524962685565
0.000259653916810295
0.000259698641243678
0.000259713259704174
0.00025971775904806
0.000259719047119063
0.000259719366642639
0.000259719411107215
0.00025971938774466
0.00025971935288448
0.00025971931896006
0.000259719289067231
0.000259719263786949
0.00025971924318563
0.000259719227324616
0.000259719216363507
0.000259719210383618
0.000259719208996639
0.00025971921036535
0.000259719211047772
0.000259719193785936
0.000259719091060672
0.000259718674271493
0.000259717178083073
0.000259712171229882
0.000259696327785973
0.000259648812421702
0.000259514037743313
0.000259153882003685
0.000258251462300851
0.000256142538415414
0.000251571337004422
0.000242431976406119
0.000225664064392764
0.000197560158969227
0.000154690558556611
9.53648976297635e-05
2.03272759083145e-05
7.07239631080999e-07
7.43803398486725e-07
2.15660309675684e-05
0.000101488383173394
0.000164629761978905
0.000210245562568141
0.000240145359659969
0.000257971731202563
0.00026767004681298
0.000272504510395356
0.000274723414274419
0.000275666161149226
0.000276038976170705
0.000276176919542868
0.000276224893834068
0.000276240627290807
0.000276245492623346
0.000276246897179451
0.00027624725504801
0.000276247313162277
0.000276247295099184
0.000276247263097327
0.000276247231026358
0.000276247202379327
0.000276247177861898
0.00027624715757234
0.00027624714155341
0.000276247129917862
0.000276247122715492
0.000276247119646182
0.000276247119048777
0.000276247117034407
0.000276247094492381
0.000276246981843932
0.000276246538346137
0.000276244958062236
0.000276239678174455
0.000276222966803577
0.000276172810143061
0.000276030421034038
0.000275649613733417
0.000274694808683674
0.000272462293417348
0.000267621310709482
0.000257939556845447
0.000240170548390825
0.000210372931109983
0.000164875422726572
0.000101801875957996
2.17254502420489e-05
7.54597581867938e-07
7.80921410824703e-07
2.26660938368701e-05
0.000106536804145703
0.000172570286501454
0.000220204806394295
0.00025141072616491
0.000270018169027784
0.000280147774561092
0.000285202345681568
0.000287525346520525
0.000288513892814488
0.000288905539637456
0.000289050755576638
0.000289101381876161
0.000289118034414211
0.000289123205445682
0.000289124709332402
0.000289125101151179
0.00028912517246782
0.000289125160244351
0.000289125131636309
0.000289125101928928
0.000289125074974418
0.000289125051597333
0.000289125031931426
0.000289125016008595
0.000289125003902951
0.000289124995634903
0.00028912499090514
0.000289124988292358
0.000289124983140367
0.000289124955725826
0.000289124834586619
0.000289124369400492
0.000289122723538468
0.000289117233430282
0.000289099855228801
0.000289047666485766
0.000288899406040218
0.000288502639859234
0.000287507280738661
0.000285178966076572
0.000280128712439115
0.000270026095893795
0.000251480279447435
0.000220368325326432
0.000172830238411391
0.000106840359530152
2.28185453308179e-05
7.91368313946126e-07
8.08902638899124e-07
2.35007411358748e-05
0.000110377866825305
0.000178607073245665
0.000227775351115554
0.000259975990184562
0.000279180434090916
0.000289641205329411
0.000294865700832314
0.000297269556451861
0.000298293915692067
0.000298700395551447
0.000298851384995979
0.000298904134898578
0.000298921530760308
0.000298926952224641
0.000298928539179356
0.000298928960396276
0.00029892904382749
0.000298929037377739
0.00029892901233942
0.000298928985208238
0.000298928960155928
0.000298928938116419
0.000298928919259924
0.000298928903614676
0.000298928891224693
0.000298928882083738
0.000298928875896747
0.000298928871293038
0.000298928863188868
0.000298928831582413
0.000298928703069822
0.000298928220613933
0.00029892652458724
0.000298920875891389
0.000298902996040392
0.00029884927700778
0.00029869658603063
0.000298287752648174
0.000297261677546277
0.000294860717621072
0.000289651662871045
0.000279229597852722
0.000260094162117868
0.00022798459971361
0.000178897005046403
0.00011068904074465
2.36515216991828e-05
8.1919013318958e-07
8.29437001302486e-07
2.41174623600751e-05
0.000113227854028203
0.00018308662747042
0.000233395313129667
0.000266337895280707
0.00028598947956578
0.000296699522374814
0.000302052650852603
0.000304518101263172
0.000305569930788127
0.000305987872764098
0.000306143359205952
0.00030619777755652
0.00030621576321778
0.000306221385873588
0.000306223040836282
0.000306223486817425
0.000306223580932321
0.00030622357998259
0.000306223558431086
0.000306223533865594
0.000306223510745089
0.000306223490101883
0.000306223472141449
0.000306223456893714
0.000306223444381392
0.000306223434573753
0.000306223427170098
0.000306223420802738
0.000306223410181487
0.000306223374939136
0.000306223240309014
0.000306222744398401
0.000306221010766717
0.000306215244927558
0.000306196995754514
0.000306142149248921
0.000305986187855146
0.000305568429869407
0.000304519601816476
0.000302064768341044
0.000296737866788819
0.000286078669790951
0.000266505536331904
0.000233655405978441
0.000183417131639173
0.000113559805063092
2.4270780422181e-05
8.39723598597526e-07
8.44121282811871e-07
2.45616521820564e-05
0.000115291436188145
0.000186332771460499
0.000237471388582992
0.000270955983462441
0.000290935731288496
0.000301829696366664
0.000307278303085292
0.000309789772141167
0.000310862270418882
0.000311288901736175
0.000311447824820637
0.0003115035293388
0.000311521974142002
0.000311527755323606
0.000311529464815306
0.000311529931130564
0.0003115300343972
0.00031153003844437
0.000311530020115119
0.000311529997954986
0.000311529976673554
0.000311529957389804
0.000311529940341844
0.000311529925564589
0.000311529913066696
0.000311529902796954
0.000311529894443178
0.000311529886625323
0.000311529873933541
0.000311529835697645
0.000311529696181288
0.000311529190036897
0.000311527428809288
0.00031152157828713
0.000311503063113193
0.000311447404107957
0.000311289081796342
0.000310864869265088
0.00030979956019836
0.000307305659647882
0.00030189323956528
0.000291061901295606
0.000271170991777545
0.000237783146441445
0.00018670905562118
0.000115652248161337
2.47203231457601e-05
8.54519945970977e-07
8.54363918037947e-07
2.48737881637103e-05
0.000116750582330352
0.000188631373347732
0.000240361292567083
0.000274233760637889
0.000294449538982514
0.000305476541604136
0.000310994643100416
0.000313539834279184
0.000314627588348503
0.000315060682764118
0.000315222182904468
0.000315278860356478
0.000315297655888477
0.000315303559605958
0.000315305311947156
0.000315305794568804
0.000315305905462925
0.000315305913883643
0.000315305898399824
0.000315305878397849
0.000315305858790302
0.000315305840770837
0.000315305824606051
0.000315305810337605
0.000315305797965664
0.000315305787423028
0.000315305778384218
0.000315305769452509
0.000315305755140593
0.000315305714556115
0.000315305571279569
0.000315305057552326
0.000315303276521785
0.000315297366113385
0.000315278663543981
0.000315222431888141
0.000315062442810452
0.000314633665321312
0.000313556682363018
0.000311035078077415
0.000305561967742689
0.000294608410645807
0.000274491826550951
0.000240722023346058
0.000189053926313426
0.000117143642992967
2.50392761045269e-05
8.64940362622883e-07
8.61339626813395e-07
2.5087987733538e-05
0.000117758904765201
0.00019022286537546
0.000242365370114126
0.00027650981731762
0.000296892007996523
0.000308013371438734
0.000313581085343254
0.000316150519170714
0.000317249322097375
0.000317687134107733
0.000317850530901864
0.000317907930745899
0.000317926989241271
0.000317932985908458
0.000317934771264651
0.000317935266683012
0.00031793538382035
0.000317935395970237
0.00031793538287687
0.000317935364749098
0.000317935346619232
0.000317935329741611
0.000317935314406834
0.000317935300663488
0.000317935288507098
0.000317935277858793
0.000317935268380658
0.00031793525865933
0.000317935243154751
0.000317935200819909
0.000317935054763541
0.000317934535578944
0.000317932740671681
0.000317926788852295
0.000317907957161421
0.000317851330747323
0.000317690190769458
0.000317258255566535
0.000316173185059038
0.000313632365176147
0.00030811712387417
0.000297078674390372
0.000276805273933003
0.000242769946120896
0.000190688640219115
0.00011818389262659
2.52606537616462e-05
8.72119455747321e-07
8.65982681700979e-07
2.5231665912703e-05
0.000118440388815524
0.000191301032591532
0.000243725599764967
0.000278056991812612
0.000298554234868842
0.000309741247922574
0.000315343712211586
0.000317930248852412
0.000319036905929511
0.000319478098305439
0.000319642865559807
0.000319700792042772
0.00031972004412979
0.000319726110025863
0.000319727920350553
0.00031972842561047
0.000319728547854929
0.000319728563172028
0.000319728551897385
0.000319728535356057
0.000319728518504998
0.000319728502641149
0.000319728488074083
0.000319728474858617
0.000319728462988046
0.000319728452375472
0.000319728442672524
0.000319728432451402
0.000319728416135451
0.000319728372573337
0.000319728224555359
0.000319727701572498
0.000319725897189269
0.000319719917388178
0.000319700998689075
0.000319644106079738
0.000319482188665019
0.000319048116518161
0.000317957564196917
0.000315403703413925
0.000309859842144662
0.000298763682970815
0.000278383615607393
0.000244167564211066
0.000191804770506496
0.000118894477243315
2.54110988831394e-05
8.76962421134222e-07
8.69005797354076e-07
2.53259495722613e-05
0.000118891194720405
0.000192016191854477
0.000244629781519148
0.00027908718695745
0.000299662463640131
0.000310894296828824
0.000316520652111136
0.000319119034144831
0.000320231173376796
0.000320674744459377
0.000320840484309444
0.000320898787917847
0.000320918180014551
0.000320924296573725
0.000320926125460128
0.000320926638134418
0.000320926764345548
0.000320926782146751
0.000320926772550552
0.00032092675734547
0.000320926741592425
0.000320926726624064
0.000320926712764537
0.000320926700073928
0.000320926688544713
0.000320926678084715
0.000320926668337407
0.000320926657863512
0.000320926641060935
0.000320926596709516
0.000320926447390166
0.000320925921872772
0.000320924111208572
0.000320918112958068
0.00032089913694386
0.000320842068744821
0.000320679637477827
0.000320244150115797
0.000319149961237905
0.000316587437378499
0.000311024542988305
0.000299889970841206
0.000279438846394466
0.000245102301034273
0.000192551621732706
0.000119370192022512
2.55112892543978e-05
8.80164206501046e-07
8.70932778740127e-07
2.53865217493463e-05
0.00011918325730073
0.000192480931504045
0.000245218748381794
0.000279759490165181
0.00030038671015934
0.000311648583298053
0.000317291067265395
0.000319897507014368
0.00032101340514945
0.000321458620761742
0.000321625038845851
0.000321683607852888
0.000321703099480055
0.000321709252499393
0.000321711094971498
0.000321711613169732
0.000321711742381394
0.000321711762218189
0.0003217117540498
0.000321711739969154
0.000321711725160107
0.000321711710985528
0.000321711697780629
0.00032171168560953
0.000321711674464885
0.000321711664251103
0.00032171165460573
0.000321711644080791
0.000321711627056909
0.000321711582269499
0.000321711432165326
0.000321710905054108
0.000321709090380386
0.000321703080298227
0.000321684067423961
0.000321626885984707
0.000321464122446696
0.000321027717835452
0.000319931167390078
0.00031736300879578
0.000311787718476929
0.000300628100674716
0.000280130597803151
0.000245715318856743
0.000193041701130609
0.000119682523578639
2.55767231947033e-05
8.82240332415936e-07
8.72135731920742e-07
2.54246335934619e-05
0.000119368628068826
0.000192776886941179
0.000245594790140978
0.000280189617010504
0.000300850780772045
0.000312132425540459
0.000317785604922866
0.000320397429979678
0.000321515860876854
0.000321962193971324
0.000322129076991167
0.000322187829633302
0.000322207390848665
0.000322213569693332
0.00032221542196888
0.000322215944259024
0.00032221607575216
0.000322216097222709
0.000322216090248305
0.000322216077119487
0.000322216063129942
0.000322216049667255
0.000322216037074554
0.000322216025418952
0.00032221601469357
0.000322216004800957
0.000322215995374588
0.000322215984960073
0.000322215967926617
0.000322215922981732
0.00032221577248916
0.000322215244473678
0.000322213427379922
0.000322207409976865
0.000322188374050176
0.000322131121365208
0.000321968147905351
0.000321531161943793
0.000320433110953974
0.000317861364735135
0.000312278168648802
0.000301102554081414
0.000280575388323582
0.000246109679855338
0.000193357185088421
0.000119883714005458
2.56186541669663e-05
8.83561458568625e-07
8.7287073941811e-07
2.54481030308942e-05
0.000119483807411075
0.00019296145610631
0.000245829978735903
0.000280459238444188
0.000301142171619561
0.000312436593192303
0.000318096738741521
0.000320712100129179
0.000321832208264996
0.000322279287828072
0.000322446484230428
0.000322505361839409
0.000322524970929164
0.000322531167792449
0.000322533027051331
0.000322533552350809
0.000322533685587308
0.000322533708370592
0.00032253370239652
0.000322533690082193
0.000322533676814175
0.000322533663999107
0.000322533651985615
0.000322533640842619
0.000322533630564142
0.000322533621051858
0.000322533611936532
0.000322533601759394
0.000322533584882138
0.000322533539995723
0.00032253338941526
0.000322532860996946
0.000322531042586609
0.000322525020902461
0.000322505971110023
0.000322448674998682
0.000322285572580787
0.000321848227565604
0.000320749246097678
0.000318175268276668
0.000312587142170938
0.00030140153064145
0.00028085579113743
0.000246358443756613
0.000193556355076774
0.000120010832523973
2.56450159217048e-05
8.84386479457368e-07
8.73308629002431e-07
2.5462194239657e-05
0.0001195536062183
0.000193073778210664
0.000245973580721729
0.000280624291830911
0.000301320898479441
0.000312623412412002
0.000318288008027998
0.00032090564849315
0.000322026847304714
0.000322474416740432
0.000322641820747935
0.000322700781976653
0.000322720423474413
0.000322726632726395
0.000322728496901534
0.00032272902440365
0.000322729158981771
0.000322729182825782
0.000322729177695672
0.000322729166087487
0.000322729153464941
0.000322729141248533
0.000322729129790016
0.000322729119158999
0.000322729109350568
0.000322729100266843
0.000322729091536486
0.00032272908169777
0.000322729065107872
0.000322729020448938
0.000322728870010621
0.000322728341558879
0.000322726522606531
0.000322720498700181
0.0003227014411483
0.000322644119938219
0.000322480941668998
0.000322043383064289
0.000320943843627994
0.000318368519533887
0.000312777405258741
0.000301585711170819
0.000281028633367177
0.000246511913085375
0.000193679363429081
0.000120089432882696
2.56612440588883e-05
8.84891239395001e-07
8.73559517679763e-07
2.54703311043896e-05
0.000119594317204732
0.000193139649480208
0.00024605816037258
0.000280721833987947
0.000301426787278398
0.000312734291505646
0.000318401659735179
0.000321020735188336
0.000322142627841798
0.000322590512141163
0.000322758050989112
0.000322817067130098
0.000322836730183922
0.000322842947822879
0.000322844815419142
0.000322845344530076
0.000322845480149626
0.000322845504854455
0.00032284550043817
0.00032284548944811
0.000322845477410663
0.000322845465754677
0.000322845454833257
0.00032284544471449
0.000322845435394939
0.000322845426779285
0.000322845418493967
0.000322845409075218
0.000322845392877869
0.000322845348580689
0.000322845198464859
0.000322844670261011
0.000322842851332356
0.000322836826649071
0.000322817765510358
0.000322760431513271
0.000322597212665594
0.000322159536321499
0.000321059682955404
0.00031848359010981
0.000312890750417698
0.00030169551360906
0.000281131785486646
0.000246603634177748
0.000193753012301299
0.000120136588811655
2.56709508271929e-05
8.85191706228902e-07
8.73691095695058e-07
2.54746361638885e-05
0.000119616138476471
0.000193175289015275
0.000246104265457695
0.00028077531268712
0.000301485090730223
0.000312795525292062
0.000318464547043329
0.000321084491750919
0.000322206810690833
0.000322654891122107
0.000322822515111308
0.000322881566404659
0.000322901243472978
0.00032290746668137
0.00032290933662529
0.000322909866902364
0.000322910003336018
0.000322910028757553
0.000322910024942494
0.000322910014498043
0.000322910002997467
0.000322909991873051
0.000322909981478326
0.000322909971873948
0.000322909963058717
0.00032290995494562
0.000322909947157031
0.000322909938227287
0.000322909922510471
0.000322909878686601
0.000322909729041992
0.000322909201315497
0.000322907382860747
0.000322901358511725
0.000322882296884689
0.000322824958979349
0.000322661724396588
0.000322223996562237
0.000321123995435533
0.000318547522471994
0.00031295379932707
0.000301756701347338
0.000281189410252912
0.000246655038277934
0.00019379445194855
0.000120163245032629
2.56764431895569e-05
8.85361544814866e-07
8.7374128847386e-07
2.54763079209427e-05
0.000119624887350192
0.000193190008216221
0.000246123751586091
0.000280798314810648
0.000301510491024013
0.000312822438863304
0.000318492345337852
0.000321112771637071
0.000322235333432675
0.000322683528693385
0.000322851203899437
0.000322910276966097
0.000322929963051809
0.000322936190066187
0.000322938061777042
0.000322938593048474
0.000322938730264394
0.000322938756401708
0.000322938753186277
0.000322938743301921
0.00032293873235077
0.000322938721764985
0.000322938711897785
0.00032293870281028
0.000322938694502553
0.000322938686887702
0.00032293867958644
0.000322938671132096
0.000322938655878511
0.000322938612509932
0.000322938463329818
0.000322937936125433
0.000322936118367493
0.000322930095136946
0.000322911035474832
0.000322853700823493
0.000322690470247824
0.000322252742296069
0.000321152719082755
0.000318576153404209
0.000312982157753894
0.000301784399987181
0.000281215724384285
0.000246678771571339
0.000193813837625003
0.000120175908387634
2.56790934138991e-05
8.85444455607803e-07
8.73725647910928e-07
2.5475844391195e-05
0.000119623062235096
0.000193187898008684
0.000246121906258763
0.000280796968259723
0.000301509664569607
0.000312822041136253
0.000318492250571787
0.000321112866718882
0.000322235535803491
0.000322683786883253
0.000322851489142217
0.00032291057472006
0.000322930266557838
0.000322936496386558
0.000322938369678738
0.000322938902011226
0.000322939040129121
0.000322939067101151
0.000322939064622562
0.000322939055395517
0.000322939045062355
0.00032293903505694
0.000322939025732847
0.000322939017161062
0.000322939009340132
0.00032293900217418
0.00032293899528667
0.000322938987208784
0.000322938972293623
0.000322938929232163
0.000322938780357819
0.000322938253551466
0.000322936436542167
0.000322930415070621
0.000322911359746286
0.000322854035454984
0.000322690828156725
0.000322253148766964
0.000321153218716852
0.000318576815704487
0.000312983075172132
0.000301785669796996
0.000281217407150013
0.000246680825156559
0.000193816032478327
0.00012017773574934
2.56795769596075e-05
8.85462239710624e-07
8.73641236434917e-07
2.5473166824612e-05
0.000119610378696791
0.000193168638732363
0.000246098460059803
0.000280771086699883
0.000301482510429656
0.000312794302166085
0.000318464283472965
0.000321084829340558
0.000322207488465619
0.000322655745475497
0.00032282345480624
0.000322882545348458
0.000322902240264548
0.000322908472042502
0.000322910346686479
0.000322910880051919
0.00032291101908105
0.000322911046927882
0.000322911045243566
0.000322911036708421
0.000322911027015028
0.000322911017602622
0.000322911008826822
0.000322911000762601
0.000322910993408716
0.000322910986666353
0.000322910980157682
0.000322910972411362
0.000322910957780288
0.000322910914967232
0.000322910766354806
0.000322910239980062
0.000322908424018068
0.000322902405401402
0.000322883357740611
0.000322826053012566
0.000322662892820633
0.000322225320084504
0.000321125616465479
0.000318549662898609
0.000312956754006364
0.000301760779621474
0.000281194802721577
0.000246661606674631
0.000193801461936321
0.000120169065516994
2.56779795957736e-05
8.85417852467031e-07
8.73467370338951e-07
2.54676276171955e-05
0.000119583758406543
0.000193127472953642
0.000246047553525231
0.000280714142437015
0.000301422133173753
0.000312732145121532
0.000318401288369051
0.000321021476595687
0.000322143998965442
0.000322592209711881
0.000322759905873682
0.000322818993920096
0.000322838689269049
0.000322844922075304
0.000322846797744432
0.00032284733201215
0.000322847471870453
0.000322847500542806
0.000322847499625223
0.00032284749175579
0.000322847482679309
0.000322847473841467
0.000322847465600315
0.000322847458033564
0.000322847451140758
0.0003228474448217
0.000322847438696749
0.000322847431292238
0.000322847416963053
0.000322847374432261
0.00032284722616084
0.000322846700432138
0.000322844886133496
0.000322838872138372
0.000322819837055459
0.000322762564987399
0.000322599485114219
0.000322162098780557
0.000321062802085471
0.000318487681289199
0.00031289636469508
0.000301703226469796
0.000281141945661609
0.000246615971366259
0.000193766144403249
0.000120147460517898
2.56738245933683e-05
8.85297610652468e-07
8.73160127108308e-07
2.54578618605117e-05
0.000119536768463027