/*--------------------------------*- C++ -*----------------------------------*\
  =========                 |
  \\      /  F ield         | OpenFOAM: The Open Source CFD Toolbox
   \\    /   O peration     | Website:  https://openfoam.org
    \\  /    A nd           | Version:  10
     \\/     M anipulation  |
\*---------------------------------------------------------------------------*/
FoamFile
{
    format      ascii;
    class       volScalarField;
    location    "4.2";
    object      nut;
}
// * * * * * * * * * * * * * * * * * * * * * * * * * * * * * * * * * * * * * //

dimensions      [0 2 -1 0 0 0 0];

internalField   nonuniform List<scalar> 
2500
(
1.40723680066299e-14
2.72758567929071e-13
1.14370419175423e-12
1.91629457103806e-12
2.49674758297406e-12
2.88208821498906e-12
3.11041770227728e-12
3.23221727679985e-12
3.2912010103599e-12
3.31733904203803e-12
3.32801655760321e-12
3.33206421911789e-12
3.33349620547131e-12
3.33397095138489e-12
3.33411853169457e-12
3.33416114599196e-12
3.33417200940649e-12
3.33417383104065e-12
3.33417336526996e-12
3.33417247892437e-12
3.33417160353342e-12
3.33417083515747e-12
3.33417018902149e-12
3.33416966247089e-12
3.33416925706898e-12
3.33416897773192e-12
3.33416883612097e-12
3.33416884337161e-12
3.33416892707851e-12
3.33416903464976e-12
3.33416924140741e-12
3.33416935415433e-12
3.33416855509067e-12
3.33416387894243e-12
3.3341457995891e-12
3.33408398045539e-12
3.33388659371247e-12
3.33329092554373e-12
3.33159006322603e-12
3.3270075627475e-12
3.31540979772801e-12
3.28798803298094e-12
3.22780024219444e-12
3.10603732717725e-12
2.88075964678253e-12
2.50277031239597e-12
1.93253031229475e-12
1.16642402942615e-12
2.84012049195797e-13
1.50940371148505e-14
1.37936467121177e-12
7.01835079740626e-11
3.0067064417366e-10
5.04767698687981e-10
6.59087895123593e-10
7.62442598780231e-10
8.24320834400918e-10
8.57704378481314e-10
8.7406347290709e-10
8.81400722957388e-10
8.84434282865408e-10
8.85597954871427e-10
8.86014442682028e-10
8.86154106910156e-10
8.86198034318305e-10
8.86210892278026e-10
8.86214249906619e-10
8.8621486881025e-10
8.86214775585969e-10
8.86214545901023e-10
8.86214313185638e-10
8.86214107989616e-10
8.86213935465569e-10
8.86213795198115e-10
8.86213687319263e-10
8.86213613324737e-10
8.86213575920986e-10
8.86213578809364e-10
8.86213603210045e-10
8.86213632212296e-10
8.86213686660555e-10
8.86213707135289e-10
8.86213439545323e-10
8.86211995704348e-10
8.86206559697863e-10
8.86188195534453e-10
8.86130133657604e-10
8.85956576174501e-10
8.85465791394519e-10
8.84156686652174e-10
8.80877582062965e-10
8.73206262785282e-10
8.56548682033698e-10
8.23208739228245e-10
7.62164756918377e-10
6.60733117499616e-10
5.09016797090151e-10
3.06516005713471e-10
7.29910574625449e-11
1.47427670111539e-12
4.84826097726346e-12
1.24956734977676e-09
4.1882067061931e-07
7.00017515806921e-07
9.10960443636838e-07
1.05205299916011e-06
1.13677232744533e-06
1.18275074223425e-06
1.20546004399904e-06
1.21573775904193e-06
1.22002815836439e-06
1.22169035709905e-06
1.2222912857652e-06
1.22249487316103e-06
1.22255960342472e-06
1.22257879933466e-06
1.22258392767787e-06
1.22258495318021e-06
1.22258488439742e-06
1.22258459676907e-06
1.22258429428473e-06
1.22258402507907e-06
1.22258379804412e-06
1.22258361323123e-06
1.22258347073383e-06
1.2225833724708e-06
1.22258332179932e-06
1.22258332443135e-06
1.22258335442866e-06
1.22258339034184e-06
1.22258345619735e-06
1.22258346449598e-06
1.22258303456379e-06
1.22258087525153e-06
1.22257291139979e-06
1.22254624789887e-06
1.22246252282563e-06
1.22221385265906e-06
1.22151519928075e-06
1.21966401821309e-06
1.21505881304756e-06
1.20435962909841e-06
1.1812835675109e-06
1.13537756146824e-06
1.05171968246271e-06
9.1303372799752e-07
7.05334773044682e-07
4.26138968297319e-07
1.29394112145955e-09
5.12172127218141e-12
8.50269352142428e-12
2.2068970592759e-09
7.38664672364518e-07
1.22599771344688e-06
1.58793875855234e-06
1.82862859886706e-06
1.97278821442636e-06
2.05101725561599e-06
2.08971527787273e-06
2.1072754706467e-06
2.11463072745023e-06
2.11749146926017e-06
2.11853018977558e-06
2.11888377534407e-06
2.11899680773162e-06
2.11903056122304e-06
2.11903969243895e-06
2.11904159234144e-06
2.11904153802333e-06
2.11904108472755e-06
2.11904059470072e-06
2.1190401551951e-06
2.11903978321363e-06
2.11903947960536e-06
2.11903924434671e-06
2.11903908030421e-06
2.11903899276647e-06
2.11903899113244e-06
2.11903903101635e-06
2.11903909045559e-06
2.11903919199268e-06
2.11903919539316e-06
2.11903845472954e-06
2.11903482433792e-06
2.11902144865509e-06
2.11897660082184e-06
2.11883548903439e-06
2.11841550476151e-06
2.11723329537446e-06
2.11409575740434e-06
2.10628000317148e-06
2.08810193307823e-06
2.0488564773318e-06
1.97069172639761e-06
1.82797956624561e-06
1.59062051802998e-06
1.23318737446577e-06
7.48633834143332e-07
2.26709186942996e-09
8.86940858614044e-12
1.19675819804074e-11
3.10862358565171e-09
1.03435949552029e-06
1.70653282233766e-06
2.20184946642155e-06
2.52976408185908e-06
2.72580181238341e-06
2.8321875281324e-06
2.88488631373517e-06
2.90885461483559e-06
2.91892363677235e-06
2.92285342292428e-06
2.92428587570087e-06
2.92477562272197e-06
2.92493297983339e-06
2.92498028566314e-06
2.92499324415333e-06
2.92499604689837e-06
2.9249960720917e-06
2.92499551508996e-06
2.92499489102533e-06
2.92499432575853e-06
2.92499384505556e-06
2.92499345115774e-06
2.92499314394745e-06
2.9249929265635e-06
2.92499280528025e-06
2.92499278999378e-06
2.92499282964967e-06
2.92499290646422e-06
2.92499302508507e-06
2.92499300265388e-06
2.92499197517743e-06
2.92498709388386e-06
2.92496914811674e-06
2.92490891408504e-06
2.9247190197999e-06
2.92415263880175e-06
2.92255510684536e-06
2.91830768314277e-06
2.9077109250739e-06
2.88303309297457e-06
2.82969488135079e-06
2.72333592585158e-06
2.52883494439717e-06
2.20450858204568e-06
1.7140626872223e-06
1.044932168899e-06
3.17379140865222e-09
1.23731701660803e-11
1.51060583381164e-11
3.92624512192195e-09
1.29918798918936e-06
2.13272906120573e-06
2.74313970039742e-06
3.14587670801047e-06
3.38633911831955e-06
3.51686796801134e-06
3.58161387877153e-06
3.61112421047933e-06
3.62355501203865e-06
3.62842195873124e-06
3.63020239468936e-06
3.63081359067051e-06
3.63101091355605e-06
3.63107061938594e-06
3.63108717612778e-06
3.63109089439411e-06
3.63109106304909e-06
3.63109046378542e-06
3.63108975951081e-06
3.63108911345857e-06
3.63108856069438e-06
3.63108810524165e-06
3.63108774710149e-06
3.63108748922913e-06
3.63108733783516e-06
3.63108730098911e-06
3.63108733291869e-06
3.63108741648705e-06
3.63108753187273e-06
3.6310874588101e-06
3.63108615972034e-06
3.63108020998319e-06
3.6310584304434e-06
3.63098531722245e-06
3.63075447649379e-06
3.63006471929373e-06
3.62811574444012e-06
3.62292568187861e-06
3.60995961610598e-06
3.57973024525331e-06
3.51433065422621e-06
3.38379723000014e-06
3.14479574759312e-06
2.74549690253229e-06
2.13975525691134e-06
1.30919769123695e-06
3.99011565812245e-09
1.55178173155949e-11
1.78498606374063e-11
4.64319444547359e-09
1.52946333985416e-06
2.50044889691618e-06
3.20804382515216e-06
3.67371642133664e-06
3.95153051328638e-06
4.10240063069016e-06
4.17733595071751e-06
4.21155822118778e-06
4.22600967348545e-06
4.23168417084088e-06
4.23376686757687e-06
4.23448450751886e-06
4.23471723432232e-06
4.2347880858238e-06
4.23480796300734e-06
4.23481258862421e-06
4.2348129556549e-06
4.23481236783794e-06
4.23481163177559e-06
4.23481094584067e-06
4.23481035427658e-06
4.23480986339855e-06
4.2348094735264e-06
4.23480918710652e-06
4.23480900960551e-06
4.23480894660217e-06
4.2348089643474e-06
4.23480904172286e-06
4.23480913515602e-06
4.23480898968772e-06
4.23480743052098e-06
4.23480057068543e-06
4.23477560946102e-06
4.2346918653961e-06
4.23442717800846e-06
4.2336351021332e-06
4.23139363560437e-06
4.22541652191885e-06
4.21046688704148e-06
4.17558002979541e-06
4.1000455527841e-06
3.94917341990603e-06
3.6726824168456e-06
3.21009277585246e-06
2.50665543723161e-06
1.53838286282792e-06
4.70261244769268e-09
1.8249530271443e-11
2.01726459925664e-11
5.25260782631681e-09
1.72414399411279e-06
2.80947723345217e-06
3.5974294138964e-06
4.11502874078002e-06
4.42368135313821e-06
4.59139107810536e-06
4.67479725080034e-06
4.71295777114504e-06
4.72910873243468e-06
4.7354672648493e-06
4.7378080135953e-06
4.73861733580799e-06
4.73888087844977e-06
4.73896157062665e-06
4.73898445207793e-06
4.73898995573394e-06
4.73899056387829e-06
4.73899002817992e-06
4.73898929993998e-06
4.73898860787575e-06
4.73898800513924e-06
4.73898750063557e-06
4.73898709511556e-06
4.73898679040935e-06
4.73898659081062e-06
4.73898649924831e-06
4.73898649757266e-06
4.73898655767256e-06
4.73898661571855e-06
4.73898638038752e-06
4.73898456860326e-06
4.73897694243275e-06
4.73894937508674e-06
4.73885699116097e-06
4.73856478597365e-06
4.73768929866212e-06
4.73520864185039e-06
4.72858604259945e-06
4.7120057359657e-06
4.67328310383518e-06
4.589391372399e-06
4.42173355334406e-06
4.11427833231498e-06
3.59935051837477e-06
2.81492213038728e-06
1.73189966891981e-06
5.30662107682561e-09
2.05523923141868e-11
2.20798879307158e-11
5.75543970505865e-09
1.88431360147193e-06
3.06261244195559e-06
3.91563526668299e-06
4.47525270784392e-06
4.80889840556434e-06
4.99030009675637e-06
5.08062490214125e-06
5.12201980175137e-06
5.1395754027707e-06
5.14650330043694e-06
5.14906052475273e-06
5.1499474321849e-06
5.1502373232355e-06
5.15032654728915e-06
5.15035209025008e-06
5.15035842646311e-06
5.15035930814872e-06
5.15035884482346e-06
5.1503581535106e-06
5.15035748076916e-06
5.1503568879938e-06
5.15035638666335e-06
5.1503559780982e-06
5.15035566354398e-06
5.15035544616901e-06
5.1503553275766e-06
5.15035530007764e-06
5.1503553272341e-06
5.15035534080075e-06
5.15035499858452e-06
5.15035296149792e-06
5.15034469637384e-06
5.1503150262864e-06
5.1502157379968e-06
5.14990155486182e-06
5.14895930192085e-06
5.14628665333944e-06
5.13914458541606e-06
5.12124914926366e-06
5.07942811927511e-06
4.98877885033749e-06
4.80754056774258e-06
4.47502394895936e-06
3.91770813841215e-06
3.0675799807007e-06
1.89111998036469e-06
5.80455141914732e-09
2.24391067937324e-11
2.36004953364322e-11
6.15855374140788e-09
2.01262878410936e-06
3.26479775297041e-06
4.16941389052676e-06
4.76236264617761e-06
5.11588082216379e-06
5.30820992785688e-06
5.40408306244325e-06
5.44808654790974e-06
5.46678233084623e-06
5.47417569215665e-06
5.47691127160833e-06
5.4778626581476e-06
5.47817467099269e-06
5.47827115618728e-06
5.47829901012828e-06
5.47830610703542e-06
5.47830725947441e-06
5.47830690124097e-06
5.47830626659391e-06
5.47830563058402e-06
5.47830506247788e-06
5.4783045762579e-06
5.47830417387732e-06
5.47830385619229e-06
5.4783036254402e-06
5.47830348260411e-06
5.47830342173753e-06
5.47830340989677e-06
5.47830336996384e-06
5.47830292296664e-06
5.47830068902236e-06
5.4782918939488e-06
5.478260555087e-06
5.47815584874041e-06
5.47782444268426e-06
5.47682977719626e-06
5.47400603362159e-06
5.46645417623742e-06
5.44751926599673e-06
5.40324585163049e-06
5.30724343706552e-06
5.11524277484082e-06
4.76286218703098e-06
4.17193979557229e-06
3.26966953240302e-06
2.01884565593949e-06
6.20407717002965e-09
2.39429629979298e-11
2.47787340248278e-11
6.47279974840517e-09
2.11277456396371e-06
3.42231302195095e-06
4.36697382933409e-06
4.98583188559802e-06
5.35484407094012e-06
5.55572860972354e-06
5.65596796567294e-06
5.70203638455412e-06
5.72164066658127e-06
5.72940758114086e-06
5.73228742005231e-06
5.7332914116282e-06
5.73362165512635e-06
5.73372420401218e-06
5.7337540282009e-06
5.73376179850329e-06
5.73376321279667e-06
5.7337629703761e-06
5.73376240302946e-06
5.73376181388479e-06
5.73376127933481e-06
5.73376081572747e-06
5.7337604257173e-06
5.73376010993949e-06
5.73375986986417e-06
5.73375970589431e-06
5.73375961209617e-06
5.73375956028313e-06
5.73375945811697e-06
5.73375891446106e-06
5.73375651210216e-06
5.73374728680377e-06
5.73371464702651e-06
5.73360577037828e-06
5.73326113592957e-06
5.73222615887052e-06
5.7292859430811e-06
5.72141750443344e-06
5.70167811451563e-06
5.65550431528038e-06
5.55535058193114e-06
5.35500127522824e-06
4.9872112346808e-06
4.37021666098614e-06
3.4274682614288e-06
2.11879448443535e-06
6.51633499452688e-09
2.51102037018449e-11
2.56667712782417e-11
6.71118946035079e-09
2.18895897723916e-06
3.5420472862952e-06
4.51712859980481e-06
5.15571594949117e-06
5.53656908808905e-06
5.74402198119355e-06
5.84763161600637e-06
5.89530370220752e-06
5.91561829231856e-06
5.92367940149486e-06
5.92667375006183e-06
5.92771986022255e-06
5.92806484639506e-06
5.92817236220036e-06
5.92820383389509e-06
5.92821218725184e-06
5.92821384181005e-06
5.92821371389505e-06
5.928213217342e-06
5.92821267928572e-06
5.92821218245726e-06
5.92821174537648e-06
5.92821137141973e-06
5.92821106114766e-06
5.92821081543337e-06
5.92821063415253e-06
5.92821051145424e-06
5.92821042015582e-06
5.92821025943916e-06
5.92820963263953e-06
5.92820708404246e-06
5.92819751621605e-06
5.92816388145098e-06
5.92805185929311e-06
5.92769727487638e-06
5.92663194540039e-06
5.92360385287584e-06
5.91549606980286e-06
5.89514745160934e-06
5.84753279149452e-06
5.74422937037806e-06
5.53754408083694e-06
5.15805948069852e-06
4.52127832342616e-06
3.54779708299162e-06
2.19513002345581e-06
6.75424816420902e-09
2.59931922192514e-11
2.63184008529853e-11
6.88732166007371e-09
2.2454821220967e-06
3.63088902325469e-06
4.62858763059186e-06
5.28188968900718e-06
5.6716108175761e-06
5.88400743008698e-06
5.99016819608857e-06
6.03906186719018e-06
6.05992126330412e-06
6.0682096950329e-06
6.07129323013413e-06
6.07237242965003e-06
6.07272911294507e-06
6.07284061884362e-06
6.07287343929082e-06
6.07288228377655e-06
6.07288415021452e-06
6.07288413137557e-06
6.07288370397236e-06
6.07288321679769e-06
6.07288275827969e-06
6.07288234889027e-06
6.07288199270454e-06
6.07288169031619e-06
6.07288144217575e-06
6.07288124767355e-06
6.07288110084648e-06
6.07288097457118e-06
6.07288076393521e-06
6.07288006502594e-06
6.07287739510391e-06
6.07286756043476e-06
6.0728331798553e-06
6.07271883440551e-06
6.0723569252621e-06
6.0712692347698e-06
6.06817628063966e-06
6.05989149772156e-06
6.03909162541876e-06
5.99040850448073e-06
5.88476785880147e-06
5.67337959716341e-06
5.28521426995523e-06
4.63374567478275e-06
3.63744343396756e-06
2.25206522178494e-06
6.93110524025446e-09
2.66447971885708e-11
2.67843617099973e-11
7.0141748798748e-09
2.28640725505669e-06
3.69526672932455e-06
4.70942454527906e-06
5.37347581164183e-06
5.76970508770728e-06
5.98574925010131e-06
6.09380354109547e-06
6.14360985340413e-06
6.16487915154664e-06
6.17333990981984e-06
6.17649160015521e-06
6.17759630682165e-06
6.17796209576548e-06
6.17807674552539e-06
6.17811064738315e-06
6.17811989513138e-06
6.1781219430647e-06
6.17812202332303e-06
6.17812165982264e-06
6.1781212203502e-06
6.178120798304e-06
6.178120415875e-06
6.1781200777854e-06
6.1781197847276e-06
6.17811953687335e-06
6.17811933320697e-06
6.17811916753737e-06
6.1781190124962e-06
6.17811876079777e-06
6.17811800252049e-06
6.17811523569514e-06
6.17810519806955e-06
6.17807027020467e-06
6.17795424531032e-06
6.17758706080216e-06
6.17648325672363e-06
6.17334348063888e-06
6.16493069062805e-06
6.14380396564733e-06
6.09434606395097e-06
5.98700940988838e-06
5.77220723398188e-06
5.37773975918361e-06
4.71560718656258e-06
3.70272902773174e-06
2.29356271465102e-06
7.05948719134599e-09
2.71143154373608e-11
2.71093720126777e-11
7.10331405200017e-09
2.31534468928664e-06
3.74085201344257e-06
4.76673636628517e-06
5.43847982656944e-06
5.83938999499822e-06
6.05807252104276e-06
6.16750501280153e-06
6.21798009246101e-06
6.23955193890612e-06
6.24814087135825e-06
6.25134366905127e-06
6.25246767062619e-06
6.25284041510704e-06
6.25295749495684e-06
6.25299224659107e-06
6.25300181772196e-06
6.25300401692092e-06
6.25300418391391e-06
6.25300387684311e-06
6.25300348017048e-06
6.25300309132016e-06
6.25300273396409e-06
6.25300241338935e-06
6.25300213042217e-06
6.2530018850658e-06
6.25300167598754e-06
6.25300149673266e-06
6.25300131960195e-06
6.25300103577361e-06
6.25300023091991e-06
6.25299738952369e-06
6.25298720151706e-06
6.25295188092513e-06
6.25283466838046e-06
6.2524637674882e-06
6.25134860673774e-06
6.24817577575231e-06
6.23967245462938e-06
6.21831421598085e-06
6.16830690091066e-06
6.05976665351197e-06
5.84254066590984e-06
5.44359767307506e-06
4.77389021624748e-06
3.74923189338418e-06
2.32313969081565e-06
7.15057314270044e-09
2.74449673691661e-11
2.73307162029225e-11
7.16448417927379e-09
2.33534133832374e-06
3.77241383690994e-06
4.80648041219053e-06
5.48361764880869e-06
5.88782803724161e-06
6.10838188773229e-06
6.21879827204009e-06
6.26975412174341e-06
6.29154508447527e-06
6.30022757427133e-06
6.30346798559674e-06
6.3046063133425e-06
6.30498427280064e-06
6.30510319598929e-06
6.30513860236285e-06
6.3051484272728e-06
6.30515075028471e-06
6.30515099123311e-06
6.30515073156883e-06
6.30515037206469e-06
6.30515001251917e-06
6.30514967780776e-06
6.30514937369352e-06
6.30514910113997e-06
6.30514886005838e-06
6.30514864888462e-06
6.30514846091731e-06
6.30514826812726e-06
6.30514796064655e-06
6.30514712108036e-06
6.30514422455591e-06
6.30513392832129e-06
6.30509833253181e-06
6.30498029874115e-06
6.30460683716394e-06
6.30348384772773e-06
6.30028819255881e-06
6.29172224894715e-06
6.27020362133917e-06
6.21981523044221e-06
6.1104394590587e-06
5.89152992070594e-06
5.48947701079141e-06
4.81450378070328e-06
3.78165087321761e-06
2.34376950554475e-06
7.21379315449826e-09
2.76727652241688e-11
2.74780425941304e-11
7.20551492555263e-09
2.34885619921037e-06
3.7937955205281e-06
4.83345581707424e-06
5.51430045074199e-06
5.92079250089744e-06
6.14264828211031e-06
6.253753818996e-06
6.305048843348e-06
6.32699556577884e-06
6.33574509335268e-06
6.33901268298733e-06
6.34016145478487e-06
6.34054325346071e-06
6.34066354956406e-06
6.34069945110131e-06
6.34070947118459e-06
6.34071189547871e-06
6.34071219923795e-06
6.34071197564192e-06
6.34071164759952e-06
6.34071131341483e-06
6.34071099880821e-06
6.34071070991895e-06
6.34071044783418e-06
6.34071021242091e-06
6.34071000195583e-06
6.34070980953021e-06
6.34070960682854e-06
6.34070928325713e-06
6.34070841935227e-06
6.34070548392612e-06
6.34069511236621e-06
6.34065932865412e-06
6.34054073994433e-06
6.34016555286363e-06
6.33903728437707e-06
6.33582621146996e-06
6.32721788905459e-06
6.30559054885247e-06
6.25494353732622e-06
6.14500018901161e-06
5.92494618083995e-06
5.52077790602193e-06
4.84222065600263e-06
3.80378542299517e-06
2.35786147549742e-06
7.25675636688073e-09
2.78264349258966e-11
2.75739670595081e-11
7.23243978224055e-09
2.35779633278263e-06
3.80797816117965e-06
4.85138704527253e-06
5.53473070581407e-06
5.94277027541129e-06
6.16551490483493e-06
6.27709423487626e-06
6.32862417067874e-06
6.3506796122876e-06
6.35947631312144e-06
6.362763190769e-06
6.36391944152482e-06
6.36430401680195e-06
6.36442531763071e-06
6.36446158727484e-06
6.36447175439653e-06
6.36447425735594e-06
6.36447461037888e-06
6.3644744200691e-06
6.36447411852665e-06
6.36447380611738e-06
6.36447350926978e-06
6.36447323441222e-06
6.36447298273626e-06
6.36447275409271e-06
6.36447254665353e-06
6.36447235334827e-06
6.3644721456338e-06
6.36447181241192e-06
6.36447093285403e-06
6.36446797161979e-06
6.36445754979642e-06
6.36442164152371e-06
6.3643026869359e-06
6.36392636321549e-06
6.3627946125358e-06
6.35957334920665e-06
6.35093696105539e-06
6.32923750273714e-06
6.27841869000657e-06
6.16809788763797e-06
5.94728209514706e-06
5.5417046564761e-06
4.86075783828708e-06
3.81859656404972e-06
2.36729559036512e-06
7.28536802805038e-09
2.79280286783133e-11
2.76351105200891e-11
7.24973748184451e-09
2.36358833406736e-06
3.81719458382177e-06
4.86306706265761e-06
5.54806339675124e-06
5.9571330735686e-06
6.18047343676139e-06
6.29237262111836e-06
6.34406235274434e-06
6.36619233873096e-06
6.37502165293922e-06
6.3783219809447e-06
6.37948349494063e-06
6.37987004405241e-06
6.37999206794006e-06
6.380028607009e-06
6.3800388836789e-06
6.38004144614356e-06
6.38004183953554e-06
6.38004167754155e-06
6.38004139829852e-06
6.38004110461029e-06
6.38004082350471e-06
6.38004056162953e-06
6.38004032025639e-06
6.38004009923955e-06
6.38003989668331e-06
6.38003970539966e-06
6.38003949667301e-06
6.3800391590624e-06
6.38003827085822e-06
6.38003529405986e-06
6.38002484062882e-06
6.37998885284195e-06
6.3798696636168e-06
6.37949260891273e-06
6.37835861252938e-06
6.37513075982293e-06
6.36647618139097e-06
6.34472989001421e-06
6.29379933289333e-06
6.18323270251376e-06
5.96192022080322e-06
5.55542303516457e-06
4.87291482319054e-06
3.82831551284151e-06
2.37348955656626e-06
7.30405412113975e-09
2.79939045636614e-11
2.76732801800745e-11
7.26062108098855e-09
2.36726446978642e-06
3.82306375166951e-06
4.87052444246827e-06
5.55659335197343e-06
5.9663361769445e-06
6.19006863708292e-06
6.30217992553198e-06
6.35397645497254e-06
6.37615666904827e-06
6.38500814445681e-06
6.3883176927824e-06
6.38948284852015e-06
6.38987077766483e-06
6.38999331370604e-06
6.39003004719169e-06
6.39004040501039e-06
6.39004301272024e-06
6.39004343851218e-06
6.39004330019688e-06
6.39004303983015e-06
6.39004276239406e-06
6.3900424954065e-06
6.39004224567226e-06
6.39004201452232e-06
6.39004180182021e-06
6.39004160563336e-06
6.390041418693e-06
6.39004121215631e-06
6.39004087435593e-06
6.3900399830289e-06
6.39003699852812e-06
6.39002652716442e-06
6.38999049138542e-06
6.38987115697831e-06
6.38949364511764e-06
6.38835823584727e-06
6.38512622013892e-06
6.37646011282675e-06
6.35468406382441e-06
6.3036823597114e-06
6.19295894823479e-06
5.97132923093309e-06
5.56424379357352e-06
4.88073550162174e-06
3.83457196119458e-06
2.37747942035108e-06
7.31602836381761e-09
2.80358239017112e-11
2.76966016893875e-11
7.26732318342471e-09
2.36954860041388e-06
3.82672395664959e-06
4.87518848517429e-06
5.56194023550185e-06
5.97211477228646e-06
6.19610061111976e-06
6.30835004687688e-06
6.36021670604742e-06
6.38243018185405e-06
6.39129646068789e-06
6.39461222379801e-06
6.39577985779513e-06
6.39616873635431e-06
6.39629162972989e-06
6.39632850170511e-06
6.39633891920342e-06
6.39634156148691e-06
6.39634201331254e-06
6.39634189483547e-06
6.39634165062148e-06
6.39634138749447e-06
6.39634113335032e-06
6.39634089510282e-06
6.39634067411875e-06
6.39634047027957e-06
6.39634028163534e-06
6.39634010086353e-06
6.39633989903448e-06
6.39633956433189e-06
6.3963386741645e-06
6.39633568792088e-06
6.39632520856872e-06
6.39628914668077e-06
6.39616972737578e-06
6.39579194054451e-06
6.39465567008789e-06
6.39142109701582e-06
6.38274786931225e-06
6.36095336798566e-06
6.30990740891121e-06
6.19908623004575e-06
5.97725826256979e-06
5.56980448836517e-06
4.88566876340694e-06
3.83852172280761e-06
2.38000032306678e-06
7.32355643638122e-09
2.80620015708086e-11
2.77104955029133e-11
7.27134710444524e-09
2.37093276468346e-06
3.8289513904354e-06
4.87803622347505e-06
5.56521337259585e-06
5.9756590661446e-06
6.19980538387904e-06
6.31214306878176e-06
6.36405492440021e-06
6.38629002948678e-06
6.39516602305037e-06
6.39848590321601e-06
6.39965519549526e-06
6.40004471674652e-06
6.40016785580643e-06
6.4002048252779e-06
6.40021528645781e-06
6.4002179553478e-06
6.40021842820937e-06
6.40021832646949e-06
6.4002180962595e-06
6.40021784593332e-06
6.40021760366165e-06
6.40021737642025e-06
6.40021716558962e-06
6.40021697107229e-06
6.40021679092714e-06
6.40021661778996e-06
6.40021642267248e-06
6.40021609366872e-06
6.40021520801273e-06
6.40021222458825e-06
6.40020174457346e-06
6.4001656719375e-06
6.40004620856559e-06
6.39966826786124e-06
6.39853149968375e-06
6.39529542243634e-06
6.3866179591199e-06
6.36481239291452e-06
6.31373973632628e-06
6.20285929996661e-06
5.98091071100768e-06
5.57323209007663e-06
4.88871218613039e-06
3.84096108113726e-06
2.38155903546687e-06
7.32819060786535e-09
2.8078017204079e-11
2.77184556880213e-11
7.27367061785331e-09
2.37174007243669e-06
3.83025763226205e-06
4.8797134575096e-06
5.56714765750155e-06
5.97775886850546e-06
6.2020041463877e-06
6.31439681394162e-06
6.36633712640687e-06
6.38858599094384e-06
6.39746822853795e-06
6.40079078272246e-06
6.40196116397029e-06
6.40235111270286e-06
6.40247441808675e-06
6.40251145540367e-06
6.40252194848879e-06
6.40252463803198e-06
6.40252512796503e-06
6.4025250403815e-06
6.40252482243003e-06
6.40252458370738e-06
6.40252435254983e-06
6.40252413596003e-06
6.40252393528822e-06
6.40252375046623e-06
6.40252357960377e-06
6.40252341529251e-06
6.4025232285037e-06
6.4025229072849e-06
6.40252202880317e-06
6.40251905177425e-06
6.40250857667591e-06
6.4024725045107e-06
6.40235302573377e-06
6.40197501390567e-06
6.40083799216802e-06
6.3976011102609e-06
6.38892131218821e-06
6.36710952076659e-06
6.31602161981197e-06
6.20510696829378e-06
5.98308812676519e-06
5.57527762902451e-06
4.89053104574257e-06
3.84242156456901e-06
2.38249415614633e-06
7.3309624440132e-09
2.80875505191716e-11
2.77226300890517e-11
7.27489986625763e-09
2.37217276792923e-06
3.8309643320328e-06
4.88062768139467e-06
5.56820809588188e-06
5.9789149798289e-06
6.2032183656637e-06
6.31564382254724e-06
6.36760137248736e-06
6.38985869043638e-06
6.39874481742692e-06
6.4020690600184e-06
6.40324013836538e-06
6.40363036501827e-06
6.40375378084996e-06
6.40379086472384e-06
6.4038013809352e-06
6.40380408662338e-06
6.40380459076991e-06
6.40380451510976e-06
6.40380430797866e-06
6.40380407990311e-06
6.40380385928754e-06
6.40380365314303e-06
6.40380346267246e-06
6.40380328785203e-06
6.40380312695614e-06
6.40380297249589e-06
6.4038027954049e-06
6.40380248371593e-06
6.40380161462077e-06
6.40379864693702e-06
6.40378818130567e-06
6.40375211853962e-06
6.40363264639442e-06
6.40325462489078e-06
6.40211752567241e-06
6.39888033178804e-06
6.3901995127818e-06
6.36838479153597e-06
6.31728935341917e-06
6.20635718419382e-06
5.98430143782538e-06
5.57642029013651e-06
4.89155035703682e-06
3.84324328924736e-06
2.38302273590591e-06
7.33253075423021e-09
2.80929389377531e-11
2.77242220980039e-11
7.27537711127085e-09
2.37234621756378e-06
3.83125614924214e-06
4.88101401022354e-06
5.56866413665955e-06
5.9794185706696e-06
6.20375196202317e-06
6.31619496177443e-06
6.36816206123662e-06
6.39042419488204e-06
6.39931259891533e-06
6.40263785714041e-06
6.4038093672592e-06
6.40419977273214e-06
6.40432326403972e-06
6.40436038295391e-06
6.40437091888481e-06
6.4043736400866e-06
6.40437415842824e-06
6.40437409465976e-06
6.40437389863633e-06
6.40437368145684e-06
6.40437347152329e-06
6.4043732758405e-06
6.40437309562044e-06
6.4043729308647e-06
6.40437277984992e-06
6.40437263505423e-06
6.40437246739125e-06
6.40437216488896e-06
6.40437130482303e-06
6.40436834635108e-06
6.40435789107428e-06
6.40432184212794e-06
6.40420239216663e-06
6.40382440963912e-06
6.40268737497855e-06
6.39945026063477e-06
6.39076943949801e-06
6.36895428073755e-06
6.31785700510297e-06
6.20691943420198e-06
5.98485060829738e-06
5.5769420129594e-06
4.89202091345931e-06
3.8436276495935e-06
2.38327381550245e-06
7.33328742298073e-09
2.80955690962664e-11
2.77237251840167e-11
7.27524457338225e-09
2.37230996867021e-06
3.83121421329026e-06
4.8809773033408e-06
5.56863730561767e-06
5.97940204458733e-06
6.20374393315577e-06
6.31619293852963e-06
6.36816380178455e-06
6.39042806262953e-06
6.39931757343842e-06
6.4026433680889e-06
6.40381512629719e-06
6.4042056458337e-06
6.40432919295133e-06
6.40436634322493e-06
6.40437690019808e-06
6.40437963928749e-06
6.40438017418293e-06
6.40438012502729e-06
6.40437994203948e-06
6.40437973711577e-06
6.40437953869196e-06
6.40437935377995e-06
6.40437918378752e-06
6.40437902868584e-06
6.40437888657352e-06
6.40437874998326e-06
6.40437858978613e-06
6.4043782939954e-06
6.40437744002023e-06
6.40437448761233e-06
6.40436404022943e-06
6.4043280061307e-06
6.40420859105587e-06
6.40383069456186e-06
6.40269386538278e-06
6.39945721273977e-06
6.39077735486008e-06
6.36896404416667e-06
6.31786999561755e-06
6.20693748662664e-06
5.9848756542497e-06
5.57697525775709e-06
4.89206152778253e-06
3.8436710893639e-06
2.38331000061407e-06
7.33342534411854e-09
2.80961327541819e-11
2.7721046136726e-11
7.27447976365545e-09
2.3720583804903e-06
3.83083218484338e-06
4.8805122178427e-06
5.56812390748997e-06
5.97886339987492e-06
6.20319368524714e-06
6.31563816391624e-06
6.36760763223638e-06
6.38987169506111e-06
6.39876132327097e-06
6.40208725809011e-06
6.40325911472303e-06
6.40364969529845e-06
6.40377328106972e-06
6.40381045815081e-06
6.40382103560889e-06
6.40382379276957e-06
6.40382434501381e-06
6.40382431160991e-06
6.40382414234367e-06
6.4038239501077e-06
6.40382376344431e-06
6.4038235894059e-06
6.40382342947936e-06
6.40382328364e-06
6.40382314992822e-06
6.40382302085101e-06
6.40382286722944e-06
6.4038225770727e-06
6.40382172802385e-06
6.40381878081034e-06
6.40380834198724e-06
6.40377232865908e-06
6.40365297020371e-06
6.40327522569827e-06
6.4021387845147e-06
6.39890306613659e-06
6.39022532356074e-06
6.36841650384214e-06
6.31733136965465e-06
6.20641535589748e-06
5.98438190732386e-06
5.57652685001515e-06
4.89168028418718e-06
3.84338204547207e-06
2.38313800223503e-06
7.33296901112888e-09
2.80947236860873e-11
2.77155286525794e-11
7.27289774313118e-09
2.37153040503126e-06
3.83001571667722e-06
4.87950255154892e-06
5.56699448806571e-06
5.97766588954602e-06
6.20196087385344e-06
6.31438872995114e-06
6.36635110451563e-06
6.38861245476462e-06
6.39750116529672e-06
6.40082683887979e-06
6.40199864599052e-06
6.40238923514151e-06
6.40251284130288e-06
6.40255003871358e-06
6.40256063406509e-06
6.40256340766958e-06
6.40256397628527e-06
6.40256395808702e-06
6.40256380202299e-06
6.40256362202145e-06
6.40256344675265e-06
6.40256328331725e-06
6.40256313325643e-06
6.4025629965611e-06
6.40256287124419e-06
6.40256274977686e-06
6.40256260293399e-06
6.40256231876425e-06
6.40256147531326e-06
6.40255853486255e-06
6.40254810885176e-06
6.40251212851132e-06
6.40239286171104e-06
6.40201536665299e-06
6.40087957319323e-06
6.39764544773363e-06
6.38897140200398e-06
6.36717065271163e-06
6.3161020348135e-06
6.20521760131124e-06
5.98324040321575e-06
5.57547848594108e-06
4.89077515418885e-06
3.84268155675518e-06
2.38270948748533e-06
7.33178228253458e-09
2.80909077170021e-11
2.77057790498448e-11
7.2701087292209e-09
2.37059846795798e-06
3.8285661163221e-06