/*--------------------------------*- C++ -*----------------------------------*\
  =========                 |
  \\      /  F ield         | OpenFOAM: The Open Source CFD Toolbox
   \\    /   O peration     | Website:  https://openfoam.org
    \\  /    A nd           | Version:  10
     \\/     M anipulation  |
\*---------------------------------------------------------------------------*/
FoamFile
{
    format      ascii;
    class       volScalarField;
    location    "4.2";
    object      omega;
}
// * * * * * * * * * * * * * * * * * * * * * * * * * * * * * * * * * * * * * //

dimensions      [0 0 -1 0 0 0 0];

internalField   nonuniform List<scalar> 
2500
(
128189.698833902
128204.035513182
128198.524171041
128195.531024732
128194.128642986
128193.503446784
128193.235519783
128193.125510837
128193.082362227
128193.066596514
128193.060419546
128193.058071461
128193.057138345
128193.056442364
128193.055895982
128193.055319891
128193.055034957
128193.054678847
128193.054274597
128193.053997991
128193.053754668
128193.053537731
128193.053354898
128193.053250261
128193.053134812
128193.053024378
128193.052985307
128193.052957236
128193.052952763
128193.052988748
128193.05305263
128193.053175929
128193.053336039
128193.053539534
128193.053762838
128193.054028676
128193.054378137
128193.054814877
128193.055962874
128193.058428224
128193.064887259
128193.082189485
128193.127399243
128193.240337437
128193.51132028
128194.133199333
128195.52533484
128198.522241939
128204.102015808
128189.652861028
31887.5919871128
14169.2968093649
14166.7257060691
14165.2876239071
14164.5662257508
14164.2209792684
14164.0627613003
14163.9940835665
14163.9660583154
14163.9553405697
14163.9514598797
14163.9501310971
14163.9496983172
14163.9495477945
14163.9494855293
14163.9494478597
14163.9494285215
14163.9494086479
14163.94938658
14163.949369149
14163.9493521259
14163.9493344446
14163.9493187032
14163.9493098514
14163.9493024833
14163.9492943636
14163.9492911154
14163.9492884119
14163.9492844515
14163.9492861294
14163.9492886915
14163.9492913949
14163.9493065926
14163.9493273039
14163.9493429898
14163.9493669653
14163.9494287581
14163.9496012699
14163.9501265007
14163.9516542923
14163.9559604013
14163.9675091927
14163.9967948633
14164.0668816295
14164.2255842206
14164.5684390039
14165.2848527737
14166.7272009144
14169.3389523375
31887.5965601428
31755.0710206923
3527.31574332318
50.7818090503709
50.7754504312594
50.772272218334
50.7707526955504
50.77005527375
50.7697513681104
50.7696266922384
50.769578694221
50.7695612848335
50.7695553380115
50.7695534313889
50.7695528301047
50.7695526325283
50.7695525532053
50.7695525219887
50.7695524944607
50.7695524620236
50.7695524335506
50.7695524008548
50.7695523606151
50.7695523215207
50.7695522996257
50.7695522855945
50.7695522680589
50.7695522619748
50.7695522558396
50.7695522391891
50.7695522378234
50.7695522377631
50.7695522324661
50.7695522771177
50.769552338925
50.7695523685373
50.7695524302289
50.769552660653
50.769553389119
50.769555654203
50.7695623747945
50.7695814021474
50.7696324354304
50.7697616451222
50.7700703588033
50.7707687683175
50.7722791980842
50.7754437819948
50.7818441011572
3527.33461041398
31755.2904923832
31654.6035480044
3516.20449890082
50.6236358661825
50.6184752239985
50.6159956631309
50.6148532719042
50.6143441908275
50.614126966699
50.6140391008434
50.6140055777662
50.6139934960304
50.6139893949041
50.6139880977727
50.6139877041551
50.6139875869796
50.6139875533442
50.6139875486215
50.613987544832
50.61398753758
50.6139875288834
50.6139875153905
50.6139874938878
50.6139874699234
50.6139874558147
50.6139874495075
50.613987440916
50.6139874384127
50.6139874359337
50.6139874264433
50.6139874250446
50.6139874225468
50.6139874107232
50.6139874364998
50.6139874739237
50.6139874848534
50.6139875139624
50.6139876484688
50.613988112865
50.6139895981522
50.6139940876275
50.6140069851449
50.6140420830817
50.6141323736042
50.6143522957598
50.6148622454682
50.6160009679551
50.6184806674362
50.6237014046247
3516.22676755236
31655.009011369
31588.9882571016
3509.15584505002
50.5252640687555
50.5218907468747
50.5203300887601
50.5196360143655
50.5193350982043
50.519208995032
50.519158506159
50.5191393316985
50.5191324284934
50.5191300872698
50.5191293522862
50.5191291333103
50.5191290771454
50.5191290709484
50.5191290746697
50.5191290772897
50.5191290783564
50.5191290783779
50.5191290751383
50.5191290659046
50.519129052868
50.5191290447144
50.5191290430995
50.5191290408843
50.5191290404997
50.5191290398323
50.519129035763
50.5191290347929
50.5191290318375
50.5191290206369
50.5191290326475
50.5191290480914
50.5191290479924
50.519129061643
50.5191291294843
50.5191293746351
50.5191301819359
50.5191326571688
50.519139837027
50.5191595672208
50.5192109140656
50.5193379372236
50.5196389853708
50.5203318086218
50.5218977656522
50.5253265007691
3509.17539295628
31589.4307186875
31551.1397963929
3505.218224941
50.4713321686457
50.469443668517
50.4685989086543
50.4682349591305
50.4680810213558
50.4680174949504
50.4679922440985
50.4679826684475
50.4679792132304
50.4679780386482
50.4679776714269
50.4679775653934
50.4679775439191
50.4679775454298
50.4679775497003
50.4679775538652
50.4679775562916
50.4679775564789
50.4679775565087
50.467977554383
50.4679775478227
50.4679775439548
50.4679775447267
50.4679775451107
50.4679775455525
50.4679775454168
50.4679775438082
50.4679775431533
50.4679775407581
50.4679775331308
50.4679775378157
50.4679775431354
50.4679775412439
50.467977546406
50.4679775754852
50.4679776894616
50.4679780768606
50.4679792782831
50.4679827834643
50.4679924698105
50.4680178696178
50.4680814553051
50.4682350001106
50.4685981081583
50.4694471434976
50.4713742457802
3505.23202986041
31551.5021969599
31531.4925881023
3503.24161884815
50.4447276652028
50.4437901001004
50.4433828808991
50.4432122885402
50.4431417162182
50.4431129774658
50.4431016130854
50.4430973007475
50.4430957381293
50.4430952047119
50.4430950382502
50.4430949924914
50.4430949856439
50.4430949876877
50.4430949909058
50.4430949939774
50.4430949959909
50.4430949963239
50.4430949970079
50.443094996974
50.4430949941207
50.4430949927075
50.44309499375
50.4430949944604
50.4430949948576
50.4430949949689
50.4430949944338
50.4430949939871
50.4430949925146
50.4430949882113
50.4430949896906
50.4430949910999
50.4430949893499
50.4430949914573
50.4430950027715
50.4430950503531
50.4430952196776
50.4430957499728
50.4430973012554
50.4431015969699
50.4431129077515
50.4431414690657
50.4432115339907
50.4433812864216
50.4437904565778
50.4447500121229
3503.24985988086
31531.7367241469
31522.1786285344
3502.33602737947
50.432733623737
50.4323112609087
50.4321324683437
50.4320593884769
50.4320297529771
50.4320178259655
50.4320131274077
50.432011341009
50.4320106902928
50.4320104670634
50.432010397512
50.4320103793835
50.4320103776111
50.4320103790716
50.4320103809741
50.4320103827504
50.4320103840097
50.4320103845119
50.4320103848874
50.4320103849857
50.4320103841071
50.4320103837839
50.4320103844865
50.4320103849434
50.4320103851666
50.4320103852981
50.432010385127
50.4320103848552
50.4320103841111
50.4320103820048
50.4320103823208
50.4320103825051
50.4320103815105
50.4320103821389
50.4320103859562
50.4320104045463
50.4320104733345
50.4320106904159
50.4320113255602
50.4320130827559
50.4320177148439
50.4320294796731
50.4320587207979
50.4321310968064
50.4323103431477
50.4327434140939
3502.34032581131
31522.3205786751
31518.0987645697
3501.95265795192
50.4277316327635
50.4275561128162
50.4274834736883
50.4274544158168
50.427442842218
50.4274382337092
50.4274364235507
50.4274357334834
50.4274354807159
50.4274353935674
50.4274353665252
50.4274353599565
50.4274353596226
50.4274353603388
50.4274353613078
50.4274353622016
50.4274353628679
50.4274353632077
50.427435363393
50.4274353634328
50.4274353632993
50.4274353634016
50.4274353637073
50.4274353639301
50.4274353640376
50.4274353641196
50.4274353640658
50.4274353639261
50.4274353635942
50.427435362672
50.4274353626311
50.4274353625983
50.4274353622093
50.4274353623287
50.4274353634593
50.4274353702579
50.4274353965327
50.4274354800439
50.4274357239548
50.4274363965147
50.4274381670381
50.4274426788572
50.4274540128977
50.4274825968272
50.4275551183108
50.4277352150724
3501.95466289805
31518.172161761
31516.4316631318
3501.80121390616
50.4257834205155
50.4257152925078
50.4256876598018
50.4256768124779
50.4256725615928
50.4256708854483
50.4256702287165
50.4256699776221
50.4256698851506
50.4256698531271
50.4256698432449
50.4256698409953
50.4256698410002
50.4256698413602
50.4256698418115
50.4256698422245
50.4256698425454
50.4256698427405
50.4256698428584
50.4256698429052
50.4256698429238
50.4256698430222
50.4256698431593
50.4256698432599
50.4256698433112
50.4256698433542
50.4256698433409
50.4256698432813
50.425669843149
50.4256698428035
50.4256698427465
50.4256698426881
50.4256698425417
50.4256698425203
50.4256698427927
50.4256698451639
50.4256698546999
50.425669885181
50.4256699739112
50.4256702173064
50.4256708558775
50.425672485012
50.4256766120163
50.4256871907052
50.4257146150787
50.4257844865419
3501.80206445516
31516.4661087762
31515.7913250223
3501.7449508545
50.4250694621356
50.4250445223965
50.4250345891983
50.4250307538709
50.4250292726784
50.425028693947
50.4250284677196
50.4250283809805
50.425028348884
50.425028337734
50.4250283343259
50.4250283336041
50.4250283336562
50.4250283338301
50.4250283340322
50.4250283342169
50.4250283343665
50.4250283344703
50.425028334545
50.4250283345896
50.4250283346222
50.4250283346796
50.4250283347435
50.4250283347914
50.4250283348194
50.4250283348432
50.4250283348452
50.4250283348263
50.425028334781
50.4250283346631
50.4250283346298
50.4250283345958
50.4250283345381
50.4250283345183
50.4250283345811
50.4250283353649
50.4250283386717
50.4250283492994
50.4250283801027
50.4250284640503
50.4250286832009
50.4250292418998
50.4250306661677
50.4250343681372
50.4250441517856
50.4250696870323
3501.74528319729
31515.8062173738
31515.5587794889
3501.72518220734
50.4248220149468
50.4248133379605
50.424809939083
50.4248086456779
50.4248081526741
50.4248079616901
50.424807887213
50.4248078585921
50.4248078479645
50.4248078442713
50.4248078431619
50.424807842953
50.424807842999
50.4248078430851
50.4248078431788
50.424807843265
50.4248078433383
50.4248078433953
50.4248078434414
50.4248078434757
50.4248078435041
50.4248078435388
50.424807843573
50.4248078436002
50.4248078436192
50.4248078436354
50.4248078436434
50.4248078436427
50.4248078436321
50.4248078435976
50.4248078435853
50.4248078435717
50.4248078435502
50.424807843539
50.4248078435526
50.4248078438066
50.4248078449095
50.4248078484675
50.424807858729
50.4248078864918
50.4248079585271
50.4248081417564
50.4248086109012
50.424809844674
50.4248131619611
50.4248220205157
3501.72530297495
31515.5647786446
31515.4786924831
3501.71859982752
50.4247408224641
50.4247379354777
50.4247368218936
50.4247364035295
50.4247362459198
50.4247361853566
50.4247361618053
50.4247361527457
50.4247361493799
50.4247361482188
50.4247361478847
50.4247361478399
50.424736147876
50.4247361479244
50.4247361479744
50.4247361480212
50.424736148063
50.4247361480989
50.4247361481303
50.4247361481569
50.4247361481806
50.4247361482049
50.4247361482276
50.4247361482469
50.4247361482626
50.4247361482762
50.4247361482863
50.4247361482926
50.4247361482947
50.4247361482888
50.4247361482875
50.4247361482849
50.4247361482789
50.424736148275
50.4247361482788
50.4247361483598
50.4247361487151
50.4247361498629
50.4247361531563
50.4247361620004
50.4247361847939
50.4247362425713
50.4247363908978
50.4247367847602
50.4247378602146
50.4247407955117
3501.71864094939
31515.4809644309
31515.4526343184
3501.71653868072
50.4247158651036
50.4247149419059
50.4247145908821
50.4247144604997
50.4247144118948
50.4247143933661
50.4247143861899
50.4247143834361
50.4247143824212
50.4247143820823
50.4247143819981
50.4247143820033
50.4247143820332
50.4247143820666
50.4247143820999
50.4247143821315
50.4247143821611
50.4247143821881
50.4247143822128
50.4247143822353
50.4247143822559
50.4247143822757
50.4247143822939
50.4247143823101
50.4247143823242
50.4247143823368
50.4247143823474
50.4247143823559
50.4247143823622
50.4247143823653
50.4247143823686
50.4247143823708
50.424714382371
50.4247143823711
50.4247143823731
50.4247143823987
50.4247143825094
50.4247143828667
50.4247143838871
50.4247143866089
50.4247143935771
50.4247144111666
50.4247144563782
50.4247145773769
50.4247149123834
50.4247158460346
3501.71655188552
31515.4534491229
31515.4448298693
3501.71595703364
50.4247090597653
50.424708774871
50.4247086679983
50.4247086287114
50.4247086142092
50.42470860873
50.424708606625
50.4247086058277
50.4247086055447
50.4247086054622
50.4247086054552
50.4247086054749
50.4247086055017
50.4247086055291
50.4247086055561
50.4247086055819
50.4247086056066
50.4247086056298
50.4247086056516
50.4247086056718
50.4247086056907
50.4247086057084
50.4247086057246
50.4247086057394
50.4247086057526
50.4247086057643
50.4247086057747
50.4247086057836
50.4247086057909
50.4247086057966
50.4247086058014
50.4247086058051
50.4247086058074
50.424708605809
50.4247086058105
50.4247086058186
50.4247086058517
50.4247086059585
50.4247086062631
50.4247086070726
50.4247086091342
50.4247086143179
50.4247086276477
50.4247086635515
50.424708764221
50.4247090504654
3501.71596106081
31515.4451083308
31515.4429330795
3501.71583965741
50.4247078714952
50.4247077863746
50.4247077548515
50.4247077433801
50.424707739191
50.4247077376301
50.4247077370436
50.4247077368328
50.4247077367696
50.4247077367639
50.4247077367798
50.4247077368031
50.4247077368282
50.4247077368531
50.4247077368775
50.424707736901
50.4247077369235
50.4247077369448
50.4247077369651
50.424707736984
50.4247077370017
50.4247077370182
50.4247077370333
50.4247077370471
50.4247077370595
50.4247077370706
50.4247077370805
50.424707737089
50.4247077370963
50.4247077371023
50.4247077371072
50.4247077371111
50.4247077371139
50.4247077371157
50.4247077371169
50.4247077371194
50.4247077371283
50.424707737158
50.4247077372443
50.4247077374754
50.4247077380643
50.4247077395434
50.4247077433514
50.4247077536686
50.4247077829445
50.424707867816
3501.71584083951
31515.4430243072
31515.4428753219
3501.71586255757
50.4247083560676
50.4247083313817
50.4247083223568
50.4247083191119
50.4247083179471
50.4247083175275
50.4247083173818
50.4247083173411
50.4247083173414
50.4247083173577
50.4247083173798
50.4247083174036
50.4247083174277
50.4247083174513
50.4247083174743
50.4247083174964
50.4247083175177
50.424708317538
50.4247083175571
50.4247083175751
50.4247083175919
50.4247083176074
50.4247083176217
50.4247083176346
50.4247083176464
50.4247083176568
50.424708317666
50.424708317674
50.4247083176808
50.4247083176864
50.424708317691
50.4247083176946
50.4247083176971
50.4247083176987
50.4247083176995
50.4247083176999
50.4247083177013
50.4247083177078
50.4247083177294
50.4247083177907
50.4247083179506
50.4247083183565
50.4247083194089
50.4247083222828
50.4247083305413
50.4247083549438
3501.71586290449
31515.4429041889
31515.4433701415
3501.71592640838
50.42470932173
50.4247093147701
50.4247093122635
50.4247093113812
50.4247093110782
50.4247093109814
50.4247093109596
50.4247093109664
50.4247093109842
50.4247093110061
50.4247093110293
50.4247093110528
50.424709311076
50.4247093110986
50.4247093111207
50.4247093111419
50.4247093111622
50.4247093111816
50.4247093111998
50.424709311217
50.4247093112329
50.4247093112476
50.424709311261
50.4247093112732
50.4247093112841
50.4247093112939
50.4247093113024
50.4247093113097
50.4247093113158
50.4247093113209
50.424709311325
50.4247093113281
50.4247093113302
50.4247093113313
50.4247093113315
50.424709311331
50.42470931133
50.4247093113296
50.4247093113325
50.4247093113453
50.4247093113838
50.4247093114877
50.4247093117658
50.4247093125394
50.4247093148013
50.424709321619
3501.71592652195
31515.4433790922
31515.4440257082
3501.71600184444
50.4247104213931
50.4247104194864
50.4247104188164
50.4247104185938
50.4247104185292
50.4247104185207
50.4247104185324
50.4247104185515
50.4247104185734
50.4247104185963
50.4247104186193
50.4247104186421
50.4247104186644
50.4247104186863
50.4247104187074
50.4247104187277
50.4247104187472
50.4247104187657
50.4247104187831
50.4247104187994
50.4247104188144
50.4247104188283
50.4247104188409
50.4247104188523
50.4247104188625
50.4247104188715
50.4247104188793
50.4247104188859
50.4247104188914
50.4247104188959
50.4247104188993
50.4247104189018
50.4247104189033
50.4247104189039
50.4247104189037
50.4247104189025
50.4247104189005
50.424710418898
50.4247104188956
50.4247104188949
50.4247104189001
50.4247104189216
50.4247104189884
50.4247104191863
50.4247104197863
50.4247104216393
3501.71600189516
31515.4440285248
31515.4447266683
3501.71608046516
50.4247115573006
50.4247115567963
50.4247115566299
50.424711556586
50.4247115565851
50.4247115565994
50.4247115566192
50.4247115566409
50.4247115566633
50.4247115566858
50.4247115567081
50.4247115567301
50.4247115567516
50.4247115567725
50.4247115567928
50.4247115568122
50.4247115568308
50.4247115568484
50.424711556865
50.4247115568804
50.4247115568946
50.4247115569076
50.4247115569195
50.4247115569301
50.4247115569394
50.4247115569477
50.4247115569547
50.4247115569606
50.4247115569654
50.4247115569692
50.424711556972
50.4247115569739
50.4247115569749
50.4247115569749
50.4247115569742
50.4247115569725
50.4247115569701
50.4247115569668
50.4247115569628
50.4247115569585
50.4247115569549
50.4247115569548
50.4247115569658
50.4247115570106
50.4247115571629
50.4247115576526
3501.71608049891
31515.4447276542
31515.4454401013
3501.71615993853
50.4247127027508
50.4247127026255
50.4247127025931
50.4247127025957
50.4247127026104
50.4247127026298
50.4247127026509
50.4247127026725
50.4247127026943
50.424712702716
50.4247127027374
50.4247127027585
50.4247127027792
50.4247127027993
50.4247127028186
50.4247127028372
50.4247127028549
50.4247127028716
50.4247127028872
50.4247127029018
50.4247127029152
50.4247127029273
50.4247127029383
50.4247127029481
50.4247127029567
50.4247127029641
50.4247127029704
50.4247127029756
50.4247127029797
50.4247127029828
50.4247127029849
50.4247127029862
50.4247127029866
50.4247127029861
50.4247127029849
50.4247127029828
50.4247127029799
50.4247127029763
50.4247127029718
50.4247127029666
50.4247127029609
50.4247127029556
50.4247127029527
50.4247127029584
50.4247127029936
50.4247127031189
3501.71615996677
31515.4454405472
31515.4461568765
3501.71623963474
50.4247138506525
50.4247138506266
50.4247138506283
50.4247138506418
50.4247138506596
50.4247138506793
50.4247138506998
50.4247138507206
50.4247138507415
50.4247138507623
50.4247138507827
50.424713850803
50.4247138508227
50.4247138508418
50.4247138508603
50.424713850878
50.4247138508947
50.4247138509106
50.4247138509253
50.424713850939
50.4247138509515
50.4247138509628
50.4247138509729
50.4247138509819
50.4247138509897
50.4247138509963
50.4247138510018
50.4247138510062
50.4247138510096
50.4247138510121
50.4247138510135
50.4247138510142
50.424713851014
50.424713851013
50.4247138510112
50.4247138510087
50.4247138510055
50.4247138510016
50.4247138509969
50.4247138509916
50.4247138509856
50.4247138509793
50.4247138509734
50.42471385097
50.4247138509757
50.4247138510066
3501.71623966031
31515.4461571614
31515.4468745269
3501.71631938796
50.4247149991707
50.4247149991696
50.424714999179
50.4247149991942
50.4247149992117
50.4247149992306
50.42471499925
50.4247149992698
50.4247149992896
50.4247149993094
50.424714999329
50.4247149993482
50.4247149993671
50.4247149993852
50.4247149994028
50.4247149994195
50.4247149994354
50.4247149994503
50.4247149994641
50.4247149994768
50.4247149994884
50.4247149994989
50.4247149995082
50.4247149995163
50.4247149995233
50.4247149995291
50.4247149995338
50.4247149995375
50.4247149995402
50.4247149995419
50.4247149995428
50.4247149995428
50.424714999542
50.4247149995405
50.4247149995382
50.4247149995354
50.4247149995318
50.4247149995277
50.4247149995229
50.4247149995175
50.4247149995117
50.4247149995055
50.4247149994994
50.4247149994943
50.4247149994933
50.4247149995008
3501.71631941137
31515.4468747533
31515.447592402
3501.7163991555
50.4247161478413
50.4247161478457
50.4247161478561
50.4247161478707
50.4247161478872
50.4247161479048
50.4247161479231
50.4247161479418
50.4247161479606
50.4247161479794
50.424716147998
50.4247161480162
50.4247161480341
50.4247161480513
50.424716148068
50.4247161480838
50.4247161480986
50.4247161481126
50.4247161481255
50.4247161481374
50.4247161481481
50.4247161481577
50.4247161481661
50.4247161481734
50.4247161481795
50.4247161481845
50.4247161481885
50.4247161481914
50.4247161481934
50.4247161481944
50.4247161481946
50.424716148194
50.4247161481926
50.4247161481905
50.4247161481879
50.4247161481846
50.4247161481807
50.4247161481763
50.4247161481714
50.4247161481662
50.4247161481605
50.4247161481546
50.4247161481489
50.4247161481441
50.424716148142
50.4247161481441
3501.7163991769
31515.4475925999
31515.448310334
3501.71647892662
50.4247172965496
50.4247172965545
50.4247172965643
50.4247172965777
50.424717296593
50.4247172966094
50.4247172966265
50.4247172966441
50.4247172966618
50.4247172966796
50.4247172966972
50.4247172967145
50.4247172967313
50.4247172967476
50.4247172967633
50.4247172967781
50.4247172967921
50.4247172968051
50.4247172968171
50.424717296828
50.4247172968378
50.4247172968465
50.4247172968541
50.4247172968605
50.4247172968658
50.42471729687
50.4247172968732
50.4247172968754
50.4247172968766
50.424717296877
50.4247172968765
50.4247172968753
50.4247172968733
50.4247172968708
50.4247172968676
50.4247172968639
50.4247172968598
50.4247172968552
50.4247172968502
50.424717296845
50.4247172968395
50.4247172968341
50.4247172968289
50.4247172968245
50.4247172968228
50.424717296824
3501.716478946
31515.4483105121
31515.4490282803
3501.71655869864
50.4247184452673
50.4247184452716
50.4247184452804
50.4247184452925
50.4247184453066
50.4247184453218
50.4247184453378
50.4247184453542
50.4247184453709
50.4247184453876
50.4247184454042
50.4247184454205
50.4247184454364
50.4247184454517
50.4247184454663
50.4247184454802
50.4247184454933
50.4247184455053
50.4247184455164
50.4247184455264
50.4247184455354
50.4247184455431
50.4247184455498
50.4247184455554
50.4247184455599
50.4247184455633
50.4247184455657
50.4247184455672
50.4247184455677
50.4247184455673
50.4247184455662
50.4247184455643
50.4247184455618
50.4247184455588
50.4247184455552
50.4247184455511
50.4247184455466
50.4247184455419
50.4247184455368
50.4247184455317
50.4247184455264
50.4247184455212
50.4247184455165
50.4247184455128
50.4247184455115
50.424718445513
3501.716558716
31515.4490284372
31515.4497462302
3501.71663847088
50.4247195939874
50.4247195939909
50.4247195939986
50.4247195940096
50.4247195940224
50.4247195940365
50.4247195940513
50.4247195940666
50.4247195940822
50.4247195940979
50.4247195941134
50.4247195941287
50.4247195941437
50.424719594158
50.4247195941717
50.4247195941846
50.4247195941967
50.4247195942078
50.4247195942179
50.424719594227
50.4247195942351
50.424719594242
50.4247195942478
50.4247195942525
50.4247195942562
50.4247195942588
50.4247195942605
50.4247195942611
50.4247195942609
50.4247195942599
50.4247195942581
50.4247195942557
50.4247195942527
50.424719594249
50.424719594245
50.4247195942406
50.4247195942358
50.4247195942309
50.4247195942258
50.4247195942206
50.4247195942156
50.4247195942107
50.4247195942064
50.4247195942032
50.4247195942025
50.4247195942045
3501.71663848619
31515.4497463698
31515.4504641809
3501.71671824318
50.4247207427081
50.4247207427106
50.4247207427173
50.4247207427271
50.4247207427388
50.4247207427517
50.4247207427654
50.4247207427796
50.4247207427942
50.4247207428088
50.4247207428233
50.4247207428376
50.4247207428515
50.4247207428648
50.4247207428776
50.4247207428895
50.4247207429006
50.4247207429108
50.42472074292
50.4247207429282
50.4247207429354
50.4247207429414
50.4247207429464
50.4247207429503
50.4247207429531
50.4247207429549
50.4247207429558
50.4247207429557
50.4247207429548
50.4247207429532
50.4247207429508
50.4247207429477
50.4247207429441
50.42472074294
50.4247207429356
50.4247207429308
50.4247207429258
50.4247207429206
50.4247207429155
50.4247207429103
50.4247207429054
50.4247207429009
50.424720742897
50.4247207428943
50.424720742894
50.4247207428965
3501.71671825652
31515.4504643023
31515.4511821316
3501.71679801546
50.4247218914285
50.4247218914302
50.4247218914358
50.4247218914445
50.424721891455
50.4247218914668
50.4247218914794
50.4247218914925
50.424721891506
50.4247218915196
50.424721891533
50.4247218915464
50.4247218915592
50.4247218915716
50.4247218915834
50.4247218915944
50.4247218916045
50.4247218916138
50.4247218916221
50.4247218916294
50.4247218916356
50.4247218916408
50.4247218916449
50.424721891648
50.42472189165
50.4247218916511
50.4247218916512
50.4247218916504
50.4247218916488
50.4247218916464
50.4247218916434
50.4247218916398
50.4247218916356
50.4247218916311
50.4247218916262
50.4247218916211
50.4247218916158
50.4247218916105
50.4247218916052
50.4247218916002
50.4247218915954
50.4247218915911
50.4247218915876
50.4247218915855
50.4247218915856
50.4247218915886
3501.71679802682
31515.4511822361
31515.4519000819
3501.7168777877
50.4247230401482
50.4247230401489
50.4247230401536
50.4247230401611
50.4247230401706
50.4247230401812
50.4247230401926
50.4247230402047
50.4247230402171
50.4247230402297
50.4247230402421
50.4247230402544
50.4247230402663
50.4247230402777
50.4247230402885
50.4247230402986
50.4247230403078
50.4247230403161
50.4247230403235
50.42472304033
50.4247230403353
50.4247230403396
50.4247230403429
50.4247230403451
50.4247230403464
50.4247230403467
50.4247230403461
50.4247230403445
50.4247230403423
50.4247230403393
50.4247230403356
50.4247230403315
50.4247230403268
50.4247230403218
50.4247230403166
50.4247230403111
50.4247230403056
50.4247230403001
50.4247230402948
50.4247230402897
50.4247230402851
50.4247230402811
50.4247230402779
50.4247230402762
50.4247230402768
50.4247230402804
3501.71687779714
31515.4519001687
31515.4526180316
3501.71695755986
50.4247241888667
50.4247241888665
50.4247241888702
50.4247241888766
50.4247241888849
50.4247241888944
50.4247241889048
50.4247241889158
50.4247241889272
50.4247241889387
50.4247241889502
50.4247241889615
50.4247241889724
50.4247241889828
50.4247241889927
50.4247241890018
50.4247241890101
50.4247241890175
50.424724189024
50.4247241890296
50.4247241890341
50.4247241890376
50.42472418904
50.4247241890415
50.4247241890419
50.4247241890415
50.4247241890401
50.4247241890379
50.424724189035
50.4247241890313
50.4247241890271
50.4247241890224
50.4247241890172
50.4247241890118
50.4247241890061
50.4247241890003
50.4247241889946
50.424724188989
50.4247241889836
50.4247241889786
50.4247241889741
50.4247241889704
50.4247241889675
50.4247241889663
50.4247241889674
50.4247241889715
3501.71695756733
31515.4526181009
31515.4533359804
3501.71703733193
50.4247253375838
50.4247253375825
50.4247253375852
50.4247253375904
50.4247253375977
50.4247253376061
50.4247253376154
50.4247253376254
50.4247253376357
50.4247253376462
50.4247253376567
50.424725337667
50.424725337677
50.4247253376865
50.4247253376954
50.4247253377036
50.424725337711
50.4247253377175
50.4247253377232
50.4247253377278
50.4247253377315
50.4247253377341
50.4247253377358
50.4247253377365
50.4247253377362
50.424725337735
50.4247253377329
50.4247253377301
50.4247253377264
50.4247253377222
50.4247253377174
50.4247253377122
50.4247253377065
50.4247253377006
50.4247253376946
50.4247253376885
50.4247253376825
50.4247253376768
50.4247253376713
50.4247253376664
50.4247253376621
50.4247253376586
50.4247253376561
50.4247253376554
50.424725337657
50.4247253376617
3501.71703733747
31515.4533360305
31515.4540539282
3501.71711710386
50.4247264862989
50.4247264862966
50.4247264862982
50.4247264863023
50.4247264863085
50.4247264863159
50.4247264863241
50.424726486333
50.4247264863423
50.4247264863518
50.4247264863613
50.4247264863707
50.4247264863797
50.4247264863883
50.4247264863963
50.4247264864035
50.4247264864101
50.4247264864157
50.4247264864205
50.4247264864244
50.4247264864272
50.424726486429
50.4247264864299
50.4247264864299
50.4247264864288
50.4247264864269
50.4247264864241
50.4247264864206
50.4247264864164
50.4247264864116
50.4247264864062
50.4247264864005
50.4247264863944
50.4247264863881
50.4247264863817
50.4247264863754
50.4247264863692
50.4247264863633
50.4247264863578
50.4247264863529
50.4247264863487
50.4247264863455
50.4247264863434
50.4247264863432
50.4247264863453
50.4247264863507
3501.71711710761
31515.4540539627
31515.4547718746
3501.71719687565
50.4247276350118
50.4247276350082
50.4247276350088
50.4247276350117
50.4247276350168
50.4247276350231
50.4247276350303
50.4247276350383
50.4247276350466
50.4247276350551
50.4247276350636
50.424727635072
50.4247276350801
50.4247276350878
50.4247276350949
50.4247276351013
50.424727635107
50.4247276351118
50.4247276351157
50.4247276351188
50.4247276351208
50.4247276351219
50.424727635122
50.4247276351212
50.4247276351195
50.4247276351168
50.4247276351134
50.4247276351093
50.4247276351044
50.4247276350991
50.4247276350932
50.4247276350869
50.4247276350804
50.4247276350737
50.424727635067
50.4247276350604
50.424727635054
50.424727635048
50.4247276350425
50.4247276350376
50.4247276350337
50.4247276350307
50.424727635029
50.4247276350293
50.424727635032
50.4247276350382
3501.71719687767
31515.4547718942
31515.4554898196
3501.71727664726
50.4247287837219
50.424728783717
50.4247287837165
50.4247287837183
50.4247287837223
50.4247287837276
50.4247287837338
50.4247287837407
50.424728783748
50.4247287837556
50.4247287837632
50.4247287837707
50.4247287837779
50.4247287837847
50.4247287837909
50.4247287837965
50.4247287838014
50.4247287838053
50.4247287838085
50.4247287838107
50.424728783812
50.4247287838123
50.4247287838117
50.4247287838102
50.4247287838078
50.4247287838045
50.4247287838005
50.4247287837957
50.4247287837903
50.4247287837844
50.424728783778
50.4247287837713
50.4247287837644