/*--------------------------------*- C++ -*----------------------------------*\
  =========                 |
  \\      /  F ield         | OpenFOAM: The Open Source CFD Toolbox
   \\    /   O peration     | Website:  https://openfoam.org
    \\  /    A nd           | Version:  10
     \\/     M anipulation  |
\*---------------------------------------------------------------------------*/
FoamFile
{
    format      ascii;
    class       volScalarField;
    location    "4.2";
    object      p;
}
// * * * * * * * * * * * * * * * * * * * * * * * * * * * * * * * * * * * * * //

dimensions      [1 -1 -2 0 0 0 0];

internalField   nonuniform List<scalar> 
2500
(
100082.495664798
100082.495666229
100082.495667193
100082.495667952
100082.495668347
100082.495668558
100082.495668646
100082.49566866
100082.495668632
100082.495668577
100082.495668507
100082.495668426
100082.495668338
100082.495668245
100082.495668148
100082.495668048
100082.495667946
100082.495667844
100082.49566774
100082.495667637
100082.495667534
100082.495667432
100082.495667331
100082.495667233
100082.495667136
100082.495667042
100082.495666951
100082.495666862
100082.495666777
100082.495666696
100082.495666619
100082.495666545
100082.495666475
100082.49566641
100082.495666349
100082.495666292
100082.495666239
100082.49566619
100082.495666144
100082.495666099
100082.495666053
100082.495666002
100082.495665935
100082.495665838
100082.495665679
100082.495665409
100082.495664968
100082.495664174
100082.495663176
100082.495661731
100082.493418662
100082.493419797
100082.493420527
100082.493421169
100082.493421507
100082.49342169
100082.493421762
100082.493421767
100082.493421735
100082.493421679
100082.493421608
100082.493421527
100082.49342144
100082.493421347
100082.49342125
100082.49342115
100082.493421049
100082.493420946
100082.493420843
100082.49342074
100082.493420637
100082.493420535
100082.493420435
100082.493420336
100082.493420239
100082.493420145
100082.493420054
100082.493419966
100082.493419881
100082.4934198
100082.493419722
100082.493419649
100082.493419579
100082.493419514
100082.493419452
100082.493419395
100082.493419342
100082.493419293
100082.493419247
100082.493419202
100082.493419157
100082.493419107
100082.493419044
100082.493418956
100082.493418812
100082.493418571
100082.493418186
100082.49341751
100082.493416747
100082.493415602
100082.491160748
100082.491161416
100082.491161704
100082.491162073
100082.491162261
100082.491162362
100082.491162393
100082.491162378
100082.491162336
100082.491162276
100082.491162203
100082.491162121
100082.491162033
100082.491161941
100082.491161844
100082.491161745
100082.491161643
100082.491161541
100082.491161438
100082.491161335
100082.491161232
100082.491161131
100082.491161031
100082.491160932
100082.491160836
100082.491160742
100082.491160651
100082.491160563
100082.491160478
100082.491160397
100082.491160319
100082.491160245
100082.491160176
100082.49116011
100082.491160049
100082.491159992
100082.491159939
100082.49115989
100082.491159844
100082.4911598
100082.491159757
100082.491159712
100082.491159659
100082.491159591
100082.491159488
100082.491159328
100082.491159094
100082.49115869
100082.491158375
100082.491157684
100082.488894303
100082.488894474
100082.488894401
100082.488894488
100082.488894516
100082.488894528
100082.488894514
100082.488894477
100082.488894425
100082.48889436
100082.488894285
100082.488894203
100082.488894115
100082.488894022
100082.488893926
100082.488893827
100082.488893726
100082.488893624
100082.488893521
100082.488893418
100082.488893316
100082.488893215
100082.488893115
100082.488893016
100082.48889292
100082.488892826
100082.488892735
100082.488892648
100082.488892563
100082.488892482
100082.488892404
100082.488892331
100082.488892261
100082.488892196
100082.488892135
100082.488892078
100082.488892025
100082.488891976
100082.488891931
100082.488891888
100082.488891847
100082.488891807
100082.488891764
100082.488891718
100082.48889166
100082.488891589
100082.488891516
100082.488891395
100082.48889145
100082.488891254
100082.486621837
100082.486621681
100082.486621436
100082.48662134
100082.486621263
100082.486621211
100082.486621164
100082.486621109
100082.486621047
100082.486620978
100082.486620901
100082.486620817
100082.486620729
100082.486620636
100082.48662054
100082.486620441
100082.48662034
100082.486620239
100082.486620136
100082.486620034
100082.486619932
100082.486619831
100082.486619731
100082.486619633
100082.486619537
100082.486619444
100082.486619353
100082.486619266
100082.486619181
100082.4866191
100082.486619023
100082.48661895
100082.486618881
100082.486618815
100082.486618755
100082.486618698
100082.486618645
100082.486618597
100082.486618552
100082.486618511
100082.486618472
100082.486618437
100082.486618404
100082.486618376
100082.486618353
100082.486618346
100082.486618377
100082.486618442
100082.486618675
100082.486618813
100082.484345612
100082.484345318
100082.484345025
100082.484344835
100082.484344702
100082.48434461
100082.48434454
100082.484344471
100082.484344402
100082.484344328
100082.484344249
100082.484344164
100082.484344075
100082.484343982
100082.484343886
100082.484343788
100082.484343688
100082.484343586
100082.484343484
100082.484343382
100082.484343281
100082.48434318
100082.484343081
100082.484342984
100082.484342888
100082.484342795
100082.484342705
100082.484342618
100082.484342534
100082.484342453
100082.484342376
100082.484342303
100082.484342234
100082.484342169
100082.484342108
100082.484342052
100082.484342
100082.484341952
100082.484341908
100082.484341868
100082.484341833
100082.484341802
100082.484341777
100082.484341763
100082.484341762
100082.484341796
100082.484341884
100082.484342046
100082.48434233
100082.484342615
100082.482067348
100082.482067042
100082.482066767
100082.482066544
100082.482066389
100082.482066275
100082.48206619
100082.482066111
100082.482066036
100082.482065959
100082.482065877
100082.482065792
100082.482065702
100082.482065609
100082.482065513
100082.482065415
100082.482065315
100082.482065215
100082.482065113
100082.482065012
100082.482064911
100082.482064811
100082.482064712
100082.482064615
100082.48206452
100082.482064428
100082.482064338
100082.482064251
100082.482064167
100082.482064087
100082.482064011
100082.482063938
100082.482063869
100082.482063805
100082.482063744
100082.482063688
100082.482063637
100082.48206359
100082.482063547
100082.482063509
100082.482063476
100082.482063449
100082.48206343
100082.482063426
100082.48206344
100082.482063496
100082.482063607
100082.482063803
100082.482064069
100082.482064372
100082.479788104
100082.479787845
100082.479787612
100082.479787392
100082.479787234
100082.479787111
100082.479787017
100082.479786932
100082.479786852
100082.479786771
100082.479786688
100082.479786601
100082.479786511
100082.479786418
100082.479786323
100082.479786225
100082.479786125
100082.479786025
100082.479785924
100082.479785823
100082.479785723
100082.479785624
100082.479785526
100082.479785429
100082.479785335
100082.479785243
100082.479785153
100082.479785067
100082.479784984
100082.479784904
100082.479784828
100082.479784756
100082.479784688
100082.479784624
100082.479784564
100082.479784508
100082.479784457
100082.479784411
100082.479784369
100082.479784333
100082.479784303
100082.479784279
100082.479784266
100082.479784269
100082.479784292
100082.479784357
100082.479784471
100082.479784664
100082.479784887
100082.479785147
100082.477508444
100082.477508243
100082.477508055
100082.477507854
100082.477507704
100082.477507579
100082.47750748
100082.477507391
100082.477507308
100082.477507224
100082.477507139
100082.477507052
100082.477506962
100082.477506869
100082.477506773
100082.477506676
100082.477506577
100082.477506477
100082.477506377
100082.477506277
100082.477506177
100082.477506079
100082.477505981
100082.477505885
100082.477505792
100082.4775057
100082.477505612
100082.477505526
100082.477505443
100082.477505364
100082.477505289
100082.477505217
100082.477505149
100082.477505086
100082.477505026
100082.477504971
100082.477504921
100082.477504876
100082.477504835
100082.4775048
100082.477504772
100082.477504752
100082.477504742
100082.47750475
100082.477504778
100082.477504845
100082.477504952
100082.477505125
100082.477505302
100082.477505502
100082.475228628
100082.475228479
100082.475228329
100082.475228154
100082.475228014
100082.475227892
100082.475227793
100082.475227701
100082.475227615
100082.47522753
100082.475227444
100082.475227356
100082.475227265
100082.475227172
100082.475227077
100082.47522698
100082.475226882
100082.475226783
100082.475226684
100082.475226584
100082.475226485
100082.475226387
100082.475226291
100082.475226196
100082.475226103
100082.475226012
100082.475225924
100082.475225839
100082.475225757
100082.475225678
100082.475225603
100082.475225532
100082.475225465
100082.475225402
100082.475225343
100082.475225289
100082.47522524
100082.475225195
100082.475225156
100082.475225122
100082.475225096
100082.475225078
100082.475225072
100082.475225082
100082.475225111
100082.475225176
100082.475225271
100082.475225419
100082.475225556
100082.475225702
100082.472948765
100082.472948655
100082.472948536
100082.472948384
100082.472948258
100082.472948141
100082.472948042
100082.472947949
100082.472947862
100082.472947776
100082.472947689
100082.472947601
100082.47294751
100082.472947417
100082.472947323
100082.472947227
100082.472947129
100082.472947031
100082.472946932
100082.472946833
100082.472946735
100082.472946638
100082.472946542
100082.472946448
100082.472946356
100082.472946266
100082.472946179
100082.472946094
100082.472946013
100082.472945935
100082.472945861
100082.472945791
100082.472945724
100082.472945662
100082.472945604
100082.47294555
100082.472945501
100082.472945458
100082.472945419
100082.472945387
100082.472945363
100082.472945347
100082.472945342
100082.472945353
100082.472945382
100082.472945442
100082.472945524
100082.472945647
100082.472945752
100082.472945857
100082.470668891
100082.47066881
100082.470668715
100082.470668585
100082.470668471
100082.47066836
100082.470668263
100082.470668171
100082.470668084
100082.470667997
100082.47066791
100082.470667821
100082.470667731
100082.470667639
100082.470667544
100082.470667449
100082.470667352
100082.470667255
100082.470667157
100082.470667059
100082.470666962
100082.470666866
100082.470666771
100082.470666677
100082.470666586
100082.470666497
100082.470666411
100082.470666327
100082.470666247
100082.47066617
100082.470666096
100082.470666026
100082.47066596
100082.470665899
100082.470665841
100082.470665788
100082.47066574
100082.470665697
100082.47066566
100082.470665629
100082.470665606
100082.470665591
100082.470665587
100082.470665599
100082.470665626
100082.47066568
100082.47066575
100082.47066585
100082.470665929
100082.470666004
100082.468389019
100082.468388958
100082.468388881
100082.46838877
100082.468388667
100082.468388563
100082.468388469
100082.468388379
100082.468388291
100082.468388205
100082.468388118
100082.468388029
100082.46838794
100082.468387848
100082.468387754
100082.46838766
100082.468387564
100082.468387467
100082.46838737
100082.468387273
100082.468387177
100082.468387082
100082.468386988
100082.468386896
100082.468386805
100082.468386717
100082.468386632
100082.468386549
100082.468386469
100082.468386393
100082.46838632
100082.468386251
100082.468386186
100082.468386125
100082.468386068
100082.468386016
100082.468385969
100082.468385927
100082.46838589
100082.46838586
100082.468385837
100082.468385824
100082.46838582
100082.468385831
100082.468385856
100082.468385902
100082.468385961
100082.468386042
100082.468386102
100082.468386155
100082.46610915
100082.466109104
100082.466109041
100082.466108945
100082.466108852
100082.466108755
100082.466108665
100082.466108577
100082.46610849
100082.466108404
100082.466108318
100082.46610823
100082.46610814
100082.466108049
100082.466107957
100082.466107863
100082.466107768
100082.466107672
100082.466107576
100082.466107481
100082.466107385
100082.466107291
100082.466107198
100082.466107107
100082.466107017
100082.46610693
100082.466106846
100082.466106764
100082.466106685
100082.46610661
100082.466106538
100082.46610647
100082.466106405
100082.466106345
100082.466106289
100082.466106237
100082.466106191
100082.466106149
100082.466106114
100082.466106084
100082.466106062
100082.466106049
100082.466106045
100082.466106054
100082.466106076
100082.466106116
100082.466106164
100082.46610623
100082.466106275
100082.466106313
100082.463829283
100082.463829248
100082.463829195
100082.463829113
100082.463829028
100082.463828939
100082.463828852
100082.463828766
100082.463828681
100082.463828596
100082.46382851
100082.463828423
100082.463828335
100082.463828244
100082.463828153
100082.46382806
100082.463827966
100082.463827871
100082.463827776
100082.463827682
100082.463827588
100082.463827495
100082.463827403
100082.463827312
100082.463827224
100082.463827138
100082.463827054
100082.463826974
100082.463826896
100082.463826821
100082.46382675
100082.463826683
100082.463826619
100082.46382656
100082.463826504
100082.463826454
100082.463826408
100082.463826367
100082.463826332
100082.463826303
100082.463826281
100082.463826267
100082.463826263
100082.46382627
100082.463826289
100082.463826322
100082.463826362
100082.463826414
100082.463826448
100082.463826475
100082.461549418
100082.46154939
100082.461549346
100082.461549274
100082.461549197
100082.461549114
100082.461549032
100082.461548948
100082.461548865
100082.461548782
100082.461548697
100082.461548611
100082.461548523
100082.461548434
100082.461548343
100082.461548251
100082.461548158
100082.461548065
100082.461547971
100082.461547878
100082.461547785
100082.461547693
100082.461547602
100082.461547513
100082.461547426
100082.461547341
100082.461547258
100082.461547178
100082.461547102
100082.461547028
100082.461546958
100082.461546891
100082.461546828
100082.46154677
100082.461546715
100082.461546665
100082.46154662
100082.46154658
100082.461546545
100082.461546516
100082.461546495
100082.461546481
100082.461546476
100082.461546481
100082.461546496
100082.461546523
100082.461546555
100082.461546596
100082.461546622
100082.461546641
100082.459269553
100082.45926953
100082.459269493
100082.45926943
100082.45926936
100082.459269283
100082.459269204
100082.459269124
100082.459269043
100082.459268961
100082.459268878
100082.459268793
100082.459268706
100082.459268618
100082.459268528
100082.459268438
100082.459268346
100082.459268254
100082.459268161
100082.459268069
100082.459267977
100082.459267887
100082.459267797
100082.459267709
100082.459267623
100082.459267539
100082.459267457
100082.459267379
100082.459267303
100082.45926723
100082.459267161
100082.459267095
100082.459267033
100082.459266975
100082.459266922
100082.459266872
100082.459266827
100082.459266788
100082.459266754
100082.459266725
100082.459266704
100082.459266689
100082.459266683
100082.459266686
100082.459266697
100082.459266719
100082.459266744
100082.459266777
100082.459266796
100082.459266809
100082.456989688
100082.456989669
100082.456989636
100082.456989581
100082.456989517
100082.456989445
100082.456989371
100082.456989294
100082.456989215
100082.456989135
100082.456989053
100082.456988969
100082.456988884
100082.456988797
100082.456988709
100082.456988619
100082.456988529
100082.456988438
100082.456988347
100082.456988256
100082.456988165
100082.456988076
100082.456987987
100082.456987901
100082.456987816
100082.456987733
100082.456987653
100082.456987575
100082.4569875
100082.456987429
100082.45698736
100082.456987295
100082.456987234
100082.456987177
100082.456987124
100082.456987075
100082.456987031
100082.456986992
100082.456986958
100082.45698693
100082.456986908
100082.456986893
100082.456986885
100082.456986886
100082.456986894
100082.456986911
100082.456986931
100082.456986955
100082.456986969
100082.456986978
100082.454709822
100082.454709806
100082.454709777
100082.454709728
100082.45470967
100082.454709603
100082.454709532
100082.454709458
100082.454709382
100082.454709303
100082.454709223
100082.454709141
100082.454709057
100082.454708972
100082.454708885
100082.454708797
100082.454708708
100082.454708618
100082.454708528
100082.454708438
100082.454708349
100082.454708261
100082.454708174
100082.454708088
100082.454708005
100082.454707923
100082.454707844
100082.454707767
100082.454707694
100082.454707623
100082.454707556
100082.454707492
100082.454707431
100082.454707375
100082.454707323
100082.454707275
100082.454707231
100082.454707192
100082.454707158
100082.45470713
100082.454707108
100082.454707092
100082.454707083
100082.454707082
100082.454707087
100082.454707099
100082.454707114
100082.454707133
100082.454707142
100082.454707148
100082.452429954
100082.452429941
100082.452429915
100082.452429871
100082.452429818
100082.452429755
100082.452429688
100082.452429617
100082.452429544
100082.452429467
100082.452429389
100082.452429309
100082.452429226
100082.452429142
100082.452429057
100082.45242897
100082.452428882
100082.452428794
100082.452428705
100082.452428617
100082.452428529
100082.452428442
100082.452428356
100082.452428272
100082.45242819
100082.452428109
100082.452428031
100082.452427956
100082.452427883
100082.452427814
100082.452427747
100082.452427685
100082.452427625
100082.45242757
100082.452427518
100082.45242747
100082.452427427
100082.452427389
100082.452427355
100082.452427327
100082.452427304
100082.452427288
100082.452427277
100082.452427274
100082.452427276
100082.452427284
100082.452427295
100082.452427308
100082.452427315
100082.452427318
100082.450150085
100082.450150073
100082.450150051
100082.450150011
100082.450149962
100082.450149904
100082.45014984
100082.450149772
100082.450149701
100082.450149627
100082.450149551
100082.450149472
100082.450149391
100082.450149309
100082.450149225
100082.450149139
100082.450149053
100082.450148966
100082.450148879
100082.450148792
100082.450148706
100082.45014862
100082.450148536
100082.450148453
100082.450148372
100082.450148293
100082.450148216
100082.450148142
100082.45014807
100082.450148002
100082.450147936
100082.450147874
100082.450147816
100082.450147761
100082.45014771
100082.450147663
100082.45014762
100082.450147582
100082.450147549
100082.45014752
100082.450147497
100082.45014748
100082.450147468
100082.450147462
100082.450147462
100082.450147466
100082.450147473
100082.450147483
100082.450147487
100082.450147488
100082.447870215
100082.447870205
100082.447870184
100082.447870149
100082.447870103
100082.447870049
100082.447869989
100082.447869924
100082.447869855
100082.447869783
100082.447869709
100082.447869632
100082.447869553
100082.447869472
100082.44786939
100082.447869306
100082.447869221
100082.447869136
100082.44786905
100082.447868965
100082.44786888
100082.447868795
100082.447868712
100082.447868631
100082.447868551
100082.447868473
100082.447868397
100082.447868324
100082.447868254
100082.447868187
100082.447868122
100082.447868061
100082.447868003
100082.447867949
100082.447867899
100082.447867853
100082.447867811
100082.447867773
100082.447867739
100082.447867711
100082.447867687
100082.447867669
100082.447867656
100082.447867648
100082.447867645
100082.447867646
100082.44786765
100082.447867656
100082.447867658
100082.447867658
100082.445590343
100082.445590334
100082.445590316
100082.445590284
100082.445590242
100082.445590191
100082.445590134
100082.445590072
100082.445590006
100082.445589936
100082.445589864
100082.445589789
100082.445589712
100082.445589633
100082.445589552
100082.445589469
100082.445589386
100082.445589302
100082.445589218
100082.445589134
100082.445589051
100082.445588968
100082.445588886
100082.445588806
100082.445588727
100082.445588651
100082.445588576
100082.445588505
100082.445588435
100082.445588369
100082.445588306
100082.445588246
100082.445588189
100082.445588136
100082.445588086
100082.44558804
100082.445587998
100082.445587961
100082.445587927
100082.445587899
100082.445587875
100082.445587855
100082.445587841
100082.445587831
100082.445587826
100082.445587824
100082.445587825
100082.445587828
100082.445587828
100082.445587827
100082.443310471
100082.443310463
100082.443310446
100082.443310417
100082.443310378
100082.443310331
100082.443310277
100082.443310218
100082.443310154
100082.443310087
100082.443310017
100082.443309943
100082.443309868
100082.44330979
100082.443309711
100082.443309631
100082.443309549
100082.443309467
100082.443309384
100082.443309302
100082.443309219
100082.443309138
100082.443309058
100082.443308979
100082.443308902
100082.443308826
100082.443308753
100082.443308683
100082.443308615
100082.443308549
100082.443308487
100082.443308428
100082.443308372
100082.44330832
100082.443308271
100082.443308225
100082.443308184
100082.443308147
100082.443308113
100082.443308084
100082.44330806
100082.443308039
100082.443308024
100082.443308012
100082.443308005
100082.443308001
100082.443307999
100082.443307999
100082.443307998
100082.443307995
100082.441030597
100082.44103059
100082.441030576
100082.441030549
100082.441030513
100082.441030468
100082.441030417
100082.441030361
100082.4410303
100082.441030235
100082.441030167
100082.441030096
100082.441030022
100082.441029946
100082.441029869
100082.44102979
100082.44102971
100082.441029629
100082.441029548
100082.441029467
100082.441029386
100082.441029306
100082.441029228
100082.44102915
100082.441029074
100082.441029
100082.441028928
100082.441028859
100082.441028792
100082.441028728
100082.441028667
100082.441028608
100082.441028553
100082.441028502
100082.441028453
100082.441028409
100082.441028368
100082.44102833
100082.441028297
100082.441028268
100082.441028243
100082.441028221
100082.441028205
100082.441028191
100082.441028182
100082.441028176
100082.441028172
100082.44102817
100082.441028167
100082.441028164
100082.438750723
100082.438750717
100082.438750704
100082.43875068
100082.438750646
100082.438750605
100082.438750557
100082.438750503
100082.438750444
100082.438750382
100082.438750316
100082.438750247
100082.438750175
100082.438750101
100082.438750025
100082.438749948
100082.438749869
100082.43874979
100082.438749711
100082.438749631
100082.438749552
100082.438749474
100082.438749396
100082.43874932
100082.438749246
100082.438749173
100082.438749102
100082.438749034
100082.438748968
100082.438748905
100082.438748845
100082.438748788
100082.438748733
100082.438748682
100082.438748635
100082.438748591
100082.43874855
100082.438748513
100082.438748479
100082.43874845
100082.438748424
100082.438748402
100082.438748384
100082.438748369
100082.438748358
100082.43874835
100082.438748344
100082.43874834
100082.438748335
100082.438748331
100082.436470849
100082.436470843
100082.436470831
100082.43647081
100082.436470779
100082.43647074
100082.436470695
100082.436470644
100082.436470587
100082.436470527
100082.436470463
100082.436470396
100082.436470326
100082.436470254
100082.43647018
100082.436470105
100082.436470028
100082.43646995
100082.436469872
100082.436469794
100082.436469717
100082.43646964
100082.436469564
100082.436469489
100082.436469416
100082.436469344
100082.436469275
100082.436469208
100082.436469143
100082.436469081
100082.436469022
100082.436468966
100082.436468912
100082.436468862
100082.436468815
100082.436468771
100082.436468731
100082.436468694
100082.436468661
100082.436468631
100082.436468604
100082.436468582
100082.436468562
100082.436468546
100082.436468534
100082.436468523
100082.436468515
100082.436468509
100082.436468503
100082.436468499
100082.434190974
100082.434190969
100082.434190959
100082.43419094
100082.434190911
100082.434190875
100082.434190832
100082.434190784
100082.43419073
100082.434190672
100082.43419061
100082.434190545
100082.434190477
100082.434190407
100082.434190335
100082.434190261
100082.434190186
100082.43419011
100082.434190033
100082.434189957
100082.434189881
100082.434189805
100082.434189731
100082.434189657
100082.434189585
100082.434189515
100082.434189447
100082.434189381
100082.434189318
100082.434189257
100082.434189199
100082.434189143
100082.434189091
100082.434189041
100082.434188995
100082.434188951
100082.434188911
100082.434188875
100082.434188841
100082.434188811
100082.434188784
100082.43418876
100082.43418874
100082.434188723
100082.434188708
100082.434188696
100082.434188686
100082.434188678
100082.434188672
100082.434188666
100082.431911099
100082.431911096
100082.431911087
100082.43191107
100082.431911044
100082.43191101
100082.43191097
100082.431910924
100082.431910872
100082.431910816
100082.431910757
100082.431910694
100082.431910628
100082.431910559
100082.431910489
100082.431910417
100082.431910343
100082.431910269
100082.431910194
100082.431910119
100082.431910045
100082.43190997
100082.431909897
100082.431909825
100082.431909755
100082.431909686
100082.431909619
100082.431909555
100082.431909492
100082.431909432
100082.431909375
100082.43190932
100082.431909269
100082.43190922
100082.431909174
100082.431909131
100082.431909091
100082.431909055
100082.431909021
100082.431908991
100082.431908963
100082.431908939
100082.431908917
100082.431908899
100082.431908882
100082.431908869
100082.431908857
100082.431908847
100082.43190884
100082.431908834
100082.429631225
100082.429631223
100082.429631215
100082.4296312
100082.429631177
100082.429631146
100082.429631108
100082.429631064
100082.429631015
100082.429630961
100082.429630904
100082.429630843
100082.429630779
100082.429630712
100082.429630643
100082.429630573
100082.429630501
100082.429630428
100082.429630355
100082.429630282
100082.429630209
100082.429630136
100082.429630064
100082.429629994
100082.429629924
100082.429629857
100082.429629791
100082.429629728
100082.429629666
100082.429629608
100082.429629551
100082.429629498
100082.429629447
100082.429629398
100082.429629353
100082.429629311
100082.429629271
100082.429629234
100082.429629201
100082.42962917
100082.429629142
100082.429629117
100082.429629094
100082.429629074
100082.429629057
100082.429629041
100082.429629028
100082.429629017
100082.429629008
100082.429629001
100082.427351352
100082.427351351
100082.427351344
100082.427351332
100082.427351311
100082.427351282
100082.427351247
100082.427351205
100082.427351158
100082.427351107
100082.427351051
100082.427350992
100082.42735093
100082.427350866
100082.427350799
100082.42735073
100082.42735066
100082.427350588
100082.427350517
100082.427350445
100082.427350373
100082.427350302
100082.427350232
100082.427350162
100082.427350094
100082.427350028
100082.427349964
100082.427349901
100082.427349841
100082.427349783
100082.427349728
100082.427349675
100082.427349625
100082.427349577
100082.427349532
100082.42734949
100082.427349451
100082.427349415
100082.427349381
100082.42734935
100082.427349321
100082.427349295
100082.427349272
100082.427349251
100082.427349232
100082.427349214
100082.427349199
100082.427349186
100082.427349176
100082.427349169
100082.42507148
100082.42507148
100082.425071475
100082.425071465
100082.425071446
100082.42507142
100082.425071387
100082.425071347
100082.425071303
100082.425071254
100082.4250712
100082.425071143
100082.425071083
100082.42507102
100082.425070955
100082.425070888
100082.425070819
100082.42507075
100082.425070679
100082.425070609
100082.425070539
100082.425070469
100082.4250704
100082.425070332
100082.425070265
100082.4250702
100082.425070137
100082.425070076
100082.425070017
100082.42506996
100082.425069905
100082.425069853
100082.425069804
100082.425069757
100082.425069712
100082.425069671
100082.425069632
100082.425069595
100082.425069561
100082.42506953
100082.425069501
100082.425069474
100082.42506945
100082.425069427
100082.425069407
100082.425069388
100082.425069371
100082.425069356
100082.425069345
100082.425069337
100082.42279161
100082.42279161
100082.422791607
100082.4227916
100082.422791583
100082.422791559
100082.422791528
100082.422791491
100082.422791449
100082.422791402
100082.422791351
100082.422791296
100082.422791237
100082.422791176
100082.422791112
100082.422791047
100082.42279098
100082.422790912
100082.422790843
100082.422790775
100082.422790706
100082.422790637
100082.42279057
100082.422790503
100082.422790438
100082.422790374
100082.422790312
100082.422790251
100082.422790193
100082.422790137
100082.422790084
100082.422790032
100082.422789983
100082.422789937
100082.422789893
100082.422789852
100082.422789813
100082.422789777
100082.422789743
100082.422789711
100082.422789681
100082.422789654
100082.422789628
100082.422789605
100082.422789583
100082.422789562
100082.422789544
100082.422789527
100082.422789514
100082.422789505
100082.420511741
100082.420511743
100082.420511742
100082.420511736
100082.420511722
100082.420511701
100082.420511672
100082.420511637
100082.420511597
100082.420511552
100082.420511503
100082.42051145
100082.420511393
100082.420511334
100082.420511272
100082.420511208
100082.420511143
100082.420511076
100082.420511009
100082.420510942
100082.420510874
100082.420510807
100082.420510741
100082.420510675
100082.420510611
100082.420510548
100082.420510487
100082.420510428
100082.420510371
100082.420510316
100082.420510263
100082.420510213
100082.420510165
100082.420510119
100082.420510075
100082.420510034
100082.420509996
100082.420509959
100082.420509925
100082.420509893
100082.420509863
100082.420509835
100082.420509808
100082.420509783
100082.42050976
100082.420509738
100082.420509718
100082.420509699
100082.420509685
100082.420509674
100082.418231874
100082.418231877
100082.418231878
100082.418231876
100082.418231863
100082.418231845
100082.418231818
100082.418231786
100082.418231748
100082.418231705
100082.418231658
100082.418231606
100082.418231552
100082.418231494
100082.418231434
100082.418231371
100082.418231308
100082.418231243
100082.418231177
100082.418231111
100082.418231045
100082.418230979
100082.418230914
100082.41823085
100082.418230787
100082.418230725
100082.418230665
100082.418230607
100082.418230551
100082.418230497
100082.418230444
100082.418230395
100082.418230347
100082.418230302
100082.418230259
100082.418230218