/*--------------------------------*- C++ -*----------------------------------*\
  =========                 |
  \\      /  F ield         | OpenFOAM: The Open Source CFD Toolbox
   \\    /   O peration     | Website:  https://openfoam.org
    \\  /    A nd           | Version:  10
     \\/     M anipulation  |
\*---------------------------------------------------------------------------*/
FoamFile
{
    format      ascii;
    class       volScalarField;
    location    "4.2";
    object      p_rgh;
}
// * * * * * * * * * * * * * * * * * * * * * * * * * * * * * * * * * * * * * //

dimensions      [1 -1 -2 0 0 0 0];

internalField   nonuniform List<scalar> 
2500
(
82.6089340318576
82.6089420667558
82.608950339054
82.6089550662728
82.6089573204226
82.6089583599824
82.6089588025498
82.6089589614421
82.6089589900221
82.6089589564654
82.6089588938048
82.6089588157629
82.6089587286842
82.6089586360322
82.6089585394366
82.6089584401197
82.6089583386783
82.6089582361165
82.6089581330016
82.6089580298139
82.6089579271065
82.6089578253595
82.6089577249659
82.6089576263184
82.6089575298247
82.6089574358339
82.6089573445643
82.6089572563797
82.6089571715129
82.6089570901677
82.6089570125478
82.6089569388423
82.6089568691823
82.6089568036405
82.6089567423624
82.6089566852315
82.6089566320879
82.6089565824659
82.6089565350267
82.60895648734
82.6089564333233
82.6089563590212
82.6089562322741
82.6089559857646
82.6089554681384
82.6089543743874
82.6089520873502
82.6089473196771
82.6089389223489
82.6089310170646
82.6094573605806
82.6094827870984
82.6095045818947
82.6095170084009
82.6095232595253
82.60952627183
82.6095276412379
82.6095282095921
82.6095284072217
82.6095284390467
82.6095283999312
82.6095283299655
82.6095282455935
82.6095281537855
82.60952805751
82.609527958266
82.6095278569701
82.6095277544518
82.6095276513806
82.6095275482512
82.6095274456311
82.6095273439569
82.609527243636
82.6095271450613
82.6095270486112
82.6095269546349
82.6095268634235
82.609526775268
82.6095266904449
82.6095266091143
82.6095265315234
82.6095264578616
82.609526388158
82.6095263225725
82.6095262612362
82.609526204018
82.6095261505252
82.6095260998118
82.6095260492439
82.6095259922149
82.609525911932
82.6095257675042
82.6095254644169
82.6095248009951
82.6095233561355
82.6095203050645
82.6095140487596
82.6095015528117
82.6094793919328
82.60945428384
82.6099462827697
82.6099814852641
82.6100087686209
82.6100240216037
82.6100316493539
82.6100353080983
82.6100369721535
82.6100376685063
82.6100379186682
82.6100379707059
82.6100379387935
82.6100378712727
82.6100377877592
82.6100376962859
82.6100376001705
82.6100375010719
82.6100373999361
82.6100372975779
82.6100371946377
82.6100370916538
82.6100369891501
82.6100368876068
82.610036787446
82.6100366890023
82.6100365926541
82.6100364988088
82.6100364076847
82.610036319631
82.6100362348807
82.6100361536373
82.6100360761193
82.6100360025157
82.610035932812
82.6100358672411
82.6100358059484
82.6100357487303
82.6100356951792
82.6100356442039
82.6100355928938
82.6100355334202
82.6100354458176
82.6100352810899
82.6100349254266
82.6100341344572
82.6100323965657
82.6100287003355
82.610021057917
82.6100056729774
82.6099778087082
82.6099423983105
82.6103266096907
82.610360407285
82.6103836297116
82.6103961027693
82.6104020822822
82.6104048366687
82.6104060453363
82.6104065297986
82.6104066887783
82.6104067042324
82.6104066585103
82.6104065861146
82.6104065010295
82.6104064091487
82.6104063130479
82.6104062140948
82.6104061131919
82.6104060110811
82.6104059083737
82.6104058056517
82.6104057033808
82.6104056020704
82.6104055021278
82.6104054039024
82.6104053077725
82.6104052141018
82.6104051231814
82.6104050352733
82.610404950683
82.6104048695852
82.6104047921835
82.6104047186964
82.6104046491528
82.6104045836983
82.6104045225075
82.6104044654639
82.6104044122476
82.6104043621308
82.6104043130472
82.6104042596126
82.6104041879007
82.6104040633363
82.6104038039048
82.6104032298754
82.6104019477352
82.6103991432901
82.6103931169491
82.610380466489
82.6103566132369
82.6103220053628
82.6105808555585
82.6106065481581
82.6106224495015
82.6106306334841
82.6106343876163
82.6106360393023
82.6106367304455
82.6106369848276
82.6106370474881
82.6106370248453
82.6106369647459
82.6106368871988
82.6106368004112
82.6106367080793
82.6106366120221
82.6106365132728
82.6106364126608
82.6106363108993
82.6106362085266
82.6106361061393
82.6106360042322
82.6106359032274
82.6106358036195
82.6106357056997
82.6106356098753
82.6106355165102
82.6106354258518
82.6106353382202
82.6106352538482
82.6106351729686
82.6106350957853
82.6106350225018
82.6106349531619
82.6106348879257
82.6106348269532
82.610634770157
82.6106347174064
82.6106346682354
82.6106346215238
82.6106345741864
82.6106345184089
82.6106344346335
82.6106342754501
82.6106339358957
82.6106331731862
82.6106314660428
82.6106276534701
82.6106193028827
82.6106028513314
82.6105760955979
82.6107305369369
82.6107469718991
82.6107562213874
82.6107607612212
82.6107627443125
82.6107635640074
82.6107638790854
82.6107639695983
82.6107639639522
82.6107639140391
82.6107638434041
82.610763761928
82.6107636738016
82.610763581135
82.610763485136
82.6107633866632
82.6107632864296
82.6107631850609
82.6107630831539
82.6107629812032
82.6107628797181
82.6107627791498
82.6107626799349
82.6107625824516
82.6107624870201
82.6107623940188
82.6107623037242
82.6107622164418
82.6107621324045
82.6107620518305
82.6107619749382
82.6107619019167
82.6107618328679
82.6107617679372
82.6107617072412
82.6107616507798
82.6107615985529
82.6107615503279
82.6107615055807
82.6107614628563
82.6107614185603
82.6107613634667
82.6107612745254
82.6107611011394
82.6107607159938
82.610759840245
82.6107578019
82.6107531369489
82.6107434854348
82.6107260879216
82.610809647158
82.6108188065555
82.6108235127322
82.6108256828447
82.6108265669172
82.6108268887037
82.6108269837132
82.6108269787655
82.6108269327087
82.6108268661046
82.6108267886884
82.6108267045202
82.6108266154042
82.6108265225193
82.6108264266659
82.6108263284987
82.6108262287016
82.6108261278132
82.6108260264009
82.6108259249741
82.6108258240129
82.6108257239684
82.6108256252483
82.6108255282452
82.6108254333085
82.6108253407874
82.6108252509439
82.6108251640835
82.6108250804537
82.6108250002872
82.6108249237586
82.6108248511009
82.6108247824159
82.610824717849
82.6108246575313
82.610824601521
82.6108245498763
82.6108245025534
82.6108244594216
82.6108244200004
82.6108243831259
82.6108243453928
82.610824297677
82.610824220581
82.6108240559988
82.6108236785221
82.6108227454097
82.6108204919437
82.6108155308757
82.6108056749799
82.6108477417438
82.6108522817231
82.6108544010785
82.6108552787919
82.6108555855171
82.610855652325
82.6108556355903
82.6108555815154
82.6108555138344
82.6108554377279
82.6108553560916
82.6108552701044
82.610855180319
82.6108550873032
82.6108549916389
82.6108548938646
82.6108547945332
82.6108546941832
82.610854593353
82.6108544925082
82.6108543921582
82.6108542927104
82.6108541946014
82.6108540981804
82.6108540038113
82.6108539118286
82.6108538225235
82.610853736187
82.6108536530519
82.6108535733511
82.6108534973027
82.6108534250525
82.610853356804
82.6108532926737
82.6108532328217
82.6108531773498
82.6108531263453
82.6108530799393
82.6108530382189
82.6108530012571
82.6108529691264
82.610852941405
82.6108529157209
82.6108528879704
82.6108528350742
82.6108527124888
82.6108523606672
82.6108514282387
82.6108491633495
82.6108441938268
82.6108646396606
82.610866659219
82.6108674932475
82.6108677569719
82.6108677985467
82.6108677504089
82.6108676828881
82.610867605661
82.6108675269352
82.6108674455027
82.6108673612616
82.6108672740665
82.6108671838301
82.6108670908143
82.6108669954119
82.6108668980596
82.6108667992812
82.6108666995424
82.6108665993524
82.6108664992062
82.6108663995255
82.6108663007617
82.6108662033075
82.6108661075559
82.6108660138416
82.6108659224847
82.6108658337907
82.6108657480509
82.6108656654833
82.6108655863354
82.610865510811
82.6108654390846
82.6108653713309
82.6108653077245
82.6108652483963
82.610865193521
82.6108651432151
82.6108650976967
82.6108650572569
82.610865022245
82.6108649933594
82.6108649714442
82.6108649571688
82.6108649527014
82.6108649504604
82.6108649423841
82.6108648571535
82.610864554139
82.6108636414283
82.6108613869728
82.610871591678
82.610872392368
82.6108726569219
82.6108726644161
82.6108725997037
82.6108725065715
82.6108724184305
82.6108723311627
82.6108722469653
82.6108721625787
82.610872076737
82.6108719887707
82.6108718982869
82.6108718053874
82.6108717103198
82.6108716134913
82.610871515295
82.6108714162401
82.6108713167632
82.6108712173591
82.6108711184352
82.610871020428
82.6108709237305
82.6108708287211
82.6108707357344
82.610870645105
82.610870557095
82.6108704720245
82.6108703900973
82.6108703115606
82.6108702366328
82.6108701654884
82.6108700983023
82.6108700352779
82.6108699765464
82.6108699222968
82.6108698727476
82.610869828146
82.6108697888558
82.6108697554446
82.6108697288873
82.6108697105083
82.6108697021409
82.6108697079617
82.6108697262825
82.6108697627933
82.6108697839372
82.6108697440213
82.6108694358263
82.6108685174113
82.6108742436772
82.6108745138918
82.6108745529928
82.6108744697704
82.6108743704099
82.6108742638025
82.610874168895
82.6108740779455
82.6108739912452
82.6108739053016
82.610873818543
82.6108737301547
82.6108736396418
82.6108735469752
82.6108734523586
82.6108733560977
82.6108732585999
82.6108731603017
82.6108730616252
82.6108729630214
82.6108728649415
82.6108727677638
82.6108726718958
82.6108725777012
82.6108724855148
82.6108723956568
82.610872308418
82.6108722240751
82.6108721428609
82.6108720650227
82.6108719907497
82.6108719202457
82.6108718536998
82.6108717912866
82.6108717331954
82.6108716796298
82.6108716308227
82.6108715870942
82.6108715488663
82.6108715167938
82.6108714919537
82.6108714758157
82.6108714704897
82.6108714803559
82.6108715055452
82.6108715553273
82.6108716107847
82.6108716639428
82.6108715973241
82.6108712705754
82.6108751645515
82.6108752268483
82.6108751888678
82.6108750833228
82.6108749784034
82.6108748713741
82.6108747758553
82.6108746843092
82.6108745967795
82.6108745101956
82.6108744230587
82.6108743345685
82.6108742442157
82.610874151942
82.6108740578784
82.6108739623014
82.6108738655603
82.610873768077
82.6108736702736
82.610873572572
82.6108734753798
82.6108733791043
82.610873284124
82.6108731908171
82.6108730995038
82.6108730104897
82.6108729240805
82.6108728405379
82.6108727600949
82.6108726829989
82.6108726094535
82.610872539648
82.610872473786
82.6108724120422
82.6108723546349
82.6108723017678
82.6108722537174
82.6108722108038
82.6108721735363
82.6108721425553
82.6108721189958
82.6108721042547
82.6108721003984
82.6108721112832
82.6108721373603
82.6108721874771
82.6108722481731
82.6108723241632
82.6108723410871
82.6108722507488
82.6108754312008
82.6108754220186
82.610875364684
82.6108752618165
82.610875161743
82.6108750593412
82.6108749658597
82.6108748753759
82.6108747880353
82.6108747015096
82.6108746144455
82.610874526159
82.6108744361845
82.6108743444493
82.6108742510405
82.6108741562348
82.6108740603522
82.6108739637712
82.6108738668991
82.6108737701579
82.6108736739261
82.6108735786256
82.6108734846202
82.6108733922447
82.6108733018627
82.6108732137654
82.6108731282438
82.6108730455599
82.6108729659609
82.6108728896652
82.6108728168765
82.6108727478277
82.6108726826933
82.6108726216626
82.6108725649538
82.6108725127851
82.6108724654623
82.6108724233345
82.610872386882
82.6108723568177
82.6108723341458
82.6108723201905
82.6108723168436
82.61087232719
82.610872351579
82.6108723971411
82.6108724528167
82.6108725259401
82.6108725643717
82.6108725574595
82.6108754646411
82.6108754361776
82.6108753794979
82.6108752867294
82.610875194543
82.6108750983549
82.6108750081476
82.6108749196137
82.610874833219
82.6108747472608
82.6108746606478
82.6108745728416
82.6108744834637
82.6108743924124
82.610874299804
82.6108742058568
82.6108741109056
82.6108740152995
82.610873919446
82.6108738237235
82.6108737285249
82.6108736342576
82.6108735412708
82.6108734499139
82.6108733605215
82.6108732733992
82.6108731888089
82.6108731070417
82.6108730283158
82.6108729528787
82.6108728809195
82.6108728126565
82.6108727482788
82.6108726879756
82.6108726319944
82.6108725805389
82.6108725339145
82.6108724924998
82.6108724567603
82.6108724273799
82.6108724053047
82.6108723916841
82.6108723881771
82.6108723971411
82.6108724187216
82.6108724582155
82.6108725059603
82.6108725686354
82.6108726069506
82.6108726237726
82.6108754191519
82.6108753892186
82.6108753386507
82.610875257029
82.6108751730353
82.6108750833955
82.6108749969717
82.6108749109408
82.6108748260012
82.6108747410326
82.61087465522
82.6108745681704
82.6108744795492
82.6108743893419
82.6108742976357
82.6108742046636
82.6108741107164
82.6108740161726
82.6108739213814
82.6108738267503
82.6108737326576
82.6108736394817
82.6108735475718
82.6108734572917
82.6108733689471
82.6108732828288
82.6108731992426
82.6108731184358
82.6108730406559
82.6108729661064
82.6108728950057
82.6108728275722
82.6108727639803
82.6108727044484
82.6108726491802
82.6108725984377
82.6108725524828
82.6108725117083
82.6108724765654
82.6108724476944
82.6108724259539
82.6108724123187
82.6108724081714
82.6108724153019
82.6108724335791
82.6108724668011
82.6108725064259
82.6108725576778
82.6108725897502
82.6108726094826
82.6108753480803
82.6108753216249
82.6108752778528
82.6108752063883
82.6108751299616
82.6108750466374
82.6108749642153
82.6108748810075
82.610874797916
82.6108747142862
82.6108746295504
82.6108745434758
82.6108744558296
82.6108743665973
82.6108742759097
82.6108741839998
82.6108740911586
82.6108739977353
82.6108739040938
82.6108738106122
82.6108737176692
82.6108736256283
82.610873534868
82.6108734456939
82.6108733584406
82.6108732734137
82.6108731908607
82.6108731110726
82.610873034253
82.6108729606349
82.610872890451
82.6108728238614
82.6108727610845
82.6108727023238
82.6108726477978
82.6108725977247
82.6108725524246
82.6108725122176
82.6108724775695
82.6108724490477
82.610872427409
82.6108724134683
82.6108724083751
82.610872413381
82.6108724282531
82.6108724554651
82.610872487654
82.6108725286031
82.610872553676
82.6108725702652
82.6108752686414
82.6108752463188
82.610875208542
82.6108751457941
82.6108750761778
82.6108749987761
82.6108749203559
82.6108748401602
82.6108747591643
82.6108746771351
82.6108745937381
82.6108745088422
82.610874422302
82.6108743341902
82.6108742446377
82.6108741538774
82.6108740622149
82.6108739699848
82.6108738775365
82.6108737852774
82.6108736935421
82.610873602709
82.6108735131274
82.6108734251175
82.6108733390138
82.6108732550929
82.6108731736313
82.6108730948908
82.6108730190754
82.6108729464468
82.6108728771796
82.6108728114777
82.6108727495302
82.6108726915554
82.610872637757
82.6108725883678
82.6108725436497
82.6108725039667
82.6108724697115
82.610872441408
82.6108724196965
82.6108724052465
82.6108723990037
82.6108724017831
82.61087241325
82.6108724349469
82.6108724605729
82.610872492718
82.6108725116501
82.6108725240774
82.6108751860738
82.6108751673601
82.61087513456
82.6108750791609
82.6108750155399
82.6108749435807
82.610874869104
82.6108747919934
82.6108747133112
82.610874633101
82.610874551232
82.6108744676749
82.6108743824152
82.6108742955403
82.6108742072247
82.6108741177013
82.6108740272903
82.6108739363262
82.6108738451439
82.6108737541363
82.610873663667
82.6108735740854
82.6108734857262
82.6108733989386
82.6108733140136
82.6108732312423
82.6108731509012
82.6108730732376
82.6108729984844
82.6108729268453
82.6108728585241
82.6108727937244
82.61087273265
82.610872675461
82.6108726223756
82.6108725736412
82.6108725295053
82.6108724902733
82.6108724563237
82.6108724281075
82.6108724061924
82.6108723910875
82.6108723835496
82.6108723840589
82.6108723922807
82.6108724089718
82.6108724288933
82.6108724537189
82.6108724675578
82.6108724762744
82.6108751016436
82.6108750858257
82.6108750570857
82.6108750078711
82.6108749495615
82.6108748825936
82.6108748119441
82.610874737933
82.6108746616956
82.6108745834645
82.6108745032689
82.6108744212252
82.6108743373625
82.6108742518409
82.6108741648495
82.6108740766504
82.6108739875635
82.6108738979092
82.6108738080511
82.6108737183677
82.6108736291935
82.6108735408925
82.6108734538138
82.6108733682777
82.6108732845751
82.610873202997
82.6108731238055
82.6108730472624
82.6108729735715
82.6108729029511
82.6108728356194
82.6108727717365
82.6108727115061
82.6108726551174
82.6108726027596
82.610872554651
82.6108725110389
82.6108724722144
82.6108724385122
82.610872410296
82.6108723880461
82.6108723721991
82.6108723632788
82.6108723615616
82.6108723666839
82.610872378893
82.6108723938814
82.6108724126534
82.6108724224177
82.6108724281075
82.6108750156709
82.6108750021522
82.6108749767445
82.6108749327832
82.610874879203
82.6108748167899
82.6108747498074
82.6108746788814
82.6108746051468
82.6108745290112
82.6108744506346
82.6108743702207
82.6108742878714
82.610874203805
82.6108741182252
82.6108740314085
82.6108739437041
82.6108738554321
82.6108737669419
82.6108736786118
82.610873590791
82.6108735038288
82.6108734180452
82.6108733337896
82.6108732513385
82.6108731709828
82.6108730929845
82.6108730175765
82.610872944977
82.6108728754189
82.6108728090621
82.6108727461251
82.6108726867533
82.6108726311504
82.6108725795057
82.6108725320228
82.6108724889054
82.6108724504302
82.610872416888
82.6108723886136
82.6108723659563
82.6108723492798
82.610872338948
82.6108723350917
82.6108723373036
82.6108723455254
82.6108723562356
82.6108723699435
82.6108723764046
82.6108723797661
82.6108749281702
82.610874916485
82.6108748938568
82.6108748543775
82.6108748049883
82.6108747467515
82.6108746832761
82.6108746153768
82.6108745441888
82.610874470236
82.6108743937803
82.610874315098
82.610874234364
82.6108741518256
82.6108740677446
82.6108739823976
82.6108738961339
82.6108738093026
82.6108737222239
82.6108736353053
82.6108735488524
82.610873463258
82.6108733788133
82.6108732958673
82.6108732146968
82.6108731355926
82.6108730587875
82.6108729845437
82.6108729130647
82.6108728445688
82.6108727792162
82.6108727172104
82.6108726587263
82.6108726039092
82.610872552963
82.6108725060767
82.610872463425
82.6108724252699
82.6108723918442
82.6108723634243
82.6108723403304
82.6108723227662
82.6108723110374
82.6108723051293
82.6108723046636
82.6108723093348
82.6108723163052
82.6108723257785
82.610872329562
82.6108723310608
82.6108748392289
82.6108748290135
82.6108748087572
82.6108747731487
82.610874727543
82.6108746731334
82.6108746130049
82.6108745480742
82.6108744794474
82.610874407721
82.6108743332588
82.6108742563956
82.6108741773642
82.610874096441
82.6108740139171
82.610873930098
82.6108738453186
82.6108737599425
82.6108736743336
82.6108735888265
82.6108735037997
82.6108734195877
82.6108733365254
82.6108732549183
82.6108731750428
82.6108730972046
82.6108730216365
82.6108729485713
82.6108728782274
82.6108728107938
82.6108727464598
82.6108726854
82.6108726277744
82.6108725737577
82.6108725234953
82.6108724771766
82.610872434976
82.6108723970829
82.6108723637299
82.6108723351354
82.6108723115321
82.6108722930803
82.6108722799836
82.6108722721401
82.6108722691715
82.6108722706704
82.6108722743957
82.6108722803037
82.6108722818753
82.610872281919
82.6108747489052
82.6108747398976
82.6108747216786
82.6108746894752
82.6108746473037
82.6108745964302
82.6108745394886
82.6108744774392
82.6108744113735
82.6108743419172
82.6108742695214
82.6108741945354
82.6108741172648
82.610874038015
82.6108739570918
82.610873874859
82.610873791622
82.6108737077739
82.6108736236492
82.6108735396119
82.6108734560257
82.6108733732399
82.61087329156
82.6108732113062
82.6108731327549
82.6108730561973
82.6108729818661
82.6108729099942
82.6108728407999
82.6108727744431
82.6108727111277
82.6108726510283
82.6108725942759
82.6108725410159
82.6108724914375
82.6108724456717
82.6108724038786
82.6108723662328
82.6108723329235
82.6108723041107
82.6108722799836
82.6108722606441
82.6108722462232
82.6108722365316
82.6108722312638
82.6108722299396
82.6108722307836
82.6108722336503
82.6108722333593
82.6108722322097
82.6108746573736
82.6108746494283
82.6108746330137
82.6108746038517
82.6108745648089
82.6108745172387
82.6108744633384
82.6108744040976
82.6108743405639
82.6108742733923
82.610874203092
82.6108741300413
82.6108740545751
82.6108739770571
82.6108738978073
82.6108738171752
82.6108737355244
82.6108736532187
82.6108735706075
82.610873488069
82.6108734059526
82.6108733245928
82.6108732443245
82.6108731654385
82.6108730882261
82.6108730129636
82.6108729398838
82.6108728692197
82.6108728011604
82.6108727358951
82.6108726735984
82.6108726144303
82.6108725585364
82.6108725060622
82.6108724571386
82.6108724119113
82.6108723705111
82.6108723330835
82.6108722997742
82.6108722707286
82.6108722460631
82.6108722258359
82.6108722101199
82.6108721987111
82.6108721913188
82.610872187448
82.6108721857308
82.6108721859637
82.610872184101
82.6108721819619
82.6108745648235
82.610874557824
82.6108745430392
82.6108745166421
82.6108744804951
82.6108744360099
82.6108743850054
82.6108743285004
82.6108742674842
82.6108742026117
82.6108741344215
82.6108740633354
82.6108739897318
82.6108739139891
82.6108738364419
82.6108737574541
82.610873677404
82.61087359667
82.6108735156013
82.6108734345762
82.610873353944
82.6108732740249
82.6108731951826
82.6108731176791
82.61087304182
82.6108729678526
82.6108728960244
82.6108728265681
82.6108727596438
82.6108726954844
82.6108726342063
82.6108725759696
82.6108725209342
82.6108724692167
82.6108724209334
82.6108723762154
82.6108723351936
82.6108722979552
82.6108722646313
82.6108722353238
82.6108722101053
82.6108721890196
82.610872172052
82.6108721590281
82.6108721496712
82.6108721434721
82.6108721394849
82.6108721373748
82.6108721341443
82.6108721311466
82.6108744715311
82.6108744654048
82.610874452148
82.6108744282974
82.6108743948716
82.6108743532823
82.6108743050718
82.6108742512151
82.6108741926728
82.6108741300995
82.6108740640339
82.6108739949559
82.6108739232441
82.6108738492912
82.6108737734758
82.6108736961614
82.6108736177412
82.6108735385933
82.6108734590962
82.6108733795991
82.6108733004367
82.6108732220018
82.6108731445711
82.61087306845
82.6108729939442
82.6108729212865
82.6108728507243
82.6108727824612
82.6108727166866
82.610872653604
82.61087259333
82.6108725360391
82.6108724818478
82.6108724308724
82.6108723832149
82.6108723389916
82.6108722983045
82.6108722612407
82.6108722278877
82.6108721983037
82.6108721725323
82.6108721506025
82.6108721324417
82.6108721178898
82.6108721066994
82.6108720983902
82.6108720923075
82.6108720881166
82.6108720836346
82.6108720798802
82.6108743777295
82.6108743724326
82.6108743606164
82.6108743391524
82.6108743083023
82.6108742694923
82.610874223974
82.6108741727076
82.6108741166099
82.6108740563068
82.6108739923948
82.6108739253104
82.6108738555049
82.6108737833711
82.6108737093164
82.6108736337046
82.6108735569287
82.6108734793816
82.610873401456
82.6108733234869
82.6108732458379
82.6108731688582
82.6108730928536
82.6108730181295
82.6108729449625
82.6108728735999
82.6108728042891
82.6108727372193
82.6108726726088
82.6108726105886
82.6108725513186
82.6108724949445
82.6108724415826
82.6108723913349
82.6108723442885
82.6108723005455
82.6108722601784
82.6108722232602
82.610872189849
82.6108721599885
82.6108721336786
82.6108721109049
82.6108720916091
82.6108720756019
82.6108720626944
82.6108720524207
82.6108720444317
82.6108720382908
82.6108720326738
82.6108720282064
82.6108742837387
82.6108742792858
82.6108742688666
82.6108742497017
82.6108742212964
82.610874185164
82.6108741422358
82.6108740934869
82.6108740398049
82.6108739817573
82.6108739199844
82.6108738549374
82.6108737870381
82.6108737167524
82.6108736444439
82.6108735705347
82.6108734954323
82.6108734195004
82.610873343132
82.6108732667053
82.6108731905551
82.6108731150307
82.6108730404521
82.6108729671105
82.6108728952968
82.6108728252293
82.6108727571554
82.6108726912935
82.6108726277889
82.6108725668309
82.6108725085651
82.6108724530932
82.6108724005462
82.6108723509969
82.6108723045472
82.6108722612698
82.6108722212084
82.6108721844066
82.6108721509372
82.6108721207711
82.6108720939228
82.6108720703342
82.6108720499324
82.6108720325428
82.61087201802
82.6108720058837
82.6108719961048
82.6108719881595
82.6108719814511
82.6108719762851
82.6108741898497
82.6108741862554
82.6108741772186
82.6108741603093
82.6108741342759
82.6108741007192
82.6108740603086
82.6108740140335
82.6108739627234
82.6108739069168
82.6108738472685
82.6108737842296
82.6108737182658
82.6108736498136
82.6108735792805
82.6108735070884
82.6108734336303
82.6108733593137
82.6108732845169
82.6108732096181
82.6108731349668
82.6108730608976
82.6108729877305
82.6108729157713
82.6108728452818
82.6108727764949
82.610872709658
82.6108726449602
82.6108725825761
82.6108725226659
82.610872465375
82.6108724107908
82.6108723590296
82.6108723101788
82.6108722642966
82.6108722214412
82.6108721816709
82.6108721449855
82.6108721114288
82.6108720809716
82.6108720535703
82.6108720291959
82.6108720077173
82.6108719890035
82.6108719729382
82.6108719590411
82.6108719475451
82.610871937839
82.6108719300391
82.6108719241747
82.6108740963537
82.6108740936761
82.6108740860509
82.6108740713826
82.6108740476484
82.6108740166237
82.6108739786723
82.6108739348274
82.6108738858311
82.6108738322509
82.6108737746981
82.6108737136819
82.6108736496244
82.6108735830057
82.6108735142479
82.6108734437585
82.6108733719593
82.6108732992579
82.6108732260327
82.6108731526474
82.6108730794804
82.6108730068518
82.6108729350963
82.6108728644904
82.6108727953106
82.6108727277897
82.6108726621751
82.6108725986269
82.6108725373488
82.6108724784717
82.6108724221267
82.610872368401
82.6108723174111
82.6108722692297
82.6108722239005
82.6108721814526
82.6108721419441
82.6108721053606
82.610872071702
82.6108720409247
82.6108720129996
82.6108719878393
82.6108719653275
82.6108719453186
82.6108719277836
82.6108719121548
82.6108718990145
82.6108718875621
82.6108718786709
82.6108718720352
82.6108740035852
82.6108740019117
82.6108739957417
82.6108739833144
82.6108739618503
82.610873933314
82.6108738977637
82.6108738563053
82.6108738095936
82.6108737581962
82.6108737027535
82.6108736437163
82.6108735815797
82.61087351678
82.6108734497684
82.6108733809815
82.6108733108267
82.6108732397115
82.6108731680288
82.6108730961569
82.6108730244596
82.6108729532571
82.6108728828694
82.6108728136023
82.6108727457322
82.6108726794628
82.6108726150269
82.6108725526283
82.6108724924125
82.6108724345395
82.6108723791112
82.6108723262441
82.6108722760109
82.6108722284698
82.6108721836499
82.6108721416094
82.6108721023338
82.6108720658231
82.6108720320481
82.6108720009652
82.6108719724871
82.6108719465701
82.6108719230397
82.6108719017793
82.6108718827891
82.6108718655014
82.6108718507166
82.610871837489
82.6108718274481
82.610871819983
82.6108739117917
82.6108739112387
82.6108739066112
82.6108738964977
82.6108738773037
82.6108738512266
82.6108738180337
82.6108737789036
82.6108737344621
82.6108736852038
82.6108736318274
82.6108735747694
82.6108735145099
82.6108734515292
82.6108733862784
82.610873319165
82.61087325064
82.6108731811109
82.6108731109562
82.6108730405685
82.6108729703119
82.6108729005064
82.6108728315012
82.6108727635437
82.6108726969251
82.610872631878
82.6108725686208
82.6108725073282
82.6108724481601
82.6108723912621
82.6108723367361
82.6108722846839
82.6108722351782
82.6108721882483
82.6108721439377
82.6108721022465
82.6108720631892
82.6108720267366
82.6108719928307
82.6108719614276
82.6108719324111
82.6108719057374
82.6108718812029
82.6108718587202
82.6108718383184
82.6108718193573
82.6108718029282
82.6108717878669
82.6108717765746
82.6108717681636
82.6108738212934
82.6108738220064
82.6108738190378
82.6108738113107
82.6108737943723
82.61087377074
82.6108737398608
82.6108737030445
82.6108736608003
82.6108736136812
82.610873562342
82.6108735072194
82.6108734488371
82.6108733876463
82.6108733241126
82.6108732586581
82.6108731917338
82.6108731237618
82.6108730551059
82.610872986188
82.6108729173429
82.6108728489198
82.6108727812389
82.610872714562
82.6108726491948
82.610872585341
82.6108725232189
82.6108724629885
82.6108724048536
82.6108723489015
82.6108722952486
82.6108722439822
82.6108721951605
82.6108721488126
82.6108721049677
82.6108720636257
82.6108720247721
82.6108719883487
82.6108719543117
82.610871922574
82.6108718930045
82.6108718655742
82.6108718400646
82.6108718163596
82.6108717945608
82.6108717739262
82.6108717558382
82.610871738827
82.6108717261523
82.6108717166499
82.6108737323812
82.6108737345203
82.6108737333852
82.6108737281465
82.6108737135073
82.6108736923052
82.6108736637107
82.6108736291499
82.6108735890884
82.6108735440503
82.6108734947047
82.6108734415029
82.6108733849542
82.6108733255242
82.6108732636931
82.6108731998684
82.6108731345303
82.6108730680571
82.6108730008855
82.6108729333937
82.610872865931
82.6108727988467
82.6108727324608
82.61087266705
82.610872602876
82.6108725401718
82.6108724791557
82.6108724199876
82.6108723628131
82.6108723077778
82.6108722549689
82.6108722044592
82.6108721562923
82.610872110512
82.6108720671036
82.6108720260818
82.6108719873882
82.6108719509939
82.6108719167823
82.6108718846954
82.6108718545875
82.610871826415
82.6108717999159
82.610871775003
82.6108717518218
82.6108717294846
82.610871709694
82.6108716906165
82.6108716763993
82.6108716656017
82.6108736452734
82.6108736491005
82.6108736499591
82.6108736473398
82.6108736350288
82.6108736162569
82.6108735899033
82.6108735575835
82.6108735196467
82.6108734766603
82.6108734292793
82.6108733779693
82.6108733232104
82.6108732655121
82.6108732053253
82.6108731431013
82.6108730792912
82.6108730143169
82.6108729485859
82.6108728824765
82.6108728163672
82.610872750578
82.6108726854582
82.6108726212551
82.6108725582453
82.6108724966616
82.6108724366932
82.6108723785437
82.6108723223151
82.6108722681529
82.6108722161298
82.6108721663477
82.6108721188066
82.6108720735501
82.6108720305638
82.6108719898184