/*--------------------------------*- C++ -*----------------------------------*\
  =========                 |
  \\      /  F ield         | OpenFOAM: The Open Source CFD Toolbox
   \\    /   O peration     | Website:  https://openfoam.org
    \\  /    A nd           | Version:  10
     \\/     M anipulation  |
\*---------------------------------------------------------------------------*/
FoamFile
{
    format      ascii;
    class       surfaceScalarField;
    location    "4.2";
    object      phi;
}
// * * * * * * * * * * * * * * * * * * * * * * * * * * * * * * * * * * * * * //

dimensions      [1 0 -1 0 0 0 0];

internalField   nonuniform List<scalar> 
4900
(
-6.40250505943679e-12
6.61667229348313e-12
-7.69469902497665e-12
1.61728510267012e-12
-6.03942364679305e-12
-1.30472076735966e-12
-4.04447976749909e-12
-1.64664856695638e-12
-2.57514286722839e-12
-1.12642091612502e-12
-1.64571036353846e-12
-5.90337597752688e-13
-1.07780017958272e-12
-2.31564925433339e-13
-7.2944472137482e-13
-1.43074917628227e-14
-5.06983303743203e-13
1.09576177145201e-13
-3.57645163589327e-13
1.81004316151303e-13
-2.51872460701555e-13
2.23203164548604e-13
-1.73266392443192e-13
2.49309510091427e-13
-1.12638021938296e-13
2.66460444702212e-13
-6.45793462912118e-14
2.78373128806842e-13
-2.57925175145305e-14
2.87083424426433e-13
5.88335299795269e-15
2.93690081925936e-13
3.19257612950078e-14
2.98835009418247e-13
5.34294879543547e-14
3.02895278681555e-13
7.12359481238364e-14
3.06107367552101e-13
8.60165221845028e-14
3.0865217568018e-13
9.83322457248932e-14
3.1063347513763e-13
1.08673674086814e-13
3.1213667217091e-13
1.17459439418178e-13
3.13229219409599e-13
1.25085765161284e-13
3.13947400871119e-13
1.31904099570074e-13
3.14331437857895e-13
1.38280312483293e-13
3.14379506917267e-13
1.44551447131503e-13
3.14115043607515e-13
1.51077339539823e-13
3.13526471195994e-13
1.58231271458575e-13
3.12595457552528e-13
1.66406767716683e-13
3.11311493596001e-13
1.76066327882174e-13
3.09601437003646e-13
1.87745767340673e-13
3.07402005024976e-13
2.02063551428862e-13
3.04628302778242e-13
2.19833406113729e-13
3.01097890786661e-13
2.42134095358152e-13
2.965489178139e-13
2.70456901505521e-13
2.90589322927179e-13
3.06953674091429e-13
2.82571877431979e-13
3.54951789486285e-13
2.71350784430736e-13
4.19857581327505e-13
2.5486493903093e-13
5.10932122598249e-13
2.29277970708622e-13
6.44615199353751e-13
1.87400636046237e-13
8.50510478141988e-13
1.16051561187785e-13
1.18142895962548e-12
-7.9656146268509e-15
1.73187582124382e-12
-2.26129386732466e-13
2.64588247382802e-12
-5.87283808579191e-13
4.1108578033965e-12
-1.13346215766638e-12
6.13133945859492e-12
-1.68052103831079e-12
7.83874521255573e-12
-1.35545629054796e-12
6.52109930577146e-12
1.66827112752286e-12
6.76127197405139e-12
-7.77635312849032e-12
1.46882376989706e-11
-1.21214366166834e-11
6.37608828022273e-12
-1.03668186135784e-11
-2.62529941599453e-12
-7.4967709451696e-12
-4.08861298148064e-12
-5.14054062383226e-12
-3.06320594046372e-12
-3.54594983651312e-12
-1.77174929740295e-12
-2.5119022531864e-12
-8.56738679061931e-13
-1.8351760341281e-12
-2.85366752669301e-13
-1.37436130286664e-12
5.18891335106868e-14
-1.04469966323618e-12
2.52450355743735e-13
-7.97517643712128e-13
3.75542148017587e-13
-6.04852323256607e-13
4.54939930240567e-13
-4.50204087891712e-13
5.09144410019061e-13
-3.23385385008802e-13
5.48107658930822e-13
-2.17801427753653e-13
5.7737475750663e-13
-1.28922689530671e-13
6.00068529586661e-13
-5.34950091404807e-14
6.18061847697308e-13
1.09474460852641e-14
6.32513912026672e-13
6.63363458032756e-14
6.44179707712544e-13
1.14259198303454e-13
6.53595178207358e-13
1.56055708562524e-13
6.61106634197598e-13
1.92899379779824e-13
6.66981892303397e-13
2.25826900309168e-13
6.71421146246381e-13
2.55798881512534e-13
6.74552853691183e-13
2.83719741590705e-13
6.76469280064009e-13
3.10485963995741e-13
6.77189481198664e-13
3.36975294832077e-13
6.76752008240506e-13
3.64095764347505e-13
6.75125976359471e-13
3.92796837747035e-13
6.72247244823975e-13
4.24108116824416e-13
6.68036457556959e-13
4.59188057141352e-13
6.62287173916284e-13
4.99368232039628e-13
6.54775029271301e-13
5.46207730212489e-13
6.45186279803864e-13
6.01640276209788e-13
6.3297885020268e-13
6.6816000528763e-13
6.17335953920567e-13
7.49071076516767e-13
5.97082050701505e-13
8.48951018958644e-13
5.70314049366389e-13
9.74465109431026e-13
5.33834534120732e-13
1.13586477914102e-12
4.82017546930014e-13
1.34979858506783e-12
4.0465093450642e-13
1.6443935400167e-12
2.83057513002809e-13
2.06855950521714e-12
8.32723980860883e-14
2.70749999574684e-12
-2.54108627797714e-13
3.70412459571189e-12
-8.2783470980008e-13
5.26637700904766e-12
-1.75063932476655e-12
7.61200292655851e-12
-3.07236162515372e-12
1.05297039010002e-11
-4.17844343799998e-12
1.23819832253338e-11
-2.77394316391886e-12
8.00124441613403e-12
6.46584269364e-12
1.50277137572368e-11
-4.61429328591511e-12
1.96080671648843e-11
-9.8328807492506e-12
1.20006859805217e-11
-9.40242619740868e-12
-2.64423955540176e-12
-7.49528684809378e-12
-5.59561089830672e-12
-5.62884516250023e-12
-4.54135947675235e-12
-4.21230184286813e-12
-2.80840268754685e-12
-3.2014076404246e-12
-1.49316065637834e-12
-2.47934230577029e-12
-6.36549316353676e-13
-1.94957957169033e-12
-1.09527103877398e-13
-1.54715804441419e-12
2.16502074044902e-13
-1.23146784661446e-12
4.2490245536715e-13
-9.77180913317341e-13
5.64610852636587e-13
-7.68046523425614e-13
6.63098860466922e-13
-5.93276856807931e-13
7.3571063030238e-13
-4.45421435844348e-13
7.91257168275161e-13
-3.1911058550071e-13
8.3490863533401e-13
-2.10334663496839e-13
8.69861003121531e-13
-1.15978994232653e-13
8.98164925898122e-13
-3.35522922806461e-14
9.21183747532166e-13
3.90211018428866e-14
9.39881577819806e-13
1.03506572403065e-13
9.54909929008295e-13
1.61462101061485e-13
9.66759540710332e-13
2.14284041035839e-13
9.75788607947873e-13
2.63270165132437e-13
9.82238211428908e-13
3.09652819994897e-13
9.86263505111155e-13
3.54637622450498e-13
9.87922046275111e-13
3.99429946342927e-13
9.8724881955326e-13
4.45267313000414e-13
9.8419200004867e-13
4.9344320138508e-13
9.78626719331823e-13
5.4536920751203e-13
9.70367108546371e-13
6.02607119631355e-13
9.59051675926312e-13
6.66942204379265e-13
9.44244767438158e-13
7.40456395082373e-13
9.25333456834925e-13
8.25675355566142e-13
9.01347906447521e-13
9.25766563932893e-13
8.70834836708256e-13
1.04480558862225e-12
8.31734917238782e-13
1.18822644257787e-12
7.80804087596044e-13
1.36354307539907e-12
7.12799490700093e-13
1.58159764840937e-12
6.18788659192475e-13
1.85873823722554e-12
4.83077312983243e-13
2.22041322352692e-12
2.77894763771025e-13
2.70745123368787e-12
-4.60631095597341e-14
3.38540187856773e-12
-5.7274706484201e-13
4.35238143537608e-12
-1.43287537420839e-12
5.73070720297053e-12
-2.76197064684282e-12
7.58193047139137e-12
-4.54672989253441e-12
9.53489585664262e-12
-5.73832680205712e-12
1.00790921074905e-11
-2.90984306969461e-12
4.85004680057993e-12
1.20832930580481e-11
2.01170062074855e-11
-2.4867694058868e-12
2.23901658663718e-11
-6.03307025101354e-12
1.59239073578364e-11
-6.69239455421982e-12
-1.61415981459148e-12
-6.06592817628309e-12
-5.86674161119714e-12
-5.07851753604788e-12
-5.18727700681298e-12
-4.13568253209485e-12
-3.4192898893949e-12
-3.35158507951585e-12
-1.95122278766425e-12
-2.72427199946147e-12
-9.414605458481e-13
-2.22505538113059e-12
-2.88701752552326e-13
-1.82404706325639e-12
1.33893984316464e-13
-1.49756711754507e-12
4.1560695863739e-13
-1.22806712548591e-12
6.11359994013405e-13
-1.00269763639885e-12
7.53220682056422e-13
-8.12064947644091e-13
8.59930060182181e-13
-6.49206812415372e-13
9.42672490362997e-13
-5.08857455439145e-13
1.00829021389837e-12
-3.86941936478305e-13
1.0611394790279e-12
-2.80216005893421e-13
1.1041013207905e-12
-1.86046199382263e-13
1.13913748385301e-12
-1.02208687221448e-13
1.16763326109597e-12
-2.67996847113714e-14
1.19055522158903e-12
4.18681842347726e-14
1.20862585502932e-12
1.0532058019501e-13
1.22236124992335e-12
1.64977158758114e-13
1.23212290954095e-12
2.22189162562729e-13
1.23812992073669e-12
2.7827694743113e-13
1.24048324348039e-12
3.34556596628085e-13
1.23921810815432e-12
3.92382594828007e-13
1.23425499107476e-12
4.53169363943519e-13
1.22540521765098e-12
5.18465029941485e-13
1.21235872895138e-12
5.89958187076371e-13
1.19461031051092e-12
6.69582269251805e-13
1.17149002582057e-12
7.59569772820577e-13
1.1420842108229e-12
8.62600162920032e-13
1.10499032226277e-12
9.81940973244469e-13
1.05817217023211e-12
1.12171229096328e-12
9.98738772450807e-13
1.28722060924952e-12
9.2227652692716e-13
1.48544199417039e-12
8.21902697565834e-13
1.72574964492965e-12
6.86307481917487e-13
2.02096019406872e-12
4.96378368821083e-13
2.38855491458589e-12
2.19697303684162e-13
2.85216435015234e-12
-1.99124815332538e-13
3.44190375702966e-12
-8.50309986583118e-13
4.18735738160127e-12
-1.86339785616672e-12
5.09512687599156e-12
-3.34943424952163e-12
6.06609239943776e-12
-5.18681471267575e-12
6.72738099571125e-12
-6.0511157121203e-12
6.17154179302492e-12
-1.98924875156802e-12
2.63772174802304e-12
1.59627413413551e-11
2.29632616487024e-11
-1.4347543045764e-12
2.40902850753111e-11
-3.19579706257302e-12
1.80100046753238e-11
-4.38063248874306e-12
-1.20176301715983e-13
-4.61272354632879e-12
-5.34222981315615e-12
-4.30464941853369e-12
-5.21666675292832e-12
-3.77795186501888e-12
-3.67665651749253e-12
-3.22818495473636e-12
-2.23729818574916e-12
-2.72728087245781e-12
-1.18195315241663e-12
-2.29547738833814e-12
-4.62090212161302e-13
-1.93069129523512e-12
2.61965843103553e-14
-1.62403270868373e-12
3.65063425524268e-13
-1.36558471548901e-12
6.08263907182313e-13
-1.14642149743037e-12
7.88769774057017e-13
-9.5918191742894e-13
9.26845242222496e-13
-7.97964077069421e-13
1.035090695331e-12
-6.58069100937434e-13
1.12153680316689e-12
-5.35737536600256e-13
1.19145526358818e-12
-4.27894749673495e-13
1.24841446062048e-12
-3.32005319762359e-13
1.29490510416182e-12
-2.45897940099411e-13
1.33268785347419e-12
-1.67704439109763e-13
1.36302859889412e-12
-9.57559620159656e-14
1.38686255735843e-12
-2.85387614791612e-14
1.4048579014658e-12
3.53550251231141e-14
1.41749469739126e-12
9.72710059594047e-14
1.42505120348838e-12
1.58520296740883e-13
1.42767449370213e-12
2.20408297835593e-13
1.42540104932725e-12
2.8428356857857e-13
1.41811887475269e-12
3.51548301706613e-13
1.40558126995815e-12
4.23731771020962e-13
1.38736112595666e-12
5.02497685914481e-13
1.36281486849411e-12
5.89736509550036e-13
1.33105581184745e-12
6.87618220950193e-13
1.290889032974e-12
7.98714183477512e-13
1.2405240768577e-12
9.26092745154084e-13
1.17743034313718e-12
1.07353280885846e-12
1.09802643098846e-12
1.2457314513296e-12
9.96991401438685e-13
1.44854470524746e-12
8.66309517240562e-13
1.68924603890573e-12
6.9326787571986e-13
1.97660785439786e-12
4.57276074928316e-13
2.32028236606894e-12
1.25053509173803e-13
2.72876811162338e-12
-3.57569224214308e-13
3.20373979356141e-12
-1.07378552398706e-12
3.72470577718199e-12
-2.13036808111941e-12
4.22286852425317e-12
-3.58865022251486e-12
4.51530426718979e-12
-5.21032708264218e-12
4.30922017490999e-12
-5.5590429882705e-12
3.20704219134188e-12
-5.85578719566756e-13
1.47795233748263e-12
1.7976742372083e-11
2.46073230339126e-11
-8.43626735500618e-13
2.51576321728705e-11
-1.67995509863132e-12
1.91081277081318e-11
-2.98305135177088e-12
1.424192456527e-12
-3.5859057803208e-12
-4.51426653634426e-12
-3.64256541255852e-12
-4.94735756979371e-12
-3.38135489564194e-12
-3.73359345012811e-12
-3.00648051962438e-12
-2.41284561129681e-12
-2.61609197716655e-12
-1.3757642744621e-12
-2.2538786292974e-12
-6.29304216529713e-13
-1.93375200105565e-12
-9.99385947184923e-14
-1.6566638343734e-12
2.81224829295979e-13
-1.41850467477919e-12
5.62753037232771e-13
-1.21376170829452e-12
7.76146406160784e-13
-1.03707974665031e-12
9.41803462695198e-13
-8.83762522579701e-13
1.0729534504862e-12
-7.49847050633676e-13
1.17835423796384e-12
-6.32035725741247e-13
1.26392531868592e-12
-5.27551576255798e-13
1.33376035734614e-12
-4.34058961343762e-13
1.39078343754006e-12
-3.49529376975214e-13
1.43707323812354e-12
-2.72205100372211e-13
1.47416234978806e-12
-2.00498707520205e-13
1.50316982707469e-12
-1.32967673891833e-13
1.52490543024258e-12
-6.82561164441915e-14
1.53994823191557e-12
-5.08071615902276e-15
1.54864563455281e-12
5.78174309177553e-14
1.55118027117239e-12
1.21686355792107e-13
1.54759517228833e-12
1.87816350195322e-13
1.53774637636786e-12
2.57550599487235e-13
1.5213299681692e-12
3.32341137982261e-13
1.49781983677416e-12
4.137674245478e-13
1.46644064229635e-12
5.03598844468214e-13
1.42612574630775e-12
6.03860008590376e-13
1.37542347117433e-12
7.16902879811976e-13
1.31222675688768e-12
8.45479976933451e-13
1.23360710740007e-12
9.92883444670452e-13
1.13545942288994e-12
1.16303911121468e-12
1.0118365301952e-12
1.36056408552689e-12
8.5405059691297e-13
1.59067263666076e-12
6.48798373572171e-13
1.8586413827075e-12
3.75442195094317e-13
2.16818262103912e-12
2.27647384017308e-15
2.5176967704487e-12
-5.19500777540119e-13
2.8923687990674e-12
-1.25969636830748e-12
3.24737361333018e-12
-2.29457100762514e-12
3.48653410869234e-12
-3.63288024654917e-12
3.41643777628116e-12
-4.93665953927559e-12
2.83553769739083e-12
-4.75925627258758e-12
1.59699730975216e-12
8.86158109705813e-13
8.10689693507132e-13
1.89821638930236e-11
2.55421039771278e-11
-4.42241193669295e-13
2.57698409764085e-11
-1.05654444511714e-12
1.990849152885e-11
-2.26907896765211e-12
2.80060014257682e-12
-2.93934939710071e-12
-3.69344092552237e-12
-3.13952885382375e-12
-4.60641901393492e-12
-3.02430204605185e-12
-3.71468605045224e-12
-2.76707347705393e-12
-2.53979873853505e-12
-2.4628630662123e-12
-1.55174872483318e-12
-2.16129834464487e-12
-8.03747757235032e-13
-1.88349307264539e-12
-2.5130370215938e-13
-1.63618554073126e-12
1.59840720256339e-13
-1.41935491116461e-12
4.7139832327267e-13
-1.2302420278111e-12
7.12086820637581e-13
-1.06527962560773e-12
9.01489999506288e-13
-9.20936547408399e-13
1.05285602896785e-12
-7.94000523237924e-13
1.17526428217803e-12
-6.81671887673318e-13
1.27503402398129e-12
-5.8151578458178e-13
1.35663100457132e-12
-4.91421085505674e-13
1.42329606629242e-12
-4.09534582370866e-13
1.47737753810858e-12
-3.34219284624095e-13
1.52061951780861e-12
-2.6398453020248e-13
1.55430137442871e-12
-1.97475149666425e-13
1.57936389818666e-12
-1.33402945272658e-13
1.59646560452972e-12
-7.05527926344031e-14
1.60602338649988e-12
-7.72571585709165e-15
1.60824659615345e-12
5.62632142021035e-14
1.60318840085282e-12
1.22637191224904e-13
1.59067606212601e-12
1.92668954541771e-13
1.5703525938205e-12
2.67723954927424e-13
1.54160776612094e-12
3.49279250828437e-13
1.50355100184597e-12
4.3897198609675e-13
1.45496526320801e-12
5.38654181170946e-13
1.39418088531713e-12
6.50431628926352e-13
1.31884844322194e-12
7.76708581028004e-13
1.22574051097834e-12
9.20267570716413e-13
1.11038727780324e-12
1.08425457593198e-12
9.66480748488085e-13
1.27211131834965e-12
7.85049202564702e-13
1.48722666188634e-12
5.52839828851212e-13
1.73208595741249e-12
2.50122053420492e-13
2.00625838142362e-12
-1.51894906589759e-13
2.30224313214479e-12
-6.94909459275165e-13
2.59782091673057e-12
-1.43389153142838e-12
2.84190277474371e-12
-2.4158521854621e-12
2.94087937113391e-12
-3.60603127822832e-12
2.73078324823549e-12
-4.59393743746214e-12
2.08216502832566e-12
-3.96528718914153e-12
9.24668046288542e-13
2.20073207074176e-12
3.73449096347458e-13
1.96796528626454e-11
2.59927500989567e-11
-1.89546348678612e-13
2.60729798315575e-11
-8.51450526716364e-13
2.06817768217921e-11
-1.89625399766925e-12
3.93710266483669e-12
-2.51098691773811e-12
-2.99664919901393e-12
-2.74810355508547e-12
-4.29406979284151e-12
-2.71176910539323e-12
-3.68046785950619e-12
-2.53439069424086e-12
-2.64932378709205e-12
-2.29686602018033e-12
-1.72277692171003e-12
-2.04632205352005e-12
-9.88467878872048e-13
-1.8061629146123e-12
-4.26036663339893e-13
-1.58631645850331e-12
5.09512183200818e-15
-1.38959224476737e-12
3.39459135402823e-13
-1.21539256909612e-12
6.02342154802933e-13
-1.06168533780841e-12
8.11901645977239e-13
-9.25997199656027e-13
9.8093699707289e-13
-8.05833276956228e-13
1.11851537601274e-12
-6.98879098527797e-13
1.23112762240802e-12
-6.03040082448642e-13
1.32346894046884e-12
-5.16440707374609e-13
1.39899301960304e-12
-4.3740101461324e-13
1.4602553536137e-12
-3.64409498726958e-13
1.50916490786806e-12
-2.96080037917218e-13
1.54713829578678e-12
-2.31136358818075e-13
1.57522298859925e-12
-1.68361337038359e-13
1.59414816785307e-12
-1.06602977310209e-13
1.60439253711959e-12
-4.47279086684734e-14
1.60619392477107e-12
1.83930933931215e-14
1.59960582612714e-12
8.39175847325078e-14
1.58443723027471e-12
1.5305048438477e-13
1.56027858647745e-12
2.27070505378342e-13
1.52645598118718e-12
3.07351771296358e-13
1.48197884361738e-12
3.95400229246981e-13
1.42550797448285e-12
4.92888216698772e-13
1.35520396928326e-12
6.01679926206016e-13
1.26853558919037e-12
7.23839135932784e-13
1.16207456486066e-12
8.61649569016757e-13
1.03114137794165e-12
1.01752726566725e-12
8.6929355874381e-13
1.19385239547458e-12
6.67600063286859e-13
1.39246743505087e-12
4.13334171670273e-13
1.61368919362403e-12
8.82818495775417e-14
1.85425242086934e-12
-3.32783409783658e-13
2.10349172809496e-12
-8.8415009187632e-13
2.33693854504093e-12
-1.60691893513588e-12
2.50614081004071e-12
-2.52385628461789e-12
2.53146799064566e-12
-3.56825483112873e-12
2.28882511103639e-12
-4.28331470016829e-12
1.69683453152937e-12
-3.29550374895974e-12
7.03866055398193e-13
3.28092893513746e-12
1.10544941704107e-13
2.03519381002185e-11
2.61400086193581e-11
-6.92358059058275e-14
2.61980319948981e-11
-7.83458306262424e-13
2.14341642651561e-11
-1.65283667754396e-12
4.82926574008986e-12
-2.18661434768569e-12
-2.44511781173913e-12
-2.42247440413248e-12
-4.04392076468567e-12
-2.43235330018296e-12
-3.65888152292924e-12
-2.31216007229202e-12
-2.75929935867583e-12
-2.12753541245061e-12
-1.89785623680558e-12
-1.92017906037826e-12
-1.1865492035458e-12
-1.71337725495499e-12
-6.23709854208619e-13
-1.51866606700932e-12
-1.80646918904678e-13
-1.3407769201052e-12
1.70338739564662e-13
-1.18077437310059e-12
4.50861951368836e-13
-1.03790678975985e-12
6.77283672119584e-13
-9.10626745887406e-13
8.61608971796898e-13
-7.97098546410674e-13
1.01263053991712e-12
-6.95470230642449e-13
1.13681751279779e-12
-6.03969417365263e-13
1.23895595486122e-12
-5.20958219664908e-13
1.32262854538634e-12
-4.44925988940382e-13
1.39053039910026e-12
-3.74490987865997e-13
1.44469451991345e-12
-3.08369782393591e-13
1.4866487323422e-12
-2.45365201889662e-13
1.51752259560556e-12
-1.84335131081622e-13
1.53811192185994e-12
-1.2418561531685e-13
1.54893907160155e-12
-6.38456805393742e-14
1.55027651926134e-12
-2.24204809992099e-15
1.54216967105795e-12
6.1715597604403e-14
1.52442119915297e-12
1.29163908745788e-13
1.49657030289192e-12
2.01296485491462e-13
1.45789516977291e-12
2.79385914209039e-13
1.40732244567009e-12
3.64808755805066e-13
1.3434175951925e-12
4.59060995313643e-13
1.26421909286303e-12
5.63771391762338e-13
1.16707138671315e-12
6.80674786824288e-13
1.04843790675905e-12
8.11586259273387e-13
9.03566614518182e-13
9.58266910737105e-13
7.260621990243e-13
1.12216709153203e-12
5.07302416967084e-13
1.30385567081519e-12
2.35420305970884e-13
1.50199882097672e-12
-1.05917326863058e-13
1.71144747047351e-12
-5.38159278599102e-13
1.92002591102133e-12
-1.08858557343312e-12
2.10355558167044e-12
-1.78628016881364e-12
2.21938177539003e-12
-2.63538019548078e-12
2.20314473995614e-12
-3.54692160223167e-12
1.96620197324322e-12
-4.03833407840473e-12
1.455978897255e-12
-2.77047593420685e-12
6.37332512016752e-13
4.12063113551853e-12
-8.6103717957589e-15
2.10135923279981e-11
2.61295095198423e-11
-3.92584469076645e-14
2.62426107457737e-11
-7.39404160033997e-13
2.21118028550604e-11
-1.45437306698159e-12
5.5122811281045e-12
-1.91479853672816e-12
-2.01750265137088e-12
-2.13877967723919e-12
-3.8533255038872e-12
-2.1781194153129e-12
-3.65369192752008e-12
-2.10059731596139e-12
-2.87142914113422e-12
-1.95871567367152e-12
-2.07445425136968e-12
-1.7882347215329e-12
-1.39170077797803e-12
-1.61115754654293e-12
-8.35411615060107e-13
-1.43963142351507e-12
-3.86828416832894e-13
-1.27960521043899e-12
-2.44510036283059e-14
-1.13337541601864e-12
2.69693169211433e-13
-1.00122157598077e-12
5.09975728039834e-13
-8.82384606848568e-13
7.07369063268001e-13
-7.75614385009759e-13
8.70192901450745e-13
-6.79484598308756e-13
1.00473679101175e-12
-5.92532947777983e-13
1.11576311635045e-12
-5.13351747640678e-13
1.20690464798708e-12
-4.40596954587489e-13
1.28093179214282e-12
-3.73018506527767e-13
1.33996718681291e-12
-3.09433675310272e-13
1.38561820172225e-12
-2.4872959766033e-13
1.41908016116613e-12
-1.89836923356307e-13
1.44120355196019e-12
-1.31725663492153e-13
1.45254622163142e-12
-7.3388288688533e-14
1.45341300326053e-12
-1.38115843625741e-14
1.44383968475652e-12
4.80331234165333e-14
1.42362227850524e-12
1.1320587555351e-13
1.39226497551748e-12
1.82820648833188e-13
1.34900056044857e-12
2.58042736946485e-13
1.29270029856317e-12
3.40119980732e-13
1.22185619031351e-12
4.30376156208371e-13
1.13442719168442e-12
5.30212614785864e-13
1.02768874402062e-12
6.41053678789201e-13
8.98077387757455e-13
7.64287342778666e-13
7.40883144441996e-13
9.01093917099973e-13
5.499085014594e-13
1.05213848390412e-12
3.17038577399049e-13
1.21697723578533e-12
3.14846279877267e-14
1.39307116604402e-12
-3.21025686347623e-13
1.57410447450943e-12
-7.58217700361111e-13
1.74742019807038e-12
-1.30107525927653e-12
1.89033705906064e-12
-1.96868613712543e-12
1.96654869188589e-12
-2.75149309334575e-12
1.92482201809961e-12
-3.54523566063018e-12
1.70362615992206e-12
-3.85595418825568e-12
1.26658626467783e-12
-2.36840830364226e-12
6.00720277392897e-13
4.75527613756381e-12
-3.44156649195442e-14
2.16140626832862e-11
2.6064483303569e-11
-5.32946380823828e-14
2.6258354505219e-11
-6.89979275494231e-13
2.26765224033643e-11
-1.27874933396111e-12
6.02534204812812e-12
-1.67792587784696e-12
-1.69098778607467e-12
-1.88729772387148e-12
-3.71460955466077e-12
-1.94568412857165e-12
-3.66514845674512e-12
-1.90034948972527e-12
-2.9861836093765e-12
-1.79312697187429e-12
-2.25073878518228e-12
-1.65416269109086e-12
-1.59942897783912e-12
-1.50359217256654e-12
-1.05455018247105e-12
-1.35350089419572e-12
-6.05416688886189e-13
-1.21050098840849e-12
-2.35978994814554e-13
-1.07774979558874e-12
6.8300865962524e-14
-9.56313814976802e-13
3.19736752008546e-13
-8.46086643782734e-13
5.28138250843233e-13
-7.46326388827917e-13
7.01209073095819e-13
-6.55988293116565e-13
8.44934306972426e-13
-5.73899729338188e-13
9.63961886685459e-13
-4.98868168533808e-13
1.06189972749975e-12
-4.29715333645969e-13
1.14154463784485e-12
-3.65322882718201e-13
1.20507481596763e-12
-3.04610544488311e-13
1.25414771365834e-12
-2.46553714743448e-13
1.29000940019669e-12
-1.90155998863803e-13
1.31355017508236e-12
-1.34458942251001e-13
1.3253612562083e-12
-7.85115119811513e-14
1.32576527536729e-12
-2.13717632088845e-14
1.31480220405982e-12
3.792725700367e-14
1.29225273067891e-12
1.00364995178053e-13
1.25760384153617e-12
1.66974492403399e-13
1.21004410545452e-12
2.38812832000549e-13
1.14841610220809e-12
3.16998707248203e-13
1.07115939629834e-12
4.02692155179839e-13
9.7618765714098e-13
4.97074052327769e-13
8.60763426180176e-13
6.01283569737376e-13
7.21361087701297e-13
7.16326536653129e-13
5.53407499594868e-13
8.42883304228164e-13
3.51018079511792e-13
9.80979876592339e-13
1.06719730133172e-13
1.12940271400922e-12
-1.89073752372708e-13
1.28478757259289e-12
-5.48528902490449e-13
1.44021276651161e-12
-9.85883398845103e-13
1.58321751198275e-12
-1.51664920827812e-12
1.69317172222213e-12
-2.15180992215435e-12
1.73973161204964e-12
-2.87209288269668e-12
1.68223994915361e-12
-3.56272252263884e-12
1.47870358327971e-12
-3.72770296857594e-12
1.10196071594947e-12
-2.06583490482648e-12
5.59362145859292e-13
5.2243966598321e-12
-1.62361699336286e-14
2.21146271458418e-11
2.59941379354628e-11
-7.95513484252459e-14
2.62697515907303e-11
-6.34221830783361e-13
2.31263561563614e-11
-1.12254258562815e-12
6.41036612903382e-12
-1.46983874758213e-12
-1.44114007068432e-12
-1.66353258690847e-12
-3.61456892452498e-12
-1.73341472153757e-12
-3.68699108405521e-12
-1.71210426909753e-12
-3.0981753871978e-12
-1.63281757241954e-12
-2.42003003239467e-12
-1.52065398904249e-12
-1.80113291472814e-12
-1.39361792012717e-12
-1.2708317812898e-12
-1.26326545522049e-12
-8.24871684774081e-13
-1.13644713382732e-12
-4.51871259504423e-13
-1.01685739964427e-12
-1.40422579182756e-13
-9.06133735181219e-13
1.19766551148196e-13
-8.04686012952882e-13
3.37289241553734e-13
-7.12194880302514e-13
5.1914106200501e-13
-6.27951484202367e-13
6.70915863910659e-13
-5.51045639707881e-13
7.97074481468619e-13
-4.80486983325208e-13
9.01140022286844e-13
-4.15260773611495e-13
9.8589671965451e-13
-3.5437274243429e-13
1.05353850224793e-12
-2.96849091741552e-13
1.10575489470044e-12
-2.41751829890166e-13
1.14382359468317e-12
-1.88162934208141e-13
1.16866552900921e-12
-1.35195669000712e-13
1.18089852049485e-12
-8.19644766867642e-14
1.18085648423797e-12
-2.75962305374207e-14
1.16858771576973e-12
2.88076659472876e-14
1.14385625667529e-12
8.81492780372606e-14
1.10614097885542e-12
1.51371738296272e-13
1.05459886266339e-12
2.19430560023115e-13
9.88055646734364e-13
2.93312656242058e-13
9.04927814737746e-13
3.74022274707548e-13
8.03108338814637e-13
4.62534974005224e-13
6.79896318435297e-13
5.59732177478726e-13
5.31855428748028e-13
6.66286686466193e-13
3.54624088000328e-13
7.82460647502452e-13
1.42713620819546e-13
9.07782844514248e-13
-1.10630412447612e-13
1.04048902182303e-12
-4.13742982029274e-13
1.17671331293067e-12
-7.76741446953706e-13
1.30935832528723e-12
-1.21071179760825e-12
1.42659469512763e-12
-1.72651909603176e-12
1.51009022390816e-12
-2.3287331037744e-12
1.53478959443147e-12
-2.99140554514189e-12
1.46849207070824e-12
-3.5925527871614e-12
1.28292446763776e-12
-3.63980631097958e-12
9.56674751772345e-13
-1.83854277017146e-12
5.10670566799867e-13
5.56989718075984e-12
1.32580675249664e-14
2.25108114055171e-11
2.59395071155785e-11
-1.02162919877755e-13
2.62832850412968e-11
-5.76021700062811e-13
2.34749794628607e-11
-9.84594495957027e-13
6.69915152805803e-12
-1.28675922620971e-12
-1.25083625121821e-12
-1.46414673319817e-12
-3.54396126912598e-12
-1.53980655446895e-12
-3.7153976883605e-12
-1.5360241290506e-12
-3.2045501758104e-12
-1.47903015592957e-12
-2.57872432664777e-12
-1.38950080132518e-12
-1.99179028118658e-12
-1.28322922345313e-12
-1.47787099585677e-12
-1.17093601327061e-12
-1.03773760516967e-12
-1.05939498074923e-12
-6.63907806456903e-13
-9.52566134295992e-13
-3.47758887457941e-13
-8.5246963882429e-13
-8.09038494217778e-14
-7.59901835403508e-13
1.4403860508748e-13
-6.74884866332223e-13
3.3331004597564e-13
-5.96996623905683e-13
4.92059823707121e-13
-5.2555680000603e-13
6.24504012151333e-13
-4.59764327775337e-13
7.34040571522612e-13
-3.98754949534e-13
8.2340198253469e-13
-3.41656942490336e-13
8.94769972084097e-13
-2.87602716974302e-13
9.49849514148881e-13
-2.35739965715598e-13
9.89929214179393e-13
-1.85233712036581e-13
1.01595743720991e-12
-1.35268614271446e-13
1.02856737823265e-12
-8.50284500813962e-14
1.02810197556069e-12
-3.37075064553176e-14
1.01461504866253e-12
1.95152031943062e-14
9.87864921786624e-13
7.54683953895461e-14
9.47317991933805e-13
1.35001014933907e-13
8.92119844808742e-13
1.98966535041271e-13
8.21087507015326e-13
2.68230117744266e-13
7.32634415269216e-13
3.43645095094142e-13
6.24661561590229e-13
4.260015658009e-13
4.94538792400981e-13
5.15950299115043e-13
3.38964305726775e-13
6.13884000300234e-13
1.5383671467724e-13
7.1972794509219e-13
-6.58801292840261e-14
8.32643435138882e-13
-3.261930794667e-13
9.50508824832552e-13
-6.34198508541384e-13
1.06921793493602e-12
-9.98084407876434e-13
1.18181503486578e-12
-1.42617473492842e-12
1.277385422088e-12
-1.9254706102364e-12
1.33994120094552e-12
-2.49557628274926e-12
1.34898483820921e-12
-3.10612045907803e-12
1.27912405248434e-12
-3.63029119408153e-12
1.11157799199703e-12
-3.58239285563121e-12
8.29071679576255e-13
-1.66948903989417e-12
4.58628618503813e-13
5.82284986046457e-12
3.85841880805043e-14
2.28133289834926e-11
2.59014135035364e-11
-1.16030973194736e-13
2.63011464477497e-11
-5.18330056946049e-13
2.37449320753503e-11
-8.62756527512869e-13
6.91948990753033e-12
-1.12504330439808e-12
-1.10369985973278e-12
-1.28588825287629e-12
-3.4925964184888e-12
-1.36308188864555e-12
-3.74458604618049e-12
-1.37169892516499e-12
-3.30062770950671e-12
-1.33229430404019e-12
-2.72183186211382e-12
-1.26175059163283e-12
-2.16541718602892e-12
-1.1736862492168e-12
-1.66862566767884e-12
-1.07781268807735e-12
-1.23607327260154e-12
-9.80593026383465e-13
-8.63473628435857e-13
-8.86041161088168e-13
-5.44626967784459e-13
-7.96399367091846e-13
-2.72883823099578e-13
-7.12731179953771e-13
-4.20317187217664e-14
-6.35323334836756e-13
1.53413463746948e-13
-5.63991248563568e-13
3.1812996805103e-13
-4.98251777091528e-13
4.56047560691362e-13
-4.37472369638474e-13
5.70411114065993e-13
-3.80928968045517e-13
6.63872287067261e-13
-3.27871037591886e-13
7.38581705614557e-13
-2.77529124868166e-13
7.96236352382361e-13
-2.2914341217983e-13
8.3812947081522e-13
-1.8195487265324e-13
8.65221239193232e-13
-1.35224904649515e-13
8.78159523828032e-13
-8.82088159839078e-14
8.77291825654994e-13
-4.01733893905227e-14
8.62678488764657e-13
9.62972127427477e-15
8.34071655087896e-13
6.19492756630145e-14
7.90932688747518e-13
1.17545233100454e-13
7.32405023105457e-13
1.7716907601401e-13
6.5730977792994e-13
2.41571535000059e-13
5.64069597667421e-13
3.11460975459371e-13
4.50624116873036e-13
3.8746511306867e-13
3.14431750464791e-13
4.70036494879747e-13
1.52360306390987e-13
5.59335029403702e-13
-3.93963967119431e-14
6.55033527893257e-13
-2.65402316780198e-13
7.5603470664647e-13
-5.30910621809409e-13
8.60020746225059e-13
-8.4184088502159e-13
9.62862036027318e-13
-1.20462510791434e-12
1.05796267948524e-12
-1.62520936672294e-12
1.13548186590243e-12
-2.10744811201428e-12
1.1816993221734e-12
-2.64718212268062e-12
1.17999605596097e-12
-3.21125491587356e-12
1.11047393536159e-12
-3.66975010619986e-12