/*--------------------------------*- C++ -*----------------------------------*\
  =========                 |
  \\      /  F ield         | OpenFOAM: The Open Source CFD Toolbox
   \\    /   O peration     | Website:  https://openfoam.org
    \\  /    A nd           | Version:  10
     \\/     M anipulation  |
\*---------------------------------------------------------------------------*/
FoamFile
{
    format      ascii;
    class       volScalarField;
    location    "4.2";
    object      rho;
}
// * * * * * * * * * * * * * * * * * * * * * * * * * * * * * * * * * * * * * //

dimensions      [1 -3 0 0 0 0 0];

internalField   nonuniform List<scalar> 
2500
(
1.14319833107596
1.14326498294771
1.14333874376173
1.14337879841883
1.14339755997195
1.14340591949141
1.14340950064449
1.1434109661363
1.14341153617666
1.14341174402778
1.14341182115288
1.14341184901415
1.14341185935968
1.1434118657653
1.1434118704905
1.14341187518483
1.14341187765623
1.14341188059845
1.14341188390159
1.14341188624795
1.14341188832916
1.1434118902288
1.14341189183696
1.14341189276742
1.14341189373809
1.14341189469058
1.14341189505305
1.1434118953155
1.14341189541642
1.14341189513255
1.14341189463588
1.14341189372263
1.14341189233714
1.14341189055751
1.14341188871272
1.14341188651553
1.14341188343824
1.14341187880661
1.14341186626851
1.14341183579915
1.14341175229283
1.14341152417955
1.14341092321332
1.14340941458657
1.14340579484999
1.14339747393765
1.1433788449781
1.14333874063003
1.14326406028662
1.14319885842415
1.14840907443873
1.14864949012843
1.14885795724716
1.14897459110446
1.1490331081207
1.14906111528317
1.14907395073288
1.14907952231065
1.1490817959141
1.14908266541463
1.14908298024439
1.14908308804494
1.14908312315522
1.14908313536668
1.14908314041813
1.14908314347415
1.149083145043
1.14908314665531
1.1490831484456
1.14908314985975
1.14908315124079
1.14908315267522
1.14908315395225
1.1490831546704
1.14908315526816
1.14908315592686
1.14908315619041
1.14908315640975
1.149083156731
1.14908315659492
1.14908315638705
1.14908315616773
1.14908315493478
1.14908315325454
1.14908315198199
1.14908315003689
1.14908314502382
1.14908313102842
1.14908308841786
1.14908296447226
1.14908261512943
1.14908167820862
1.14907930235189
1.1490736164671
1.14906074171023
1.14903292858108
1.14897481587665
1.14885783602193
1.14864607377262
1.14840890974432
1.15320164064938
1.1535369059577
1.15379899014393
1.1539434806063
1.15401571448367
1.15405025313196
1.1540661061737
1.15407301436585
1.15407584844341
1.15407693951712
1.15407733526158
1.15407747044284
1.15407751378358
1.15407752745179
1.15407753194303
1.15407753374618
1.15407753445578
1.15407753508154
1.15407753581889
1.15407753646613
1.15407753720936
1.15407753812408
1.15407753901276
1.15407753951047
1.15407753982942
1.15407754022803
1.15407754036633
1.1540775405058
1.15407754088429
1.15407754091534
1.15407754091671
1.15407754103712
1.15407754002211
1.15407753861713
1.15407753794399
1.15407753654164
1.15407753130371
1.15407751474445
1.15407746325527
1.15407731048494
1.15407687796145
1.15407571789136
1.15407278075392
1.15406576327189
1.15404988778825
1.1540155558392
1.1539436317202
1.15379819376557
1.15353073589221
1.15319367047781
1.15686174822773
1.15718209511444
1.15740402674515
1.15752202611234
1.15757873044625
1.15760485731812
1.15761650055358
1.1576214687759
1.15762347840411
1.15762424513065
1.15762452145957
1.15762461525902
1.15762464492653
1.15762465392921
1.15762465660921
1.1576246573785
1.15762465748652
1.15762465757319
1.15762465773906
1.15762465793796
1.15762465824657
1.15762465873837
1.15762465928648
1.15762465960916
1.15762465975342
1.15762465994992
1.15762466000718
1.15762466006387
1.15762466028094
1.15762466031293
1.15762466037006
1.15762466064048
1.15762466005093
1.15762465919498
1.157624658945
1.15762465827923
1.15762465520285
1.15762464458135
1.1576246106104
1.15762450792878
1.15762421294162
1.15762341019559
1.15762134511183
1.15761631518316
1.15760465208509
1.15757860912589
1.15752190163411
1.15740252834708
1.15717476655274
1.1568469301919
1.15926473180943
1.15950646496035
1.15965747195833
1.1597349017193
1.15977072788437
1.1597866616327
1.1597935698501
1.15979646486076
1.15979762396194
1.15979806416132
1.15979822264235
1.15979827639123
1.1597982932647
1.15979829829186
1.15979829958127
1.15979829972354
1.15979829963811
1.15979829957796
1.15979829955347
1.15979829955298
1.15979829962735
1.15979829983933
1.15979830013862
1.15979830032581
1.15979830036288
1.15979830041374
1.15979830042257
1.15979830043789
1.15979830053131
1.15979830055358
1.15979830062143
1.15979830087857
1.15979830060284
1.15979830024828
1.15979830025056
1.15979829993717
1.1597982983797
1.15979829275162
1.15979827421793
1.15979821739251
1.15979805256019
1.15979759960253
1.15979642080448
1.15979350467355
1.1597865934269
1.15977068840234
1.15973474060261
1.15965603901853
1.1595000059148
1.15924849441294
1.16065537525166
1.16080900753544
1.160896641369
1.16094008059276
1.16095951278633
1.16096788499634
1.16097142618136
1.16097288754928
1.16097346842347
1.16097368870327
1.16097376818765
1.16097379520793
1.16097380365555
1.16097380609477
1.16097380658876
1.16097380655401
1.16097380645577
1.16097380635996
1.16097380630414
1.16097380629983
1.16097380629915
1.16097380634805
1.16097380649896
1.16097380658794
1.16097380657019
1.16097380656135
1.16097380655119
1.16097380655431
1.16097380659131
1.16097380660638
1.16097380666148
1.16097380683694
1.16097380672917
1.16097380660679
1.16097380665031
1.16097380653155
1.16097380586261
1.16097380324068
1.16097379432889
1.16097376669116
1.1609736860574
1.16097346323116
1.16097287893038
1.16097141619876
1.16096788405363
1.16095953120062
1.16094000065838
1.16089567354903
1.16080443583386
1.16064204396352
1.1613785772329
1.16146396154848
1.16150889720071
1.16153048539236
1.16153986219244
1.16154379036862
1.16154541542288
1.16154607718549
1.16154633887145
1.16154643817107
1.16154647415327
1.1615464864362
1.16154649026929
1.16154649132298
1.16154649148065
1.16154649143359
1.16154649135949
1.16154649128876
1.16154649124239
1.16154649123473
1.16154649121898
1.16154649121976
1.16154649128546
1.161546491318
1.16154649129399
1.16154649127764
1.16154649126849
1.16154649126593
1.16154649127825
1.16154649128854
1.16154649132244
1.16154649142153
1.16154649138747
1.16154649135502
1.16154649139531
1.16154649134679
1.16154649108626
1.1615464899906
1.16154648609159
1.16154647388055
1.16154643815938
1.16154633924254
1.16154607879079
1.16154542111402
1.16154380774345
1.16153989890784
1.16153047718403
1.16150838265467
1.16146122932472
1.1613695852013
1.16172173349881
1.16176427877862
1.16178513021199
1.16179485998327
1.16179897879151
1.16180066232607
1.1618013450379
1.16180161980022
1.16180172804083
1.16180176919408
1.16180178418462
1.16180178932715
1.16180179092941
1.16180179134703
1.16180179138787
1.16180179135422
1.16180179131039
1.16180179126947
1.16180179124046
1.16180179122889
1.16180179122024
1.16180179121798
1.16180179123822
1.16180179124566
1.16180179122948
1.16180179121895
1.16180179121381
1.16180179121078
1.16180179121472
1.16180179122098
1.16180179123812
1.16180179128665
1.16180179127937
1.16180179127512
1.16180179129803
1.16180179128356
1.16180179119562
1.16180179076736
1.16180178918269
1.16180178418179
1.16180176954997
1.16180172906947
1.16180162236012
1.16180135133399
1.16180067770735
1.16179901038745
1.16179488112547
1.16178490467814
1.16176285294215
1.16171650207675
1.16187211270387
1.16189146065399
1.16190036915981
1.16190441331161
1.16190608699662
1.16190675652314
1.16190702319227
1.16190712937769
1.16190717108586
1.16190718698582
1.16190719280988
1.16190719481788
1.16190719544097
1.16190719559232
1.16190719560001
1.16190719558351
1.16190719556118
1.16190719554059
1.16190719552524
1.16190719551741
1.16190719551314
1.16190719551222
1.1619071955153
1.16190719551294
1.1619071955059
1.16190719550076
1.16190719549829
1.1619071954964
1.16190719549764
1.16190719550085
1.1619071955085
1.16190719552975
1.16190719553069
1.16190719553145
1.16190719554041
1.16190719553766
1.16190719551161
1.16190719535496
1.16190719474956
1.16190719282537
1.16190718720537
1.1619071717088
1.16190713091387
1.1619070269563
1.16190676580686
1.16190610720049
1.16190443622607
1.1619002866202
1.16189079544554
1.16186940702189
1.16193357139598
1.16194170952101
1.16194525945951
1.1619468293136
1.16194746604731
1.16194771599974
1.16194781395196
1.16194785257499
1.16194786770792
1.16194787349384
1.16194787562464
1.16194787636255
1.16194787659026
1.1619478766421
1.16194787664199
1.16194787663369
1.16194787662329
1.16194787661377
1.16194787660638
1.16194787660188
1.16194787659917
1.16194787659809
1.16194787659766
1.16194787659539
1.16194787659223
1.16194787658992
1.16194787658873
1.16194787658774
1.16194787658805
1.16194787658942
1.16194787659247
1.16194787660043
1.16194787660175
1.16194787660309
1.16194787660647
1.16194787660696
1.16194787660068
1.16194787654604
1.16194787632631
1.16194787562394
1.16194787357935
1.16194786797084
1.16194785325639
1.16194781571659
1.16194772061894
1.1619474768566
1.16194684492343
1.16194523489541
1.16194142729822
1.16193230147087
1.16195717957192
1.16196037860953
1.1619617112079
1.16196228590291
1.16196251479719
1.16196260317605
1.16196263730771
1.16196265064364
1.16196265585668
1.16196265785544
1.16196265859505
1.16196265885198
1.16196265893052
1.16196265894715
1.16196265894595
1.16196265894194
1.16196265893728
1.16196265893303
1.16196265892958
1.16196265892719
1.16196265892547
1.16196265892444
1.16196265892369
1.16196265892237
1.16196265892089
1.16196265891979
1.16196265891915
1.1619626589186
1.16196265891855
1.16196265891899
1.16196265892003
1.16196265892275
1.16196265892352
1.1619626589243
1.16196265892563
1.16196265892608
1.16196265892464
1.16196265890657
1.16196265883038
1.16196265858548
1.16196265787567
1.16196265594123
1.16196265089126
1.16196263801696
1.16196260519702
1.16196251989118
1.16196229444303
1.16196170602552
1.16196026833047
1.16195663050535
1.16196575336729
1.16196693834324
1.16196741324406
1.16196761319275
1.16196769151502
1.16196772131969
1.16196773268026
1.16196773708122
1.16196773879744
1.16196773945696
1.16196773970186
1.16196773978697
1.16196773981253
1.16196773981734
1.16196773981628
1.1619677398143
1.16196773981214
1.16196773981015
1.16196773980846
1.16196773980715
1.16196773980609
1.1619677398053
1.16196773980464
1.16196773980385
1.16196773980306
1.16196773980243
1.16196773980199
1.16196773980162
1.16196773980143
1.16196773980145
1.1619677398017
1.16196773980249
1.16196773980278
1.16196773980309
1.16196773980358
1.16196773980384
1.16196773980353
1.16196773979767
1.16196773977226
1.16196773969027
1.16196773945381
1.16196773881406
1.1619677371541
1.16196773293185
1.16196772212107
1.16196769369054
1.16196761724841
1.16196741311574
1.16196689826929
1.16196553218089
1.16196870614992
1.16196912255865
1.16196928421093
1.16196935073759
1.16196937639862
1.16196938603925
1.16196938967115
1.16196939106674
1.16196939160945
1.16196939181822
1.16196939189578
1.16196939192253
1.16196939193023
1.16196939193127
1.16196939193043
1.16196939192932
1.16196939192817
1.16196939192709
1.16196939192612
1.1619693919253
1.16196939192457
1.16196939192396
1.16196939192341
1.16196939192285
1.16196939192233
1.16196939192188
1.16196939192152
1.16196939192121
1.16196939192098
1.16196939192083
1.16196939192078
1.16196939192092
1.16196939192095
1.16196939192101
1.16196939192115
1.16196939192124
1.16196939192115
1.16196939191929
1.1619693919111
1.16196939188465
1.16196939180876
1.16196939160496
1.16196939107971
1.16196938974831
1.16196938633033
1.1619693772543
1.16196935247192
1.16196928483201
1.16196910891325
1.16196862238369
1.16196966690947
1.16196980650577
1.1619698593195
1.16196988059335
1.16196988868222
1.16196989168671
1.16196989280674
1.16196989323371
1.16196989339908
1.16196989346254
1.16196989348592
1.16196989349373
1.16196989349567
1.16196989349555
1.16196989349486
1.16196989349409
1.16196989349333
1.1619698934926
1.16196989349192
1.16196989349129
1.16196989349072
1.16196989349021
1.16196989348973
1.16196989348927
1.16196989348886
1.16196989348848
1.16196989348816
1.16196989348787
1.16196989348762
1.16196989348743
1.16196989348728
1.16196989348721
1.16196989348713
1.16196989348708
1.16196989348708
1.16196989348708
1.16196989348703
1.16196989348644
1.16196989348389
1.16196989347566
1.16196989345214
1.16196989338942
1.16196989322885
1.16196989282352
1.16196989178168
1.16196988899343
1.16196988127365
1.16196985975892
1.16196980212404
1.16196963686773
1.16196995465832
1.16196999951296
1.1619700161394
1.16197002270441
1.16197002516715
1.16197002607246
1.16197002640664
1.1619700265329
1.16197002658141
1.16197002659978
1.16197002660631
1.16197002660821
1.16197002660837
1.16197002660791
1.1619700266073
1.16197002660667
1.16197002660605
1.16197002660545
1.16197002660488
1.16197002660434
1.16197002660384
1.16197002660338
1.16197002660294
1.16197002660253
1.16197002660216
1.16197002660182
1.16197002660152
1.16197002660124
1.16197002660101
1.1619700266008
1.16197002660063
1.1619700266005
1.16197002660039
1.16197002660031
1.16197002660025
1.16197002660022
1.16197002660018
1.16197002659999
1.16197002659923
1.16197002659677
1.16197002658975
1.1619700265711
1.16197002652359
1.16197002640414
1.16197002609697
1.16197002526962
1.16197002294982
1.1619700163537
1.16196999817663
1.16196994439146
1.16197002459269
1.16197003846176
1.1619700435215
1.16197004548299
1.16197004620939
1.16197004647374
1.16197004657027
1.16197004660624
1.16197004661975
1.16197004662461
1.16197004662607
1.1619700466262
1.16197004662583
1.1619700466253
1.16197004662472
1.16197004662414
1.16197004662358
1.16197004662304
1.16197004662252
1.16197004662203
1.16197004662156
1.16197004662113
1.16197004662072
1.16197004662034
1.16197004661999
1.16197004661967
1.16197004661939
1.16197004661913
1.1619700466189
1.16197004661871
1.16197004661854
1.1619700466184
1.16197004661829
1.1619700466182
1.16197004661813
1.16197004661809
1.16197004661806
1.16197004661801
1.1619700466178
1.16197004661712
1.16197004661513
1.1619700466098
1.16197004659623
1.16197004656215
1.1619700464744
1.16197004623665
1.16197004556203
1.16197004360628
1.1619700380695
1.16197002122907
1.16197002672221
1.16197003086283
1.16197003235517
1.16197003292403
1.16197003313199
1.16197003320677
1.16197003323361
1.16197003324328
1.16197003324663
1.16197003324757
1.16197003324756
1.16197003324719
1.16197003324668
1.16197003324613
1.16197003324558
1.16197003324503
1.1619700332445
1.16197003324399
1.1619700332435
1.16197003324304
1.16197003324259
1.16197003324218
1.16197003324179
1.16197003324144
1.16197003324111
1.16197003324081
1.16197003324054
1.1619700332403
1.16197003324009
1.1619700332399
1.16197003323975
1.16197003323962
1.16197003323951
1.16197003323943
1.16197003323937
1.16197003323933
1.16197003323931
1.16197003323931
1.16197003323927
1.16197003323912
1.16197003323862
1.16197003323721
1.16197003323353
1.16197003322417
1.16197003319992
1.1619700331337
1.16197003294339
1.16197003238107
1.16197003074771
1.16197002565782
1.16197000847828
1.1619700096753
1.16197001010277
1.16197001026316
1.16197001032092
1.16197001034125
1.16197001034823
1.16197001035046
1.16197001035096
1.16197001035081
1.1619700103504
1.16197001034989
1.16197001034936
1.16197001034881
1.16197001034828
1.16197001034776
1.16197001034725
1.16197001034676
1.16197001034629
1.16197001034585
1.16197001034543
1.16197001034503
1.16197001034467
1.16197001034433
1.16197001034402
1.16197001034374
1.16197001034348
1.16197001034326
1.16197001034306
1.1619700103429
1.16197001034275
1.16197001034264
1.16197001034254
1.16197001034247
1.16197001034242
1.1619700103424
1.16197001034239
1.1619700103424
1.16197001034243
1.16197001034244
1.16197001034237
1.16197001034208
1.16197001034119
1.16197001033879
1.16197001033238
1.16197001031456
1.16197001026244
1.16197001010533
1.16197000963761
1.16197000814828
1.16196998430763
1.16196998464345
1.16196998476251
1.16196998480644
1.16196998482189
1.16196998482701
1.1619699848285
1.1619699848287
1.16196998482843
1.16196998482799
1.16196998482748
1.16196998482696
1.16196998482643
1.1619699848259
1.16196998482539
1.16196998482488
1.1619699848244
1.16196998482393
1.16196998482348
1.16196998482305
1.16196998482265
1.16196998482228
1.16196998482193
1.16196998482161
1.16196998482132
1.16196998482106
1.16196998482082
1.16196998482062
1.16196998482044
1.16196998482028
1.16196998482016
1.16196998482005
1.16196998481997
1.16196998481992
1.16196998481988
1.16196998481987
1.16196998481987
1.1619699848199
1.16196998481994
1.16196998482
1.16196998482006
1.16196998482007
1.16196998481996
1.16196998481946
1.16196998481792
1.16196998481336
1.16196998479953
1.16196998475683
1.1619699846266
1.16196998420371
1.16196995846333
1.16196995855483
1.16196995858704
1.16196995859866
1.1619699586025
1.16196995860351
1.16196995860353
1.1619699586032
1.16196995860274
1.16196995860224
1.16196995860172
1.16196995860121
1.16196995860069
1.16196995860019
1.16196995859969
1.16196995859921
1.16196995859874
1.16196995859829
1.16196995859786
1.16196995859746
1.16196995859708
1.16196995859672
1.1619699585964
1.16196995859609
1.16196995859582
1.16196995859558
1.16196995859536
1.16196995859517
1.16196995859501
1.16196995859487
1.16196995859476
1.16196995859468
1.16196995859461
1.16196995859457
1.16196995859455
1.16196995859454
1.16196995859456
1.1619699585946
1.16196995859466
1.16196995859473
1.16196995859482
1.16196995859492
1.16196995859501
1.16196995859501
1.16196995859475
1.16196995859372
1.16196995859021
1.16196995857893
1.16196995854365
1.16196995842695
1.16196993215915
1.16196993218329
1.16196993219167
1.16196993219456
1.16196993219531
1.16196993219525
1.16196993219491
1.16196993219446
1.16196993219398
1.16196993219348
1.16196993219298
1.16196993219248
1.16196993219198
1.1619699321915
1.16196993219102
1.16196993219056
1.16196993219011
1.16196993218968
1.16196993218928
1.16196993218889
1.16196993218853
1.1619699321882
1.16196993218789
1.16196993218761
1.16196993218735
1.16196993218713
1.16196993218693
1.16196993218676
1.16196993218661
1.16196993218649
1.1619699321864
1.16196993218633
1.16196993218628
1.16196993218625
1.16196993218624
1.16196993218625
1.16196993218628
1.16196993218633
1.16196993218639
1.16196993218648
1.16196993218658
1.1619699321867
1.16196993218683
1.16196993218695
1.16196993218702
1.16196993218689
1.16196993218608
1.16196993218319
1.16196993217391
1.16196993214265
1.16196990573176
1.1619699057378
1.16196990573982
1.16196990574041
1.16196990574038
1.16196990574007
1.16196990573965
1.1619699057392
1.16196990573873
1.16196990573825
1.16196990573777
1.16196990573729
1.16196990573682
1.16196990573635
1.1619699057359
1.16196990573546
1.16196990573503
1.16196990573462
1.16196990573424
1.16196990573387
1.16196990573353
1.16196990573322
1.16196990573293
1.16196990573267
1.16196990573243
1.16196990573223
1.16196990573205
1.1619699057319
1.16196990573177
1.16196990573167
1.16196990573159
1.16196990573153
1.1619699057315
1.16196990573148
1.16196990573149
1.16196990573151
1.16196990573155
1.16196990573161
1.16196990573168
1.16196990573177
1.16196990573188
1.16196990573201
1.16196990573214
1.16196990573229
1.16196990573242
1.1619699057325
1.16196990573237
1.16196990573166
1.16196990572932
1.16196990572127
1.16196987927209
1.16196987927339
1.16196987927376
1.16196987927378
1.16196987927357
1.16196987927322
1.16196987927281
1.16196987927238
1.16196987927193
1.16196987927147
1.16196987927102
1.16196987927056
1.16196987927011
1.16196987926967
1.16196987926923
1.16196987926881
1.16196987926841
1.16196987926802
1.16196987926766
1.16196987926731
1.161969879267
1.1619698792667
1.16196987926643
1.16196987926619
1.16196987926598
1.16196987926579
1.16196987926563
1.1619698792655
1.16196987926539
1.1619698792653
1.16196987926524
1.1619698792652
1.16196987926518
1.16196987926518
1.1619698792652
1.16196987926524
1.16196987926529
1.16196987926535
1.16196987926544
1.16196987926553
1.16196987926564
1.16196987926577
1.1619698792659
1.16196987926604
1.16196987926618
1.1619698792663
1.16196987926632
1.16196987926615
1.16196987926562
1.16196987926372
1.16196985280414
1.16196985280423
1.16196985280418
1.16196985280408
1.16196985280384
1.16196985280351
1.16196985280313
1.16196985280272
1.1619698528023
1.16196985280187
1.16196985280144
1.161969852801
1.16196985280058
1.16196985280015
1.16196985279974
1.16196985279935
1.16196985279896
1.1619698527986
1.16196985279826
1.16196985279793
1.16196985279764
1.16196985279736
1.16196985279712
1.1619698527969
1.1619698527967
1.16196985279653
1.16196985279639
1.16196985279628
1.16196985279619
1.16196985279612
1.16196985279607
1.16196985279605
1.16196985279604
1.16196985279606
1.16196985279609
1.16196985279614
1.1619698527962
1.16196985279628
1.16196985279636
1.16196985279647
1.16196985279658
1.1619698527967
1.16196985279683
1.16196985279697
1.1619698527971
1.16196985279721
1.16196985279726
1.16196985279721
1.16196985279714
1.16196985279682
1.1619698263341
1.16196982633389
1.16196982633375
1.16196982633363
1.16196982633341
1.1619698263331
1.16196982633275
1.16196982633237
1.16196982633197
1.16196982633157
1.16196982633116
1.16196982633075
1.16196982633035
1.16196982632995
1.16196982632956
1.16196982632918
1.16196982632882
1.16196982632848
1.16196982632816
1.16196982632786
1.16196982632758
1.16196982632733
1.1619698263271
1.1619698263269
1.16196982632673
1.16196982632658
1.16196982632646
1.16196982632636
1.16196982632629
1.16196982632624
1.16196982632621
1.1619698263262
1.16196982632621
1.16196982632624
1.16196982632629
1.16196982632635
1.16196982632642
1.1619698263265
1.1619698263266
1.16196982632671
1.16196982632682
1.16196982632694
1.16196982632707
1.16196982632719
1.16196982632731
1.16196982632741
1.16196982632745
1.16196982632742
1.16196982632746
1.16196982632754
1.16196979986353
1.16196979986325
1.16196979986309
1.16196979986299
1.16196979986279
1.16196979986251
1.16196979986219
1.16196979986184
1.16196979986147
1.16196979986109
1.1619697998607
1.16196979986032
1.16196979985994
1.16196979985956
1.1619697998592
1.16196979985884
1.16196979985851
1.16196979985818
1.16196979985788
1.16196979985761
1.16196979985735
1.16196979985712
1.16196979985691
1.16196979985674
1.16196979985658
1.16196979985645
1.16196979985635
1.16196979985627
1.16196979985622
1.16196979985618
1.16196979985617
1.16196979985618
1.1619697998562
1.16196979985625
1.1619697998563
1.16196979985638
1.16196979985646
1.16196979985655
1.16196979985665
1.16196979985676
1.16196979985688
1.161969799857
1.16196979985712
1.16196979985724
1.16196979985735
1.16196979985743
1.16196979985746
1.16196979985743
1.16196979985749
1.16196979985767
1.16196977339282
1.16196977339254
1.16196977339238
1.1619697733923
1.16196977339213
1.16196977339187
1.16196977339158
1.16196977339125
1.16196977339091
1.16196977339056
1.1619697733902
1.16196977338984
1.16196977338948
1.16196977338913
1.16196977338878
1.16196977338845
1.16196977338814
1.16196977338784
1.16196977338756
1.1619697733873
1.16196977338707
1.16196977338686
1.16196977338668
1.16196977338652
1.16196977338638
1.16196977338627
1.16196977338619
1.16196977338613
1.16196977338609
1.16196977338608
1.16196977338608
1.1619697733861
1.16196977338614
1.1619697733862
1.16196977338627
1.16196977338635
1.16196977338645
1.16196977338655
1.16196977338666
1.16196977338677
1.16196977338689
1.16196977338701
1.16196977338713
1.16196977338724
1.16196977338734
1.16196977338741
1.16196977338743
1.16196977338738
1.16196977338744
1.16196977338765
1.16196974692209
1.16196974692181
1.16196974692166
1.1619697469216
1.16196974692145
1.16196974692122
1.16196974692095
1.16196974692066
1.16196974692034
1.16196974692001
1.16196974691968
1.16196974691934
1.16196974691901
1.16196974691868
1.16196974691836
1.16196974691805
1.16196974691776
1.16196974691748
1.16196974691722
1.16196974691699
1.16196974691678
1.16196974691659
1.16196974691642
1.16196974691629
1.16196974691617
1.16196974691608
1.16196974691602
1.16196974691597
1.16196974691595
1.16196974691596
1.16196974691598
1.16196974691602
1.16196974691607
1.16196974691614
1.16196974691622
1.16196974691632
1.16196974691642
1.16196974691653
1.16196974691665
1.16196974691676
1.16196974691688
1.161969746917
1.16196974691712
1.16196974691722
1.16196974691731
1.16196974691737
1.16196974691738
1.16196974691732
1.16196974691738
1.16196974691759
1.16196972045136
1.16196972045108
1.16196972045095
1.16196972045091
1.16196972045078
1.16196972045058
1.16196972045034
1.16196972045007
1.16196972044978
1.16196972044947
1.16196972044916
1.16196972044885
1.16196972044854
1.16196972044823
1.16196972044794
1.16196972044765
1.16196972044738
1.16196972044713
1.16196972044689
1.16196972044668
1.16196972044649
1.16196972044632
1.16196972044618
1.16196972044606
1.16196972044596
1.16196972044589
1.16196972044584
1.16196972044582
1.16196972044582
1.16196972044584
1.16196972044587
1.16196972044593
1.161969720446
1.16196972044608
1.16196972044618
1.16196972044628
1.16196972044639
1.16196972044651
1.16196972044663
1.16196972044675
1.16196972044688
1.16196972044699
1.1619697204471
1.1619697204472
1.16196972044728
1.16196972044733
1.16196972044733
1.16196972044726
1.16196972044732
1.16196972044752
1.16196969398065
1.16196969398037
1.16196969398025
1.16196969398024
1.16196969398013
1.16196969397996
1.16196969397974
1.16196969397949
1.16196969397923
1.16196969397895
1.16196969397866
1.16196969397838
1.16196969397809
1.16196969397781
1.16196969397753
1.16196969397727
1.16196969397702
1.16196969397679
1.16196969397657
1.16196969397638
1.16196969397621
1.16196969397606
1.16196969397594
1.16196969397584
1.16196969397577
1.16196969397571
1.16196969397569
1.16196969397568
1.16196969397569
1.16196969397573
1.16196969397578
1.16196969397585
1.16196969397593
1.16196969397603
1.16196969397614
1.16196969397625
1.16196969397637
1.1619696939765
1.16196969397663
1.16196969397675
1.16196969397688
1.16196969397699
1.1619696939771
1.16196969397719
1.16196969397726
1.1619696939773
1.16196969397729
1.16196969397721
1.16196969397726
1.16196969397746
1.16196966750996
1.16196966750969
1.16196966750958
1.16196966750959
1.16196966750951
1.16196966750936
1.16196966750917
1.16196966750895
1.16196966750871
1.16196966750845
1.16196966750819
1.16196966750793
1.16196966750766
1.1619696675074
1.16196966750715
1.16196966750691
1.16196966750668
1.16196966750647
1.16196966750628
1.16196966750611
1.16196966750596
1.16196966750583
1.16196966750573
1.16196966750565
1.16196966750559
1.16196966750556
1.16196966750555
1.16196966750556
1.16196966750559
1.16196966750564
1.16196966750571
1.16196966750579
1.16196966750589
1.161969667506
1.16196966750612
1.16196966750624
1.16196966750637
1.16196966750651
1.16196966750664
1.16196966750677
1.16196966750689
1.16196966750701
1.16196966750711
1.1619696675072
1.16196966750726
1.16196966750729
1.16196966750727
1.16196966750717
1.16196966750722
1.16196966750742
1.1619696410393
1.16196964103905
1.16196964103895
1.16196964103898
1.16196964103892
1.1619696410388
1.16196964103863
1.16196964103844
1.16196964103822
1.16196964103799
1.16196964103776
1.16196964103751
1.16196964103727
1.16196964103703
1.16196964103681
1.16196964103659
1.16196964103638
1.16196964103619
1.16196964103602
1.16196964103587
1.16196964103574
1.16196964103563
1.16196964103555
1.16196964103549
1.16196964103545
1.16196964103543
1.16196964103544
1.16196964103547
1.16196964103552
1.16196964103558
1.16196964103567
1.16196964103576
1.16196964103587
1.16196964103599
1.16196964103612
1.16196964103626
1.1619696410364
1.16196964103654
1.16196964103668
1.16196964103681
1.16196964103693
1.16196964103705
1.16196964103715
1.16196964103723
1.16196964103729
1.1619696410373
1.16196964103727
1.16196964103716
1.16196964103719
1.16196964103739
1.16196961456868
1.16196961456844
1.16196961456837
1.16196961456842
1.16196961456838
1.16196961456829
1.16196961456815
1.16196961456798
1.16196961456779
1.16196961456758
1.16196961456737
1.16196961456715
1.16196961456693
1.16196961456671
1.1619696145665
1.16196961456631
1.16196961456612
1.16196961456595
1.1619696145658
1.16196961456567
1.16196961456556
1.16196961456548
1.16196961456541
1.16196961456537
1.16196961456535
1.16196961456535
1.16196961456537
1.16196961456542
1.16196961456548
1.16196961456556
1.16196961456566
1.16196961456577
1.16196961456589
1.16196961456603
1.16196961456617
1.16196961456631
1.16196961456646
1.1619696145666
1.16196961456675
1.16196961456688
1.16196961456701
1.16196961456712
1.16196961456722
1.16196961456729
1.16196961456734
1.16196961456735
1.1619696145673
1.16196961456717
1.1619696145672
1.16196961456738
1.16196958809812
1.16196958809789
1.16196958809783
1.16196958809792
1.1619695880979
1.16196958809783
1.16196958809772
1.16196958809757
1.1619695880974
1.16196958809722
1.16196958809703
1.16196958809683
1.16196958809664
1.16196958809644
1.16196958809626
1.16196958809608
1.16196958809592
1.16196958809577
1.16196958809564
1.16196958809553
1.16196958809544
1.16196958809537
1.16196958809532
1.16196958809529
1.16196958809529
1.16196958809531
1.16196958809535
1.16196958809541
1.16196958809549
1.16196958809559
1.1619695880957
1.16196958809582
1.16196958809596
1.1619695880961
1.16196958809625
1.1619695880964
1.16196958809656
1.16196958809671
1.16196958809686
1.161969588097
1.16196958809712
1.16196958809724
1.16196958809733
1.1619695880974
1.16196958809744
1.16196958809743
1.16196958809737
1.16196958809722
1.16196958809723
1.16196958809741
1.16196956162761
1.16196956162739
1.16196956162736
1.16196956162748
1.16196956162749
1.16196956162745
1.16196956162735
1.16196956162723
1.16196956162709
1.16196956162693
1.16196956162676
1.16196956162659
1.16196956162641
1.16196956162624
1.16196956162607
1.16196956162592
1.16196956162577
1.16196956162564
1.16196956162553
1.16196956162544
1.16196956162537
1.16196956162532
1.16196956162529
1.16196956162528
1.16196956162529
1.16196956162533
1.16196956162538
1.16196956162546
1.16196956162555
1.16196956162566
1.16196956162579
1.16196956162592
1.16196956162607
1.16196956162623
1.16196956162638
1.16196956162655