/*--------------------------------*- C++ -*----------------------------------*\
  =========                 |
  \\      /  F ield         | OpenFOAM: The Open Source CFD Toolbox
   \\    /   O peration     | Website:  https://openfoam.org
    \\  /    A nd           | Version:  10
     \\/     M anipulation  |
\*---------------------------------------------------------------------------*/
FoamFile
{
    format      ascii;
    class       volScalarField;
    location    "4.2";
    object      T;
}
// * * * * * * * * * * * * * * * * * * * * * * * * * * * * * * * * * * * * * //

dimensions      [0 0 0 1 0 0 0];

internalField   nonuniform List<scalar> 
2500
(
304.926213350246
304.90843628372
304.888765568261
304.878084757729
304.873082136414
304.870853188959
304.869898335213
304.869507588363
304.869355597641
304.869300177942
304.869279613856
304.869272185021
304.869269426417
304.869267718305
304.869266458241
304.869265206407
304.869264547275
304.869263762613
304.86926288172
304.869262255941
304.869261700866
304.86926119421
304.86926076528
304.869260517054
304.869260258117
304.869260004033
304.869259907276
304.869259837196
304.869259810194
304.869259885799
304.869260018151
304.869260261582
304.869260630935
304.869261105386
304.869261597216
304.869262183011
304.869263003475
304.869264238375
304.869267581386
304.869275705427
304.869297970766
304.869358792825
304.869519029213
304.869921277127
304.870886418575
304.873105072299
304.878072338665
304.888766399128
304.908682353037
304.92607268594
303.542647075735
303.479114717683
303.424046627067
303.393245672039
303.377794710557
303.370400194789
303.367011470141
303.365540525104
303.36494027804
303.364710724425
303.364627607376
303.364599147254
303.364589877774
303.364586653705
303.364585319916
303.364584512934
303.36458409857
303.364583672736
303.364583199919
303.364582826412
303.364582461651
303.3645820828
303.364581745513
303.364581555782
303.364581397844
303.364581223825
303.364581154137
303.364581096128
303.364581011224
303.364581047065
303.364581101868
303.3645811597
303.364581485145
303.364581928684
303.364582264596
303.36458277807
303.364584101511
303.364587796342
303.364599045739
303.364631768058
303.364723996589
303.364971349446
303.365598592116
303.36709971579
303.370498820016
303.377842110098
303.393186315518
303.42407863956
303.480017334886
303.542690602754
302.281153813843
302.193298469713
302.124655591317
302.086825203056
302.067916533308
302.058876184215
302.054726896933
302.052918820616
302.052177065675
302.05189150299
302.051787926297
302.05175254573
302.051741202181
302.051737624691
302.051736449042
302.051735976937
302.051735791039
302.05173562709
302.051735433938
302.051735264376
302.051735069696
302.051734830141
302.051734597408
302.05173446701
302.051734383406
302.051734278961
302.051734242655
302.051734206054
302.0517341069
302.051734098692
302.051734098257
302.051734066675
302.051734332267
302.051734699933
302.051734876063
302.051735243052
302.051736613913
302.051740947861
302.051754423866
302.051794407759
302.051907610305
302.052211231035
302.052979959635
302.054816641098
302.058971804634
302.067958055037
302.086785639349
302.124864120598
302.194914852782
302.283242992575
301.324782459051
301.241365634842
301.183602756637
301.15289969143
301.138147628335
301.131351010582
301.128322250011
301.127029882383
301.126507127373
301.126307682849
301.126235802836
301.126211403173
301.126203685771
301.126201343787
301.126200646482
301.126200446195
301.126200417924
301.126200395207
301.126200351895
301.126200299993
301.126200219562
301.126200091484
301.126199948767
301.126199864695
301.126199827046
301.126199775815
301.126199760814
301.126199745967
301.126199689412
301.126199681008
301.126199666073
301.126199595662
301.126199748959
301.126199971558
301.126200036535
301.126200209676
301.126201009879
301.126203772754
301.126212609385
301.12623931933
301.126316052632
301.126524866567
301.127062046901
301.128370466219
301.131404394571
301.138179185188
301.152932072886
301.183992671231
301.243273437514
301.328642119651
300.700174117529
300.637484340992
300.598336259798
300.578266795975
300.568981713524
300.564852341456
300.563062050927
300.562311804302
300.562011422364
300.561897344438
300.561856273913
300.561842344729
300.561837971806
300.561836668848
300.561836334524
300.561836297483
300.56183631945
300.561836334868
300.56183634105
300.561836341017
300.561836321589
300.561836266507
300.561836188807
300.561836140165
300.561836130434
300.561836117141
300.561836114746
300.561836110678
300.561836086377
300.561836080525
300.561836062868
300.561835996164
300.561836067561
300.561836159392
300.561836158756
300.561836239928
300.561836643511
300.561838101993
300.561842904971
300.561857631253
300.561900347543
300.562017731623
300.562323217889
300.563078937807
300.564870013469
300.568991941809
300.578308549908
300.598707692849
300.639159051164
300.704385969578
300.339882282945
300.300132502594
300.277463427765
300.266227860333
300.26120199009
300.259036684627
300.258120836956
300.257742888645
300.257592659435
300.25753568929
300.257515132446
300.257508144153
300.257505959219
300.257505328207
300.257505200276
300.257505209092
300.257505234329
300.25750525894
300.257505273212
300.257505274169
300.257505274193
300.257505261402
300.257505222234
300.257505199092
300.257505203563
300.257505205734
300.257505208258
300.257505207354
300.257505197696
300.257505193719
300.257505179397
300.257505133954
300.257505161768
300.257505193367
300.257505182067
300.25750521274
300.25750538571
300.257506063777
300.257508368565
300.257515516361
300.257536370292
300.257593998856
300.257745114124
300.258123415002
300.259036924604
300.261197223643
300.266248530621
300.27771376021
300.301315197863
300.34333202254
300.152850820387
300.1307852655
300.11917401264
300.113596000648
300.111173263593
300.11015832993
300.109738462137
300.109567481754
300.109499869616
300.109474213362
300.109464916465
300.109461742757
300.109460752235
300.109460479826
300.109460438917
300.109460450906
300.109460469883
300.109460487991
300.10946049981
300.109460501634
300.109460505554
300.109460505209
300.109460488098
300.109460479562
300.109460485646
300.109460489761
300.109460492021
300.109460492589
300.109460489319
300.109460486582
300.109460477751
300.109460452086
300.10946046083
300.109460469165
300.10946045871
300.109460471209
300.10946053849
300.109460821546
300.109461828912
300.109464983864
300.109474213149
300.109499770346
300.109567063455
300.109736988047
300.110153836988
300.11116377344
300.113598117568
300.11930696091
300.131491289804
300.155174782844
300.064183054593
300.053194323283
300.047809041803
300.045296208114
300.044232487505
300.043797701048
300.043621385452
300.043550425926
300.043522471858
300.043511843584
300.043507972012
300.043506643755
300.043506229796
300.043506121773
300.043506111059
300.04350611958
300.043506130732
300.043506141136
300.04350614847
300.043506151303
300.04350615339
300.043506153834
300.043506148473
300.043506146425
300.043506150488
300.043506153097
300.043506154325
300.043506155014
300.043506153912
300.043506152219
300.043506147723
300.04350613513
300.043506136956
300.043506138004
300.043506132045
300.043506135748
300.043506158428
300.043506269004
300.043506678236
300.043507969738
300.043511748498
300.043522202875
300.043549761341
300.043619755841
300.043793725007
300.044224323794
300.045290744064
300.047867285298
300.053562575937
300.065534294638
300.025339404583
300.020343347583
300.0180430354
300.016998785003
300.016566620639
300.016393741526
300.016324884576
300.016297466219
300.016286696573
300.016282590878
300.016281086883
300.016280568233
300.01628040718
300.016280367933
300.016280365778
300.016280369873
300.016280375473
300.01628038063
300.016280384437
300.016280386307
300.016280387265
300.016280387364
300.016280386439
300.016280386925
300.016280388628
300.016280389848
300.016280390389
300.016280390787
300.016280390385
300.01628038948
300.016280387438
300.016280381893
300.016280381597
300.016280381356
300.016280379002
300.016280379679
300.016280386378
300.016280426804
300.016280583108
300.016281079944
300.016282531082
300.016286532465
300.016297066163
300.016323909143
300.01639134074
300.016561400064
300.016992864441
300.018064344401
300.020515112101
300.026038079234
300.009463190772
300.007361953688
300.00644538026
300.006040054573
300.005875654396
300.005811118315
300.005785827593
300.005775855229
300.005771947849
300.005770453803
300.005769903481
300.005769712793
300.005769653834
300.005769640283
300.005769640146
300.005769642123
300.005769644646
300.005769646945
300.0057696487
300.005769649713
300.005769650272
300.005769650415
300.005769650398
300.005769650864
300.005769651568
300.005769652062
300.005769652272
300.00576965244
300.005769652282
300.005769651855
300.005769651005
300.005769648892
300.005769648503
300.005769648113
300.005769647205
300.005769647047
300.005769648643
300.005769662731
300.005769719452
300.005769900793
300.005770428695
300.005771876785
300.005775675982
300.005785368538
300.005809922128
300.005872859886
300.006036020531
300.006451718808
300.007434818418
300.00979108008
300.003360885697
300.002534934655
300.002190875769
300.00204249726
300.001983399727
300.001960581292
300.001951768761
300.001948325416
300.001946979303
300.00194646308
300.001946271956
300.001946205453
300.001946185012
300.001946180552
300.001946180698
300.001946181571
300.001946182613
300.001946183557
300.001946184296
300.001946184768
300.001946185074
300.001946185207
300.001946185277
300.001946185501
300.001946185773
300.001946185957
300.001946186031
300.001946186089
300.001946186024
300.001946185843
300.001946185512
300.001946184756
300.001946184511
300.001946184268
300.001946183891
300.001946183745
300.001946184097
300.001946188745
300.00194620841
300.001946271639
300.001946454912
300.00194695438
300.001948258256
300.001951582297
300.00196005605
300.00198208099
300.002040288716
300.002192210136
300.002563403552
300.00350264446
300.001140417095
300.000834475179
300.00071186337
300.000660239606
300.000640017821
300.000632322483
300.000629389152
300.000628252699
300.000627809417
300.000627638966
300.000627575569
300.000627553431
300.000627546666
300.00062754526
300.000627545372
300.000627545725
300.000627546125
300.000627546486
300.000627546775
300.000627546972
300.000627547111
300.000627547186
300.000627547234
300.000627547328
300.000627547426
300.00062754749
300.000627547514
300.00062754753
300.000627547504
300.000627547434
300.000627547312
300.000627547056
300.000627546938
300.00062754682
300.000627546661
300.000627546569
300.000627546632
300.000627548131
300.000627554688
300.00062757586
300.000627636925
300.000627802129
300.000628230751
300.00062932095
300.000632112228
300.000639452699
300.000659188998
300.000711892954
300.00084481804
300.001197520335
300.000371223221
300.000263713513
300.000221977514
300.000204801206
300.000198175725
300.000195686433
300.000194748527
300.000194388011
300.000194247712
300.00019419364
300.000194173448
300.000194166376
300.000194164225
300.000194163797
300.000194163852
300.000194163984
300.000194164128
300.000194164258
300.000194164363
300.000194164438
300.000194164493
300.000194164527
300.000194164551
300.000194164586
300.000194164619
300.000194164641
300.000194164648
300.000194164651
300.000194164641
300.000194164616
300.000194164574
300.000194164491
300.000194164442
300.000194164392
300.000194164328
300.000194164283
300.000194164291
300.000194164764
300.000194166877
300.000194173713
300.000194193326
300.000194245977
300.000194381639
300.000194725465
300.000195608039
300.000197951474
300.000204350036
300.000221813722
300.000267233046
300.000392846732
300.000116337666
300.000080296242
300.000066660518
300.000061167747
300.000059079119
300.000058303184
300.000058013808
300.000057903381
300.000057860508
300.000057843954
300.00005783775
300.000057835571
300.00005783491
300.000057834782
300.000057834804
300.000057834849
300.000057834898
300.000057834941
300.000057834977
300.000057835003
300.000057835023
300.000057835035
300.000057835045
300.000057835057
300.000057835068
300.000057835074
300.000057835076
300.000057835077
300.000057835073
300.000057835065
300.000057835051
300.000057835025
300.000057835007
300.000057834988
300.000057834965
300.000057834947
300.000057834947
300.000057835094
300.000057835755
300.000057837892
300.000057843985
300.000057860213
300.000057901724
300.00005800645
300.000058275538
300.000058995561
300.000060988827
300.000066543745
300.000081424171
300.000124090533
300.00003521185
300.000023631086
300.00001933831
300.000017643139
300.000017007105
300.000016773159
300.000016686686
300.000016653904
300.000016641206
300.000016636295
300.000016634448
300.000016633797
300.000016633598
300.00001663356
300.000016633566
300.00001663358
300.000016633594
300.000016633607
300.000016633618
300.000016633626
300.000016633632
300.000016633636
300.000016633639
300.000016633643
300.000016633646
300.000016633648
300.000016633648
300.000016633648
300.000016633647
300.000016633645
300.00001663364
300.000016633633
300.000016633627
300.000016633621
300.000016633614
300.000016633608
300.000016633608
300.000016633655
300.000016633857
300.000016634506
300.000016636342
300.000016641195
300.000016653514
300.000016684429
300.000016763829
300.000016977565
300.000017576627
300.000019279783
300.00002397287
300.000037859312
300.000010321877
300.000006741059
300.000005434624
300.00000492803
300.000004740307
300.000004671867
300.000004646762
300.0000046373
300.000004633642
300.000004632224
300.000004631688
300.000004631497
300.000004631437
300.000004631424
300.000004631425
300.000004631427
300.00000463143
300.000004631433
300.000004631436
300.000004631437
300.000004631439
300.000004631439
300.00000463144
300.00000463144
300.000004631441
300.000004631441
300.000004631441
300.000004631441
300.000004631441
300.000004631441
300.00000463144
300.000004631438
300.000004631437
300.000004631435
300.000004631434
300.000004631433
300.000004631435
300.00000463145
300.000004631512
300.000004631705
300.000004632244
300.000004633657
300.000004637213
300.000004646082
300.000004668825
300.000004730318
300.000004904605
300.00000540967
300.000006839233
300.000011187175
300.000002937902
300.00000186881
300.00000148343
300.000001336415
300.000001282562
300.000001263082
300.000001255982
300.000001253318
300.000001252288
300.000001251887
300.000001251734
300.000001251677
300.000001251658
300.000001251652
300.00000125165
300.000001251649
300.000001251649
300.000001251648
300.000001251648
300.000001251648
300.000001251647
300.000001251647
300.000001251646
300.000001251646
300.000001251646
300.000001251646
300.000001251646
300.000001251646
300.000001251646
300.000001251646
300.000001251646
300.000001251646
300.000001251646
300.000001251647
300.000001251647
300.000001251648
300.00000125165
300.000001251656
300.000001251676
300.000001251734
300.00000125189
300.000001252292
300.000001253294
300.000001255775
300.000001262115
300.000001279309
300.000001328537
300.000001473818
300.000001895569
300.000003209718
300.000000813973
300.000000504878
300.00000039444
300.000000352906
300.00000033785
300.000000332442
300.000000330479
300.000000329744
300.000000329458
300.000000329345
300.0000003293
300.000000329281
300.000000329274
300.00000032927
300.000000329267
300.000000329265
300.000000329264
300.000000329262
300.000000329261
300.00000032926
300.000000329259
300.000000329258
300.000000329257
300.000000329257
300.000000329256
300.000000329256
300.000000329256
300.000000329256
300.000000329256
300.000000329256
300.000000329257
300.000000329257
300.000000329258
300.000000329259
300.00000032926
300.000000329262
300.000000329264
300.000000329268
300.000000329275
300.000000329294
300.00000032934
300.000000329454
300.000000329731
300.00000033041
300.000000332136
300.000000336822
300.000000350359
300.000000391001
300.000000511791
300.000000896328
300.000000220203
300.000000133463
300.000000102662
300.000000091208
300.000000087093
300.000000085623
300.00000008509
300.000000084889
300.000000084809
300.000000084775
300.00000008476
300.000000084752
300.000000084747
300.000000084744
300.000000084741
300.000000084739
300.000000084737
300.000000084735
300.000000084733
300.000000084732
300.000000084731
300.00000008473
300.000000084729
300.000000084728
300.000000084728
300.000000084728
300.000000084727
300.000000084727
300.000000084728
300.000000084728
300.000000084728
300.000000084729
300.00000008473
300.000000084731
300.000000084733
300.000000084735
300.000000084737
300.00000008474
300.000000084744
300.000000084751
300.000000084766
300.0000000848
300.000000084878
300.000000085062
300.000000085523
300.000000086773
300.00000009041
300.000000101499
300.000000135147
300.000000244339
300.000000058525
300.000000034868
300.000000026499
300.000000023403
300.000000022297
300.000000021902
300.000000021758
300.000000021701
300.000000021676
300.000000021664
300.000000021657
300.000000021652
300.000000021648
300.000000021645
300.000000021642
300.00000002164
300.000000021638
300.000000021636
300.000000021634
300.000000021632
300.000000021631
300.00000002163
300.000000021629
300.000000021629
300.000000021628
300.000000021628
300.000000021628
300.000000021628
300.000000021628
300.000000021628
300.000000021629
300.00000002163
300.000000021631
300.000000021632
300.000000021634
300.000000021635
300.000000021638
300.00000002164
300.000000021644
300.000000021648
300.000000021655
300.000000021667
300.00000002169
300.000000021742
300.000000021865
300.000000022195
300.000000023157
300.000000026123
300.000000035248
300.000000065382
300.000000015565
300.000000009306
300.000000007094
300.000000006264
300.000000005966
300.000000005859
300.000000005818
300.000000005799
300.000000005789
300.000000005783
300.000000005778
300.000000005774
300.00000000577
300.000000005767
300.000000005764
300.000000005762
300.000000005759
300.000000005757
300.000000005756
300.000000005754
300.000000005753
300.000000005752
300.000000005751
300.00000000575
300.00000000575
300.000000005749
300.000000005749
300.000000005749
300.000000005749
300.00000000575
300.00000000575
300.000000005751
300.000000005752
300.000000005754
300.000000005755
300.000000005757
300.000000005759
300.000000005762
300.000000005765
300.000000005769
300.000000005773
300.000000005779
300.000000005788
300.000000005805
300.00000000584
300.000000005929
300.000000006186
300.000000006974
300.00000000938
300.000000017453
300.000000004406
300.000000002822
300.000000002259
300.00000000203
300.000000001945
300.000000001913
300.000000001899
300.000000001891
300.000000001884
300.000000001879
300.000000001875
300.000000001871
300.000000001868
300.000000001864
300.000000001862
300.000000001859
300.000000001857
300.000000001855
300.000000001853
300.000000001851
300.00000000185
300.000000001849
300.000000001848
300.000000001847
300.000000001847
300.000000001847
300.000000001846
300.000000001846
300.000000001847
300.000000001847
300.000000001848
300.000000001848
300.00000000185
300.000000001851
300.000000001853
300.000000001854
300.000000001857
300.000000001859
300.000000001862
300.000000001866
300.000000001869
300.000000001874
300.000000001879
300.000000001887
300.000000001899
300.000000001927
300.000000002002
300.00000000222
300.000000002829
300.000000004906
300.000000001568
300.000000001211
300.000000001079
300.000000001007
300.000000000976
300.000000000964
300.000000000957
300.000000000951
300.000000000946
300.000000000941
300.000000000937
300.000000000933
300.000000000929
300.000000000926
300.000000000923
300.000000000921
300.000000000919
300.000000000917
300.000000000915
300.000000000913
300.000000000912
300.000000000911
300.00000000091
300.000000000909
300.000000000909
300.000000000908
300.000000000908
300.000000000908
300.000000000908
300.000000000909
300.000000000909
300.00000000091
300.000000000911
300.000000000913
300.000000000914
300.000000000916
300.000000000919
300.000000000921
300.000000000924
300.000000000927
300.000000000931
300.000000000935
300.00000000094
300.000000000945
300.000000000952
300.000000000963
300.000000000993
300.000000001064
300.000000001204
300.000000001692
300.000000000861
300.000000000818
300.000000000797
300.000000000764
300.000000000748
300.00000000074
300.000000000735
300.00000000073
300.000000000725
300.00000000072
300.000000000716
300.000000000712
300.000000000709
300.000000000706
300.000000000703
300.0000000007
300.000000000698
300.000000000696
300.000000000694
300.000000000692
300.000000000691
300.00000000069
300.000000000689
300.000000000688
300.000000000688
300.000000000688
300.000000000687
300.000000000687
300.000000000688
300.000000000688
300.000000000689
300.00000000069
300.000000000691
300.000000000692
300.000000000694
300.000000000696
300.000000000698
300.0000000007
300.000000000703
300.000000000707
300.00000000071
300.000000000714
300.000000000719
300.000000000723
300.000000000728
300.000000000736
300.000000000755
300.000000000789
300.000000000809
300.000000000884
300.000000000688
300.000000000724
300.000000000731
300.000000000708
300.000000000695
300.000000000688
300.000000000683
300.000000000679
300.000000000674
300.000000000669
300.000000000665
300.000000000661
300.000000000658
300.000000000655
300.000000000652
300.000000000649
300.000000000647
300.000000000645
300.000000000643
300.000000000642
300.00000000064
300.000000000639
300.000000000638
300.000000000638
300.000000000637
300.000000000637
300.000000000637
300.000000000637
300.000000000637
300.000000000637
300.000000000638
300.000000000639
300.00000000064
300.000000000641
300.000000000643
300.000000000645
300.000000000647
300.00000000065
300.000000000653
300.000000000656
300.000000000659
300.000000000663
300.000000000668
300.000000000672
300.000000000677
300.000000000684
300.000000000699
300.000000000725
300.000000000715
300.000000000685
300.000000000646
300.000000000702
300.000000000716
300.000000000695
300.000000000683
300.000000000677
300.000000000672
300.000000000667
300.000000000662
300.000000000658
300.000000000654
300.00000000065
300.000000000646
300.000000000643
300.00000000064
300.000000000638
300.000000000635
300.000000000633
300.000000000632
300.00000000063
300.000000000629
300.000000000628
300.000000000627
300.000000000626
300.000000000626
300.000000000625
300.000000000625
300.000000000625
300.000000000625
300.000000000626
300.000000000626
300.000000000627
300.000000000628
300.00000000063
300.000000000631
300.000000000633
300.000000000636
300.000000000638
300.000000000641
300.000000000644
300.000000000648
300.000000000652
300.000000000656
300.000000000661
300.000000000665
300.000000000672
300.000000000687
300.00000000071
300.000000000693
300.000000000637
300.000000000637
300.000000000697
300.000000000712
300.000000000692
300.00000000068
300.000000000674
300.000000000669
300.000000000664
300.00000000066
300.000000000655
300.000000000651
300.000000000647
300.000000000644
300.000000000641
300.000000000638
300.000000000635
300.000000000633
300.000000000631
300.000000000629
300.000000000628
300.000000000626
300.000000000625
300.000000000624
300.000000000624
300.000000000623
300.000000000623
300.000000000623
300.000000000623
300.000000000623
300.000000000623
300.000000000624
300.000000000625
300.000000000626
300.000000000627
300.000000000629
300.000000000631
300.000000000633
300.000000000636
300.000000000639
300.000000000642
300.000000000645
300.000000000649
300.000000000654
300.000000000658
300.000000000663
300.00000000067
300.000000000685
300.000000000707
300.000000000688
300.000000000627
300.000000000635
300.000000000697
300.000000000712
300.000000000692
300.00000000068
300.000000000673
300.000000000668
300.000000000664
300.000000000659
300.000000000654
300.00000000065
300.000000000646
300.000000000643
300.00000000064
300.000000000637
300.000000000634
300.000000000632
300.00000000063
300.000000000628
300.000000000627
300.000000000625
300.000000000624
300.000000000624
300.000000000623
300.000000000622
300.000000000622
300.000000000622
300.000000000622
300.000000000622
300.000000000623
300.000000000623
300.000000000624
300.000000000625
300.000000000627
300.000000000628
300.00000000063
300.000000000632
300.000000000635
300.000000000638
300.000000000641
300.000000000645
300.000000000649
300.000000000653
300.000000000657
300.000000000662
300.000000000669
300.000000000684
300.000000000707
300.000000000688
300.000000000625
300.000000000636
300.000000000697
300.000000000713
300.000000000692
300.00000000068
300.000000000673
300.000000000668
300.000000000663
300.000000000658
300.000000000654
300.000000000649
300.000000000646
300.000000000642
300.000000000639
300.000000000636
300.000000000634
300.000000000631
300.000000000629
300.000000000628
300.000000000626
300.000000000625
300.000000000624
300.000000000623
300.000000000622
300.000000000622
300.000000000622
300.000000000621
300.000000000621
300.000000000622
300.000000000622
300.000000000623
300.000000000624
300.000000000625
300.000000000626
300.000000000628
300.00000000063
300.000000000632
300.000000000634
300.000000000637
300.000000000641
300.000000000644
300.000000000648
300.000000000653
300.000000000657
300.000000000662
300.000000000669
300.000000000685
300.000000000708
300.000000000689
300.000000000626
300.000000000637
300.000000000698
300.000000000713
300.000000000692
300.00000000068
300.000000000673
300.000000000668
300.000000000662
300.000000000658
300.000000000653
300.000000000649
300.000000000645
300.000000000641
300.000000000638
300.000000000636
300.000000000633
300.000000000631
300.000000000629
300.000000000627
300.000000000626
300.000000000624
300.000000000623
300.000000000623
300.000000000622
300.000000000621
300.000000000621
300.000000000621
300.000000000621
300.000000000621
300.000000000622
300.000000000622
300.000000000623
300.000000000624
300.000000000626
300.000000000627
300.000000000629
300.000000000631
300.000000000634
300.000000000637
300.00000000064
300.000000000644
300.000000000648
300.000000000652
300.000000000657
300.000000000662
300.00000000067
300.000000000685
300.000000000709
300.000000000691
300.000000000627
300.000000000639
300.0000000007
300.000000000714
300.000000000693
300.00000000068
300.000000000673
300.000000000667
300.000000000662
300.000000000657
300.000000000652
300.000000000648
300.000000000644
300.000000000641
300.000000000637
300.000000000635
300.000000000632
300.00000000063
300.000000000628
300.000000000627
300.000000000625
300.000000000624
300.000000000623
300.000000000622
300.000000000621
300.000000000621
300.000000000621
300.00000000062
300.000000000621
300.000000000621
300.000000000621
300.000000000622
300.000000000623
300.000000000624
300.000000000625
300.000000000627
300.000000000628
300.000000000631
300.000000000633
300.000000000636
300.000000000639
300.000000000643
300.000000000647
300.000000000652
300.000000000657
300.000000000662
300.00000000067
300.000000000686
300.00000000071
300.000000000692
300.000000000629
300.000000000641
300.000000000702
300.000000000715
300.000000000693
300.000000000679
300.000000000672
300.000000000666
300.000000000661
300.000000000656
300.000000000651
300.000000000647
300.000000000643
300.000000000639
300.000000000636
300.000000000634
300.000000000631
300.000000000629
300.000000000627
300.000000000626
300.000000000624
300.000000000623
300.000000000622
300.000000000621
300.000000000621
300.00000000062
300.00000000062
300.00000000062
300.00000000062
300.00000000062
300.000000000621
300.000000000621
300.000000000622
300.000000000623
300.000000000624
300.000000000626
300.000000000628
300.00000000063
300.000000000632
300.000000000635
300.000000000639
300.000000000642
300.000000000646
300.000000000651
300.000000000656
300.000000000662
300.00000000067
300.000000000687
300.000000000712
300.000000000695
300.000000000631
300.000000000643
300.000000000705
300.000000000717
300.000000000694
300.000000000679
300.000000000672
300.000000000665
300.00000000066
300.000000000654
300.00000000065
300.000000000645
300.000000000642
300.000000000638
300.000000000635
300.000000000633
300.00000000063
300.000000000628
300.000000000626
300.000000000625
300.000000000623
300.000000000622
300.000000000621
300.00000000062
300.00000000062
300.000000000619
300.000000000619
300.000000000619
300.000000000619
300.000000000619
300.00000000062
300.00000000062
300.000000000621
300.000000000622
300.000000000623
300.000000000625
300.000000000627
300.000000000629
300.000000000631
300.000000000634
300.000000000638
300.000000000641
300.000000000646
300.00000000065
300.000000000656
300.000000000662
300.00000000067
300.000000000688
300.000000000713
300.000000000698
300.000000000634
300.000000000646
300.000000000708
300.000000000719
300.000000000694
300.000000000679
300.000000000671
300.000000000664
300.000000000658
300.000000000653
300.000000000648
300.000000000644
300.00000000064
300.000000000637
300.000000000634
300.000000000631
300.000000000629
300.000000000627
300.000000000625
300.000000000624
300.000000000622
300.000000000621
300.00000000062
300.000000000619
300.000000000619
300.000000000618
300.000000000618
300.000000000618
300.000000000618
300.000000000618
300.000000000619
300.000000000619
300.00000000062
300.000000000621
300.000000000622
300.000000000624
300.000000000626
300.000000000628
300.00000000063
300.000000000633
300.000000000636
300.00000000064
300.000000000644
300.000000000649
300.000000000655
300.000000000661
300.000000000671
300.000000000689
300.000000000715
300.000000000701
300.000000000638
300.00000000065
300.000000000711
300.000000000721
300.000000000695
300.000000000679
300.00000000067
300.000000000663
300.000000000657
300.000000000651
300.000000000647
300.000000000642
300.000000000638
300.000000000635
300.000000000632
300.00000000063
300.000000000627
300.000000000626
300.000000000624
300.000000000622
300.000000000621
300.00000000062
300.000000000619
300.000000000618
300.000000000618
300.000000000617
300.000000000617
300.000000000617
300.000000000617
300.000000000617
300.000000000618
300.000000000618
300.000000000619
300.00000000062
300.000000000621
300.000000000623
300.000000000624
300.000000000626