/*--------------------------------*- C++ -*----------------------------------*\
  =========                 |
  \\      /  F ield         | OpenFOAM: The Open Source CFD Toolbox
   \\    /   O peration     | Website:  https://openfoam.org
    \\  /    A nd           | Version:  10
     \\/     M anipulation  |
\*---------------------------------------------------------------------------*/
FoamFile
{
    format      ascii;
    class       volVectorField;
    location    "4.2";
    object      U;
}
// * * * * * * * * * * * * * * * * * * * * * * * * * * * * * * * * * * * * * //

dimensions      [0 1 -1 0 0 0 0];

internalField   nonuniform List<vector> 
2500
(
(-1.62914947605042e-06 -6.52846216606936e-06 1.10855049401528e-24)
(-3.84405749801501e-06 -8.25251394329811e-06 9.56169297185618e-24)
(-3.06772676724624e-06 -8.60845182163298e-06 1.36643023223629e-24)
(-2.18383818082194e-06 -8.67374628863208e-06 7.29655110809368e-25)
(-1.37358829831478e-06 -8.62188407383606e-06 2.61658740846567e-24)
(-8.74177504232552e-07 -8.56506145454568e-06 4.46562654585341e-25)
(-5.68676788538803e-07 -8.52380248872707e-06 2.71286759132942e-25)
(-3.81348620606047e-07 -8.49826371574578e-06 3.02776042364366e-25)
(-2.6555634141678e-07 -8.48450527583667e-06 5.6239124830174e-25)
(-1.89044045457495e-07 -8.47743310245825e-06 8.48092191033667e-24)
(-1.36009157974078e-07 -8.47397247726068e-06 2.63827162046804e-24)
(-9.74491082811698e-08 -8.47228339162422e-06 1.08986175275135e-23)
(-6.81558408573794e-08 -8.47140526764319e-06 9.75723538359179e-24)
(-4.52624292951427e-08 -8.47091443958234e-06 2.005237258333e-24)
(-2.6984584325211e-08 -8.47060934779384e-06 9.66395336920779e-24)
(-1.21927457003894e-08 -8.47040476163998e-06 1.86269435989092e-24)
(-1.20105089485127e-10 -8.47026548137053e-06 9.85864540721424e-24)
(9.78076742659891e-09 -8.47016204530976e-06 1.12451761888496e-23)
(1.79282566685673e-08 -8.47010008253049e-06 2.32509888541068e-24)
(2.46505177511281e-08 -8.47005276410833e-06 9.611075204081e-24)
(3.02234432859062e-08 -8.47002971314357e-06 1.32253775836813e-24)
(3.48756186366621e-08 -8.47002370410705e-06 4.4528926492089e-25)
(3.88103874715029e-08 -8.47002613053082e-06 9.25228989604407e-24)
(4.22063185589242e-08 -8.47004429108406e-06 9.96207769438541e-25)
(4.5224840044687e-08 -8.47006455780635e-06 5.72652102514126e-25)
(4.80317563901126e-08 -8.47009684239181e-06 9.73447528993725e-24)
(5.07762531010978e-08 -8.47013696249393e-06 6.80759045389453e-25)
(5.36092606258672e-08 -8.47017836041339e-06 6.7077125067268e-25)
(5.66925210028492e-08 -8.4702337794145e-06 7.6940622706443e-24)
(6.01923761123815e-08 -8.4702843161475e-06 -9.42952534084485e-27)
(6.42908685004603e-08 -8.47035098112482e-06 2.14913537332514e-25)
(6.92025009337462e-08 -8.47042681413709e-06 -1.00290880123589e-24)
(7.51800952300244e-08 -8.47051045234153e-06 4.20327595933581e-25)
(8.2518893078186e-08 -8.47061620962677e-06 5.16536570223017e-25)
(9.16229088033923e-08 -8.47075278411777e-06 1.4631410102914e-25)
(1.03035490920101e-07 -8.47094991552576e-06 9.00488875658427e-24)
(1.17511388919759e-07 -8.47123705055446e-06 -1.0225032606327e-23)
(1.36175892583147e-07 -8.47172101385792e-06 -9.27587250108415e-25)
(1.60811362070405e-07 -8.47260105391755e-06 -9.94641139557959e-26)
(1.9429356477834e-07 -8.47433363228603e-06 -4.70067993288087e-24)
(2.4181989815044e-07 -8.47786745747686e-06 -1.00014885048173e-23)
(3.12508309374305e-07 -8.48499850636203e-06 -9.60439369313955e-24)
(4.21951290554206e-07 -8.49867605705438e-06 -4.51420074391994e-24)
(6.03004231240684e-07 -8.52387193561511e-06 -1.06305682636275e-23)
(9.01958099533541e-07 -8.56442899715767e-06 -1.02650003964742e-23)
(1.39737009913919e-06 -8.62112293000239e-06 -5.15520566837422e-24)
(2.20958540031143e-06 -8.67490652313808e-06 -1.20118658617123e-23)
(3.11685600626465e-06 -8.6117663421912e-06 -9.7773022950895e-24)
(3.91543955063528e-06 -8.24161264322761e-06 -4.52707389506817e-24)
(1.66006220426766e-06 -6.50505370602568e-06 -7.97047035282866e-24)
(-1.25693507449866e-06 -8.19996475527607e-06 1.17598864743831e-24)
(-5.98344426129734e-06 -1.12218586235451e-05 2.37103515387205e-24)
(-5.12995841808222e-06 -1.25361556494505e-05 1.72870943063888e-24)
(-3.88970665634202e-06 -1.26226065807042e-05 1.58929830646617e-24)
(-2.62820830807928e-06 -1.23370468429193e-05 5.52289322153525e-24)
(-1.79532997299809e-06 -1.20502556229373e-05 -8.24361000856686e-25)
(-1.26075957360735e-06 -1.18570005119026e-05 4.96100304823732e-25)
(-9.13374105401997e-07 -1.17409637129042e-05 3.85250508159437e-25)
(-6.83794574653623e-07 -1.16760241163808e-05 -2.0468148182437e-24)
(-5.21673270917951e-07 -1.1640174604214e-05 2.17135645484582e-24)
(-4.01715503633333e-07 -1.16200447875651e-05 5.38730957923041e-24)
(-3.09403154132739e-07 -1.16081681650362e-05 6.79038733321572e-24)
(-2.35953512952282e-07 -1.16006436460365e-05 2.00105948350269e-24)
(-1.76239000232664e-07 -1.15955252558813e-05 3.70856292049813e-24)
(-1.26868635618767e-07 -1.15918157847987e-05 2.12521050413446e-24)
(-8.5563343556844e-08 -1.15890126512944e-05 1.97578951252445e-24)
(-5.06848850300627e-08 -1.15868272976205e-05 5.88374587046598e-24)
(-2.10308433864561e-08 -1.15850983430066e-05 3.90373144396079e-24)
(4.34551088603695e-09 -1.15837315491161e-05 2.28863961748054e-24)
(2.62052759381977e-08 -1.15826446429386e-05 2.61843684073765e-24)
(4.51803152176864e-08 -1.15817930998565e-05 1.17871275062572e-24)
(6.18242434681369e-08 -1.15811426625212e-05 -1.94655105880267e-24)
(7.66141514935166e-08 -1.15806745145403e-05 4.55673332216486e-24)
(8.99893734153316e-08 -1.15803640288973e-05 1.03214714176221e-24)
(1.02350580821666e-07 -1.15801946560782e-05 -1.88851177549743e-24)
(1.14094133229236e-07 -1.15801696883034e-05 5.06302966439334e-24)
(1.25610528940372e-07 -1.15802862209962e-05 -9.23349398110683e-25)
(1.3727441074698e-07 -1.15805420324496e-05 2.15997665382053e-24)
(1.4949866564059e-07 -1.15809484852158e-05 2.97119016343365e-24)
(1.62706870542338e-07 -1.15815043111876e-05 -2.44964996082433e-24)
(1.77359767755865e-07 -1.15822483136204e-05 1.7021203316095e-24)
(1.94007073526109e-07 -1.15832048540606e-05 -4.18249897739506e-24)
(2.13263957773396e-07 -1.15844061970078e-05 2.95239320127906e-24)
(2.35860839003098e-07 -1.15859371331998e-05 2.94775409988168e-24)
(2.62739182577126e-07 -1.15879059191764e-05 -2.28602329991116e-24)
(2.95128422914401e-07 -1.15904849694028e-05 3.48780384513234e-24)
(3.34659703572271e-07 -1.15939487450102e-05 -4.30202583033857e-24)
(3.83623575518258e-07 -1.15988432724989e-05 -7.67059967749685e-25)
(4.45426713967045e-07 -1.16061737488231e-05 1.4580104592486e-24)
(5.25234749635698e-07 -1.16179641056106e-05 -1.32580085210588e-23)
(6.31867643771715e-07 -1.16381339172514e-05 -7.72632114689611e-24)
(7.80114129677568e-07 -1.16741283864813e-05 -6.82337783416012e-24)
(9.95060418474126e-07 -1.17391997302138e-05 -1.0645650205184e-23)
(1.32820969100108e-06 -1.18553034144329e-05 -6.98431076094195e-24)
(1.84819575404817e-06 -1.2048822130831e-05 -7.23854157481362e-24)
(2.67103784365733e-06 -1.23389389055703e-05 -1.36180428365276e-23)
(3.9335450430754e-06 -1.26359613252623e-05 -7.02965887556635e-24)
(5.21789843094546e-06 -1.25576063344124e-05 -7.20423302456844e-24)
(6.12378854254887e-06 -1.11986180795136e-05 -1.12898703434903e-23)
(1.3244480695262e-06 -8.11473249184677e-06 -4.67740500984536e-24)
(1.5604013556245e-07 1.59874419528787e-07 6.03610510495603e-25)
(-4.63360238622105e-06 -1.54012866028905e-06 -7.86783609768279e-24)
(-4.36066355943886e-06 -3.72802468158524e-06 1.13330740149523e-24)
(-3.67009384285721e-06 -3.95801398992692e-06 6.51318287704387e-25)
(-2.73825496201218e-06 -3.58303444459064e-06 -5.09795350509592e-24)
(-2.04337893988713e-06 -3.17455575700902e-06 -7.44252915956264e-24)
(-1.55092087956515e-06 -2.89452706366866e-06 1.40015938575948e-25)
(-1.19773851580984e-06 -2.72298363460297e-06 1.91130035934861e-26)
(-9.4364665523443e-07 -2.62254651168226e-06 -8.23040150734985e-24)
(-7.51346337641954e-07 -2.5630020973924e-06 -5.16219669626604e-24)
(-6.01312866187379e-07 -2.52631729272903e-06 9.88732442553273e-24)
(-4.81309067918257e-07 -2.50245519432558e-06 3.85109730584026e-24)
(-3.83130511254972e-07 -2.48601071175189e-06 -5.3595229141549e-24)
(-3.01577755656609e-07 -2.47408239045861e-06 7.96726538708978e-24)
(-2.32955200726308e-07 -2.46506301159401e-06 -5.39765706232772e-24)
(-1.74624469781806e-07 -2.4580297347897e-06 1.31357339909458e-24)
(-1.24614480439176e-07 -2.45243008098613e-06 3.15470365792822e-24)
(-8.14229714072043e-08 -2.44792414807038e-06 -4.5504877175409e-24)
(-4.38514466617197e-08 -2.44427059365466e-06 1.0331328023941e-24)
(-1.09162695277347e-08 -2.44132206118259e-06 -6.1619354051823e-24)
(1.82134357838065e-08 -2.43895942773316e-06 1.80086552614351e-25)
(4.42478416291872e-08 -2.43710524231499e-06 -7.38732436101217e-24)
(6.78310609493749e-08 -2.43570411785661e-06 2.117785827838e-24)
(8.95537452404612e-08 -2.43471524590023e-06 5.21848401733147e-25)
(1.09952570368536e-07 -2.43411001397819e-06 -7.47784760956581e-24)
(1.29559448499681e-07 -2.4338790373662e-06 1.73608435774763e-24)
(1.48897893272722e-07 -2.43401711199443e-06 -5.55562262995233e-24)
(1.68490286443742e-07 -2.43453517889794e-06 6.92164535518087e-24)
(1.88886592763218e-07 -2.43544369491655e-06 1.29673500913319e-24)
(2.10665605673356e-07 -2.43678288748767e-06 -7.69225410771365e-24)
(2.34459273031139e-07 -2.43860279757644e-06 5.85672157161419e-24)
(2.60992265044777e-07 -2.44097870840089e-06 -9.84746775698435e-24)
(2.91088351940223e-07 -2.44401000051134e-06 8.33088608976293e-24)
(3.25717972448552e-07 -2.44785875151273e-06 8.10935553300232e-24)
(3.66093187407949e-07 -2.45277062139103e-06 -7.36996626025049e-24)
(4.13743039912326e-07 -2.45909028556904e-06 7.22836771469184e-25)
(4.70644040317052e-07 -2.46738802823714e-06 -1.75278544274418e-24)
(5.39448960466909e-07 -2.47858488169004e-06 -7.69192114086524e-26)
(6.23864670268571e-07 -2.49433118948458e-06 7.27729667225987e-24)
(7.29117661357284e-07 -2.51759754198988e-06 -1.33641690869359e-23)
(8.63410363820258e-07 -2.5538643730521e-06 -4.8136800027865e-24)
(1.0392565235604e-06 -2.61328394762443e-06 -3.97485450360126e-24)
(1.27593931048172e-06 -2.71404421316713e-06 -1.21375652729482e-23)
(1.61207657930345e-06 -2.8867956196905e-06 -4.00621613616156e-24)
(2.08702362746971e-06 -3.16980729762009e-06 -4.48973689858518e-24)
(2.76942522356353e-06 -3.58743903978249e-06 -1.5915087834532e-23)
(3.70033894354882e-06 -3.98539341701277e-06 -4.19910003068809e-24)
(4.43367800122175e-06 -3.77360605695742e-06 -4.32732568404045e-24)
(4.78522825633615e-06 -1.52562690226235e-06 -1.40654776933214e-23)
(-6.45501105302858e-08 2.78276211145773e-07 -2.61897439707784e-24)
(2.2467855223952e-07 6.02167885461197e-06 1.14132996805746e-24)
(-2.49665866165267e-06 5.32559985265686e-06 -2.71874880280419e-24)
(-2.77547258759795e-06 2.00066020813692e-06 1.66086969479153e-24)
(-2.74358147645707e-06 1.26427756964384e-06 5.90496064756241e-25)
(-2.34308987121086e-06 1.44145083186521e-06 -1.66581189188666e-24)
(-1.93347056705077e-06 1.79750176321942e-06 -1.41431150098214e-24)
(-1.58269618791671e-06 2.07790700753733e-06 6.01354248898637e-25)
(-1.29044269069572e-06 2.2659591149678e-06 6.2823921416286e-25)
(-1.05835739890745e-06 2.38594027398034e-06 -1.70331621542456e-24)
(-8.7042528279758e-07 2.46327324392229e-06 -1.9359428778698e-24)
(-7.17300194592393e-07 2.51474301104391e-06 4.43440947111321e-24)
(-5.91345225405076e-07 2.5504304902484e-06 2.02136662893835e-24)
(-4.86366472738815e-07 2.57620823033558e-06 -2.28154260966712e-24)
(-3.98002497483392e-07 2.59551943691329e-06 2.94517528327608e-24)
(-3.22867708577485e-07 2.61042369663675e-06 -2.19782856107657e-24)
(-2.58416603527089e-07 2.62220459085563e-06 1.60262005039824e-24)
(-2.02677391464951e-07 2.6316627880236e-06 8.75533378497077e-25)
(-1.54098368544955e-07 2.63933606736481e-06 -2.7668304211949e-25)
(-1.1142622338948e-07 2.64558160632803e-06 1.81847949240849e-24)
(-7.36176708472563e-08 2.65065665540193e-06 -1.08224605109018e-24)
(-3.97825635953229e-08 2.65472911636313e-06 1.16263328351678e-24)
(-9.14927692270423e-09 2.65793589964251e-06 -1.57307908785402e-24)
(1.89704139075853e-08 2.66037811420179e-06 5.46354328892563e-25)
(4.52205691116383e-08 2.66210861544536e-06 1.01073036356145e-24)
(7.01957682742102e-08 2.66317482523922e-06 -1.61978488689327e-24)
(9.44696522334826e-08 2.66359427768305e-06 2.76651089918163e-25)
(1.18613711242027e-07 2.66336978670258e-06 -8.81512868571671e-25)
(1.43198403554558e-07 2.66249188093726e-06 1.68356484891792e-24)
(1.68821444760532e-07 2.66092390519083e-06 -4.51408504537631e-25)
(1.96115052707866e-07 2.65860942859525e-06 -2.219815165066e-24)
(2.25771492459327e-07 2.65545922756999e-06 1.39209062177674e-24)
(2.58565943939256e-07 2.65135766270851e-06 -4.00529754204709e-24)
(2.95385620020368e-07 2.64612828921659e-06 2.41309846403053e-24)
(3.37272023058934e-07 2.63951954616713e-06 2.45460960549963e-24)
(3.85486368704227e-07 2.63116012197867e-06 -2.27633565403739e-24)
(4.41589578167422e-07 2.62051369324698e-06 -1.2125251622135e-24)
(5.07562116991424e-07 2.60675272356185e-06 7.35495245453415e-25)
(5.85946521583229e-07 2.58861479984895e-06 -3.35966934101375e-25)
(6.80106763713426e-07 2.56400282463267e-06 2.44140999800214e-24)
(7.94400763053651e-07 2.52941685941853e-06 -4.25676871386342e-24)
(9.34935576013598e-07 2.47891005408379e-06 -5.76873956717624e-25)
(1.10949589850329e-06 2.40227573692294e-06 -1.58531211982076e-25)
(1.32701210869591e-06 2.28240331342941e-06 -3.04041050511588e-24)
(1.60464010647291e-06 2.09309556899914e-06 -6.12077568282384e-25)
(1.93965724805909e-06 1.80817808184672e-06 -1.79775291440767e-25)
(2.33766927397073e-06 1.4375871316672e-06 -4.75344805955296e-24)
(2.73608113071425e-06 1.2244523665237e-06 -2.43103219281825e-25)
(2.80017949346018e-06 1.92548365161429e-06 -8.40099417561594e-25)
(2.59944442671502e-06 5.32389529867362e-06 -3.90132346428697e-24)
(-1.5223102616333e-07 6.12142552938638e-06 4.90573015384284e-25)
(-8.79501601511273e-08 8.5232810495808e-06 1.47276783217973e-24)
(-9.54396733094416e-07 7.90540806693188e-06 3.22861597400337e-24)
(-1.56907589135713e-06 3.84801059391133e-06 1.92586852961253e-24)
(-1.92191119013571e-06 2.64197901782947e-06 5.23662906904511e-25)
(-1.90352633945305e-06 2.58870873645133e-06 -1.69288957006468e-25)
(-1.71887197453591e-06 2.8563889328794e-06 1.00659558536049e-24)
(-1.49721696181158e-06 3.11885394170584e-06 7.17612831212331e-25)
(-1.27372722603066e-06 3.31490496723118e-06 8.51732737287748e-25)
(-1.07806873899674e-06 3.4503352473312e-06 1.36448315403015e-24)
(-9.09715621762772e-07 3.54319307529937e-06 1.79250722877299e-24)
(-7.67393385849849e-07 3.60808311158461e-06 1.75413479564913e-24)
(-6.47559940004437e-07 3.65476537175253e-06 2.22439340676779e-24)
(-5.46121076003002e-07 3.68937433506776e-06 1.69988758066394e-24)
(-4.59798823337595e-07 3.71577022297628e-06 1.17999999469778e-24)
(-3.85783693304553e-07 3.73639748479203e-06 1.61120723204667e-24)
(-3.21839154045494e-07 3.75282438331674e-06 1.79091895870192e-24)
(-2.66168239188102e-07 3.76607648672137e-06 2.48158777624029e-24)
(-2.17317446180762e-07 3.776858297198e-06 2.48534257999875e-24)
(-1.74088061110138e-07 3.78564831462804e-06 2.21953931840752e-24)
(-1.35469974708801e-07 3.79278646418637e-06 2.15077551040925e-24)
(-1.00591751910186e-07 3.79851778620578e-06 1.709733751833e-24)
(-6.86932982542378e-08 3.80301728103159e-06 1.24266535965731e-24)
(-3.90964587048845e-08 3.80641895573375e-06 1.95607306034862e-24)
(-1.11625758783289e-08 3.80881026032464e-06 1.24739514029876e-24)
(1.5700616294134e-08 3.81025025714991e-06 1.25855822248724e-24)
(4.20585316564102e-08 3.81075904712849e-06 1.97866277106943e-24)
(6.84773793416598e-08 3.81034784760363e-06 9.32603421735668e-25)
(9.5526663788787e-08 3.80899312631568e-06 -1.34300853458059e-25)
(1.23794381756597e-07 3.80665128347707e-06 9.57075940236839e-25)
(1.53908726073759e-07 3.80323879586801e-06 3.40320780153452e-25)
(1.86555412092499e-07 3.7986340025307e-06 -4.03036778476807e-25)
(2.22485848812771e-07 3.7926688099436e-06 -1.09319971977243e-24)
(2.62563989211854e-07 3.78511178503666e-06 -4.31501785395564e-25)
(3.07805773498905e-07 3.77561454267104e-06 -2.30150911086743e-25)
(3.59406090067631e-07 3.76368414222567e-06 1.92013693903949e-25)
(4.18809574254942e-07 3.74863355361186e-06 7.52683465859295e-25)
(4.87812812068558e-07 3.72940867519061e-06 -5.90440622343955e-25)
(5.68632967410563e-07 3.70445094575803e-06 -5.94029022330158e-25)
(6.6403086725755e-07 3.6713038804464e-06 2.13421779692513e-25)
(7.77243666084943e-07 3.62605412007136e-06 3.72220441005176e-25)
(9.12211242995934e-07 3.56250183934405e-06 -1.07889010632754e-24)
(1.07249711282102e-06 3.47078594442003e-06 -8.41146838366138e-25)
(1.25874315216298e-06 3.33600189450569e-06 1.01148610956354e-24)
(1.47221617221071e-06 3.13930333192336e-06 -7.87057206993768e-25)
(1.68161772240976e-06 2.87219490162596e-06 -7.67522292085179e-25)
(1.85646535488743e-06 2.58688793543317e-06 5.64659273090062e-25)
(1.87185388106756e-06 2.59444254215903e-06 -7.95101963140238e-25)
(1.5431428036884e-06 3.75061792354722e-06 -6.04486178503592e-25)
(9.88441327108293e-07 7.89421657669582e-06 1.13481556901573e-24)
(1.18993536088509e-07 8.60754715690714e-06 1.91425315104413e-25)
(-2.18402832085166e-07 8.71012030553471e-06 1.28586557647654e-24)
(-1.99514584117291e-07 7.77959870181617e-06 5.14530936255425e-24)
(-9.44555714007975e-07 3.56524261277095e-06 1.62042066081783e-24)
(-1.40727241729683e-06 2.11817793553074e-06 4.98467672045559e-25)
(-1.57014523693214e-06 1.92489284932713e-06 1.3074334747567e-24)
(-1.51147307984263e-06 2.12769941998225e-06 2.24668649489513e-24)
(-1.37715952472469e-06 2.37464498921608e-06 6.41391492770325e-25)
(-1.20918191863785e-06 2.57496580679741e-06 7.17631351235112e-25)
(-1.04859333898596e-06 2.72148669580041e-06 2.35756208823479e-24)
(-9.02843145768792e-07 2.82637757840537e-06 2.86603199125298e-24)
(-7.75484321411595e-07 2.90220731469062e-06 -8.01212190216517e-26)
(-6.65883971909159e-07 2.95820873258012e-06 1.85011125578869e-24)
(-5.71687957496026e-07 3.00054731873152e-06 2.93143296564627e-24)
(-4.90638544036546e-07 3.03328754190984e-06 -3.92895603309515e-26)
(-4.20553519940155e-07 3.05911869252187e-06 2.78905936664714e-24)
(-3.59586751484527e-07 3.07981462976877e-06 1.42363409939063e-24)
(-3.06179756573891e-07 3.09657870943286e-06 2.23025311741487e-24)
(-2.59031950144358e-07 3.11023315601898e-06 3.33758399273805e-24)
(-2.1705385743644e-07 3.12137199558275e-06 1.83613884514957e-24)
(-1.79304201139493e-07 3.13040742674417e-06 3.38741369768596e-24)
(-1.44966864919169e-07 3.13764708349064e-06 1.50760970439443e-24)
(-1.13322670753154e-07 3.14330585650491e-06 2.31730881272696e-24)
(-8.37243480038267e-08 3.1475475640946e-06 1.87360517819211e-24)
(-5.55616125716073e-08 3.15049202964533e-06 1.05610083704067e-24)
(-2.82694357071417e-08 3.15219714438436e-06 2.51888667777547e-24)
(-1.30482853079984e-09 3.15270483498714e-06 2.04072891741015e-24)
(2.58739963567689e-08 3.15202704769482e-06 1.67209119584634e-24)
(5.38104330728496e-08 3.15012825845316e-06 -1.13302092080548e-24)
(8.30692932720192e-08 3.1469529299601e-06 1.02635166573146e-24)
(1.14245697127657e-07 3.1423976069317e-06 1.47625399755181e-24)
(1.47991653698401e-07 3.1363075236368e-06 -1.43908168723008e-24)
(1.8501724923542e-07 3.12846612018117e-06 4.31763666059736e-25)
(2.26129208627881e-07 3.11859613774463e-06 -1.705309470976e-24)
(2.72262372357356e-07 3.10626867656517e-06 -1.52552101091976e-24)
(3.24508519719628e-07 3.09089654533571e-06 1.38586024012113e-24)
(3.84145031342145e-07 3.07164905075504e-06 1.07102280010307e-24)
(4.52710120831059e-07 3.04731663330735e-06 -7.18867525502806e-25)
(5.32025010096829e-07 3.01613573875628e-06 -5.9859546502091e-25)
(6.2420784916548e-07 2.9754136151194e-06 -1.19910827502942e-24)
(7.31446486209531e-07 2.92103370599297e-06 2.10126489714655e-24)
(8.55896235476464e-07 2.84678824592678e-06 -8.07461210688075e-25)
(9.98128647598201e-07 2.74336622320178e-06 -7.28570046766008e-25)
(1.15382614493455e-06 2.59796397399469e-06 2.09575641594906e-24)
(1.3159261921135e-06 2.39769344428649e-06 -6.43368766273711e-25)
(1.44132556800746e-06 2.14648711009556e-06 -6.63291356249556e-25)
(1.49225987340274e-06 1.92446955499553e-06 2.20363398716606e-24)
(1.32624893998629e-06 2.06537072645757e-06 -7.36224926709734e-25)
(8.84289003339426e-07 3.45342250694739e-06 -6.48297764906421e-25)
(1.7938804532528e-07 7.75892618919137e-06 3.22540449873832e-24)
(2.16610703244646e-07 8.78385637144494e-06 -1.96112449489078e-25)
(-1.50300578052501e-07 7.91552624920117e-06 8.28804713432557e-25)
(3.45529887251262e-08 6.73944181238053e-06 4.11600889146797e-24)
(-7.01178632383351e-07 2.67661870315881e-06 1.02662630676292e-24)
(-1.1254060798345e-06 1.13935813133824e-06 2.89281625387408e-25)
(-1.33846207612629e-06 8.73307266707502e-07 5.75405610021392e-25)
(-1.33702824075929e-06 1.03154122724426e-06 1.12028878554407e-24)
(-1.25605241575336e-06 1.2646865523527e-06 3.59022372751533e-25)
(-1.12921472079881e-06 1.46543478727768e-06 4.07435259416474e-25)
(-9.98192718684676e-07 1.61864581756443e-06 1.32663163247131e-24)
(-8.73420476763787e-07 1.73203114561954e-06 2.18929271890175e-24)
(-7.60887194315555e-07 1.8162613836563e-06 4.29121889800478e-26)
(-6.61880701928393e-07 1.87983167833183e-06 1.75027346342644e-24)
(-5.75411220878109e-07 1.92870061840361e-06 2.29545475252813e-24)
(-5.00116999027038e-07 1.96697089624651e-06 1.50966336868056e-25)
(-4.3440863034728e-07 1.99742438993326e-06 2.30105653689394e-24)
(-3.76826439791239e-07 2.02196690945385e-06 9.02733415134848e-25)
(-3.26074590373554e-07 2.04192420649753e-06 1.93947564420386e-24)
(-2.81023104622124e-07 2.05821169529465e-06 2.63346427836751e-24)
(-2.40694623510962e-07 2.07149964864617e-06 1.13787152054017e-24)
(-2.04237837900105e-07 2.08226789760349e-06 2.37741662032706e-24)
(-1.708971789496e-07 2.09087047510329e-06 9.01949507966071e-25)
(-1.40002228129289e-07 2.09757126955388e-06 1.33857141780991e-24)
(-1.10938713042774e-07 2.10255442869951e-06 1.80613560359843e-24)
(-8.31362324620549e-08 2.1059612143457e-06 6.50795349301653e-25)
(-5.60568462791802e-08 2.10786302742053e-06 1.36214276412063e-24)
(-2.91793072744809e-08 2.10831440964236e-06 1.82903477888552e-24)
(-1.99788677480113e-09 2.10731744358074e-06 9.33160931906198e-25)
(2.60065224358618e-08 2.10484054332886e-06 -4.62272802166706e-25)
(5.53706690807334e-08 2.10081193337539e-06 1.22879913000434e-24)
(8.66560670131427e-08 2.09510751216192e-06 8.50069624553726e-25)
(1.20471899582979e-07 2.08754928058731e-06 -6.2112646383211e-25)
(1.57481527376568e-07 2.07788628019246e-06 2.579117217657e-25)
(1.98426851065062e-07 2.06578355176583e-06 -9.07640630331007e-25)
(2.4415682188372e-07 2.05075652704464e-06 -8.35483522879792e-25)
(2.956365862407e-07 2.03214172610327e-06 7.89307310853672e-25)
(3.53965221771893e-07 2.00900833605744e-06 1.21426948212173e-24)
(4.20422860692317e-07 1.98004378494589e-06 -9.81333402260507e-25)
(4.96430203370242e-07 1.94336145916035e-06 -3.88376268701817e-25)
(5.83502549353259e-07 1.89617235612434e-06 -5.57459880098258e-25)
(6.82919518696565e-07 1.83434000351398e-06 1.17104036497647e-24)
(7.9545415386669e-07 1.7518886638184e-06 -1.10328322178761e-24)
(9.19716582283261e-07 1.6402929500394e-06 -1.09063126751331e-24)
(1.04891391819721e-06 1.48870311430476e-06 1.1102676579329e-24)
(1.17282455893483e-06 1.28878325725657e-06 -1.07030918493843e-24)
(1.24762919512379e-06 1.05193683689408e-06 -1.07403281319674e-24)
(1.24359015632086e-06 8.73336623833018e-07 1.18670370171646e-24)
(1.02834380268646e-06 1.08106050837295e-06 -1.33148336438789e-24)
(6.24787437217663e-07 2.5521663977251e-06 -1.57104646283355e-24)
(-8.31071996954527e-08 6.70255089841429e-06 1.88760836296272e-24)
(1.33186623971974e-07 7.97280368701149e-06 -1.00697150148501e-24)
(-3.21937284413041e-08 7.02749267277837e-06 3.8406659442395e-25)
(3.61704843884327e-08 5.80554734943073e-06 1.84525225481401e-24)
(-6.16158015717521e-07 1.94862254869258e-06 4.80285030337636e-25)
(-9.60459858602848e-07 3.76226536535155e-07 1.14791833619375e-25)
(-1.16708905354043e-06 6.45808508345737e-08 -1.29492133630673e-25)
(-1.18975625345062e-06 1.85733486332699e-07 5.04763779886388e-25)
(-1.14202615056843e-06 4.0246805531087e-07 1.69362149906488e-25)
(-1.04607783171571e-06 5.98668117301472e-07 1.94614050731399e-25)
(-9.39459299961689e-07 7.53953261649995e-07 6.57994431928484e-25)
(-8.33150228424106e-07 8.72329311245643e-07 9.16880848792388e-25)
(-7.34181346430727e-07 9.62488869208145e-07 -2.95735425164365e-26)
(-6.45105600990671e-07 1.03193237220532e-06 6.74377646177535e-25)
(-5.65973894853496e-07 1.08617429943501e-06 9.86169944868287e-25)
(-4.961791308932e-07 1.12916841885847e-06 6.07893307134625e-26)
(-4.34670188568227e-07 1.16368865685052e-06 9.50579221572826e-25)
(-3.80348075066914e-07 1.19167987518746e-06 4.17583334322496e-25)
(-3.32168004913471e-07 1.21452351452684e-06 7.96375304146611e-25)
(-2.89173509532207e-07 1.23321451008965e-06 1.12031631948539e-24)
(-2.50507208736573e-07 1.24847367034821e-06 5.29407557307093e-25)
(-2.15400298383636e-07 1.26083617902753e-06 1.03625589613543e-24)
(-1.83159297527887e-07 1.27069558478934e-06 4.17023281787815e-25)
(-1.53163955893489e-07 1.27834657748097e-06 6.34018799131552e-25)
(-1.24841143965012e-07 1.28400114228322e-06 7.18864823142494e-25)
(-9.76496448770916e-08 1.28780655719105e-06 2.9687337311652e-25)
(-7.10811256197427e-08 1.2898666378667e-06 6.29321351111801e-25)
(-4.46436721312621e-08 1.29022164661255e-06 7.58774546126432e-25)
(-1.78543443878106e-08 1.28888669330779e-06 4.6922156041427e-25)
(9.78029146576053e-09 1.28582563301381e-06 -2.0774110949969e-25)
(3.87659842126247e-08 1.2809510339376e-06 4.7288494817616e-25)
(6.9631744333079e-08 1.27412477240814e-06 4.13061825525346e-25)
(1.02948541455815e-07 1.26514431949393e-06 -2.52738917562009e-25)
(1.39328317119799e-07 1.25373462322715e-06 1.70276262776015e-25)
(1.79449473533601e-07 1.23950913432747e-06 -4.35809095941132e-25)
(2.2407048077076e-07 1.22194727359843e-06 -4.13880323758408e-25)
(2.74038027529215e-07 1.20032191308436e-06 3.86288065522854e-25)
(3.30280722835683e-07 1.17364873196906e-06 4.62266501133131e-25)
(3.93818985619397e-07 1.1405572715561e-06 -3.47346798780772e-25)
(4.65704218126376e-07 1.09911923192312e-06 -1.77753378813197e-25)
(5.46914940267914e-07 1.0465780247084e-06 -2.23334582059657e-25)
(6.37974148426428e-07 9.78955998839527e-07 9.3882341716062e-25)
(7.3861181274114e-07 8.90744041792239e-07 -3.76469992075619e-25)
(8.46160435489995e-07 7.74480500138314e-07 -3.80937637564181e-25)
(9.52837461143881e-07 6.21324807801204e-07 8.90794318631505e-25)
(1.0478374568357e-06 4.26740871402699e-07 -3.80406596663412e-25)
(1.09165514699506e-06 2.06816888158619e-07 -3.79427733939517e-25)
(1.06585317966597e-06 6.42112816608926e-08 9.99743493675288e-25)
(8.58704043404859e-07 3.1181846572122e-07 -4.79004197827636e-25)
(5.35830543466802e-07 1.81138510357644e-06 -4.625902173293e-25)
(-9.3247761268959e-08 5.74696694330248e-06 1.69651372552424e-24)
(1.1600163897576e-08 7.05933116651343e-06 -3.04205876645884e-25)
(4.61321132413435e-08 6.38419971458421e-06 1.79090034330228e-25)
(-2.41688706496314e-08 5.25728530586383e-06 1.1143518216416e-24)
(-5.68511705404465e-07 1.5474004466798e-06 2.25249503296323e-25)
(-8.4155678141216e-07 -5.18699622144799e-08 8.29990641236941e-26)
(-1.02648623038837e-06 -4.0275396332647e-07 2.93860795449863e-25)
(-1.06056162546972e-06 -3.16894670061837e-07 5.30145909330399e-25)
(-1.03519032904e-06 -1.19838781325514e-07 1.00112567152121e-25)
(-9.63327972372587e-07 6.75707547372211e-08 1.08169081630489e-25)
(-8.7706178220245e-07 2.2108463165708e-07 4.90735546565755e-25)
(-7.86947258508473e-07 3.41479191983212e-07 5.6380495222234e-25)
(-7.002913863091e-07 4.35413100210688e-07 -2.18488757393881e-25)
(-6.20449619929943e-07 5.09207670214072e-07 2.20940207472219e-25)
(-5.48262542545617e-07 5.6776309381579e-07 5.83219899639239e-25)
(-4.83735359256274e-07 6.14736658840998e-07 -1.28625913294221e-25)
(-4.26282601233487e-07 6.52792139071185e-07 5.66267751033789e-25)
(-3.75140765882256e-07 6.83850149821677e-07 1.80898032194464e-25)
(-3.29493633021379e-07 7.09306814637295e-07 3.06815801983458e-25)
(-2.8854767784015e-07 7.30194327122996e-07 6.39639468776123e-25)
(-2.51561244799955e-07 7.47271954026868e-07 2.5154473269264e-25)
(-2.17853100523409e-07 7.61110830109911e-07 6.33423101366012e-25)
(-1.86795110180569e-07 7.72137674702399e-07 2.06707025560312e-25)
(-1.57813870865293e-07 7.80663514623448e-07 4.44005210413253e-25)
(-1.30374724105895e-07 7.86930532851587e-07 2.58890540329544e-25)
(-1.03967697517482e-07 7.91100485148286e-07 1.3518934143725e-25)
(-7.8115602861702e-08 7.93283186691136e-07 5.0445394296447e-25)
(-5.2350714327002e-08 7.93531458378639e-07 3.08364149943301e-25)
(-2.62126696263608e-08 7.91859482970205e-07 4.43983716292858e-25)
(7.6014492112603e-10 7.8822329163203e-07 -2.64133390248267e-25)
(2.90473226098141e-08 7.82529582656364e-07 1.56679530685152e-25)
(5.91473152994193e-08 7.74624913179162e-07 3.53850205548252e-25)
(9.15901330460919e-08 7.64287453489253e-07 -2.84217863410407e-25)
(1.26937223451671e-07 7.51215261373285e-07 2.76681730217953e-25)
(1.65805592751754e-07 7.34998573789418e-07 -3.69991142735279e-25)
(2.08868720565722e-07 7.15078777931371e-07 -3.52768139700602e-25)
(2.56850207690169e-07 6.90701514806887e-07 4.05900406539001e-25)
(3.1051810380195e-07 6.60843746051249e-07 1.69915239112153e-25)
(3.70656713932726e-07 6.24122342226956e-07 -1.08110277414206e-25)
(4.37986712620943e-07 5.78646334811093e-07 -8.2615873434133e-26)
(5.13024246662007e-07 5.21785565934849e-07 -2.77533422446773e-25)
(5.95674393532355e-07 4.49874344119657e-07 5.7122169157299e-25)
(6.84902916149921e-07 3.58047171200836e-07 -9.11915075258828e-26)
(7.77240392253222e-07 2.40046735558983e-07 -9.39133681403342e-26)
(8.64728226074082e-07 8.91253177817613e-08 5.63409256108941e-25)
(9.37002703095052e-07 -9.6011111554415e-08 -9.64884006199993e-26)
(9.60362452450975e-07 -2.9589388965613e-07 -8.87565726698187e-26)