/*--------------------------------*- C++ -*----------------------------------*\
  =========                 |
  \\      /  F ield         | OpenFOAM: The Open Source CFD Toolbox
   \\    /   O peration     | Website:  https://openfoam.org
    \\  /    A nd           | Version:  10
     \\/     M anipulation  |
\*---------------------------------------------------------------------------*/
FoamFile
{
    format      ascii;
    class       volScalarField;
    location    "4.2";
    object      wallHeatFlux;
}
// * * * * * * * * * * * * * * * * * * * * * * * * * * * * * * * * * * * * * //

dimensions      [1 0 -3 0 0 0 0];

internalField   uniform 0;

boundaryField
{
    back
    {
        type            calculated;
        value           uniform 0;
    }
    bottom
    {
        type            calculated;
        value           nonuniform List<scalar> 
50
(
143.902851689191
148.539445567786
153.669161043905
156.45338559468
157.75657483804
158.336554231285
158.58482291841
158.685735573609
158.724321497992
158.738330077994
158.742919200809
158.744359716577
158.744780587635
158.744821025971
158.744789403747
158.744696043333
158.744681066221
158.744631779329
158.744568157311
158.744542598355
158.744523696354
158.744516066847
158.744511130982
158.744510392091
158.744497937664
158.744491015916
158.744493874936
158.744496360204
158.744509088833
158.744516872292
158.74453220858
158.744571286644
158.744580367934
158.744588012561
158.744618953311
158.744655586205
158.74466429452
158.744511231868
158.74403302937
158.742266694115
158.736871405111
158.721496482785
158.680296164048
158.575838268789
158.325209685479
157.747108094077
156.452504508274
153.664914820454
148.470726216409
143.935463562933
)
;
    }
    left
    {
        type            calculated;
        value           uniform 0;
    }
    front
    {
        type            calculated;
        value           uniform 0;
    }
    right
    {
        type            calculated;
        value           uniform 0;
    }
    top
    {
        type            calculated;
        value           uniform 0;
    }
}


// ************************************************************************* //
