/*--------------------------------*- C++ -*----------------------------------*\
  =========                 |
  \\      /  F ield         | OpenFOAM: The Open Source CFD Toolbox
   \\    /   O peration     | Website:  https://openfoam.org
    \\  /    A nd           | Version:  10
     \\/     M anipulation  |
\*---------------------------------------------------------------------------*/
FoamFile
{
    format      ascii;
    class       volScalarField;
    location    "3.8";
    object      alphat;
}
// * * * * * * * * * * * * * * * * * * * * * * * * * * * * * * * * * * * * * //

dimensions      [1 -1 -1 0 0 0 0];

internalField   nonuniform List<scalar> 
2500
(
1.86484622697822e-14
3.59947291699644e-13
1.50068879025182e-12
2.48987845434706e-12
3.20462475377815e-12
3.65501378452276e-12
3.90578617470043e-12
4.03054623904573e-12
4.08658922176615e-12
4.1095394232796e-12
4.1181814996284e-12
4.12119632550003e-12
4.12217648802899e-12
4.12247436710354e-12
4.12255857472318e-12
4.1225800118512e-12
4.12258408107389e-12
4.12258375132402e-12
4.12258260936261e-12
4.12258141517037e-12
4.12258034538044e-12
4.12257942655329e-12
4.12257865403855e-12
4.12257801757351e-12
4.12257752089188e-12
4.12257717249207e-12
4.12257700191582e-12
4.1225770055459e-12
4.12257706698388e-12
4.12257719490745e-12
4.12257745947323e-12
4.12257779312808e-12
4.1225778931474e-12
4.12257625190657e-12
4.12256724056327e-12
4.12253225023696e-12
4.12241051783294e-12
4.12201356956379e-12
4.12079148912337e-12
4.11724403705334e-12
4.10757594167182e-12
4.08298219828914e-12
4.02499914926935e-12
3.89933296043102e-12
3.65127411810519e-12
3.20985656201031e-12
2.50951721166566e-12
1.53114132214158e-12
3.75777413686347e-13
2.01270888126088e-14
1.83119028596975e-12
9.28311317094866e-11
3.95626450561128e-10
6.58076592111953e-10
8.49295371184595e-10
9.71126495686907e-10
1.03981936979718e-09
1.0744555323616e-09
1.09022929682458e-09
1.09677787965757e-09
1.09927711796265e-09
1.10016042205187e-09
1.10045125173816e-09
1.10054075393201e-09
1.10056640602096e-09
1.10057307044183e-09
1.10057441801655e-09
1.10057438656309e-09
1.10057408912477e-09
1.10057376775973e-09
1.10057347794592e-09
1.10057322905098e-09
1.10057301999912e-09
1.10057284800217e-09
1.10057271347344e-09
1.10057261942544e-09
1.10057257298477e-09
1.1005725725863e-09
1.10057258986105e-09
1.10057262495745e-09
1.10057269745352e-09
1.10057278504619e-09
1.10057278896882e-09
1.10057224085779e-09
1.1005694422371e-09
1.10055882758847e-09
1.10052232593324e-09
1.10040452336055e-09
1.10004559802347e-09
1.09901485675066e-09
1.09623707788474e-09
1.08925304648151e-09
1.07298460210719e-09
1.03815564816353e-09
9.70237737553158e-10
8.50783876453444e-10
6.63257833720566e-10
4.03479716064551e-10
9.67795653006097e-11
1.9682285690944e-12
6.44762269422845e-12
1.65593371314347e-09
5.51521180689865e-07
9.1294287989179e-07
1.17427548577236e-06
1.34077708027386e-06
1.43510396036669e-06
1.4830426309291e-06
1.50508897097981e-06
1.51434059398596e-06
1.5179111440492e-06
1.51918745847452e-06
1.51961250807891e-06
1.51974486236086e-06
1.5197833058356e-06
1.51979349859415e-06
1.5197956816299e-06
1.51979574470043e-06
1.51979538018456e-06
1.51979496465556e-06
1.51979458536839e-06
1.5197942584038e-06
1.51979398340395e-06
1.51979375713342e-06
1.51979357955024e-06
1.51979345466417e-06
1.51979338971056e-06
1.51979338596531e-06
1.51979341197001e-06
1.51979345266697e-06
1.51979354404718e-06
1.51979364839634e-06
1.51979361634396e-06
1.51979274604861e-06
1.51978856233887e-06
1.5197729755699e-06
1.51971982841337e-06
1.51954952433462e-06
1.51903424975647e-06
1.51756513174771e-06
1.51363558232318e-06
1.50383206002264e-06
1.48117298782831e-06
1.43301777721517e-06
1.33968771533671e-06
1.17615420808471e-06
9.19394425112986e-07
5.61301032695845e-07
1.71808581010649e-09
6.83983216972708e-12
1.13149956948839e-11
2.92659725149963e-09
9.72195852355906e-07
1.59691377876766e-06
2.04390713397631e-06
2.32712376099948e-06
2.48728076494648e-06
2.56873920523289e-06
2.60629431748124e-06
2.62211085066954e-06
2.62824150758414e-06
2.63044362266112e-06
2.63118091110913e-06
2.63141185815984e-06
2.63147942407421e-06
2.63149754696904e-06
2.63150154399164e-06
2.63150176556519e-06
2.63150120546313e-06
2.63150053972359e-06
2.63149992580059e-06
2.63149939425414e-06
2.631498946084e-06
2.63149857684663e-06
2.63149828553103e-06
2.63149807785231e-06
2.63149796417807e-06
2.63149794994992e-06
2.63149798532771e-06
2.6314980509485e-06
2.63149819217048e-06
2.63149835097327e-06
2.63149828166343e-06
2.63149679839485e-06
2.63148979183396e-06
2.63146369539172e-06
2.63137453410106e-06
2.63108811849948e-06
2.63021946769316e-06
2.62773757851087e-06
2.62108729662311e-06
2.60447216756245e-06
2.56602320004265e-06
2.48421089619341e-06
2.32537015693375e-06
2.04618547041303e-06
1.60544325701737e-06
9.85297280606402e-07
3.00986860393064e-09
1.18350726601914e-11
1.58955948778203e-11
4.11478805391183e-09
1.35772543275437e-06
2.21574452160817e-06
2.82472956497922e-06
3.20898996671367e-06
3.4260194796863e-06
3.53649330777141e-06
3.58753699551566e-06
3.60910165023405e-06
3.61749218704685e-06
3.6205191500002e-06
3.62153752963753e-06
3.62185828836976e-06
3.6219527772256e-06
3.62197840947621e-06
3.62198423022279e-06
3.62198470870284e-06
3.62198404491744e-06
3.62198321052699e-06
3.62198243070176e-06
3.62198175162797e-06
3.62198117687128e-06
3.62198070186666e-06
3.62198032455937e-06
3.62198005052215e-06
3.6219798917329e-06
3.62197985689122e-06
3.62197988964283e-06
3.62197997357915e-06
3.62198014103826e-06
3.62198032257044e-06
3.62198018884907e-06
3.62197815758198e-06
3.62196878715069e-06
3.62193393416896e-06
3.62181465617182e-06
3.62143057100521e-06
3.62026284578948e-06
3.61691892740281e-06
3.60794130080532e-06
3.58547491731759e-06
3.53341464837514e-06
3.42249842176697e-06
3.2068168236638e-06
2.8268078672276e-06
2.22444470877146e-06
1.37133780593323e-06
4.20350460146173e-09
1.64629234716577e-11
1.99861610419638e-11
5.17757696107482e-09
1.69808663080076e-06
2.75648255094111e-06
3.50301921560939e-06
3.97265434638499e-06
4.23772079049426e-06
4.37277353249147e-06
4.43530279242087e-06
4.46179555770926e-06
4.47213932420148e-06
4.47588575555988e-06
4.47715182746084e-06
4.47755265544459e-06
4.47767150494921e-06
4.47770409443358e-06
4.47771171285246e-06
4.47771254265664e-06
4.47771185862948e-06
4.47771093541927e-06
4.47771005814675e-06
4.47770928840171e-06
4.47770863352239e-06
4.47770808945759e-06
4.47770765383606e-06
4.47770733113581e-06
4.47770713327541e-06
4.47770706836684e-06
4.47770708894597e-06
4.47770717961655e-06
4.47770734860965e-06
4.47770752104054e-06
4.47770728933025e-06
4.47770475560631e-06
4.47769340987234e-06
4.4776513452797e-06
4.47750725550351e-06
4.47704237323266e-06
4.47562603583711e-06
4.47156222129555e-06
4.46063317345627e-06
4.43324456248175e-06
4.36970468863537e-06
4.23419158140334e-06
3.97037200158912e-06
3.50472754752539e-06
2.76440473454349e-06
1.71070676343548e-06
5.26306401569586e-09
2.05540063858168e-11
2.34943847152831e-11
6.09268899831568e-09
1.98868780230581e-06
3.2145236154489e-06
4.07507873637363e-06
4.61528985763388e-06
4.92010610023857e-06
5.07557111650621e-06
5.14769148612769e-06
5.1783280105853e-06
5.19032734167345e-06
5.19468909080626e-06
5.19616912118681e-06
5.19663990917e-06
5.1967803549879e-06
5.19681924716772e-06
5.19682860556467e-06
5.19682987276854e-06
5.19682922308135e-06
5.19682827929241e-06
5.19682736401103e-06
5.19682655380689e-06
5.19682585988541e-06
5.19682527936252e-06
5.19682480995021e-06
5.19682445475101e-06
5.19682422500157e-06
5.19682412555257e-06
5.19682412600287e-06
5.19682420801605e-06
5.19682435528668e-06
5.19682449608923e-06
5.19682413865097e-06
5.19682113506275e-06
5.19680815231443e-06
5.19676023410527e-06
5.1965960479962e-06
5.19606552753526e-06
5.19444638476879e-06
5.18979293169181e-06
5.17725994275967e-06
5.14581430616997e-06
5.07279322288418e-06
4.91693530212709e-06
4.61324978434033e-06
4.07656613180799e-06
3.22143433237158e-06
1.99975018599739e-06
6.17107781094354e-09
2.40389540941186e-11
2.63968190519824e-11
6.85381772613808e-09
2.22921980639426e-06
3.5914450528413e-06
4.54438913753675e-06
5.14173618982449e-06
5.47879963655414e-06
5.65089414024065e-06
5.73087356770377e-06
5.76492938182445e-06
5.77830577522913e-06
5.78318388376454e-06
5.7848452297861e-06
5.78537597243005e-06
5.78553519036415e-06
5.78557967308507e-06
5.78559065810541e-06
5.7855923889502e-06
5.78559185559274e-06
5.78559094535604e-06
5.7855900390405e-06
5.78558922815488e-06
5.78558852804164e-06
5.78558793731711e-06
5.78558745391795e-06
5.78558707958871e-06
5.78558682283899e-06
5.78558668790409e-06
5.78558666285672e-06
5.78558671745823e-06
5.78558682908967e-06
5.78558691283842e-06
5.78558639762088e-06
5.7855829757957e-06
5.78556865788991e-06
5.78551606490329e-06
5.78533589099226e-06
5.78475304230794e-06
5.78297163858177e-06
5.77784471251251e-06
5.76401974064548e-06
5.72929820323333e-06
5.64860844618356e-06
5.47627775293253e-06
5.14029129097723e-06
4.54599933234248e-06
3.59758451669216e-06
2.23879210853087e-06
6.92452254344681e-09
2.69103910394487e-11
2.87185180908613e-11
7.46648803200691e-09
2.42247292359812e-06
3.89306689782523e-06
4.91920839656289e-06
5.56184997180486e-06
5.92455426203701e-06
6.10993440981675e-06
6.19623090205418e-06
6.23305479658995e-06
6.24755495180213e-06
6.25285816499988e-06
6.25467023487793e-06
6.2552513686028e-06
6.25542658428904e-06
6.25547593002409e-06
6.25548839113849e-06
6.25549059643452e-06
6.25549022241671e-06
6.25548938333667e-06
6.25548851948183e-06
6.25548773655692e-06
6.25548705412997e-06
6.25548647251518e-06
6.25548599000347e-06
6.25548560726083e-06
6.25548532978276e-06
6.25548516390116e-06
6.25548510287386e-06
6.25548511993512e-06
6.25548518543752e-06
6.25548519220342e-06
6.25548451254666e-06
6.25548072513348e-06
6.25546532932639e-06
6.25540906823066e-06
6.25521641658615e-06
6.2545926762753e-06
6.25268408033749e-06
6.2471847958781e-06
6.23234088446622e-06
6.1950302062453e-06
6.10827081517016e-06
5.92289218666269e-06
5.56131191573301e-06
4.92135847219267e-06
3.89892395283293e-06
2.43098663067416e-06
7.53091795612424e-09
2.92036967193849e-11
3.05167644278491e-11
7.94435679541783e-09
2.57330223513264e-06
4.12789620045188e-06
5.21072519962736e-06
5.88851036956801e-06
6.27118478686693e-06
6.46696672269945e-06
6.55824070957268e-06
6.59726168031856e-06
6.61266102674824e-06
6.61830740228747e-06
6.6202423187012e-06
6.62086497208538e-06
6.62105354825271e-06
6.62110704090712e-06
6.6211208110144e-06
6.62112346957287e-06
6.62112327310455e-06
6.62112252784889e-06
6.62112172741645e-06
6.62112099073837e-06
6.62112034162197e-06
6.62111978204845e-06
6.62111931078075e-06
6.62111892785225e-06
6.62111863665671e-06
6.62111844233162e-06
6.621118341472e-06
6.62111831754401e-06
6.62111833016517e-06
6.62111824832861e-06
6.62111741003984e-06
6.6211133141876e-06
6.62109706263444e-06
6.62103797752489e-06
6.62083578584518e-06
6.62018076498434e-06
6.61817461028183e-06
6.61238887168832e-06
6.59675907467697e-06
6.55744758414723e-06
6.46599196839109e-06
6.27051188273982e-06
5.88911483521274e-06
5.21380546437424e-06
4.13402333205618e-06
2.58133085347684e-06
8.00484362259544e-09
3.09815442012541e-11
3.18669692404377e-11
8.3058839952816e-09
2.68772622150271e-06
4.30583978656534e-06
5.43156889404971e-06
6.13602827790016e-06
6.53392836225901e-06
6.73768617946022e-06
6.83280238770683e-06
6.87353208466093e-06
6.88963651665278e-06
6.89555437261297e-06
6.89758741262023e-06
6.89824358831714e-06
6.89844309407286e-06
6.89850004628725e-06
6.8985149426337e-06
6.89851801579342e-06
6.89851800308514e-06
6.89851736169049e-06
6.89851663495277e-06
6.8985159539963e-06
6.89851534665586e-06
6.89851481652634e-06
6.89851436294548e-06
6.89851398563715e-06
6.89851368653496e-06
6.89851346885773e-06
6.8985133315311e-06
6.89851326225269e-06
6.89851321562821e-06
6.89851304439704e-06
6.89851206377706e-06
6.89850771962602e-06
6.89849080215485e-06
6.89842958630308e-06
6.89822025781942e-06
6.89754184053502e-06
6.89546254696283e-06
6.88946147267018e-06
6.87323949942786e-06
6.83241768783682e-06
6.7374131548306e-06
6.53429561473314e-06
6.13791491503389e-06
5.43587520132882e-06
4.31272271352327e-06
2.69582437254715e-06
8.36487893275619e-09
3.23209092268426e-11
3.28508625819915e-11
8.57144416194939e-09
2.77215793019648e-06
4.43713432925555e-06
5.59458351770239e-06
6.3188418206012e-06
6.72810103195427e-06
6.93784583787449e-06
7.03586636560975e-06
7.0778976801695e-06
7.09454371275724e-06
7.10067197732317e-06
7.10278180307589e-06
7.10346449282027e-06
7.10367275460658e-06
7.10373252923757e-06
7.10374836883862e-06
7.10375180837365e-06
7.10375197250036e-06
7.10375143444558e-06
7.10375078337281e-06
7.1037501607619e-06
7.1037495981112e-06
7.10374910052826e-06
7.10374866796484e-06
7.10374830005922e-06
7.10374799780558e-06
7.10374776299172e-06
7.10374759484612e-06
7.10374748236249e-06
7.10374738166534e-06
7.10374712832568e-06
7.10374603188702e-06
7.10374148275301e-06
7.10372405684474e-06
7.10366126719261e-06
7.1034467196874e-06
7.10275120660721e-06
7.10061836284978e-06
7.0944592295705e-06
7.07780162512707e-06
7.0358668979934e-06
6.93824450259536e-06
6.72949045147009e-06
6.32205103041453e-06
5.60028484301993e-06
4.44511895701026e-06
2.78076458316411e-06
8.63101027237124e-09
3.33025659970603e-11
3.35474939697561e-11
8.76104542237846e-09
2.83280062885793e-06
4.53151711133845e-06
5.7118816075707e-06
6.45050979335111e-06
6.86806019552734e-06
7.08220361969219e-06
7.18237353370782e-06
7.22537580576865e-06
7.24242930739107e-06
7.24871731270163e-06
7.25088600073254e-06
7.25158923256131e-06
7.25180436373635e-06
7.25186639094468e-06
7.25188300036387e-06
7.25188675416068e-06
7.25188707980942e-06
7.2518866358212e-06
7.25188605655466e-06
7.25188549013712e-06
7.25188497122509e-06
7.25188450627019e-06
7.25188409581826e-06
7.25188373955601e-06
7.25188343791421e-06
7.25188319167351e-06
7.25188299973196e-06
7.25188285172856e-06
7.25188270404342e-06
7.25188238366254e-06
7.25188119167304e-06
7.25187647991711e-06
7.25185867424288e-06
7.25179474787875e-06
7.2515764719749e-06
7.25086876144975e-06
7.24869764342791e-06
7.24242527352617e-06
7.22545491404135e-06
7.18271990047856e-06
7.08321306028674e-06
6.87039947595946e-06
6.45499418533026e-06
5.71901853074259e-06
4.54078665136435e-06
2.84219928155978e-06
8.82262229311315e-09
3.40033307924671e-11
3.40273300979622e-11
8.89277015784228e-09
2.87523363030727e-06
4.59766560433959e-06
5.79420817149064e-06
6.5430358211691e-06
6.9665075561527e-06
7.18381412179597e-06
7.28554145574864e-06
7.32925303975948e-06
7.34660680787784e-06
7.35301361416862e-06
7.35522650762972e-06
7.35594533074823e-06
7.35616574014782e-06
7.35622952624261e-06
7.35624674807458e-06
7.35625076833844e-06
7.35625123809965e-06
7.35625086888062e-06
7.35625035381857e-06
7.35624983850394e-06
7.35624935996982e-06
7.35624892579623e-06
7.35624853705604e-06
7.35624819355336e-06
7.35624789540255e-06
7.35624764271852e-06
7.35624743394261e-06
7.35624725883131e-06
7.35624707353987e-06
7.35624670047284e-06
7.35624543333772e-06
7.35624059717987e-06
7.35622251477929e-06
7.35615778633966e-06
7.35593690945464e-06
7.35522070331861e-06
7.35302288460028e-06
7.34667134199344e-06
7.32948186332824e-06
7.28618527268529e-06
7.18535465829232e-06
6.96968759969598e-06
6.54868145299918e-06
5.80271333843171e-06
4.60825435083436e-06
2.88555513641425e-06
8.95714747683417e-09
3.44911325399705e-11
3.43492557660546e-11
8.98192529635075e-09
2.90418573131177e-06
4.64290005755943e-06
5.85060879391479e-06
6.60651825546732e-06
7.03412868134807e-06
7.25366222068585e-06
7.3564946829973e-06
7.40071382734164e-06
7.41828437086936e-06
7.42477774839757e-06
7.42702317299474e-06
7.42775359199739e-06
7.4279779748027e-06
7.42804310535963e-06
7.42806080093038e-06
7.42806503319897e-06
7.42806562100883e-06
7.42806532471703e-06
7.4280648652905e-06
7.42806439468185e-06
7.42806395201833e-06
7.42806354580902e-06
7.4280631775689e-06
7.42806284723866e-06
7.42806255477146e-06
7.42806229985489e-06
7.42806208052285e-06
7.42806188638462e-06
7.42806167321181e-06
7.42806126079212e-06
7.42805993734524e-06
7.42805500959962e-06
7.42803673104176e-06
7.42797145025613e-06
7.42774880189914e-06
7.42702681915028e-06
7.42481081788308e-06
7.41840524297654e-06
7.40106592265148e-06
7.35738469183604e-06
7.25564635309956e-06
7.03802119298634e-06
6.61316986085805e-06
5.86033890497994e-06
4.65472822595445e-06
2.9154369238995e-06
9.04934592329588e-09
3.48226305811445e-11
3.45598886400266e-11
9.04078046275111e-09
2.92346654266187e-06
4.67310732202859e-06
5.88835453992296e-06
6.64907627215931e-06
7.07951890860118e-06
7.30058803087728e-06
7.40418873308625e-06
7.44876376216945e-06
7.46648768281565e-06
7.47304289526003e-06
7.47531178750235e-06
7.47605066095828e-06
7.47627797578368e-06
7.4763441135104e-06
7.47636216904258e-06
7.47636656521653e-06
7.47636725103348e-06
7.47636701744961e-06
7.47636660490436e-06
7.47636617238024e-06
7.47636576080377e-06
7.47636537942582e-06
7.47636503011763e-06
7.47636471294687e-06
7.47636442779106e-06
7.47636417407653e-06
7.47636394951641e-06
7.47636374348833e-06
7.47636351136855e-06
7.47636307136883e-06
7.47636170792553e-06
7.4763567155417e-06
7.47633830213927e-06
7.47627265054145e-06
7.47604882444767e-06
7.4753230065381e-06
7.4730949150206e-06
7.46665333379177e-06
7.44921395903083e-06
7.40527546892435e-06
7.30292926647609e-06
7.08399168152813e-06
6.65656136508916e-06
5.89912451667231e-06
4.68602294906448e-06
2.93556931149865e-06
9.11109963346538e-09
3.50428137008847e-11
3.46944512675624e-11
9.07871870104731e-09
2.9360113295426e-06
4.69282393471909e-06
5.91305236861966e-06
6.67697623570415e-06
7.1093174897924e-06
7.33142417386709e-06
7.43554832266133e-06
7.4803679830627e-06
7.49819830955814e-06
7.50479683389426e-06
7.50708232958141e-06
7.50782724890651e-06
7.50805668597576e-06
7.50812356400729e-06
7.50814188993219e-06
7.50814641171929e-06
7.50814717529382e-06
7.50814699307134e-06
7.50814661925442e-06
7.50814621872295e-06
7.50814583379695e-06
7.50814547429752e-06
7.50814514236232e-06
7.50814483816932e-06
7.5081445615658e-06
7.50814431181954e-06
7.50814408641062e-06
7.50814387449069e-06
7.50814363109521e-06
7.50814317345199e-06
7.50814178350726e-06
7.50813674781447e-06
7.50811824500874e-06
7.50805235122373e-06
7.50782776110224e-06
7.50709945656389e-06
7.50486351193881e-06
7.49839849010415e-06
7.48089384263456e-06
7.43678723454435e-06
7.33404325652907e-06
7.11424592837317e-06
6.68512464940826e-06
5.92466509527488e-06
4.70664171365893e-06
2.94884087118065e-06
9.15156541361283e-09
3.5185911583342e-11
3.47784821348047e-11
9.10262388755119e-09
2.94399323479639e-06
4.70541365685352e-06
5.9288657858267e-06
6.69487746009043e-06
7.12846628463207e-06
7.35126034688093e-06
7.45573427338218e-06
7.50071888070661e-06
7.5186216291436e-06
7.5252499207141e-06
7.52754694392732e-06
7.52829610651633e-06
7.52852705159566e-06
7.52859446419075e-06
7.52861299085497e-06
7.52861760866685e-06
7.52861843245735e-06
7.52861829110376e-06
7.52861794891964e-06
7.52861757516425e-06
7.52861721308241e-06
7.52861687290271e-06
7.52861655695086e-06
7.52861626549415e-06
7.52861599837025e-06
7.52861575475567e-06
7.52861553196447e-06
7.52861531896564e-06
7.52861507052402e-06
7.52861460324541e-06
7.52861319749092e-06
7.52860813478217e-06
7.52858957536777e-06
7.52852352827659e-06
7.52829845501034e-06
7.52756857591273e-06
7.52532764660628e-06
7.51884770866528e-06
7.5013014331519e-06
7.45708740795182e-06
7.35408889134033e-06
7.13374071518005e-06
6.70353477783789e-06
5.94113400499254e-06
4.7199450932361e-06
2.95740897066191e-06
9.17753346642658e-09
3.52770037755752e-11
3.48298267010303e-11
9.11736190529016e-09
2.94896400540284e-06
4.71328434808975e-06
5.9387811887798e-06
6.70612757046374e-06
7.14052045300761e-06
7.36376129635516e-06
7.46846458936832e-06
7.51355836030887e-06
7.53150949760865e-06
7.5381578754852e-06
7.54046275768024e-06
7.54121484532389e-06
7.54144684345933e-06
7.54151463592635e-06
7.54153330973797e-06
7.5415380005552e-06
7.54153887143764e-06
7.54153876233086e-06
7.54153844620781e-06
7.54153809508022e-06
7.54153775282212e-06
7.54153742994038e-06
7.54153712888162e-06
7.54153684997688e-06
7.5415365930708e-06
7.54153635728771e-06
7.54153613983115e-06
7.54153592952685e-06
7.54153568094427e-06
7.54153521029378e-06
7.54153379695604e-06
7.54152871936485e-06
7.54151012651028e-06
7.54144398620211e-06
7.54121861600144e-06
7.54048776400552e-06
7.53824374291077e-06
7.53175452438486e-06
7.51418228239091e-06
7.46990111309108e-06
7.36674321418733e-06
7.14604960161363e-06
6.71516251863248e-06
5.95154087819645e-06
4.72835753564894e-06
2.96283084052995e-06
9.19386837152795e-09
3.53338546164056e-11
3.48605429662897e-11
9.12625768941013e-09
2.95199548844905e-06
4.71810447298694e-06
5.94487304581111e-06
6.71305649723973e-06
7.14795794787051e-06
7.37148386983938e-06
7.47633485147025e-06
7.5214995771226e-06
7.53948247324536e-06
7.54614416702629e-06
7.54845431401675e-06
7.54920838365844e-06
7.54944110531046e-06
7.54950916398596e-06
7.54952794422268e-06
7.54953268992841e-06
7.54953359762591e-06
7.54953351560016e-06
7.54953322144473e-06
7.54953288978601e-06
7.54953256505007e-06
7.54953225793115e-06
7.54953197094594e-06
7.54953170446689e-06
7.5495314583557e-06
7.54953123170944e-06
7.54953102165921e-06
7.54953081692819e-06
7.54953057194458e-06
7.54953010267704e-06
7.54952868792082e-06
7.54952360428348e-06
7.54950499407003e-06
7.54943880043934e-06
7.54921325423978e-06
7.54848181749293e-06
7.54623592504276e-06
7.5397410639489e-06
7.52215298205214e-06
7.47783074753835e-06
7.37457516323588e-06
7.1536694417026e-06
6.72236338505766e-06
5.95798941624625e-06
4.73357443888416e-06
2.96619593221826e-06
9.20394770001971e-09
3.53686663528431e-11
3.48785286869757e-11
9.13151290965884e-09
2.95380541471848e-06
4.72099539932455e-06
5.94853954393189e-06
6.71723804304904e-06
7.1524552323883e-06
7.37615977210732e-06
7.48110416505401e-06
7.52631420619561e-06
7.54431758774206e-06
7.55098795888327e-06
7.55330157360135e-06
7.55405696435437e-06
7.55429017572872e-06
7.55435841888461e-06
7.55437727552357e-06
7.55438206219431e-06
7.55438299951277e-06
7.55438294082607e-06
7.55438266562052e-06
7.55438235111402e-06
7.55438204223028e-06
7.55438174979074e-06
7.55438147632945e-06
7.55438122224618e-06
7.55438098742886e-06
7.55438077096661e-06
7.55438056994385e-06
7.55438037300986e-06
7.55438013449759e-06
7.55437967023279e-06
7.55437825868203e-06
7.55437317544088e-06
7.55435455903715e-06
7.55428833843077e-06
7.55406269383048e-06
7.55333091870774e-06
7.55108392730076e-06
7.54458572573883e-06
7.52698821647752e-06
7.48264144616563e-06
7.379327318206e-06
7.15829415282625e-06
6.72673577447437e-06
5.96190767122603e-06
4.73674731469933e-06
2.96824458378802e-06
9.2100497119387e-09
3.53895866722627e-11
3.48888034882318e-11
9.13454174007301e-09
2.95486007296103e-06
4.72268866731925e-06
5.95069568933171e-06
6.71970462849501e-06
7.15511400135981e-06
7.3789283428699e-06
7.48393073893228e-06
7.52916920953216e-06
7.54718557676422e-06
7.55386150676605e-06
7.5561773676124e-06
7.55693362487701e-06
7.55716716302838e-06
7.55723553283206e-06
7.55725444423038e-06
7.55725926168477e-06
7.5572602231332e-06
7.55726018461602e-06
7.55725992599905e-06
7.5572596268749e-06
7.55725933258325e-06
7.55725905401985e-06
7.55725879368948e-06
7.55725855200815e-06
7.55725832889905e-06
7.55725812345608e-06
7.55725793273608e-06
7.55725774533629e-06
7.55725751552715e-06
7.5572570590551e-06
7.55725565423603e-06
7.55725057618221e-06
7.55723196151015e-06
7.55716573158555e-06
7.55694003862356e-06
7.55620808107547e-06
7.55396047569992e-06
7.5474603739513e-06
7.52985744244848e-06
7.48549645230836e-06
7.38214820320569e-06
7.16104042875816e-06
6.72933378074574e-06
5.96423790226743e-06
4.73863651694392e-06
2.96946599851416e-06
9.21366933980842e-09
3.54019116419015e-11
3.48944563250605e-11
9.13622326231224e-09
2.95545264801333e-06
4.72364638268092e-06
5.95192153885513e-06
6.72111251770527e-06
7.1566359284775e-06
7.38051619138282e-06
7.48555381975431e-06
7.53080976599026e-06
7.5488342068004e-06
7.55551363218447e-06
7.55783092198396e-06
7.55858773792812e-06
7.55882149085363e-06
7.55888994674867e-06
7.55890889735339e-06
7.55891373807841e-06
7.5589147192222e-06
7.55891469810755e-06
7.55891445411017e-06
7.55891416893021e-06
7.55891388822098e-06
7.55891362290229e-06
7.55891337541126e-06
7.55891314617217e-06
7.55891293515235e-06
7.55891274146122e-06
7.55891256213813e-06
7.55891238574399e-06
7.55891216650927e-06
7.55891172014705e-06
7.55891032494764e-06
7.55890525591294e-06
7.55888664900964e-06
7.55882042236003e-06
7.55859471478876e-06
7.55786267652679e-06
7.55561476738365e-06
7.54911367565147e-06
7.53150783307281e-06
7.48713905635495e-06
7.38377186067603e-06
7.16262222684019e-06
6.73083171877914e-06
5.96558337607261e-06
4.73972938147695e-06
2.97017407955411e-06
9.21575993964576e-09
3.54089904879971e-11
3.48973062455683e-11
9.13708010915693e-09
2.95575944564967e-06
4.72414798138326e-06
5.95256937940492e-06
6.72186159460594e-06
7.15744958908631e-06
7.38136783980236e-06
7.48642611403585e-06
7.53169247784103e-06
7.54972179997983e-06
7.55640336765541e-06
7.55872154522362e-06
7.55947871343083e-06
7.55971260463499e-06
7.55978111806312e-06
7.55980009640526e-06
7.55980495454736e-06
7.55980595158195e-06
7.55980594529097e-06
7.5598057140626e-06
7.55980544146889e-06
7.55980517337274e-06
7.55980492066627e-06
7.55980468569617e-06
7.55980446890047e-06
7.55980427028808e-06
7.55980408898851e-06
7.55980392202846e-06
7.55980375794307e-06
7.55980355093749e-06
7.5598031167296e-06
7.559801733679e-06
7.55979667698645e-06
7.5597780829433e-06
7.55971186964063e-06
7.55948617290978e-06
7.55875412688662e-06
7.55650612821951e-06
7.55000465756672e-06
7.53239755404185e-06
7.48802515012384e-06
7.38464869972586e-06
7.16347793423836e-06
6.73164406408572e-06
5.96631543113486e-06
4.74032644302874e-06
2.97056281107451e-06
9.21690812675925e-09
3.54128721335085e-11
3.48983347381708e-11
9.13739675684893e-09
2.95587756607098e-06
4.72434852352373e-06
5.95283589560286e-06
6.72217628489645e-06
7.15779646942308e-06
7.38173444264769e-06
7.48680383428998e-06
7.53207602330467e-06
7.55010814265772e-06
7.55679096989211e-06
7.55910968434439e-06
7.55986707346346e-06
7.56010105673839e-06
7.56016961272129e-06
7.56018861476235e-06
7.56019348957984e-06
7.56019450258168e-06
7.56019451154486e-06
7.56019429363924e-06
7.56019403417488e-06
7.56019377913958e-06
7.56019353937139e-06
7.56019331715131e-06
7.56019311294939e-06
7.56019292680719e-06
7.56019275786308e-06
7.56019260312143e-06
7.56019245108225e-06
7.56019225591306e-06
7.56019183333874e-06
7.5601904618572e-06
7.56018541713012e-06
7.56016683667681e-06
7.56010064146662e-06
7.55987497331021e-06
7.55914297649371e-06
7.55689505720574e-06
7.55039367778807e-06
7.53278654289355e-06
7.48841351789295e-06
7.38503463696989e-06
7.16385702903731e-06
6.73200725184571e-06
5.96664660956661e-06
4.74060042335364e-06
2.97074420537009e-06
9.21745287500242e-09
3.54147364251391e-11
3.48979220282535e-11
9.13728549533155e-09
2.95584726284419e-06
4.72431425214774e-06
5.95280673104665e-06
6.72215563887983e-06
7.15778415253769e-06
7.3817285880999e-06
7.48680227221022e-06
7.53207698843278e-06
7.55011044757652e-06
7.5567939339545e-06
7.55911295390554e-06
7.5598704823368e-06
7.56010453312518e-06
7.5601731274154e-06
7.56019215559427e-06
7.56019705106523e-06
7.56019808380234e-06
7.56019811136145e-06
7.56019790964534e-06
7.56019766565311e-06
7.56019742544411e-06
7.56019719979363e-06
7.5601969909965e-06
7.56019679956912e-06
7.56019662557081e-06
7.56019646812545e-06
7.56019632419208e-06
7.56019618220291e-06
7.56019599624821e-06
7.56019558203947e-06
7.56019421825666e-06
7.56018918132364e-06
7.56017061104313e-06
7.56010443462946e-06
7.5598788098151e-06
7.55914691853669e-06
7.55689924839505e-06
7.55039842011868e-06
7.53279240906518e-06
7.48842147002726e-06
7.38504606457634e-06
7.16387355529257e-06
6.73203014344395e-06
5.96667570709196e-06
4.74063264101973e-06
2.97077187699252e-06
9.21755943456294e-09
3.54151687569649e-11
3.48959725753984e-11
9.13672306899088e-09
2.95566282265529e-06
4.7240390316883e-06
5.95247695405812e-06
6.72179644329279e-06
7.15741106208906e-06
7.38134997152858e-06
7.48642197049841e-06
7.53169640432057e-06
7.54973001442816e-06
7.55641368004042e-06
7.55873282346978e-06
7.55949042643701e-06
7.55972452347841e-06
7.55979315013508e-06
7.55981220375445e-06
7.55981712059653e-06
7.55981817383005e-06
7.55981822071388e-06
7.55981803583323e-06
7.55981780785752e-06
7.55981758285099e-06
7.5598173715062e-06
7.55981717619355e-06
7.55981699747986e-06
7.55981683541961e-06
7.55981668911339e-06
7.55981655545833e-06
7.55981642279881e-06
7.55981624513012e-06
7.55981583815932e-06
7.55981448087915e-06
7.55980945095559e-06
7.55979089203885e-06
7.5597247423132e-06
7.55949918888865e-06
7.55876748735581e-06
7.55652029746586e-06
7.55002061276814e-06
7.53241715043476e-06
7.48805150731009e-06
7.38468632359326e-06
7.1635320795078e-06
6.73171880260583e-06
5.96641018095376e-06
4.74043117401955e-06
2.9706524541341e-06
9.21725142275044e-09
3.54142526814474e-11
3.48919416726613e-11
9.1355529193216e-09
2.95527200974251e-06
4.72344329124956e-06
5.95174996443758e-06
6.72099240249023e-06
7.15656597108638e-06
7.38048516585188e-06
7.48554867072407e-06
7.53081982907633e-06
7.54885234315584e-06
7.55553570449725e-06
7.557854793574e-06
7.55861240779203e-06
7.5588465284337e-06
7.55891517870056e-06
7.55893425386415e-06
7.55893918970895e-06
7.55894026150828e-06
7.55894032614194e-06
7.55894015676857e-06
7.55893994374963e-06
7.55893973309404e-06
7.55893953537844e-06
7.55893935306972e-06
7.5589391867794e-06
7.55893903655651e-06
7.55893890147467e-06
7.55893877837142e-06
7.55893865549527e-06
7.55893848674983e-06
7.55893808789691e-06
7.55893673847145e-06
7.55893171815169e-06
7.55891317681831e-06
7.55884707068076e-06
7.55862163608378e-06
7.55789025496499e-06
7.55564389077826e-06
7.54914621678902e-06
7.53154735551053e-06
7.48719156233865e-06
7.38384602452267e-06
7.16272814727806e-06
6.73097715640433e-06
5.96576704580862e-06
4.7399318156582e-06
2.9703467648556e-06
9.2164218398759e-09
3.54116695877089e-11
3.48846359324081e-11
9.13343707382912e-09