/*--------------------------------*- C++ -*----------------------------------*\
  =========                 |
  \\      /  F ield         | OpenFOAM: The Open Source CFD Toolbox
   \\    /   O peration     | Website:  https://openfoam.org
    \\  /    A nd           | Version:  10
     \\/     M anipulation  |
\*---------------------------------------------------------------------------*/
FoamFile
{
    format      ascii;
    class       volScalarField;
    location    "3.8";
    object      h;
}
// * * * * * * * * * * * * * * * * * * * * * * * * * * * * * * * * * * * * * //

dimensions      [0 2 -2 0 0 0 0];

internalField   nonuniform List<scalar> 
2500
(
6882.37983082914
6860.4999604469
6839.08697844635
6828.31296755802
6823.61166740251
6821.65399694007
6820.87089778369
6820.57218409531
6820.46378251214
6820.42697418801
6820.41365864561
6820.40883805218
6820.40695879184
6820.40552380014
6820.40434371851
6820.40310994694
6820.40245703938
6820.40167026255
6820.40078265993
6820.40015090702
6820.39958249792
6820.39905297262
6820.39860090814
6820.39835088882
6820.39808904699
6820.39781698504
6820.39771612926
6820.39763721556
6820.39759567774
6820.39767090325
6820.39779240307
6820.39800808039
6820.39837508709
6820.39885187878
6820.39932469606
6820.3998605593
6820.40055130687
6820.40141823618
6820.40368633512
6820.40882149517
6820.42320309265
6820.46462518102
6820.58087479979
6820.89246450057
6821.69058821472
6823.64511697253
6828.31187883454
6839.08723857681
6860.78154234606
6882.23916255998
5370.57584140271
5297.53752479057
5237.86718920828
5206.41071779944
5191.49387309117
5184.74633176458
5181.836009751
5180.65356230772
5180.20399045355
5180.04437236119
5179.9905828907
5179.9733917498
5179.96815014947
5179.96627226113
5179.96537457753
5179.96471358185
5179.96435226893
5179.96395316703
5179.9634982722
5179.96313693854
5179.96276974964
5179.96237148518
5179.96201154558
5179.96182706434
5179.96167936971
5179.9614948406
5179.96143051396
5179.96137342174
5179.96126660044
5179.96131888117
5179.96136471618
5179.96137145465
5179.96172589186
5179.9622036884
5179.96248068851
5179.96280673706
5179.96358918542
5179.96566153709
5179.97229109129
5179.99263430851
5180.05392746125
5180.22997425947
5180.70748914264
5181.9268392417
5184.86171712528
5191.57119204735
5206.36783590956
5237.87646682955
5298.55202828333
5370.8269192299
4035.35860974141
3939.61267704924
3867.76531142866
3830.23873100156
3812.4815461569
3804.45096971647
3800.97870392105
3799.56093016536
3799.01853738166
3798.82454975565
3798.75922082007
3798.73853544236
3798.7324608237
3798.73064639432
3798.73004277305
3798.72976012356
3798.72963802418
3798.7295062696
3798.72933367109
3798.729181205
3798.72899237537
3798.72874451884
3798.72849697228
3798.72836815339
3798.72829511627
3798.72818346553
3798.7281566869
3798.72812643954
3798.72801314163
3798.72802510438
3798.72802361985
3798.72795830727
3798.72825067506
3798.72864432515
3798.72872166827
3798.72883025966
3798.72954453947
3798.7318442475
3798.7394120564
3798.76344664063
3798.83649267255
3799.04664252864
3799.61606149844
3801.06781538521
3804.5584878504
3812.54639947488
3830.20679955166
3867.93991424413
3941.34632513417
4038.01882766191
3066.64140942957
2980.77995501351
2923.59317584127
2894.73756058724
2881.63984635357
2875.94124513571
2873.54883782555
2872.59097326639
2872.22892422494
2872.10030684392
2872.05717796332
2872.04361581788
2872.03973452137
2872.03865984673
2872.03837328585
2872.03829317798
2872.03830363421
2872.038305759
2872.03826924915
2872.0382289407
2872.03815693426
2872.03802937033
2872.03788037278
2872.03779460162
2872.03776436324
2872.03771026573
2872.03770001215
2872.03769657755
2872.03763872416
2872.03763535375
2872.03762836828
2872.03755247671
2872.03771835401
2872.03793692408
2872.03795367279
2872.03797878343
2872.03831055659
2872.03964968836
2872.04430321318
2872.05941571362
2872.10607783235
2872.24234846304
2872.61744384746
2873.59213177059
2875.99443131241
2881.67633742901
2894.76293956425
2923.93721139556
2982.70394079304
3071.04790371221
2465.64062126692
2404.88789910351
2368.51532035466
2350.77460465529
2343.02433709846
2339.77054614916
2338.44026519824
2337.91605472492
2337.71939881098
2337.6496629444
2337.6262377871
2337.61887719624
2337.6168057975
2337.61627142853
2337.61618918139
2337.6162039898
2337.61623606985
2337.61626037098
2337.61625893481
2337.61625761167
2337.61624672361
2337.61619449722
2337.61611641332
2337.61606568418
2337.61606191736
2337.61605562403
2337.61605839387
2337.61606013139
2337.61603797376
2337.61603599789
2337.61602429551
2337.61595650492
2337.61603159855
2337.61612250617
2337.61611581911
2337.61612093673
2337.61624963325
2337.61688344255
2337.61924579234
2337.62708653498
2337.65155037778
2337.7236801906
2337.92434415446
2338.45335823952
2339.78496126767
2343.03094307616
2350.79878382854
2368.82207445501
2406.4626349007
2470.08473503276
2137.75211540962
2101.54814156842
2081.85282729313
2072.54021945455
2068.60312827093
2067.00092280986
2066.36092522006
2066.11196212971
2066.01896962974
2065.9859484537
2065.97480038301
2065.97128773502
2065.97031598412
2065.97009491425
2065.97008464691
2065.97010451731
2065.97013292674
2065.97015649813
2065.97016714524
2065.97017037542
2065.97017201506
2065.970158114
2065.97012244963
2065.97009970249
2065.97010494046
2065.9701108145
2065.97011505533
2065.97011737356
2065.97011071296
2065.97010862242
2065.97009823613
2065.97005576107
2065.97008537
2065.97011788356
2065.97010602509
2065.97010509969
2065.97014575597
2065.9704055085
2065.97146514308
2065.97505177955
2065.98631978055
2066.01970636315
2066.11315649156
2066.36204603658
2066.99943939197
2068.59486669274
2072.54449917106
2082.04019116615
2102.58099746336
2141.13900394682
1977.15139029878
1958.27631086724
1948.85291180258
1944.52194238493
1942.74074943334
1942.03499663665
1941.75877300899
1941.65247065044
1941.61285660603
1941.59874342773
1941.5939474689
1941.59242957884
1941.59201798961
1941.59193659712
1941.59194151148
1941.59195642744
1941.59197445997
1941.59198977804
1941.59199924277
1941.59200215805
1941.59200565397
1941.59200343581
1941.59198913939
1941.5919815681
1941.59198666125
1941.59199150139
1941.59199429076
1941.5919961074
1941.59199414641
1941.5919930101
1941.59198711491
1941.59196481444
1941.59197468004
1941.591984268
1941.59197680389
1941.59197740877
1941.59198569023
1941.59207888328
1941.5925113329
1941.59400717268
1941.59872481636
1941.61271726365
1941.65197252172
1941.75720583141
1942.03044813371
1942.73020927702
1944.51447221915
1948.94097542645
1958.84799923024
1979.28018682441
1905.39379342426
1896.56500887333
1892.4805438575
1890.65237274899
1889.91775761471
1889.63322338021
1889.52384001335
1889.48213336616
1889.46660858837
1889.46105365396
1889.45915292663
1889.4585485156
1889.45838855821
1889.45836152907
1889.45836616611
1889.45837467169
1889.45838411707
1889.45839217331
1889.45839769448
1889.45839955372
1889.4584020907
1889.45840247513
1889.45839749116
1889.45839595326
1889.4583990203
1889.45840138237
1889.45840274909
1889.45840386101
1889.45840316114
1889.45840229012
1889.45839968166
1889.45838965194
1889.4583922156
1889.45839420751
1889.45839100984
1889.4583911439
1889.45839087806
1889.45842186346
1889.45858524053
1889.45916524426
1889.46099774331
1889.4664214102
1889.48162417634
1889.52251588744
1889.62983585927
1889.91009269441
1890.64320982442
1892.51357141368
1896.84132380332
1906.55072500619
1875.77548924771
1872.0032119014
1870.37047548166
1869.65789070805
1869.37716005334
1869.27049838716
1869.23013817447
1869.21487565595
1869.20919734501
1869.20715603008
1869.20645299883
1869.20622844766
1869.20617026213
1869.20616212413
1869.20616497062
1869.20616911507
1869.20617344964
1869.20617713971
1869.20617981363
1869.20618106291
1869.2061821909
1869.20618226819
1869.20618122987
1869.20618157037
1869.20618284284
1869.20618378087
1869.2061843458
1869.20618484889
1869.20618457448
1869.20618407343
1869.20618299479
1869.20617891881
1869.20617932408
1869.20617935119
1869.20617799079
1869.20617794812
1869.20617705966
1869.20618655904
1869.20624443907
1869.20645628993
1869.20712569737
1869.20909801103
1869.214607833
1869.22943807106
1869.26866984938
1869.37281473427
1869.65132956472
1870.38010748655
1872.12262362674
1876.33550702742
1864.36694617458
1862.87464505462
1862.26463924704
1862.00484352603
1861.90423668616
1861.86662810374
1861.85259412801
1861.84732678497
1861.84536778832
1861.84466031096
1861.84441525231
1861.84433673651
1861.84431675151
1861.84431449181
1861.84431590434
1861.84431770846
1861.8443195095
1861.84432104126
1861.84432219582
1861.84432285163
1861.8443232975
1861.84432336103
1861.84432329062
1861.84432366175
1861.84432416541
1861.84432450641
1861.84432471546
1861.84432489849
1861.84432478858
1861.84432455504
1861.84432412946
1861.84432265008
1861.84432251076
1861.84432233343
1861.84432183211
1861.84432160811
1861.84432103141
1861.84432374126
1861.84434332171
1861.84441691957
1861.84464908052
1861.8453288805
1861.8472179673
1861.85229490669
1861.8657985877
1861.90213361371
1862.00117290889
1862.26642799803
1862.92157363198
1864.61336157057
1860.23190411502
1859.67956078147
1859.46439196364
1859.37491404298
1859.34078752542
1859.32820417508
1859.32356552816
1859.32183654801
1859.32119380209
1859.32096071647
1859.32087958951
1859.3208535569
1859.3208471001
1859.32084651876
1859.32084705611
1859.3208477718
1859.32084846286
1859.32084905141
1859.32084950907
1859.32084979766
1859.32085001099
1859.32085009856
1859.3208501259
1859.32085028302
1859.3208504633
1859.32085058041
1859.32085065231
1859.32085070848
1859.32085066397
1859.32085056946
1859.32085041203
1859.32084993134
1859.32084981579
1859.3208496933
1859.3208494631
1859.32084928353
1859.3208490016
1859.32084976309
1859.32085613976
1859.32088059358
1859.32095756385
1859.32118132914
1859.32179907188
1859.32345382232
1859.32786925697
1859.3398797476
1859.37315817812
1859.46424296588
1859.69654084305
1860.33194175859
1858.81188776166
1858.61900850204
1858.54679426252
1858.51745289955
1858.50641582743
1858.50239296091
1858.5009256041
1858.50038217245
1858.50018029184
1858.50010682433
1858.50008115358
1858.50007291438
1858.5000709071
1858.50007076289
1858.50007096924
1858.50007123246
1858.5000714801
1858.50007169159
1858.50007186043
1858.5000719737
1858.50007205981
1858.50007210625
1858.50007213329
1858.50007219452
1858.50007225434
1858.50007229274
1858.50007231621
1858.50007232944
1858.50007231232
1858.50007227918
1858.50007222383
1858.50007207614
1858.50007201885
1858.50007195769
1858.50007185911
1858.50007176531
1858.50007164891
1858.500071864
1858.50007387219
1858.50008168387
1858.50010620369
1858.50017694587
1858.50037081358
1858.50088773739
1858.50226877478
1858.50605704695
1858.51670243234
1858.54644180226
1858.62471650257
1858.84978459813
1858.3471897712
1858.28321181888
1858.26001249376
1858.25079477753
1858.24737138993
1858.2461357392
1858.24568909397
1858.24552465445
1858.24546362648
1858.24544135467
1858.24543354807
1858.24543104269
1858.24543043898
1858.24543040524
1858.24543047911
1858.24543056915
1858.24543065222
1858.24543072341
1858.24543078157
1858.24543082233
1858.24543085316
1858.24543087232
1858.24543088599
1858.24543090743
1858.24543092603
1858.24543093803
1858.24543094541
1858.24543094784
1858.24543094208
1858.24543093106
1858.24543091218
1858.24543086831
1858.24543084489
1858.24543081963
1858.24543078165
1858.24543074236
1858.24543070011
1858.24543076205
1858.24543137681
1858.24543378624
1858.24544132102
1858.24546289394
1858.24552156264
1858.24567712971
1858.24609256661
1858.24723920986
1858.25050059358
1858.2597906266
1858.28500613561
1858.36070566998
1858.20156715747
1858.18129616748
1858.17412843963
1858.17134034458
1858.17031714334
1858.16995087139
1858.16981948334
1858.1697713687
1858.16975353378
1858.16974701038
1858.16974471736
1858.1697439805
1858.16974380314
1858.16974379458
1858.16974381831
1858.16974384649
1858.16974387214
1858.16974389419
1858.16974391258
1858.16974392586
1858.16974393575
1858.16974394235
1858.16974394745
1858.16974395409
1858.16974395938
1858.16974396276
1858.16974396497
1858.16974396535
1858.16974396353
1858.16974396005
1858.16974395405
1858.16974394151
1858.16974393329
1858.16974392439
1858.16974391144
1858.16974389767
1858.16974388432
1858.16974390321
1858.16974408778
1858.16974480851
1858.1697470494
1858.16975341671
1858.16977059956
1858.16981588211
1858.16993658639
1858.17027115901
1858.17123273374
1858.17402313312
1858.18182593157
1858.20613796661
1858.15768626984
1858.15152239746
1858.14938459214
1858.14856936061
1858.14827351829
1858.14816836293
1858.14813087911
1858.14811721651
1858.14811215818
1858.1481103039
1858.14810964957
1858.1481094378
1858.14810938548
1858.14810938188
1858.1481093879
1858.14810939524
1858.14810940188
1858.14810940761
1858.14810941247
1858.14810941598
1858.14810941849
1858.14810942017
1858.14810942148
1858.1481094231
1858.1481094243
1858.14810942499
1858.14810942554
1858.14810942562
1858.14810942515
1858.14810942423
1858.14810942258
1858.14810941932
1858.14810941707
1858.14810941467
1858.14810941115
1858.14810940751
1858.14810940428
1858.14810941141
1858.14810946706
1858.14810967739
1858.14811032501
1858.14811214975
1858.14811703489
1858.14812982364
1858.14816381149
1858.14825826443
1858.14853218075
1858.14934134376
1858.15166964375
1858.15916059124
1858.14492577263
1858.1431199082
1858.14250251973
1858.14227132295
1858.14218830528
1858.1421589763
1858.14214857411
1858.14214479651
1858.14214339837
1858.14214288367
1858.14214270021
1858.14214263943
1858.14214262274
1858.14214261967
1858.14214261979
1858.14214262047
1858.14214262109
1858.14214262162
1858.14214262207
1858.1421426223
1858.14214262233
1858.14214262225
1858.14214262215
1858.14214262219
1858.14214262217
1858.14214262211
1858.14214262218
1858.14214262217
1858.14214262211
1858.14214262206
1858.14214262186
1858.14214262134
1858.14214262123
1858.14214262121
1858.14214262099
1858.14214262094
1858.14214262138
1858.14214262517
1858.14214264271
1858.14214270378
1858.14214288729
1858.14214339747
1858.14214475007
1858.14214826432
1858.14215756542
1858.14218344307
1858.14225908122
1858.14248637311
1858.14315843681
1858.14538155753
1858.14133360734
1858.14082213181
1858.14064904602
1858.14058526961
1858.14056259397
1858.14055462494
1858.14055180845
1858.14055078716
1858.14055040781
1858.14055026625
1858.14055021404
1858.14055019514
1858.14055018832
1858.14055018543
1858.14055018369
1858.1405501823
1858.14055018109
1858.14055018001
1858.14055017907
1858.14055017823
1858.14055017745
1858.14055017677
1858.14055017619
1858.14055017576
1858.14055017541
1858.14055017516
1858.14055017505
1858.14055017502
1858.14055017511
1858.14055017532
1858.1405501756
1858.14055017595
1858.14055017653
1858.14055017728
1858.14055017817
1858.14055017929
1858.14055018081
1858.14055018354
1858.14055019026
1858.14055020911
1858.14055026149
1858.14055040238
1858.14055076938
1858.14055171252
1858.14055419347
1858.14056109346
1858.14058140107
1858.14064343026
1858.14083159077
1858.14146921203
1858.14035203667
1858.14021160296
1858.14016439105
1858.14014722698
1858.14014117869
1858.14013906229
1858.14013831479
1858.14013804233
1858.14013793924
1858.14013789889
1858.14013788228
1858.1401378747
1858.14013787055
1858.14013786768
1858.14013786536
1858.14013786335
1858.14013786157
1858.14013786
1858.14013785863
1858.14013785744
1858.1401378564
1858.14013785551
1858.14013785477
1858.14013785419
1858.14013785374
1858.14013785344
1858.14013785328
1858.14013785326
1858.14013785339
1858.14013785368
1858.14013785413
1858.14013785473
1858.14013785554
1858.14013785656
1858.1401378578
1858.14013785931
1858.14013786115
1858.14013786356
1858.1401378673
1858.14013787452
1858.1401378909
1858.14013793087
1858.14013803026
1858.14013827966
1858.14013892783
1858.14014072497
1858.14014604517
1858.14016254401
1858.14021376041
1858.14039099662
1858.14009106056
1858.14005361138
1858.14004105436
1858.14003652558
1858.14003494108
1858.14003438811
1858.1400341913
1858.14003411752
1858.1400340876
1858.14003407406
1858.14003406689
1858.1400340623
1858.14003405884
1858.14003405597
1858.14003405346
1858.14003405125
1858.14003404928
1858.14003404755
1858.14003404604
1858.14003404472
1858.14003404359
1858.14003404263
1858.14003404184
1858.1400340412
1858.14003404072
1858.1400340404
1858.14003404023
1858.14003404021
1858.14003404036
1858.14003404068
1858.14003404118
1858.14003404187
1858.14003404276
1858.14003404388
1858.14003404524
1858.14003404688
1858.14003404882
1858.14003405115
1858.14003405408
1858.14003405818
1858.14003406492
1858.14003407801
1858.14003410653
1858.1400341734
1858.14003434151
1858.14003480249
1858.14003617233
1858.14004047264
1858.14005405577
1858.14010189807
1858.14002340368
1858.14001370854
1858.14001044246
1858.14000925539
1858.14000884093
1858.140008696
1858.14000864255
1858.14000862039
1858.14000860947
1858.14000860291
1858.14000859819
1858.14000859438
1858.1400085911
1858.1400085882
1858.14000858563
1858.14000858334
1858.14000858131
1858.14000857951
1858.14000857794
1858.14000857658
1858.1400085754
1858.14000857441
1858.14000857359
1858.14000857293
1858.14000857244
1858.14000857211
1858.14000857193
1858.14000857192
1858.14000857208
1858.14000857242
1858.14000857294
1858.14000857366
1858.14000857459
1858.14000857575
1858.14000857716
1858.14000857884
1858.14000858082
1858.14000858314
1858.14000858586
1858.14000858913
1858.14000859334
1858.1400085994
1858.14000860957
1858.14000862948
1858.14000867476
1858.14000879431
1858.14000914874
1858.14001026381
1858.14001378237
1858.14002632553
1858.14000626903
1858.14000385404
1858.14000301808
1858.14000269491
1858.14000258051
1858.14000253986
1858.14000252303
1858.14000251408
1858.14000250804
1858.14000250327
1858.1400024992
1858.14000249559
1858.14000249235
1858.14000248944
1858.14000248683
1858.14000248451
1858.14000248244
1858.14000248062
1858.14000247901
1858.14000247762
1858.14000247643
1858.14000247542
1858.14000247458
1858.14000247391
1858.14000247341
1858.14000247307
1858.1400024729
1858.14000247289
1858.14000247306
1858.1400024734
1858.14000247394
1858.14000247467
1858.14000247562
1858.14000247681
1858.14000247824
1858.14000247995
1858.14000248195
1858.14000248427
1858.14000248693
1858.14000248998
1858.14000249352
1858.14000249777
1858.14000250324
1858.14000251127
1858.14000252576
1858.14000255995
1858.1400026593
1858.14000296218
1858.14000385611
1858.14000702945
1858.14000202249
1858.14000147019
1858.14000125541
1858.14000115097
1858.14000111204
1858.1400010976
1858.14000109
1858.14000108441
1858.14000107963
1858.14000107535
1858.14000107145
1858.1400010679
1858.14000106467
1858.14000106175
1858.14000105912
1858.14000105678
1858.14000105469
1858.14000105285
1858.14000105123
1858.14000104982
1858.14000104861
1858.14000104759
1858.14000104674
1858.14000104607
1858.14000104556
1858.14000104522
1858.14000104505
1858.14000104505
1858.14000104521
1858.14000104557
1858.14000104611
1858.14000104686
1858.14000104782
1858.14000104902
1858.14000105047
1858.14000105219
1858.1400010542
1858.14000105652
1858.14000105917
1858.14000106216
1858.14000106551
1858.14000106927
1858.14000107353
1858.14000107857
1858.14000108543
1858.14000109866
1858.14000113522
1858.14000123545
1858.14000146077
1858.14000220893
1858.14000099096
1858.14000090439
1858.14000084508
1858.14000079499
1858.14000077475
1858.14000076682
1858.14000076156
1858.14000075684
1858.14000075241
1858.14000074828
1858.14000074444
1858.1400007409
1858.14000073768
1858.14000073475
1858.14000073212
1858.14000072976
1858.14000072766
1858.1400007258
1858.14000072417
1858.14000072275
1858.14000072154
1858.14000072051
1858.14000071966
1858.14000071898
1858.14000071847
1858.14000071813
1858.14000071796
1858.14000071795
1858.14000071813
1858.14000071848
1858.14000071903
1858.14000071979
1858.14000072076
1858.14000072197
1858.14000072343
1858.14000072516
1858.14000072718
1858.14000072951
1858.14000073215
1858.14000073511
1858.1400007384
1858.14000074201
1858.14000074594
1858.14000075021
1858.14000075517
1858.1400007633
1858.14000078465
1858.14000083529
1858.14000089392
1858.14000102884
1858.14000074502
1858.14000077243
1858.14000075128
1858.14000071449
1858.14000069883
1858.14000069252
1858.14000068787
1858.14000068339
1858.14000067907
1858.14000067499
1858.14000067117
1858.14000066765
1858.14000066442
1858.1400006615
1858.14000065886
1858.14000065649
1858.14000065439
1858.14000065253
1858.14000065089
1858.14000064947
1858.14000064824
1858.14000064721
1858.14000064636
1858.14000064568
1858.14000064517
1858.14000064483
1858.14000064466
1858.14000064466
1858.14000064484
1858.1400006452
1858.14000064575
1858.14000064651
1858.14000064749
1858.14000064871
1858.14000065017
1858.14000065191
1858.14000065393
1858.14000065626
1858.1400006589
1858.14000066185
1858.14000066512
1858.14000066867
1858.14000067249
1858.14000067654
1858.14000068101
1858.1400006879
1858.1400007056
1858.14000074431
1858.14000076221
1858.1400007454
1858.14000068746
1858.14000074221
1858.14000073024
1858.14000069664
1858.14000068209
1858.14000067618
1858.14000067168
1858.14000066728
1858.140000663
1858.14000065893
1858.14000065513
1858.14000065161
1858.14000064839
1858.14000064546
1858.14000064283
1858.14000064046
1858.14000063836
1858.14000063649
1858.14000063486
1858.14000063343
1858.14000063221
1858.14000063118
1858.14000063032
1858.14000062965
1858.14000062914
1858.1400006288
1858.14000062863
1858.14000062863
1858.14000062881
1858.14000062918
1858.14000062974
1858.1400006305
1858.14000063148
1858.1400006327
1858.14000063417
1858.14000063591
1858.14000063794
1858.14000064026
1858.1400006429
1858.14000064584
1858.1400006491
1858.14000065264
1858.14000065642
1858.14000066041
1858.14000066475
1858.14000067133
1858.14000068818
1858.14000072408
1858.14000073224
1858.14000067864
1858.14000067438
1858.14000073557
1858.1400007257
1858.1400006928
1858.14000067848
1858.14000067264
1858.14000066817
1858.14000066377
1858.1400006595
1858.14000065543
1858.14000065163
1858.14000064812
1858.14000064491
1858.14000064198
1858.14000063935
1858.14000063699
1858.14000063489
1858.14000063303
1858.1400006314
1858.14000062998
1858.14000062876
1858.14000062773
1858.14000062688
1858.14000062621
1858.14000062571
1858.14000062537
1858.1400006252
1858.14000062521
1858.14000062539
1858.14000062576
1858.14000062632
1858.14000062708
1858.14000062807
1858.14000062929
1858.14000063076
1858.14000063249
1858.14000063452
1858.14000063684
1858.14000063948
1858.14000064242
1858.14000064567
1858.14000064921
1858.14000065299
1858.14000065697
1858.1400006613
1858.14000066783
1858.14000068453
1858.14000071983
1858.14000072579
1858.14000066344
1858.14000067176
1858.14000073442
1858.1400007249
1858.14000069207
1858.14000067771
1858.14000067184
1858.14000066733
1858.1400006629
1858.1400006586
1858.14000065453
1858.14000065073
1858.14000064722
1858.14000064401
1858.1400006411
1858.14000063847
1858.14000063613
1858.14000063403
1858.14000063219
1858.14000063056
1858.14000062915
1858.14000062794
1858.14000062692
1858.14000062608
1858.14000062541
1858.14000062491
1858.14000062458
1858.14000062442
1858.14000062442
1858.14000062461
1858.14000062498
1858.14000062554
1858.1400006263
1858.14000062728
1858.1400006285
1858.14000062997
1858.1400006317
1858.14000063372
1858.14000063604
1858.14000063868
1858.14000064162
1858.14000064488
1858.14000064843
1858.14000065223
1858.14000065624
1858.14000066061
1858.1400006672
1858.14000068394
1858.14000071923
1858.14000072483
1858.14000066043
1858.1400006717
1858.14000073468
1858.14000072502
1858.14000069203
1858.14000067754
1858.14000067156
1858.14000066696
1858.14000066248
1858.14000065814
1858.14000065405
1858.14000065024
1858.14000064673
1858.14000064353
1858.14000064063
1858.14000063802
1858.14000063568
1858.14000063361
1858.14000063177
1858.14000063017
1858.14000062877
1858.14000062757
1858.14000062656
1858.14000062573
1858.14000062507
1858.14000062458
1858.14000062425
1858.14000062409
1858.1400006241
1858.14000062429
1858.14000062465
1858.14000062521
1858.14000062597
1858.14000062695
1858.14000062816
1858.14000062962
1858.14000063135
1858.14000063337
1858.14000063568
1858.14000063832
1858.14000064127
1858.14000064454
1858.14000064811
1858.14000065196
1858.14000065603
1858.14000066048
1858.14000066719
1858.14000068407
1858.14000071954
1858.14000072529
1858.14000066043
1858.14000067241
1858.14000073542
1858.14000072545
1858.14000069217
1858.14000067747
1858.14000067132
1858.1400006666
1858.14000066203
1858.14000065764
1858.14000065351
1858.14000064969
1858.14000064618
1858.14000064299
1858.1400006401
1858.14000063751
1858.1400006352
1858.14000063314
1858.14000063133
1858.14000062974
1858.14000062837
1858.14000062718
1858.14000062619
1858.14000062537
1858.14000062472
1858.14000062424
1858.14000062392
1858.14000062376
1858.14000062378
1858.14000062396
1858.14000062433
1858.14000062488
1858.14000062564
1858.14000062661
1858.14000062781
1858.14000062926
1858.14000063098
1858.14000063299
1858.1400006353
1858.14000063793
1858.14000064089
1858.14000064418
1858.14000064779
1858.14000065169
1858.14000065586
1858.14000066044
1858.14000066731
1858.14000068441
1858.14000072019
1858.14000072628
1858.14000066133
1858.1400006735
1858.14000073649
1858.14000072605
1858.14000069239
1858.1400006774
1858.14000067103
1858.14000066614
1858.14000066146
1858.14000065699
1858.14000065282
1858.14000064898
1858.14000064547
1858.14000064229
1858.14000063943
1858.14000063686
1858.14000063458
1858.14000063255
1858.14000063076
1858.1400006292
1858.14000062784
1858.14000062668
1858.1400006257
1858.1400006249
1858.14000062426
1858.14000062379
1858.14000062348
1858.14000062333
1858.14000062335
1858.14000062354
1858.1400006239
1858.14000062445
1858.1400006252
1858.14000062616
1858.14000062735
1858.14000062878
1858.14000063049
1858.14000063248
1858.14000063478
1858.14000063741
1858.14000064038
1858.14000064369
1858.14000064735
1858.14000065134
1858.14000065562
1858.14000066037
1858.14000066747
1858.14000068487
1858.14000072104
1858.14000072762
1858.14000066267
1858.14000067494
1858.14000073787
1858.14000072682
1858.14000069266
1858.14000067729
1858.14000067064
1858.14000066556
1858.14000066073
1858.14000065617
1858.14000065195
1858.14000064809
1858.14000064458
1858.14000064142
1858.14000063858
1858.14000063605
1858.14000063379
1858.1400006318
1858.14000063005
1858.14000062851
1858.14000062718
1858.14000062605
1858.14000062509
1858.14000062431
1858.14000062369
1858.14000062323
1858.14000062292
1858.14000062278
1858.1400006228
1858.14000062299
1858.14000062335
1858.14000062389
1858.14000062463
1858.14000062557
1858.14000062675
1858.14000062817
1858.14000062986
1858.14000063183
1858.14000063412
1858.14000063674
1858.14000063972
1858.14000064306
1858.14000064678
1858.14000065086
1858.1400006553
1858.14000066025
1858.14000066763
1858.14000068541
1858.14000072211
1858.14000072931
1858.14000066439
1858.14000067674
1858.14000073959
1858.14000072778
1858.14000069298
1858.14000067715
1858.14000067016
1858.14000066483
1858.14000065983
1858.14000065517
1858.14000065089
1858.14000064701
1858.14000064351
1858.14000064037
1858.14000063757
1858.14000063507
1858.14000063285
1858.1400006309
1858.14000062918
1858.14000062768
1858.14000062639
1858.14000062528
1858.14000062435
1858.14000062359
1858.14000062298
1858.14000062254
1858.14000062225
1858.14000062211
1858.14000062213
1858.14000062232
1858.14000062267
1858.1400006232
1858.14000062393
1858.14000062486
1858.14000062602
1858.14000062742
1858.14000062908
1858.14000063104
1858.14000063331
1858.14000063592
1858.14000063891
1858.14000064228
1858.14000064606
1858.14000065025
1858.14000065486
1858.14000066007
1858.14000066779
1858.14000068604
1858.14000072339
1858.14000073138
1858.14000066651
1858.14000067898
1858.1400007417
1858.14000072893
1858.14000069335
1858.14000067696
1858.14000066956
1858.14000066394
1858.14000065875
1858.14000065398
1858.14000064964
1858.14000064575
1858.14000064226
1858.14000063914
1858.14000063638
1858.14000063392
1858.14000063176
1858.14000062985
1858.14000062817
1858.14000062672
1858.14000062546
1858.14000062438
1858.14000062348
1858.14000062274
1858.14000062216
1858.14000062173
1858.14000062145
1858.14000062132
1858.14000062135
1858.14000062153
1858.14000062188
1858.1400006224
1858.14000062311
1858.14000062402
1858.14000062515
1858.14000062653
1858.14000062816
1858.14000063009
1858.14000063234
1858.14000063494
1858.14000063793
1858.14000064133
1858.14000064518
1858.1400006495
1858.1400006543
1858.1400006598
1858.14000066793
1858.14000068675
1858.14000072491
1858.14000073387
1858.14000066909
1858.14000068173
1858.14000074429
1858.14000073031
1858.14000069377
1858.14000067669
1858.14000066882
1858.14000066288
1858.14000065748
1858.14000065258
1858.14000064819
1858.14000064428
1858.14000064081
1858.14000063774
1858.14000063502
1858.14000063262
1858.14000063051
1858.14000062865
1858.14000062703
1858.14000062562
1858.1400006244
1858.14000062336
1858.14000062249
1858.14000062178
1858.14000062122
1858.14000062081
1858.14000062054
1858.14000062042
1858.14000062045
1858.14000062063
1858.14000062097
1858.14000062147
1858.14000062217
1858.14000062306
1858.14000062416
1858.1400006255
1858.14000062711
1858.14000062901
1858.14000063123
1858.14000063381
1858.14000063679
1858.14000064021
1858.14000064413
1858.14000064858
1858.14000065359
1858.14000065942
1858.14000066803
1858.14000068755
1858.14000072669
1858.14000073686
1858.14000067222
1858.14000068512
1858.14000074742
1858.14000073195
1858.14000069423
1858.14000067634
1858.14000066792
1858.14000066161
1858.140000656
1858.14000065098
1858.14000064654
1858.14000064263
1858.14000063918
1858.14000063616
1858.1400006335
1858.14000063116
1858.14000062911
1858.14000062731
1858.14000062574
1858.14000062439
1858.14000062322
1858.14000062222
1858.14000062139
1858.1400006207
1858.14000062017
1858.14000061978
1858.14000061952
1858.14000061941
1858.14000061944
1858.14000061961
1858.14000061994
1858.14000062044
1858.14000062111
1858.14000062197
1858.14000062304
1858.14000062435
1858.14000062592