/*--------------------------------*- C++ -*----------------------------------*\
  =========                 |
  \\      /  F ield         | OpenFOAM: The Open Source CFD Toolbox
   \\    /   O peration     | Website:  https://openfoam.org
    \\  /    A nd           | Version:  10
     \\/     M anipulation  |
\*---------------------------------------------------------------------------*/
FoamFile
{
    format      ascii;
    class       volScalarField;
    location    "3.8";
    object      k;
}
// * * * * * * * * * * * * * * * * * * * * * * * * * * * * * * * * * * * * * //

dimensions      [0 2 -2 0 0 0 0];

internalField   nonuniform List<scalar> 
2500
(
2.09236325560427e-09
4.03881337014154e-08
1.68366205861857e-07
2.79329611105357e-07
3.59504973003012e-07
4.10026674333399e-07
4.38156948912996e-07
4.52151983314837e-07
4.58438686512446e-07
4.6101317562131e-07
4.61982619379059e-07
4.62320813124961e-07
4.62430763636973e-07
4.62464175669733e-07
4.62473618506984e-07
4.62476019421079e-07
4.6247647390032e-07
4.62476434428261e-07
4.62476303508831e-07
4.62476167578971e-07
4.6247604581274e-07
4.62475941125828e-07
4.62475853091827e-07
4.62475780930229e-07
4.62475724389446e-07
4.62475684468253e-07
4.62475665029397e-07
4.62475665198798e-07
4.62475671988763e-07
4.62475686573128e-07
4.62475716645816e-07
4.6247575480536e-07
4.62475767143945e-07
4.62475584472099e-07
4.62474575056785e-07
4.62470651504334e-07
4.62456997574119e-07
4.62412469937065e-07
4.6227538192338e-07
4.61877438021814e-07
4.60792896165438e-07
4.58034044063948e-07
4.51529719829697e-07
4.37433063125225e-07
4.09607227725988e-07
3.60091953766703e-07
2.81532798728208e-07
1.71782752292604e-07
4.2164427154968e-08
2.25826376713363e-09
5.08338374536657e-08
1.1447809840359e-06
4.87690167269656e-06
8.11045926295989e-06
1.04661085140304e-05
1.19669380152381e-05
1.28131775360284e-05
1.3239878981415e-05
1.34342100851751e-05
1.35148899912871e-05
1.35456817176706e-05
1.35565645732471e-05
1.35601478125141e-05
1.35612505228383e-05
1.35615665369488e-05
1.35616485993997e-05
1.35616651724812e-05
1.35616647493263e-05
1.3561661043643e-05
1.35616570514552e-05
1.35616534475302e-05
1.35616503450542e-05
1.35616477369497e-05
1.35616456010705e-05
1.35616439301626e-05
1.35616427547925e-05
1.35616421767595e-05
1.35616421667188e-05
1.35616423700262e-05
1.35616428071052e-05
1.35616437044626e-05
1.35616447843658e-05
1.35616448642155e-05
1.35616381526971e-05
1.35616036917309e-05
1.3561472923288e-05
1.356102320668e-05
1.35595717863889e-05
1.35551495720112e-05
1.35424502233939e-05
1.35082268842171e-05
1.34221826544246e-05
1.32217582589656e-05
1.27926839478155e-05
1.19559951364839e-05
1.04844571086549e-05
8.17431312838244e-06
4.97370946507788e-06
1.19348047975009e-06
5.46381098279264e-08
1.77421453459868e-07
5.05979468265613e-06
2.42554268899491e-05
4.01405083319305e-05
5.16248022402437e-05
5.8941608516783e-05
6.3086847241516e-05
6.51936108413895e-05
6.61625172602264e-05
6.65691261036924e-05
6.67260557027203e-05
6.67821522659218e-05
6.68008343985266e-05
6.68066517772125e-05
6.68083414525277e-05
6.68087893925352e-05
6.68088853028811e-05
6.68088880171521e-05
6.68088719170962e-05
6.68088535834118e-05
6.68088368268582e-05
6.68088223443476e-05
6.68088101462939e-05
6.68088001426475e-05
6.68087923038306e-05
6.68087867645183e-05
6.68087838971797e-05
6.68087837189805e-05
6.68087848119734e-05
6.68087866060185e-05
6.68087906221348e-05
6.68087951802367e-05
6.68087938998482e-05
6.68087558156668e-05
6.68085719373376e-05
6.68078868043041e-05
6.68055508164463e-05
6.67980654114348e-05
6.67754177251271e-05
6.67108471557675e-05
6.65381396245705e-05
6.61072766984787e-05
6.51114461872071e-05
6.29951761144295e-05
5.88937609361468e-05
5.17074188249117e-05
4.04241630222247e-05
2.46855647810355e-05
5.24976375733472e-06
1.88217316093028e-07
3.09374198879963e-07
8.88594453191263e-06
4.24905783665158e-05
6.97810429883046e-05
8.93057702813716e-05
0.000101676706538888
0.000108672567520979
0.000112230882751646
0.000113871431870203
0.000114562373497601
0.000114830194631647
0.000114926396674838
0.000114958606504056
0.000114968695966059
0.000114971647761972
0.000114972439505922
0.00011497261414697
0.00011497262382898
0.000114972599329499
0.000114972570211723
0.000114972543333738
0.000114972520012593
0.000114972500317926
0.000114972484119983
0.000114972471368744
0.000114972462253527
0.000114972457278795
0.00011497245665414
0.000114972458155426
0.000114972461019501
0.000114972467183915
0.000114972474064053
0.000114972471161641
0.000114972406522219
0.000114972100411819
0.00011497096025411
0.000114967064971021
0.000114954552239834
0.000114916603660014
0.000114808179214471
0.000114517657865185
0.000113791830533513
0.000112112237285848
0.00010853847199223
0.000101600123794366
8.94053406963817e-05
7.0153771116315e-05
4.30632844964222e-05
9.13889525801078e-06
3.23603550950733e-07
4.32891696621463e-07
1.24460814579621e-05
5.91227940028298e-05
9.64742977385912e-05
0.000122983404812036
0.000139710366425896
0.000149157903973819
0.000153967045392018
0.000156189112635729
0.000157127891464253
0.000157493162173267
0.000157624938035623
0.000157669272613977
0.000157683236785809
0.000157687350418828
0.000157688466373785
0.00015768871982211
0.0001576887406784
0.000157688711777472
0.00015768867544909
0.00015768864148628
0.000157688611866633
0.000157688586761562
0.000157688566027933
0.00015768854959678
0.00015768853765901
0.000157688530748211
0.000157688529232587
0.00015768853063478
0.000157688534286475
0.000157688541564313
0.000157688549396244
0.000157688543652449
0.00015768845531259
0.000157688047348831
0.000157686529974941
0.000157681337155785
0.000157664616072189
0.00015761377980464
0.000157468205292839
0.000157077375785338
0.000156099341205164
0.000153833019333482
0.000149004621314421
0.000139615767233434
0.000123073895552192
9.68531224634424e-05
5.97156725827904e-05
1.27145568205561e-05
4.48355203141085e-07
5.43110358228644e-07
1.56292624993593e-05
7.38035967245148e-05
0.000119797045366198
0.000152237638205012
0.000172645666700926
0.000184164279502114
0.000190033132669619
0.000192750426665894
0.000193901712989609
0.000194351220344469
0.000194514029055056
0.000194569049032058
0.000194586468016947
0.000194591632991095
0.000194593049297183
0.000194593380416209
0.000194593416507856
0.000194593386794382
0.000194593346676847
0.000194593308553611
0.000194593275083257
0.00019459324657666
0.000194593222902531
0.000194593203977269
0.000194593189960186
0.000194593181366313
0.000194593178547814
0.000194593179432876
0.000194593183369898
0.000194593190699982
0.000194593198138065
0.00019459318810595
0.000194593078036189
0.00019459258495491
0.000194590756900851
0.000194584495067624
0.000194564292446383
0.000194502742310834
0.000194326140785721
0.000193851198293529
0.00019266098055073
0.000189899767538683
0.000184010907309112
0.000172546477665122
0.000152311872203371
0.000120141347764692
7.43521953929146e-05
1.58874263249717e-05
5.58553714518635e-07
6.37764226695567e-07
1.83741894617094e-05
8.63577118697924e-05
0.000139584969688409
0.000176950953534892
0.000200407444714084
0.000213642937797313
0.000220393450333902
0.000223525030703898
0.000224855320541251
0.000225376352868525
0.000225565748113264
0.000225630013933679
0.000225650456544493
0.000225656555042495
0.000225658243855096
0.000225658650245282
0.000225658705292538
0.000225658677095038
0.000225658636117111
0.000225658596377899
0.00022565856119282
0.000225658531038912
0.000225658505819101
0.000225658485442935
0.000225658470025793
0.000225658460052909
0.000225658455736529
0.000225658455752367
0.000225658459311106
0.000225658465696368
0.000225658471776224
0.000225658456269466
0.000225658325860195
0.000225657762106566
0.000225655681384303
0.000225648552044997
0.000225625515724563
0.000225555209343822
0.000225353147586182
0.00022480894244723
0.000223443518849228
0.000220272826792036
0.00021350525181254
0.000200318853555563
0.000177015527873218
0.000139885048328471
8.68381407416256e-05
1.86106632091982e-05
6.52555991333089e-07
7.16210860239452e-07
2.06611219635043e-05
9.67664845185347e-05
0.000155896378863398
0.000197260530576377
0.000223189445902571
0.000237820324156573
0.000245290427350445
0.000248762097959467
0.000250240361752125
0.000250820992503987
0.00025103273730434
0.000251104851679889
0.000251127889770528
0.000251134801007571
0.000251136731898474
0.000251137208744206
0.000251137283888273
0.000251137260745047
0.000251137221236359
0.000251137181898987
0.000251137146700369
0.000251137116301128
0.000251137090655895
0.000251137069677043
0.000251137053431452
0.000251137042288021
0.000251137036431831
0.000251137035342559
0.000251137037710363
0.000251137042550807
0.000251137046168588
0.000251137023807838
0.000251136875278001
0.000251136253769464
0.000251133970846352
0.000251126149971664
0.000251100850100786
0.000251023524341908
0.000250800978987795
0.000250200876514861
0.000248693715212643
0.000245191210540486
0.00023771085368924
0.000223126721547933
0.000197330415033942
0.000156162869371326
9.71820224958881e-05
2.08743028876401e-05
7.30150941892288e-07
7.79051169157757e-07
2.25043745851782e-05
0.000105139835225361
0.000168965552633136
0.000213501395777166
0.000241392881884384
0.000257134739580591
0.000265180495389718
0.000268925884963264
0.000270524094563425
0.00027115342217217
0.000271383589315594
0.000271462235808967
0.000271487457884389
0.000271495062517056
0.000271497204204002
0.000271497745042412
0.000271497840761453
0.000271497824532473
0.000271497788116488
0.000271497750624998
0.000271497716644078
0.000271497687022898
0.000271497661779595
0.000271497640839189
0.000271497624228311
0.000271497612185405
0.000271497604985853
0.000271497602335747
0.00027149760307441
0.000271497605914471
0.000271497606199898
0.000271497576701635
0.000271497412321346
0.000271496744116573
0.000271494302298301
0.000271485940920529
0.000271458869655345
0.000271376033781822
0.000271137356822295
0.00027049310960819
0.000268873772728565
0.000265108292341262
0.000257062601740393
0.000241369526465361
0.000213594706264796
0.000169219751136151
0.000105509352697729
2.26985876400055e-05
7.92215620665374e-07
8.2776979953073e-07
2.39432456949834e-05
0.000111680104628037
0.000179148441380341
0.000226142477739306
0.000255557900626899
0.000272165720819971
0.000280662531544547
0.000284623764899049
0.000286317250587531
0.000286985572637074
0.000287230621841499
0.000287314596029223
0.000287341618812344
0.000287349802908276
0.000287352124460447
0.00028735272207755
0.000287352837459464
0.000287352828934155
0.00028735279659082
0.00028735276185242
0.000287352729880173
0.00028735270170778
0.000287352677422328
0.000287352656969542
0.000287352640350314
0.000287352627711994
0.000287352619277752
0.000287352614899309
0.000287352613859434
0.000287352614405423
0.000287352610850017
0.000287352574467615
0.000287352396708845
0.000287351691399269
0.000287349127139277
0.000287340352138255
0.000287311924625253
0.000287224858735887
0.000286973761246847
0.000286295437752913
0.000284589343624662
0.000280620227553898
0.000272136516609947
0.000255584132648318
0.000226276156276041
0.00017941435115653
0.000112028544199641
2.41255525425023e-05
8.40378364320319e-07
8.64370534246426e-07
2.50323113627991e-05
0.000116643889035338
0.000186867842402524
0.000235722967062633
0.000266295558255095
0.000283563889938631
0.000292406707631194
0.000296534624549382
0.00029830223929257
0.000299001150268201
0.000299257977369964
0.000299346208614984
0.000299374685774073
0.000299383344061385
0.000299385815713073
0.000299386462195395
0.000299386595566742
0.000299386595015189
0.000299386567179109
0.000299386535639079
0.000299386506085624
0.000299386479726872
0.00029938645671922
0.000299386437033719
0.00029938642065822
0.000299386407676677
0.000299386398228848
0.00029938639226794
0.000299386389260153
0.000299386387235413
0.000299386379802288
0.000299386337243508
0.000299386148711927
0.000299385414514634
0.000299382757826107
0.000299373673244277
0.000299344230828467
0.000299253992238115
0.000298993553565937
0.000298289541445504
0.000296517929029174
0.000292394858620565
0.000283579827973879
0.000266377435206232
0.00023590985370516
0.000187166550272729
0.000116995338330867
2.52101134150916e-05
8.76683939160467e-07
8.91049634745531e-07
2.58324771461632e-05
0.000120307390222003
0.000192564767483348
0.000242796254381482
0.000274227934975219
0.000291989147174341
0.000301091745278221
0.000305345683693303
0.0003071697773808
0.00030789218931441
0.000308158146470545
0.00030824970962983
0.000308279337304438
0.000308288375542449
0.000308290969668379
0.000308291657082102
0.000308291806352086
0.000308291813474309
0.000308291790122801
0.000308291761866406
0.00030829173484511
0.000308291710425939
0.000308291688830666
0.000308291670057132
0.000308291654089601
0.000308291640971237
0.000308291630779643
0.000308291623481299
0.000308291618598582
0.000308291614227356
0.000308291603231518
0.000308291555646704
0.000308291358220294
0.000308290601961818
0.000308287876987292
0.000308278565957402
0.000308248381768541
0.000308155819662154
0.000307888522849587
0.000307165608711905
0.000305345706762401
0.000301109046656574
0.00029204944572322
0.000274367209449608
0.000243043682460386
0.000192911286997626
0.000120680905427375
2.60119974907297e-05
9.03301904317309e-07
9.0994235950885e-07
2.64038366530654e-05
0.000122938961653803
0.000196660495138659
0.000247886394775747
0.000279941657387622
0.000298062666373256
0.000307356143114853
0.000311703354686894
0.000313569583456706
0.000314309677733078
0.000314582566952479
0.000314676684491352
0.000314707203610568
0.000314716539953754
0.00031471923183325
0.00031471995265435
0.000314720115562237
0.000314720129693999
0.000314720110424699
0.000314720085284493
0.000314720060701868
0.000314720038180877
0.000314720018001544
0.000314720000187539
0.000314719984725265
0.000314719971633424
0.0003147199609459
0.000314719952614866
0.000314719946190684
0.000314719939780319
0.000314719925875212
0.000314719874143777
0.00031471966966022
0.000314718896921869
0.000314716122620463
0.000314706649799572
0.000314675936310711
0.000314581713312757
0.000314309502643203
0.000313573016598936
0.000311718386411806
0.000307399951162234
0.000298164187294148
0.000280136272613487
0.00024819612541879
0.000197062777740328
0.00012334684777203
2.65894159198623e-05
9.22306561938298e-07
9.22956586507404e-07
2.68008087144221e-05
0.000124780419781362
0.000199531136343206
0.000251459116931819
0.000283957006194526
0.00030233498357907
0.000311765731443798
0.000316180530583668
0.000318077541506639
0.000318830666528968
0.000319108711394746
0.000319204747334551
0.000319235943076229
0.000319245508481309
0.000319248276692218
0.000319249024090565
0.000319249198562496
0.0003192492189484
0.000319249202923899
0.000319249180570017
0.000319249158205146
0.00031924913743647
0.00031924911859296
0.000319249101721178
0.000319249086812624
0.000319249073872269
0.000319249062905103
0.000319249053843487
0.000319249046242874
0.000319249038200476
0.000319249022008937
0.000319248967016351
0.000319248757134073
0.000319247972386648
0.000319245163277794
0.00031923557758297
0.000319204495412486
0.000319109113690307
0.000318833467176255
0.00031808747204501
0.000316208471151179
0.000311832588165163
0.00030247299220739
0.000284202017285745
0.000251828227103198
0.000199990670386902
0.00012522835610249
2.69948275634e-05
9.35536782480291e-07
9.31688262650847e-07
2.7069498129081e-05
0.00012603687848178
0.000201494216049045
0.000253906785717965
0.00028671201116819
0.000305269599289027
0.000314796993287228
0.000319259752770982
0.000321178790800198
0.000321941323447856
0.000322223125336593
0.000322320573064965
0.00032235227204586
0.000322362009889221
0.000322364836447249
0.000322365604404958
0.000322365788077484
0.000322365813586466
0.000322365800726859
0.000322365780787445
0.000322365760362723
0.000322365741150758
0.000322365723520835
0.000322365707538707
0.000322365693201805
0.000322365680508099
0.000322365669444039
0.000322365659924301
0.00032236565149795
0.000322365642245551
0.000322365624346187
0.000322365566909776
0.000322365353052769
0.000322364559792532
0.000322361726713064
0.00032235206414023
0.000322320731277281
0.000322224560471503
0.000321946569070582
0.000321194071127879
0.000319298377658825
0.000314883101335212
0.000305438527850492
0.000287000679848869
0.000254329056460572
0.000202007539006304
0.00012652516166322
2.72726887244114e-05
9.44528077174665e-07
9.37401426207915e-07
2.72468740552234e-05
0.000126873633930023
0.000202805162340336
0.000255544890248739
0.000288558960635436
0.000307239462190591
0.000316833498035892
0.00032132959790021
0.000323264080755273
0.00032403326972283
0.000324317755147094
0.00032441622133327
0.0003244482872237
0.000324458152311943
0.000324461022579479
0.000324461806158907
0.00032446199694464
0.000324462026706954
0.000324462016568755
0.000324461998663901
0.000324461979891977
0.000324461962029131
0.000324461945476841
0.00032446193031632
0.000324461916550512
0.000324461904174105
0.000324461893162208
0.000324461883415578
0.000324461874473226
0.00032446186439856
0.000324461845302273
0.000324461786130085
0.000324461569467888
0.00032446077035562
0.000324457921183502
0.00032444820749878
0.000324416708195977
0.00032432001269259
0.000324040458674601
0.000323283618528682
0.000321376760415989
0.000316935103774706
0.000307433573138793
0.000288883801310223
0.000256012289469176
0.000203365679246998
0.000127398874140943
2.74588001862714e-05
9.50500274453109e-07
9.41051319487658e-07
2.73612121815104e-05
0.000127418061261083
0.000203660837862504
0.00025661674426499
0.000289769783224453
0.000308532682329319
0.000318171746990809
0.000322690563735152
0.000324635663255412
0.000325409470088948
0.000325695835188093
0.00032579502193992
0.000325827350212243
0.000325837307402715
0.000325840209798354
0.000325841005112401
0.000325841201349538
0.000325841234486398
0.000325841226577193
0.00032584121035308
0.00032584119296958
0.000325841176263316
0.000325841160660515
0.000325841146253952
0.000325841133051355
0.000325841121046102
0.00032584111020642
0.000325841100422954
0.000325841091224906
0.000325841080660894
0.00032584106079891
0.000325841000476604
0.000325840781934863
0.000325839978942614
0.000325837119259874
0.00032582737241727
0.000325795765197766
0.000325698728879024
0.000325418157567438
0.000324658484666594
0.000322744330442504
0.000318285410838599
0.000308746568424376
0.000290123410942667
0.0002571207174667
0.000204260506708028
0.000127974842242188
2.75807557552174e-05
9.54381676014872e-07
9.43330607198278e-07
2.74332581650651e-05
0.000127764468227002
0.000204207219799888
0.000257303031557691
0.00029054667934657
0.000309363721766152
0.000319032617925028
0.000323566614641106
0.000325518872670256
0.000326295822530245
0.000326583479490725
0.000326683166522488
0.000326715678946872
0.000326725701582925
0.000326728627177864
0.000326729431203698
0.000326729631608158
0.000326729667358291
0.000326729661222727
0.000326729646371424
0.000326729630149959
0.000326729614435094
0.000326729599670736
0.000326729585957824
0.000326729573307962
0.000326729561714109
0.000326729551140533
0.000326729541470673
0.000326729532225804
0.0003267295214428
0.000326729501162657
0.000326729440154234
0.00032672922044004
0.000326728414991036
0.000326725548654941
0.000326715780844235
0.000326684105290094
0.000326586852640215
0.000326305633982089
0.000325544154459952
0.000323625338427644
0.000319155372075476
0.000309592623353263
0.000290922392679634
0.000257835452080452
0.000204837860234808
0.000128346689100994
2.76590187609762e-05
9.56852494822206e-07
9.44723317227575e-07
2.74776764541016e-05
0.000127980197228463
0.000204548804033889
0.000257733355311557
0.000291034928705753
0.000309886866768154
0.000319575152927582
0.00032411910397737
0.000326076099615921
0.000326855149508004
0.000327143678194105
0.000327243706297249
0.000327276345665659
0.000327286414003066
0.000327289356083952
0.000327290166495776
0.000327290370068556
0.000327290407862403
0.000327290403126296
0.000327290389406
0.000327290374166545
0.000327290359311998
0.000327290345298344
0.000327290332231769
0.000327290320126643
0.000327290308976229
0.000327290298742529
0.000327290289304186
0.000327290280176259
0.00032729026938714
0.000327290248960666
0.000327290187623144
0.000327289967263069
0.000327289160362785
0.000327286289981102
0.000327276509283495
0.000327244791505747
0.000327147404672969
0.000326865783240072
0.000326103176781118
0.000324181446718945
0.000319704563236199
0.000310126822711215
0.000291427030596292
0.000258287104860921
0.000205202955610026
0.000128581995097085
2.77082497187987e-05
9.58394557315433e-07
9.45556507066661e-07
2.75044875908332e-05
0.000128111764427462
0.00020475799883425
0.000257997743617029
0.000291335645978015
0.000310209655917564
0.000319910314461629
0.000324460675161578
0.000326420750207129
0.000327201178415421
0.000327490285003034
0.000327590541594206
0.00032762326697956
0.000327633366716856
0.000327636320350884
0.000327637135381419
0.000327637341336279
0.000327637380727841
0.000327637377167007
0.000327637364400069
0.000327637350005533
0.000327637335911419
0.000327637322581848
0.000327637310126044
0.000327637298560175
0.000327637287878244
0.000327637278041071
0.000327637268924154
0.000327637260038102
0.000327637249405177
0.000327637229038724
0.000327637167639644
0.000327636947017171
0.000327636139363508
0.00032763326666759
0.00032762347833148
0.000327591735175066
0.000327494267124116
0.000327212400800242
0.00032644910688086
0.000324525594568491
0.000320044471496355
0.000310457525355444
0.000291739549621389
0.000258566972563159
0.0002054293699698
0.000128728040391866
2.77386278023925e-05
9.5933883318028e-07
9.46044394305771e-07
2.75203268944757e-05
0.000128190318094344
0.000204883469623387
0.000258156875375368
0.000291517131480336
0.000310404844822005
0.000320113255525527
0.000324667670330752
0.00032662971208355
0.000327411029361205
0.000327700512545201
0.000327800919634633
0.000327833702355542
0.000327843823346442
0.000327846784986751
0.000327847603333054
0.000327847811065738
0.000327847851742802
0.000327847849194846
0.000327847837250303
0.000327847823600146
0.000327847810193994
0.000327847797501486
0.000327847785632601
0.000327847774604692
0.0003278477644129
0.0003278477550177
0.000327847746292565
0.000327847737744895
0.00032784772739282
0.000327847707243482
0.000327847645983516
0.000327847425378233
0.000327846617455891
0.000327843743589146
0.000327833950982166
0.000327802193139354
0.000327704677391047
0.000327422666083504
0.000326658962997201
0.000324734385783817
0.000320250721808846
0.000310658244377278
0.000291929317442231
0.000258737030182941
0.000205567076935271
0.000128816954374047
2.77570191563924e-05
9.59906319019426e-07
9.46323130862854e-07
2.75294563622119e-05
0.000128236094376102
0.000204956964017513
0.000258250460318572
0.000291624190533433
0.000310520245186149
0.000320233421550041
0.000324790353803071
0.000326753629437227
0.000327535510307983
0.00032782523475062
0.000327925739322914
0.0003279585596505
0.000327968694823447
0.000327971661960197
0.000327972482683003
0.000327972691751656
0.000327972733475925
0.000327972731803294
0.00032797272057867
0.000327972707596083
0.000327972694823206
0.000327972682732903
0.000327972671433881
0.000327972660944199
0.000327972651260529
0.000327972642343552
0.000327972634065544
0.000327972625931648
0.00032797261595728
0.000327972596146139
0.00032797253517832
0.000327972314798155
0.000327971506950933
0.000327968632679668
0.00032795883797343
0.000327927072212216
0.000327829529814242
0.000327547436028867
0.000326783497591369
0.00032485830317304
0.000320373158192039
0.000310777442412011
0.000292042079963067
0.000258838170184776
0.000205649074586606
0.000128869967643064
2.77679291656989e-05
9.60240664926022e-07
9.46476501399345e-07
2.75345253468148e-05
0.000128261817007567
0.000204998536637252
0.000258303671950907
0.000291685303911261
0.000310586308483739
0.000320302346171005
0.000324860807656294
0.000326824841793943
0.000327607073080414
0.000327896949230124
0.000327997515821226
0.000328030360396084
0.000328040504890337
0.000328043475763445
0.000328044298187783
0.000328044508266353
0.000328044550845371
0.000328044549927983
0.000328044539337826
0.000328044526960396
0.000328044514776977
0.000328044503261475
0.000328044492519663
0.000328044482569958
0.000328044473410947
0.000328044465003986
0.00032804445722059
0.000328044449564326
0.000328044440048875
0.00032804442067649
0.000328044360126152
0.000328044140137397
0.000328043332627297
0.000328040458498037
0.00032803066315734
0.000327998893891835
0.000327901338306408
0.000327619201544519
0.000326855136736291
0.000324929604305508
0.00032044363686972
0.000310846104023462
0.000292107101331846
0.000258896573342383
0.000205696512491208
0.000128900703074632
2.77742310291947e-05
9.60432715141253e-07
9.46553845707789e-07
2.75371089453898e-05
0.000128275137368064
0.000205020314542334
0.00025833179894216
0.000291717825915832
0.000310621634176993
0.000320339320915918
0.000324898678605607
0.000326863164938237
0.00032764560810204
0.000327935577236908
0.000328036182360302
0.000328069042224294
0.000328079192720076
0.00032808216609016
0.000328082989718293
0.000328083200552746
0.000328083243821401
0.000328083243547338
0.000328083233511338
0.000328083221680132
0.000328083210044103
0.000328083199075954
0.000328083188877534
0.000328083179467856
0.000328083170847312
0.000328083162978129
0.000328083155731274
0.000328083148609195
0.000328083139624474
0.000328083120779572
0.000328083060756476
0.000328082841303347
0.000328082034351326
0.000328079160801177
0.000328069365930498
0.00032803759632673
0.000327940036851672
0.000327657883632401
0.000326893764066362
0.000324968074133292
0.000320481704853426
0.000310883254490706
0.000292142369101317
0.000258928355133169
0.000205722433360068
0.000128917579261166
2.77776926728882e-05
9.60538044574218e-07
9.46581785647659e-07
2.75380645051275e-05
0.000128280269446173
0.000205029027085307
0.000258343377080617
0.000291731496252482
0.000310636702370451
0.000320355245476841
0.000324915085851672
0.000326879825078398
0.000327662389672383
0.000327952413483256
0.000328053041911123
0.000328085911363825
0.000328096065855788
0.000328099041072815
0.000328099865729479
0.000328100077287627
0.000328100121249237
0.000328100121637181
0.000328100112179368
0.000328100100917958
0.000328100089848751
0.000328100079442106
0.000328100069797019
0.000328100060933895
0.000328100052854541
0.00032810004552157
0.000328100038804979
0.000328100032205691
0.000328100023734657
0.000328100005394638
0.000328099945873624
0.000328099726939774
0.0003280989205775
0.000328096047812411
0.000328086254181377
0.000328054486711658
0.000327956930677089
0.000327674781404427
0.000326910660442192
0.000324984943467423
0.000320498468502337
0.000310899720751349
0.00029215814416855
0.000258942739534465
0.000205734333032627
0.000128925457351621
2.77793356874992e-05
9.60588655348866e-07
9.46570634438088e-07
2.75377304425113e-05
0.000128278960180016
0.000205027549104667
0.000258342123156682
0.000291730613540478
0.00031063618199051
0.000320355005994607
0.000324915032863304
0.000326879881856245
0.000327662504630613
0.000327952557060453
0.00032805319875105
0.000328086074251168
0.000328096231673566
0.000328099208553203
0.000328100034344242
0.000328100246798727
0.00032810029161682
0.000328100292811799
0.000328100284056586
0.000328100273466643
0.000328100263040877
0.00032810025324692
0.000328100244184371
0.000328100235875646
0.000328100228323322
0.000328100221489382
0.000328100215241859
0.000328100209078731
0.000328100201007596
0.000328100183030635
0.000328100123843737
0.000328099905248133
0.000328099099327313
0.000328096227377839
0.000328086435627341
0.000328054672736364
0.000327957127509902
0.00032767500214303
0.000326910929918861
0.000324985303383751
0.000320498979044101
0.000310900452128855
0.000292159150937706
0.000258944014117436
0.000205735740600399
0.000128926664128997
2.7779658099791e-05
9.60600425675342e-07
9.46517800636753e-07
2.75360366701506e-05
0.000128270961620159
0.000205015614325374
0.000258327823141765
0.000291715038327407
0.000310620004624376
0.000320338589246518
0.000324898543190607
0.000326863380017341
0.000327646009378945
0.000327936069600472
0.000328036716654408
0.000328069595390761
0.000328079754820926
0.000328082733105347
0.000328083560000501
0.000328083773382467
0.000328083819090074
0.000328083821123716
0.000328083813099137
0.000328083803204288
0.000328083793438287
0.000328083784265178
0.000328083775787838
0.00032808376803087
0.000328083760996644
0.00032808375464613
0.000328083748844674
0.000328083743086443
0.000328083735374913
0.000328083717712073
0.000328083658807383
0.000328083440515975
0.000328082635088295
0.000328079764296914
0.000328069975644179
0.000328038220986412
0.000327940696597658
0.000327658620847394
0.000326894659198733
0.000324969262409925
0.000320483381472527
0.000310885646799886
0.00029214565256257
0.000258932502512488
0.000205727006633678
0.000128921487245142
2.77787310868601e-05
9.60575621823907e-07
9.46408509614806e-07
2.7532511355572e-05
0.000128254006818438
0.000204989769498311
0.00025829628474226
0.000291680157552847
0.000310583343199098
0.000320301072679174
0.000324860658200962
0.000326825352967134
0.000327607934798549
0.000327897981828425
0.000327998626528128
0.000328031505754242
0.000328041666209081
0.000328044645518281
0.000328045473348456
0.00032804568755512
0.000328045734068456
0.000328045736872414
0.000328045729520828
0.00032804572027508
0.00032804571113189
0.00032804570255027
0.000328045694637283
0.000328045687419474
0.000328045680898974
0.000328045675035586
0.000328045669692067
0.000328045664358425
0.000328045657034155
0.000328045639723624
0.00032804558115982
0.000328045363285198
0.000328044558620578
0.000328041689720726
0.000328031906224477
0.00032800016547072
0.000327902676911711
0.000327620688410088
0.000326856926404941
0.000324931957000377
0.000320446928458808
0.000310850771610739
0.000292113479632111
0.000258904603288706
0.000205705344664766
0.00012890822670062
2.77762321754267e-05
9.60505601792631e-07
9.46210391934521e-07
2.75261359250403e-05
0.000128223290293165
0.000204942626450864