/*--------------------------------*- C++ -*----------------------------------*\
  =========                 |
  \\      /  F ield         | OpenFOAM: The Open Source CFD Toolbox
   \\    /   O peration     | Website:  https://openfoam.org
    \\  /    A nd           | Version:  10
     \\/     M anipulation  |
\*---------------------------------------------------------------------------*/
FoamFile
{
    format      ascii;
    class       volScalarField;
    location    "3.8";
    object      nut;
}
// * * * * * * * * * * * * * * * * * * * * * * * * * * * * * * * * * * * * * //

dimensions      [0 2 -1 0 0 0 0];

internalField   nonuniform List<scalar> 
2500
(
1.63170670750878e-14
3.14924873294613e-13
1.31288997407012e-12
2.17821409546537e-12
2.80345076861925e-12
3.1974369849037e-12
3.41680605764878e-12
3.52594349970554e-12
3.57496893673835e-12
3.59504545714363e-12
3.60260543174349e-12
3.60524275949781e-12
3.60610018835557e-12
3.60636075752852e-12
3.6064344088664e-12
3.60645314763831e-12
3.60645669972105e-12
3.60645640198454e-12
3.60645539253399e-12
3.60645434040408e-12
3.60645339784763e-12
3.60645258781189e-12
3.60645190668295e-12
3.60645134694995e-12
3.6064509093609e-12
3.60645060136916e-12
3.60645045095429e-12
3.60645045319437e-12
3.60645050644525e-12
3.60645061923302e-12
3.60645085210106e-12
3.60645114651763e-12
3.60645123833077e-12
3.60644980817393e-12
3.60644193056891e-12
3.60641132716538e-12
3.60630484319273e-12
3.60595760111141e-12
3.60488854586485e-12
3.60178527783061e-12
3.59332774929359e-12
3.5718135039999e-12
3.52109097551077e-12
3.41116098565982e-12
3.19416587451682e-12
2.80802793450062e-12
2.19539461213375e-12
1.33953162399903e-12
3.28775256539998e-13
1.7610830459368e-14
1.59435128407518e-12
8.08053498574968e-11
3.44307710642293e-10
5.72654970034875e-10
7.39016413672469e-10
8.45009344316555e-10
9.047726468948e-10
9.34906803002567e-10
9.48630493837292e-10
9.54328047777457e-10
9.56502515393245e-10
9.57271041532758e-10
9.57524081639286e-10
9.57601953338453e-10
9.57624270897797e-10
9.57630067661098e-10
9.57631239074949e-10
9.57631210450669e-10
9.57630950212341e-10
9.57630669448962e-10
9.57630416120481e-10
9.57630198298586e-10
9.57630015265375e-10
9.5762986502589e-10
9.57629747503861e-10
9.57629665089107e-10
9.57629624476282e-10
9.57629623948416e-10
9.57629638642067e-10
9.57629669342828e-10
9.5762973256555e-10
9.57629808801252e-10
9.57629813327046e-10
9.57629337905436e-10
9.57626903640398e-10
9.57617668651476e-10
9.57585910308618e-10
9.57483414507879e-10
9.57171127407939e-10
9.56274323182028e-10
9.53857515371202e-10
9.47781119523266e-10
9.33627080262338e-10
9.03325270680596e-10
8.44236326125489e-10
7.4031182796596e-10
5.77163579388672e-10
3.51142299394295e-10
8.42425651987572e-11
1.71366698209503e-12
5.5891234728955e-12
1.43499373800339e-09
4.77822281740174e-07
7.90849921102239e-07
1.01717349847819e-06
1.1613687052297e-06
1.24305954362736e-06
1.28457709570926e-06
1.30367079195774e-06
1.31168347963241e-06
1.31477591645871e-06
1.31588133770211e-06
1.31624947843547e-06
1.31636411245098e-06
1.31639740858317e-06
1.31640623606105e-06
1.31640812641882e-06
1.31640818047498e-06
1.31640786398936e-06
1.31640750340481e-06
1.31640717405409e-06
1.31640688976758e-06
1.3164066504929e-06
1.31640645394167e-06
1.3164062998043e-06
1.31640619114419e-06
1.31640613476447e-06
1.31640613138682e-06
1.31640615341734e-06
1.31640618871768e-06
1.31640626786024e-06
1.31640635795914e-06
1.31640633146322e-06
1.31640557934242e-06
1.31640195585392e-06
1.31638845546307e-06
1.31634242385496e-06
1.31619492079966e-06
1.31574863597592e-06
1.31447622768784e-06
1.31107286795315e-06
1.30258220747182e-06
1.28295788743406e-06
1.24125289643758e-06
1.16042551874727e-06
1.01880109127044e-06
7.96438581194024e-07
4.86295547559273e-07
1.48886181058406e-09
5.92916233219939e-12
9.77710034261885e-12
2.52810649216687e-09
8.39661116210554e-07
1.3790826698156e-06
1.76502629091116e-06
2.00956155724466e-06
2.14784634106776e-06
2.21818127691596e-06
2.25060851731953e-06
2.26426557575092e-06
2.26955924457694e-06
2.2714607299651e-06
2.27209736973506e-06
2.27229679081044e-06
2.27235513368616e-06
2.27237078270095e-06
2.27237423431561e-06
2.27237442566301e-06
2.27237394172143e-06
2.2723733665303e-06
2.27237283584584e-06
2.27237237587814e-06
2.27237198774704e-06
2.27237166825173e-06
2.27237141646137e-06
2.27237123671445e-06
2.27237113847252e-06
2.27237112615633e-06
2.27237115626726e-06
2.27237121290341e-06
2.27237133479618e-06
2.27237147135266e-06
2.27237141274484e-06
2.27237013354079e-06
2.27236408330457e-06
2.27234154849178e-06
2.27226455774629e-06
2.27201724002754e-06
2.27126717102777e-06
2.26912410457817e-06
2.26338175149221e-06
2.24903513932101e-06
2.2158361210592e-06
2.14519571848147e-06
2.00804760531625e-06
1.76699397297892e-06
1.38644877906668e-06
8.50977458557176e-07
2.60005600707057e-09
1.02266391869747e-11
1.37078344446869e-11
3.54774289870965e-09
1.17048078913604e-06
1.91005773037205e-06
2.43496393217842e-06
2.76617297577575e-06
2.95324099636946e-06
3.04846453470558e-06
3.09246228386937e-06
3.11105032979483e-06
3.11828274143226e-06
3.12089191112473e-06
3.12176973418098e-06
3.12204622306466e-06
3.12212767171768e-06
3.12214976689757e-06
3.12215478471549e-06
3.12215519741254e-06
3.12215462520895e-06
3.12215390594461e-06
3.12215323361646e-06
3.12215264770842e-06
3.12215215145426e-06
3.12215174146943e-06
3.12215141618562e-06
3.12215117989458e-06
3.1221510430412e-06
3.12215101302015e-06
3.12215104101745e-06
3.12215111334489e-06
3.12215125756857e-06
3.12215141334314e-06
3.12215129884706e-06
3.12214954882805e-06
3.12214147143118e-06
3.12211142816737e-06
3.12200861171686e-06
3.12167753639088e-06
3.1206709802648e-06
3.11778859954143e-06
3.11005012638166e-06
3.09068481306054e-06
3.04581080745683e-06
2.95020595973984e-06
2.76429984235822e-06
2.43675551653972e-06
1.9175577827222e-06
1.18221707405662e-06
3.62425262227849e-09
1.41972887980204e-11
1.72166862108512e-11
4.45958667327925e-09
1.46251228774887e-06
2.37400438043066e-06
3.01691529901126e-06
3.42136233161457e-06
3.64963730708235e-06
3.76594519357621e-06
3.81979582471857e-06
3.84261164869075e-06
3.85151982068831e-06
3.8547462974915e-06
3.85583665828265e-06
3.85618185867207e-06
3.85628421474208e-06
3.856312281881e-06
3.85631884341421e-06
3.85631955835822e-06
3.85631896938678e-06
3.85631817432979e-06
3.85631741881499e-06
3.85631675570669e-06
3.85631619124522e-06
3.85631572238515e-06
3.85631534727704e-06
3.85631506942772e-06
3.85631489907277e-06
3.85631484319477e-06
3.85631486082619e-06
3.85631493888068e-06
3.85631508428256e-06
3.85631523223491e-06
3.85631503305272e-06
3.85631285135537e-06
3.85630307996432e-06
3.8562668528535e-06
3.85614275960019e-06
3.85574239451982e-06
3.85452262238869e-06
3.85102280807e-06
3.84161057840682e-06
3.81802323377633e-06
3.7633022409266e-06
3.64659787217448e-06
3.41939669469742e-06
3.01838648775433e-06
2.38082734811589e-06
1.47338255381958e-06
4.5332345050158e-09
1.77060442698969e-11
2.02280000307464e-11
5.24530425842325e-09
1.71204315280728e-06
2.76731423635997e-06
3.50812689771522e-06
3.97317098042165e-06
4.23557468019902e-06
4.36940840065032e-06
4.43149410202606e-06
4.45786796364196e-06
4.46819775838283e-06
4.47195263538744e-06
4.47322674320922e-06
4.47363202930399e-06
4.47375293497939e-06
4.47378641631018e-06
4.47379447293566e-06
4.47379556405419e-06
4.47379500489134e-06
4.47379419244765e-06
4.47379340455368e-06
4.4737927070326e-06
4.47379210943638e-06
4.47379160956136e-06
4.47379120552605e-06
4.47379089980963e-06
4.47379070205874e-06
4.47379061646522e-06
4.47379061681603e-06
4.47379068739426e-06
4.4737908140802e-06
4.47379093495463e-06
4.47379062738609e-06
4.47378804182223e-06
4.47377686524476e-06
4.47373561389293e-06
4.47359427109423e-06
4.47313756325804e-06
4.4717436980383e-06
4.4677377014838e-06
4.45694849546383e-06
4.42987809151778e-06
4.3670169871191e-06
4.2328450111106e-06
3.97141467955852e-06
3.50940723397502e-06
2.77326345502826e-06
1.72156716071946e-06
5.31280065681829e-09
2.06970050096818e-11
2.27215041891202e-11
5.89936558900753e-09
1.91875607138595e-06
3.09124527577663e-06
3.91145820171847e-06
4.4256041005226e-06
4.71572022391489e-06
4.86384497700448e-06
4.93268472003671e-06
4.96199719181788e-06
4.97351050642137e-06
4.97770918805534e-06
4.97913914121004e-06
4.97959596222227e-06
4.97973300454956e-06
4.9797712919058e-06
4.97978074709495e-06
4.9797822369954e-06
4.97978177800671e-06
4.97978099456929e-06
4.97978021451788e-06
4.97977951656928e-06
4.97977891387598e-06
4.97977840539271e-06
4.97977798936272e-06
4.97977766719986e-06
4.97977744622376e-06
4.97977733009212e-06
4.97977730851317e-06
4.97977735548701e-06
4.97977745151919e-06
4.97977752342971e-06
4.97977708000555e-06
4.9797741347933e-06
4.97976181100759e-06
4.97971654310234e-06
4.97956146357978e-06
4.97905979384501e-06
4.97752650451906e-06
4.97311365993491e-06
4.9612142431836e-06
4.93132876704761e-06
4.86187762298048e-06
4.71354956370498e-06
4.42436039471549e-06
3.91284403296679e-06
3.09652956931517e-06
1.92699544883702e-06
5.96022962657223e-09
2.31636588028646e-11
2.47175166216192e-11
6.42619271427423e-09
2.08494186775239e-06
3.35062526217756e-06
4.23378508524257e-06
4.78688179551696e-06
5.09904749116024e-06
5.25859714799889e-06
5.33286928309833e-06
5.36456222578435e-06
5.37704196633413e-06
5.38160624388768e-06
5.38316582508641e-06
5.38366598546891e-06
5.3838167872431e-06
5.38385925737842e-06
5.3838699822733e-06
5.38387188034867e-06
5.38387155848454e-06
5.38387083633262e-06
5.38387009285556e-06
5.38386941901296e-06
5.38386883164521e-06
5.38386833106733e-06
5.38386791580044e-06
5.38386758639515e-06
5.38386734758059e-06
5.38386720481198e-06
5.38386715227386e-06
5.38386716693981e-06
5.38386722328713e-06
5.38386722902876e-06
5.38386664407185e-06
5.38386338437621e-06
5.38385013373618e-06
5.38380171186128e-06
5.38363590361657e-06
5.38309907331538e-06
5.38145641565076e-06
5.37672338649772e-06
5.36394778695388e-06
5.33183588612645e-06
5.25716534798324e-06
5.09761699148387e-06
4.78641868095217e-06
4.23563551641841e-06
3.35566614943712e-06
2.09226939901162e-06
6.48164827550164e-09
2.51351479297267e-11
2.62642413958522e-11
6.83727371436986e-09
2.21469611275352e-06
3.55264440457242e-06
4.48457195736029e-06
5.06790209929662e-06
5.39724770299564e-06
5.5657458463633e-06
5.64430007399018e-06
5.67788316286474e-06
5.69113648878687e-06
5.69599599751984e-06
5.69766126825069e-06
5.69819715010682e-06
5.69835944677223e-06
5.69840548484521e-06
5.69841733600926e-06
5.69841962409774e-06
5.69841945502167e-06
5.6984188136262e-06
5.69841812473906e-06
5.69841749071418e-06
5.69841693204593e-06
5.69841645045032e-06
5.6984160448569e-06
5.69841571528884e-06
5.6984154646676e-06
5.69841529741677e-06
5.69841521060085e-06
5.69841518999337e-06
5.69841520083822e-06
5.69841513036904e-06
5.69841440889062e-06
5.69841088381451e-06
5.69839689702094e-06
5.698346045858e-06
5.69817203110611e-06
5.69760829242145e-06
5.69588171097765e-06
5.69090226038551e-06
5.67745059866658e-06
5.64361747561915e-06
5.56490692918169e-06
5.39666856752369e-06
5.06842231388771e-06
4.48722293279266e-06
3.55791763312865e-06
2.22160590485839e-06
6.88933249334032e-09
2.66642757302273e-11
2.74259188998896e-11
7.14834478176751e-09
2.31315294093721e-06
3.70575802258531e-06
4.67459978133119e-06
5.28088215537539e-06
5.6233289024826e-06
5.79869002394423e-06
5.88055037015865e-06
5.91560377718131e-06
5.92946381690137e-06
5.93455693162966e-06
5.93630663732299e-06
5.93687136521742e-06
5.93704306689959e-06
5.93709208198689e-06
5.93710490231227e-06
5.93710754718436e-06
5.93710753624687e-06
5.93710698423611e-06
5.93710635877437e-06
5.93710577271092e-06
5.93710525000266e-06
5.9371047937473e-06
5.93710440337281e-06
5.93710407863989e-06
5.93710382121307e-06
5.93710363386321e-06
5.93710351566405e-06
5.93710345602876e-06
5.93710341588921e-06
5.93710326850262e-06
5.93710242453498e-06
5.93709868579423e-06
5.93708412600961e-06
5.93703144147995e-06
5.93685128600164e-06
5.93626741620264e-06
5.93447790304721e-06
5.92931316764774e-06
5.91535196769542e-06
5.88021928338157e-06
5.79845504832838e-06
5.62364497053135e-06
5.28250585563077e-06
4.67830592693581e-06
3.71168169115621e-06
2.3201224969645e-06
7.19911836830371e-09
2.78166060531597e-11
2.82725621249412e-11
7.37686968924016e-09
2.38581066640446e-06
3.81874397012657e-06
4.81488269358581e-06
5.43820315186305e-06
5.7904250650096e-06
5.97093833364491e-06
6.05529801992838e-06
6.09147155025438e-06
6.10579767289619e-06
6.11107185877919e-06
6.11288764417077e-06
6.11347518940946e-06
6.11365442634916e-06
6.11370587035963e-06
6.11371950243747e-06
6.1137224626095e-06
6.11372260385617e-06
6.11372214078094e-06
6.11372158043791e-06
6.11372104458907e-06
6.11372056034341e-06
6.1137201320978e-06
6.11371975981005e-06
6.11371944316847e-06
6.11371918302889e-06
6.11371898093007e-06
6.11371883620767e-06
6.11371873938963e-06
6.11371865271518e-06
6.11371843466995e-06
6.1137174910281e-06
6.1137135758833e-06
6.11369857856261e-06
6.11364453971233e-06
6.11345989306201e-06
6.1128613116251e-06
6.11102571616756e-06
6.105724963633e-06
6.09138888183696e-06
6.055298477763e-06
5.97128143710126e-06
5.79162084413135e-06
5.44096510088569e-06
4.81978943579463e-06
3.82561579406805e-06
2.39321783325924e-06
7.42813440366482e-09
2.86613169468207e-11
2.88720627622947e-11
7.54003860374114e-09
2.43799951079236e-06
3.89996953900847e-06
4.91582917586874e-06
5.55151634608803e-06
5.91087365283294e-06
6.09517237254773e-06
6.1813818232161e-06
6.21839096208795e-06
6.23306775427211e-06
6.2384794139591e-06
6.24034585665668e-06
6.24095108059327e-06
6.2411362293998e-06
6.24118961200488e-06
6.24120390659828e-06
6.24120713722869e-06
6.2412074174839e-06
6.2412070353641e-06
6.24120653681898e-06
6.24120604933167e-06
6.24120560272885e-06
6.24120520256333e-06
6.24120484930472e-06
6.24120454268334e-06
6.24120428307003e-06
6.24120407113667e-06
6.24120390593487e-06
6.24120377854772e-06
6.24120365143453e-06
6.24120337569356e-06
6.24120234981887e-06
6.24119829472019e-06
6.24118297057409e-06
6.24112795347825e-06
6.24094009820124e-06
6.24033101973962e-06
6.23846248569957e-06
6.23306428233356e-06
6.21845904493172e-06
6.1816799173012e-06
6.09604112925321e-06
5.91288691233245e-06
5.55537575708112e-06
4.921971439271e-06
3.90794719960808e-06
2.446088292256e-06
7.59303369195459e-09
2.92643720462787e-11
2.92850118310684e-11
7.65340275049256e-09
2.47451807035013e-06
3.95689810879222e-06
4.98668090524618e-06
5.63114592821211e-06
5.99559924685881e-06
6.18262022744477e-06
6.27017002470047e-06
6.30778961199286e-06
6.32272481988895e-06
6.32823872229992e-06
6.33014320918712e-06
6.33076185134858e-06
6.33095154272056e-06
6.331006439066e-06
6.33102126071687e-06
6.33102472067546e-06
6.33102512495746e-06
6.33102480718582e-06
6.33102436389668e-06
6.33102392038988e-06
6.33102350853739e-06
6.33102313486291e-06
6.3310228002898e-06
6.33102250464948e-06
6.33102224804045e-06
6.33102203056164e-06
6.33102185087166e-06
6.33102170015466e-06
6.33102154067647e-06
6.33102121959272e-06
6.33102012904575e-06
6.33101596688396e-06
6.33100040458224e-06
6.33094469720756e-06
6.33075460348636e-06
6.3301382135684e-06
6.3282467004727e-06
6.3227803597423e-06
6.30798654459205e-06
6.27072411385406e-06
6.18394606211645e-06
5.99833609368443e-06
5.63600473900434e-06
4.99400072296838e-06
3.96601112115779e-06
2.48340108779595e-06
7.70880794576359e-09
2.96841755394845e-11
2.95620677562986e-11
7.73013192977459e-09
2.49943502663706e-06
3.99582811544337e-06
5.03522083146476e-06
5.68578066035929e-06
6.05379585242224e-06
6.2427334292145e-06
6.33123433120711e-06
6.36929073938914e-06
6.38441251042949e-06
6.39000091855357e-06
6.3919334026849e-06
6.39256202460438e-06
6.39275513560651e-06
6.39281118903581e-06
6.3928264184002e-06
6.39283006081624e-06
6.39283056669429e-06
6.39283031168587e-06
6.39282991627823e-06
6.39282951124667e-06
6.39282913026542e-06
6.39282878065772e-06
6.39282846372748e-06
6.39282817942367e-06
6.39282792770604e-06
6.39282770830578e-06
6.39282751953083e-06
6.39282735243864e-06
6.39282716896489e-06
6.39282681401314e-06
6.39282567500259e-06
6.39282143401774e-06
6.3928057028977e-06
6.3927495201593e-06
6.39255790186222e-06
6.39193654043665e-06
6.39002937894851e-06
6.38451653655214e-06
6.36959376357459e-06
6.3320003009493e-06
6.2444410366483e-06
6.05714587196421e-06
5.6915052440728e-06
5.04359487536823e-06
4.00600781433124e-06
2.5091181619505e-06
7.78815627915665e-09
2.99694694023457e-11
2.97433445601518e-11
7.78078452698836e-09
2.51602870874105e-06
4.0218254598277e-06
5.06770603940421e-06
5.72240746530126e-06
6.09286014984337e-06
6.28311929912834e-06
6.37228137325904e-06
6.41064406735842e-06
6.42589783970193e-06
6.43153946495016e-06
6.4334921460931e-06
6.43412804418701e-06
6.43432367857969e-06
6.43438059881146e-06
6.43439613797002e-06
6.43439992144809e-06
6.43440051167403e-06
6.43440031063394e-06
6.43439995557372e-06
6.43439958331883e-06
6.43439922909202e-06
6.43439890085491e-06
6.43439860021802e-06
6.43439832723962e-06
6.43439808181438e-06
6.43439786344859e-06
6.43439767017417e-06
6.43439749284919e-06
6.43439729306908e-06
6.43439691438111e-06
6.43439574094839e-06
6.43439144433385e-06
6.43437559716227e-06
6.43431909529095e-06
6.43412646339545e-06
6.43350180130611e-06
6.4315842345558e-06
6.42604040394856e-06
6.41103152087272e-06
6.37321665254323e-06
6.28513424097864e-06
6.09670956081213e-06
5.72884937509348e-06
5.07697502513127e-06
4.03294106071316e-06
2.52644473800509e-06
7.84130345264779e-09
3.01589653438985e-11
2.98591537817373e-11
7.81343550543602e-09
2.52682519514433e-06
4.03879427602979e-06
5.08896186830314e-06
5.74641916558755e-06
6.1185058677814e-06
6.30965797929711e-06
6.39927054987094e-06
6.43784378218086e-06
6.45318913106889e-06
6.45886803201507e-06
6.46083500264765e-06
6.4614761040209e-06
6.46167356488782e-06
6.46173112225049e-06
6.46174689411787e-06
6.46175078570263e-06
6.46175144284917e-06
6.46175128601228e-06
6.46175096428284e-06
6.46175061956182e-06
6.46175028827121e-06
6.46174997886343e-06
6.46174969317827e-06
6.46174943136893e-06
6.46174919330404e-06
6.46174897835347e-06
6.46174878434854e-06
6.46174860195284e-06
6.46174839246852e-06
6.46174799859601e-06
6.46174680235532e-06
6.46174246846764e-06
6.46172654435248e-06
6.46166983404616e-06
6.46147654460065e-06
6.46084974242816e-06
6.45892541700869e-06
6.45336141256897e-06
6.43829635344841e-06
6.40033679673922e-06
6.31191204524619e-06
6.12274743924746e-06
5.75343195057043e-06
5.09895615175334e-06
4.05068629798193e-06
2.53786670857229e-06
7.87612971456364e-09
3.02821202512212e-11
2.99314740165131e-11
7.83400923563345e-09
2.53369473157794e-06
4.04962947967164e-06
5.10257150970015e-06
5.76182565478317e-06
6.1349860640133e-06
6.32672975927682e-06
6.41664336165614e-06
6.45535855339128e-06
6.47076623124764e-06
6.47647075094952e-06
6.47844764258185e-06
6.47909239585742e-06
6.47929115457022e-06
6.47934917199658e-06
6.47936511662693e-06
6.47936909085374e-06
6.47936979982407e-06
6.47936967816023e-06
6.47936938365498e-06
6.47936906197828e-06
6.47936875034808e-06
6.47936845756747e-06
6.47936818563808e-06
6.47936793479001e-06
6.47936770488359e-06
6.47936749521015e-06
6.47936730345812e-06
6.47936712013392e-06
6.47936690630674e-06
6.47936650414172e-06
6.47936529429465e-06
6.47936093715611e-06
6.47934496432141e-06
6.47928812207372e-06
6.47909441681428e-06
6.47846625951232e-06
6.47653764407542e-06
6.47096080223818e-06
6.45585991636851e-06
6.41780791224435e-06
6.32916409479608e-06
6.13952540732375e-06
5.76927641901704e-06
5.11312993120002e-06
4.06213569833253e-06
2.54524074277093e-06
7.89847881459179e-09
3.03605176866753e-11
2.99756634492152e-11
7.8466934196844e-09
2.53797279251245e-06
4.05640333918278e-06
5.11110513722228e-06
5.77150798903816e-06
6.14536040469766e-06
6.33748861837783e-06
6.42759962293591e-06
6.46640876524151e-06
6.4818580884475e-06
6.48757989519514e-06
6.48956355056305e-06
6.49021082124869e-06
6.49041048625971e-06
6.49046883061728e-06
6.49048490188773e-06
6.49048893894536e-06
6.49048968844452e-06
6.49048959453332e-06
6.49048932245705e-06
6.49048902025456e-06
6.4904887256853e-06
6.49048844779188e-06
6.49048818867998e-06
6.49048794863454e-06
6.49048772752193e-06
6.49048752458854e-06
6.4904873374277e-06
6.49048715642253e-06
6.49048694247406e-06
6.49048653740712e-06
6.49048532103368e-06
6.49048095108678e-06
6.49046494947207e-06
6.49040802699763e-06
6.49021406618262e-06
6.48958507155919e-06
6.48765379518709e-06
6.48206896605636e-06
6.46694573226362e-06
6.42883594092432e-06
6.34005495198479e-06
6.1501189666226e-06
5.77928375426623e-06
5.12208653398989e-06
4.06937580653444e-06
2.54990703443463e-06
7.912537332399e-09
3.04094460020807e-11
3.00020995267753e-11
7.85434959405691e-09
2.5405818414496e-06
4.06055178505096e-06
5.11634810043717e-06
5.77747137627324e-06
6.15176149040024e-06
6.34413505623163e-06
6.43437316838859e-06
6.47324337747204e-06
6.48872003368863e-06
6.49445330065979e-06
6.49644148712421e-06
6.49709046359548e-06
6.49729075129255e-06
6.49734932475897e-06
6.49736548762263e-06
6.49736957191915e-06
6.49737035310255e-06
6.49737028249814e-06
6.49737002932791e-06
6.49736974388097e-06
6.49736946439185e-06
6.49736920006443e-06
6.4973689530647e-06
6.49736872371324e-06
6.49736851189108e-06
6.49736831682117e-06
6.4973681360345e-06
6.49736795982589e-06
6.49736774897487e-06
6.49736734509818e-06
6.49736612750395e-06
6.49736175235349e-06
6.49734573579886e-06
6.49728876743211e-06
6.49709465514247e-06
6.49646515724944e-06
6.49453227028516e-06
6.48894258485306e-06
6.47380571838954e-06
6.43566058414719e-06
6.34679552201037e-06
6.15667698457419e-06
5.78548118164852e-06
5.12763646856161e-06
4.07386573284337e-06
2.55280319792574e-06
7.92121210443763e-09
3.0439406782264e-11
3.00175792960165e-11
7.85887258364902e-09
2.54213957980007e-06
4.06303990129496e-06
5.11950372264048e-06
5.78107028006814e-06
6.15563213756331e-06
6.34815943193196e-06
6.43847793891404e-06
6.47738714884408e-06
6.49288143582485e-06
6.49862217094074e-06
6.50061334188787e-06
6.50126345536462e-06
6.50146416453695e-06
6.50152289677443e-06
6.50153912539266e-06
6.50154324494507e-06
6.50154405162124e-06
6.50154400110318e-06
6.50154376424183e-06
6.50154349355664e-06
6.50154322771047e-06
6.50154297601661e-06
6.50154274065602e-06
6.5015425219728e-06
6.50154231987054e-06
6.50154213356536e-06
6.50154196054805e-06
6.50154179104988e-06
6.50154158576832e-06
6.50154118619719e-06
6.50153997136172e-06
6.50153559655219e-06
6.5015195746697e-06
6.50146258308556e-06
6.50126838610473e-06
6.50063859698031e-06
6.49870476417465e-06
6.49311220370155e-06
6.4779672234016e-06
6.43980097199713e-06
6.35088552329065e-06
6.16065729926966e-06
5.78924433174972e-06
5.13100876104205e-06
4.07659650414587e-06
2.55456639119787e-06
7.92646387159236e-09
3.04574121709222e-11
3.00264228027754e-11
7.86147947117315e-09
2.54304731039173e-06
4.06449727455361e-06
5.12135948709605e-06
5.78319323424785e-06
6.15792049957733e-06
6.35054229727244e-06
6.44091072565241e-06
6.47984440377179e-06
6.49534986700275e-06
6.501095386383e-06
6.50308849046543e-06
6.50373934970463e-06
6.50394034011629e-06
6.50399918135224e-06
6.50401545709849e-06
6.50401960314439e-06
6.50402043058761e-06
6.5040203974281e-06
6.50402017484343e-06
6.50401991739681e-06
6.50401966410906e-06
6.5040194243575e-06
6.50401920029783e-06
6.50401899228815e-06
6.5040188002624e-06
6.5040186234408e-06
6.50401845929043e-06
6.50401829799773e-06
6.50401810020643e-06
6.50401770734203e-06
6.5040164983001e-06
6.50401212795491e-06
6.50399610756244e-06
6.5039391079575e-06
6.50374486935069e-06
6.50311492321088e-06
6.50118056196021e-06
6.49558636599823e-06
6.48043671879854e-06
6.44225822848484e-06
6.35331341200372e-06
6.16302097269455e-06
5.79148039109207e-06
5.13301434944473e-06
4.07822250501112e-06
2.55561763804912e-06
7.92957921988744e-09
3.04680201282784e-11
3.00312884994024e-11
7.86292682222756e-09
2.54355735741937e-06
4.06532160770278e-06
5.12241460918106e-06
5.78440504060312e-06
6.15923045914991e-06
6.35190899530014e-06
6.44230774779398e-06
6.48125646689317e-06
6.49676887885755e-06
6.50251740660672e-06
6.50451174053743e-06
6.50516308060896e-06
6.50536425586669e-06
6.50542317119695e-06
6.50543948068587e-06
6.50544364675931e-06
6.50544449115302e-06
6.5054444729707e-06
6.50544426296813e-06
6.50544401752234e-06
6.50544377592409e-06
6.50544354757137e-06
6.50544333456168e-06
6.50544313726023e-06
6.50544295563895e-06
6.50544278893141e-06
6.50544263458963e-06
6.5054424827688e-06
6.50544229407823e-06
6.50544190991473e-06
6.50544070915181e-06
6.50543634656873e-06
6.505420332862e-06
6.5053633360744e-06
6.50516908489001e-06
6.50453906927096e-06
6.50260444654418e-06
6.49700939844322e-06
6.48185724553327e-06
6.4436720529714e-06
6.35471092843297e-06
6.16438245925676e-06
5.79276969654289e-06
5.13417242429038e-06
4.07916315218597e-06
2.55622709352188e-06
7.93137863779801e-09
3.04741131042733e-11
3.00337419165734e-11
7.8636644312436e-09
2.54382145525566e-06
4.06575339225543e-06
5.12297227824254e-06
5.78504985199787e-06
6.1599308618954e-06
6.35264209596403e-06
6.44305861900862e-06
6.48201630468945e-06
6.49753291803528e-06
6.50328328964018e-06
6.50527838765854e-06
6.50593003091376e-06
6.50613132518311e-06
6.50619029002953e-06
6.50620662339051e-06
6.50621080445376e-06
6.50621166252362e-06
6.50621165709905e-06
6.50621145808591e-06
6.50621122347227e-06
6.50621099272928e-06
6.50621077523107e-06
6.50621057299733e-06
6.5062103864051e-06
6.50621021546209e-06
6.50621005941918e-06
6.50620991571748e-06
6.50620977449001e-06
6.50620959632428e-06
6.50620922262124e-06
6.50620803231402e-06
6.50620368035294e-06
6.50618767771378e-06
6.50613069241175e-06
6.50593645055261e-06
6.50530642823977e-06
6.50337172842178e-06
6.49777635408222e-06
6.4826231156164e-06
6.44443480049988e-06
6.35546570902672e-06
6.16511904893717e-06
5.79346895895008e-06
5.13480257133313e-06
4.07967709544709e-06
2.55656170657781e-06
7.93236698516162e-09
3.04774544671878e-11
3.00346277545181e-11
7.86393712755476e-09
2.54392317143331e-06
4.06592607788202e-06
5.12320176734573e-06
5.78532081635465e-06
6.16022953857968e-06
6.35295775086254e-06
6.44338384396583e-06
6.48234654389646e-06
6.49786556496812e-06
6.50361702072072e-06
6.50561258084416e-06
6.50626441423805e-06
6.50646578775103e-06
6.50652478922278e-06
6.50654114298018e-06
6.5065453383949e-06
6.50654621020673e-06
6.50654621791038e-06
6.50654603036325e-06
6.50654580704918e-06
6.5065455875468e-06
6.50654538118372e-06
6.5065451899231e-06
6.50654501416953e-06
6.50654485395881e-06
6.50654470854945e-06
6.50654457536335e-06
6.50654444450328e-06
6.5065442765244e-06
6.50654391283363e-06
6.50654273248314e-06
6.50653839081991e-06
6.5065223998763e-06
6.50646543014401e-06
6.5062712128726e-06
6.50564123289431e-06
6.50370660134858e-06
6.4981113054015e-06
6.48295803959286e-06
6.44476918908286e-06
6.3557980037951e-06
6.16544545054148e-06
5.7937816619795e-06
5.13508771110194e-06
4.07991298465178e-06
2.55671787857458e-06
7.9328359936997e-09
3.04790596307324e-11
3.00342732473016e-11
7.8638415514612e-09
2.54389714945415e-06
4.06589667545796e-06
5.12317678409999e-06
5.78530317952107e-06
6.16021907860457e-06
6.35295285697318e-06
6.44338264637225e-06
6.48234752218669e-06
6.49786769667874e-06
6.50361971984248e-06
6.50561554293338e-06
6.50626749623863e-06
6.50646892786042e-06
6.50652796230202e-06
6.50654433855484e-06
6.50654855174469e-06
6.50654944054136e-06
6.50654946424928e-06
6.50654929063538e-06
6.50654908063715e-06
6.50654887389479e-06
6.50654867968189e-06
6.50654849997354e-06
6.50654833521419e-06
6.50654818545493e-06
6.50654804994182e-06
6.50654792605772e-06
6.50654780384708e-06
6.50654764379854e-06
6.50654728730751e-06
6.50654611358284e-06
6.50654177862739e-06
6.50652579643852e-06
6.5064688428819e-06
6.50627466290771e-06
6.50564477374461e-06
6.50371035657822e-06
6.49811553483369e-06
6.48296323589364e-06
6.4447761797603e-06
6.35580798354886e-06
6.16545981402005e-06
5.79380149521023e-06
5.13511287034766e-06
4.07994080515348e-06
2.55674175190574e-06
7.93292788299698e-09
3.04794324037272e-11
3.00325961696797e-11
7.86335768840808e-09
2.54373847224755e-06
4.06565990450302e-06
5.12289308412691e-06
5.7849941760395e-06
6.15989812529891e-06
6.35262715209907e-06
6.44305549327198e-06
6.48202012693111e-06
6.49754043170099e-06
6.5032926092505e-06
6.50528853865625e-06
6.50594055612437e-06
6.50614202755756e-06
6.50620108985609e-06
6.50621748800419e-06
6.50622171958682e-06
6.50622262602339e-06
6.50622266636281e-06
6.50622250723807e-06
6.50622231102419e-06
6.50622211736559e-06
6.50622193546468e-06
6.50622176736153e-06
6.50622161354403e-06
6.50622147405911e-06
6.50622134813275e-06
6.50622123309456e-06
6.50622111891336e-06
6.50622096599608e-06
6.50622061573432e-06
6.50621944760607e-06
6.50621511868316e-06
6.50619914627403e-06
6.50614221568474e-06
6.50594809714657e-06
6.50531837127035e-06
6.50338436738002e-06
6.49779052970869e-06
6.48264042393404e-06
6.44445792476413e-06
6.35549852367912e-06
6.16516606943122e-06
5.79353367725908e-06
5.13488446699534e-06
4.07976750911796e-06
2.55663903099761e-06
7.93266297884335e-09
3.04786446940189e-11
3.00291277292376e-11
7.86235079908146e-09
2.54340218402704e-06
4.06514728372966e-06
5.12226753016861e-06
5.78430232443748e-06
6.15917095311414e-06
6.35188301722183e-06
6.44230405016089e-06
6.48126586573279e-06
6.49678522757913e-06
6.50253714339434e-06
6.50453302606791e-06
6.50518505323366e-06
6.50538654498256e-06
6.50544562760212e-06
6.50546204429224e-06
6.50546629222932e-06
6.50546721464426e-06
6.50546727025977e-06
6.50546712448112e-06
6.50546694113954e-06
6.50546675983185e-06
6.50546658966069e-06
6.50546643274919e-06
6.50546628962369e-06
6.50546616032643e-06
6.50546604406018e-06
6.50546593810327e-06
6.50546583234202e-06
6.50546568710444e-06
6.50546534382924e-06
6.50546418246104e-06
6.50545986180344e-06
6.50544390452683e-06
6.50538701144964e-06
6.50519299517395e-06
6.5045635450421e-06
6.50263025173457e-06
6.49703814441631e-06
6.48189199811252e-06
6.4437179752592e-06
6.35477548004219e-06
6.16447431993193e-06
5.79289552465399e-06
5.13433108117086e-06
4.07933783818382e-06
2.55637600321015e-06
7.93194919383897e-09
3.04764222947539e-11
3.00228408580317e-11
7.86053001343508e-09
2.54279298741292e-06