/*--------------------------------*- C++ -*----------------------------------*\
  =========                 |
  \\      /  F ield         | OpenFOAM: The Open Source CFD Toolbox
   \\    /   O peration     | Website:  https://openfoam.org
    \\  /    A nd           | Version:  10
     \\/     M anipulation  |
\*---------------------------------------------------------------------------*/
FoamFile
{
    format      ascii;
    class       volScalarField;
    location    "3.8";
    object      omega;
}
// * * * * * * * * * * * * * * * * * * * * * * * * * * * * * * * * * * * * * //

dimensions      [0 0 -1 0 0 0 0];

internalField   nonuniform List<scalar> 
2500
(
128231.577769193
128246.884023137
128240.910652932
128237.904477282
128236.592212417
128236.045391759
128235.826535178
128235.742675002
128235.711869068
128235.70136095
128235.69722857
128235.695614949
128235.694928889
128235.694308815
128235.693783865
128235.693211191
128235.692927103
128235.692568964
128235.692160851
128235.691881005
128235.691632325
128235.691407335
128235.691216299
128235.691109865
128235.690991674
128235.690873647
128235.690831971
128235.690799291
128235.690788561
128235.690822098
128235.690880519
128235.690992771
128235.691149397
128235.69135051
128235.691565351
128235.691813844
128235.692123214
128235.692453661
128235.693293113
128235.694910722
128235.699138779
128235.710949359
128235.743685719
128235.830840042
128236.054048993
128236.599551757
128237.901820566
128240.908400329
128246.959940668
128231.531860121
31883.712178996
14167.1434633321
14164.3696087981
14162.9073130474
14162.2138837487
14161.9002153366
14161.7649251483
14161.709957499
14161.6890585422
14161.6816384701
14161.6791379808
14161.6783388126
14161.6780951337
14161.6780078197
14161.6779660717
14161.6779353247
14161.6779185081
14161.677899934
14161.6778787652
14161.6778619453
14161.6778448524
14161.6778263144
14161.6778095573
14161.6778009569
14161.6777940661
14161.6777854627
14161.6777824477
14161.677779769
14161.6777747782
14161.6777771848
14161.6777792916
14161.6777795817
14161.6777960357
14161.6778182252
14161.677831081
14161.6778462175
14161.6778825719
14161.6779788903
14161.6782870574
14161.6792327238
14161.6820820039
14161.6902657609
14161.7124636642
14161.7691467627
14161.9055784466
14162.2174772777
14162.905318871
14164.3700393183
14167.1906231044
31883.7384385669
31744.0568848183
3526.00471253359
50.7624441489283
50.756164046884
50.7531923683428
50.7518484451716
50.7512673587805
50.7510300932104
50.7509393233156
50.750906859289
50.7508959263901
50.7508924646214
50.7508914479706
50.750891144262
50.7508910431791
50.7508909958074
50.7508909753004
50.7508909531742
50.7508909242099
50.7508908986121
50.7508908669266
50.7508908253611
50.750890783846
50.7508907621991
50.7508907498866
50.750890731112
50.750890726541
50.7508907213901
50.7508907023415
50.7508907042569
50.7508907039235
50.7508906929104
50.7508907417578
50.7508908075576
50.7508908204262
50.7508908385276
50.7508909579952
50.7508913427895
50.7508926092091
50.7508966313613
50.7509088556227
50.7509440243211
50.7510393169889
50.7512822690901
50.7518664357924
50.7532032189254
50.7561587004244
50.7624733661101
3526.02486007436
31744.3351265456
31642.7353753737
3514.86164030075
50.6044373690645
50.5996083596896
50.5974164471337
50.5964627818114
50.59606241057
50.595902111159
50.5958415219292
50.5958199976641
50.5958127799619
50.5958105102719
50.5958098606756
50.5958096807656
50.5958096327432
50.5958096192672
50.5958096209435
50.5958096212224
50.5958096150328
50.5958096082049
50.5958095960701
50.5958095746359
50.5958095496134
50.5958095351708
50.5958095300211
50.5958095208783
50.5958095190731
50.5958095184096
50.5958095086401
50.5958095079897
50.5958095067361
50.595809493953
50.5958095216325
50.5958095581328
50.5958095608612
50.5958095649924
50.5958096204474
50.5958098444888
50.5958106232008
50.5958131522355
50.5958209611286
50.5958437660813
50.5959065385469
50.5960696532909
50.5964716799457
50.5974225512814
50.5996126041818
50.6044949409537
3514.88399986714
31643.1962675376
31579.8748787231
3508.16894383437
50.5115458122721
50.5085768898721
50.5072798766304
50.5067353521939
50.5065127286209
50.5064250015583
50.5063920909978
50.5063804206007
50.5063765003325
50.5063752684778
50.5063749217695
50.5063748322803
50.5063748184501
50.5063748208585
50.5063748261537
50.5063748301439
50.506374829824
50.5063748295205
50.5063748276141
50.5063748187878
50.5063748056329
50.5063747970548
50.5063747963354
50.5063747951929
50.5063747955674
50.5063747957697
50.5063747919742
50.5063747915574
50.5063747895147
50.5063747780875
50.5063747905746
50.5063748057108
50.5063748045174
50.5063748053029
50.5063748267731
50.5063749327783
50.5063753280604
50.5063766401606
50.5063807341546
50.5063928050909
50.506426386322
50.506514917203
50.5067377619674
50.5072809794894
50.508580933581
50.5115971450861
3508.1872445643
31580.339705677
31545.5803502033
3504.6437359332
50.4635737714824
50.4620152994266
50.4613564241945
50.4610882938705
50.460981189756
50.4609395255591
50.4609239631532
50.4609184369894
50.460916571302
50.460915983404
50.4609158207229
50.4609157836647
50.4609157818804
50.460915785136
50.4609157898171
50.4609157936852
50.4609157953875
50.4609157958461
50.4609157960363
50.4609157936239
50.4609157875681
50.460915783673
50.4609157844606
50.4609157853545
50.4609157859754
50.4609157862751
50.4609157850732
50.4609157846374
50.4609157828152
50.4609157756248
50.4609157805001
50.4609157858642
50.4609157838056
50.46091578358
50.4609157903166
50.4609158337231
50.4609160109947
50.4609166111666
50.4609184968254
50.4609240840509
50.4609397229615
50.4609813747808
50.4610880430152
50.4613550389599
50.4620160129492
50.4636051242529
3504.65573916219
31545.9345975016
31528.7831583039
3502.97877043126
50.4413172811619
50.4405924901444
50.4402944061507
50.4401762978789
50.4401300716234
50.4401122818136
50.440105652336
50.4401032904416
50.4401024877859
50.4401022337128
50.4401021647755
50.4401021510926
50.4401021518491
50.4401021542756
50.4401021572202
50.4401021597072
50.4401021612116
50.4401021616176
50.4401021621185
50.4401021616614
50.4401021591816
50.4401021578262
50.4401021585898
50.4401021593108
50.4401021596889
50.4401021599049
50.4401021594896
50.4401021592138
50.4401021581432
50.4401021543293
50.4401021559008
50.4401021574284
50.4401021561053
50.4401021561359
50.4401021574546
50.4401021729872
50.4401022452988
50.4401024955737
50.4401032850243
50.4401056266248
50.4401121959795
50.4401298068132
50.4401755340822
50.4402926395968
50.4405912373176
50.4413320159612
3502.98541416452
31529.0058164372
31521.2784452183
3502.261667255
50.4318844701499
50.4315785243639
50.4314555859787
50.431407968963
50.431389663558
50.4313826838933
50.4313800857752
50.4313791561109
50.4313788379754
50.4313787367742
50.431378709948
50.431378705363
50.4313787060732
50.431378707427
50.4313787089345
50.4313787102063
50.4313787110509
50.4313787112801
50.4313787116206
50.4313787115991
50.4313787106779
50.4313787103324
50.431378710757
50.4313787110635
50.4313787112036
50.4313787113018
50.4313787110978
50.4313787108665
50.4313787103462
50.431378708586
50.4313787089357
50.4313787091923
50.4313787085834
50.4313787085353
50.4313787084236
50.4313787135457
50.4313787408274
50.4313788378361
50.4313791444547
50.4313800520616
50.4313825962111
50.4313894394255
50.4314073994602
50.4314543006005
50.431576988255
50.4318899946231
3502.26487828206
31521.3994518859
31518.181259211
3501.9763000867
50.4281854815951
50.4280662300402
50.4280192495727
50.4280013996699
50.4279946453455
50.4279920911282
50.4279911408256
50.4279907991694
50.4279906814699
50.4279906438391
50.4279906340448
50.4279906326214
50.4279906330321
50.4279906336561
50.4279906343084
50.4279906348495
50.4279906352177
50.4279906353449
50.4279906354497
50.427990635377
50.4279906351161
50.4279906350851
50.4279906352095
50.4279906352779
50.427990635284
50.4279906352805
50.4279906351479
50.4279906349788
50.4279906347147
50.427990633951
50.4279906339397
50.4279906338677
50.4279906335664
50.4279906334888
50.427990633273
50.4279906347993
50.4279906444258
50.4279906798233
50.4279907917969
50.4279911218161
50.4279920438421
50.4279945256469
50.4280010910673
50.4280185197352
50.4280651293444
50.4281870908076
3501.97768765057
31518.2398321372
31516.9887092744
3501.87029146749
50.4268301122297
50.4267866352649
50.4267697986539
50.4267635048372
50.4267611562298
50.426760274714
50.4267599468426
50.4267598284061
50.4267597873494
50.4267597741581
50.4267597707569
50.4267597703175
50.4267597704883
50.4267597707207
50.426759770949
50.426759771129
50.426759771243
50.426759771271
50.4267597712617
50.4267597711867
50.426759771088
50.4267597710623
50.4267597710582
50.4267597710268
50.4267597709736
50.4267597709167
50.4267597708119
50.4267597706878
50.4267597705332
50.4267597702043
50.426759770102
50.426759769996
50.4267597698386
50.4267597697308
50.4267597695673
50.4267597699573
50.4267597731742
50.4267597854346
50.426759824234
50.4267599379492
50.4267602540412
50.4267611036227
50.426763363425
50.4267694440614
50.4267860183042
50.4268304088711
3501.87083666286
31517.0144812013
31516.5569256426
3501.83323930405
50.4263626373436
50.4263476631851
50.4263419521032
50.4263398462762
50.4263390699844
50.4263387806168
50.4263386730216
50.4263386339755
50.4263386203533
50.4263386159455
50.4263386148085
50.42633861465
50.4263386146745
50.4263386147248
50.4263386147675
50.4263386147897
50.4263386147871
50.4263386147537
50.4263386147056
50.4263386146348
50.4263386145526
50.4263386144912
50.4263386144332
50.4263386143645
50.4263386142886
50.4263386142108
50.4263386141171
50.4263386140164
50.426338613907
50.4263386137455
50.4263386136474
50.4263386135508
50.426338613439
50.4263386133388
50.4263386132247
50.4263386132887
50.4263386142958
50.4263386183317
50.4263386311594
50.4263386685562
50.4263387718871
50.4263390487621
50.4263397876393
50.4263417975481
50.4263473666637
50.4263626097054
3501.83343645061
31516.567387303
31516.4091180641
3501.82099378036
50.4262102253539
50.4262053150858
50.4262034680358
50.4262027948096
50.4262025492349
50.4262024582696
50.4262024244539
50.4262024121204
50.4262024077792
50.4262024063493
50.4262024059571
50.4262024058719
50.4262024058411
50.4262024058158
50.4262024057843
50.4262024057434
50.4262024056926
50.4262024056299
50.4262024055607
50.4262024054831
50.426202405401
50.4262024053237
50.4262024052458
50.4262024051641
50.4262024050804
50.4262024049955
50.4262024049067
50.4262024048166
50.4262024047245
50.426202404619
50.426202404531
50.4262024044448
50.4262024043553
50.4262024042696
50.4262024041833
50.4262024041559
50.426202404432
50.4262024056826
50.4262024097325
50.4262024215204
50.4262024539151
50.4262025403741
50.4262027714432
50.4262034053602
50.4262051868228
50.4262101636707
3501.82105992807
31516.4130801572
31516.3612312863
3501.81717106389
50.4261633809139
50.4261618383455
50.4261612654471
50.4261610586605
50.4261609839015
50.4261609563604
50.4261609461164
50.4261609423507
50.4261609409992
50.426160940529
50.4261609403718
50.4261609403052
50.4261609402523
50.426160940198
50.4261609401391
50.4261609400748
50.4261609400055
50.4261609399309
50.4261609398525
50.4261609397705
50.4261609396863
50.4261609396026
50.4261609395179
50.4261609394321
50.4261609393459
50.4261609392596
50.4261609391729
50.4261609390868
50.4261609390011
50.4261609389132
50.4261609388311
50.4261609387513
50.4261609386721
50.4261609385958
50.4261609385221
50.4261609384692
50.4261609385121
50.4261609388586
50.4261609400659
50.4261609436252
50.4261609533943
50.4261609793805
50.4261610488567
50.4261612406981
50.4261617864467
50.4261633410905
3501.81719172876
31516.362643277
31516.3467179563
3501.81606641533
50.4261501568692
50.426149690296
50.4261495190666
50.4261494577682
50.4261494357663
50.4261494276915
50.4261494246756
50.4261494235454
50.4261494231166
50.4261494229424
50.4261494228566
50.4261494227943
50.4261494227329
50.4261494226684
50.4261494225999
50.4261494225274
50.4261494224516
50.4261494223725
50.4261494222907
50.4261494222068
50.4261494221214
50.4261494220354
50.4261494219487
50.4261494218617
50.4261494217749
50.4261494216885
50.4261494216028
50.4261494215183
50.4261494214351
50.4261494213527
50.4261494212735
50.4261494211967
50.426149421122
50.4261494210502
50.4261494209816
50.4261494209216
50.4261494208926
50.4261494209566
50.426149421278
50.4261494222928
50.4261494251195
50.4261494326502
50.426149452804
50.4261495087479
50.4261496696257
50.4261501365578
3501.81607238447
31516.3471943455
31516.3428462252
3501.81580016971
50.4261471646894
50.4261470282707
50.4261469787618
50.4261469611585
50.4261469548701
50.4261469525598
50.4261469516817
50.4261469513326
50.4261469511779
50.4261469510917
50.4261469510267
50.4261469509652
50.426146950901
50.426146950833
50.4261469507613
50.4261469506862
50.4261469506082
50.4261469505276
50.4261469504447
50.4261469503601
50.4261469502743
50.4261469501876
50.4261469501006
50.4261469500134
50.4261469499266
50.4261469498404
50.4261469497553
50.4261469496715
50.4261469495893
50.4261469495089
50.426146949431
50.4261469493556
50.4261469492828
50.4261469492129
50.4261469491462
50.4261469490845
50.4261469490342
50.426146949013
50.426146949068
50.4261469493228
50.426146950092
50.4261469521857
50.426146957829
50.4261469735916
50.4261470193928
50.4261471547692
3501.81580169379
31516.3429987432
31516.3422295079
3501.81578229228
50.4261471616939
50.4261471230092
50.4261471091135
50.426147104197
50.4261471024391
50.4261471017821
50.4261471015159
50.4261471013907
50.4261471013146
50.4261471012535
50.4261471011945
50.426147101133
50.4261471010678
50.4261471009987
50.426147100926
50.4261471008501
50.4261471007715
50.4261471006904
50.4261471006073
50.4261471005226
50.4261471004367
50.4261471003501
50.426147100263
50.426147100176
50.4261471000894
50.4261471000036
50.4261470999189
50.4261470998355
50.426147099754
50.4261470996744
50.4261470995971
50.4261470995225
50.4261470994506
50.4261470993816
50.4261470993159
50.4261470992539
50.4261470991975
50.4261470991515
50.4261470991292
50.4261470991644
50.426147099343
50.4261470998858
50.4261471013993
50.4261471056885
50.4261471183107
50.4261471563154
3501.81578255326
31516.3422754954
31516.3425717453
3501.81583536134
50.42614800024
50.4261479895693
50.4261479857691
50.4261479844248
50.4261479839349
50.426147983738
50.4261479836416
50.4261479835783
50.426147983524
50.4261479834697
50.4261479834123
50.4261479833507
50.4261479832852
50.4261479832157
50.4261479831428
50.4261479830667
50.4261479829879
50.4261479829067
50.4261479828236
50.426147982739
50.4261479826533
50.4261479825668
50.42614798248
50.4261479823933
50.426147982307
50.4261479822215
50.4261479821371
50.4261479820542
50.4261479819731
50.426147981894
50.4261479818173
50.4261479817431
50.4261479816717
50.4261479816034
50.4261479815381
50.4261479814763
50.4261479814183
50.4261479813657
50.4261479813218
50.4261479812957
50.4261479813102
50.4261479814238
50.4261479817975
50.4261479829133
50.4261479862786
50.4261479966303
3501.81583528496
31516.3425842477
31516.343187036
3501.81590803893
50.4261490678603
50.426149064987
50.426149063967
50.4261490635999
50.4261490634547
50.4261490633821
50.4261490633311
50.4261490632842
50.4261490632355
50.4261490631829
50.4261490631257
50.4261490630642
50.4261490629984
50.4261490629288
50.4261490628558
50.4261490627797
50.4261490627009
50.4261490626198
50.4261490625369
50.4261490624524
50.4261490623669
50.4261490622806
50.4261490621941
50.4261490621077
50.4261490620217
50.4261490619365
50.4261490618525
50.42614906177
50.4261490616893
50.4261490616106
50.4261490615343
50.4261490614607
50.4261490613897
50.4261490613218
50.426149061257
50.4261490611955
50.4261490611375
50.4261490610833
50.4261490610338
50.4261490609915
50.426149060962
50.4261490609607
50.4261490610292
50.4261490612932
50.4261490621528
50.4261490648881
3501.81590787816
31516.3431894362
31516.3438776969
3501.81598597576
50.4261501959484
50.426150195187
50.426150194912
50.4261501948045
50.4261501947499
50.4261501947095
50.4261501946699
50.426150194627
50.4261501945795
50.4261501945271
50.4261501944698
50.4261501944081
50.4261501943423
50.4261501942727
50.4261501941996
50.4261501941235
50.4261501940448
50.4261501939638
50.426150193881
50.4261501937968
50.4261501937114
50.4261501936255
50.4261501935392
50.4261501934531
50.4261501933674
50.4261501932827
50.426150193199
50.4261501931169
50.4261501930366
50.4261501929584
50.4261501928826
50.4261501928093
50.4261501927388
50.4261501926713
50.4261501926069
50.4261501925458
50.4261501924881
50.4261501924339
50.4261501923834
50.4261501923372
50.4261501922967
50.426150192266
50.4261501922557
50.4261501922981
50.4261501924986
50.4261501931951
3501.81598579553
31516.3438771576
31516.3445885779
3501.816065285
50.4261513395549
50.4261513393505
50.4261513392695
50.4261513392285
50.4261513391965
50.4261513391636
50.4261513391265
50.4261513390841
50.4261513390366
50.4261513389839
50.4261513389265
50.4261513388647
50.4261513387987
50.426151338729
50.4261513386559
50.4261513385799
50.4261513385013
50.4261513384204
50.4261513383378
50.4261513382537
50.4261513381686
50.4261513380829
50.426151337997
50.4261513379112
50.4261513378259
50.4261513377415
50.4261513376583
50.4261513375765
50.4261513374967
50.4261513374189
50.4261513373435
50.4261513372707
50.4261513372006
50.4261513371336
50.4261513370697
50.426151337009
50.4261513369517
50.4261513368979
50.4261513368476
50.4261513368009
50.4261513367583
50.4261513367208
50.4261513366914
50.4261513366784
50.4261513367108
50.4261513368765
3501.81606510104
31516.3445872162
31516.3453047434
3501.81614494347
50.4261524870424
50.4261524869808
50.4261524869483
50.4261524869232
50.426152486896
50.4261524868643
50.4261524868271
50.4261524867845
50.4261524867366
50.4261524866837
50.426152486626
50.4261524865639
50.4261524864979
50.4261524864281
50.4261524863551
50.4261524862791
50.4261524862005
50.4261524861198
50.4261524860373
50.4261524859534
50.4261524858686
50.4261524857832
50.4261524856976
50.4261524856121
50.4261524855272
50.4261524854431
50.4261524853603
50.426152485279
50.4261524851996
50.4261524851222
50.4261524850473
50.4261524849749
50.4261524849053
50.4261524848387
50.4261524847753
50.4261524847152
50.4261524846584
50.4261524846051
50.4261524845553
50.4261524845091
50.4261524844666
50.4261524844283
50.426152484395
50.4261524843694
50.4261524843607
50.4261524843921
3501.81614475916
31516.3453031591
31516.3460222569
3501.81622468878
50.4261536354778
50.4261536354512
50.42615363543
50.4261536354078
50.426153635381
50.4261536353488
50.426153635311
50.4261536352678
50.4261536352195
50.4261536351662
50.4261536351082
50.426153635046
50.4261536349798
50.42615363491
50.4261536348369
50.426153634761
50.4261536346825
50.4261536346019
50.4261536345196
50.426153634436
50.4261536343514
50.4261536342662
50.4261536341809
50.4261536340958
50.4261536340112
50.4261536339276
50.4261536338452
50.4261536337643
50.4261536336853
50.4261536336085
50.4261536335339
50.4261536334621
50.4261536333929
50.4261536333269
50.426153633264
50.4261536332044
50.4261536331482
50.4261536330954
50.4261536330463
50.4261536330008
50.426153632959
50.4261536329212
50.4261536328879
50.4261536328603
50.4261536328424
50.4261536328415
3501.81622450492
31516.3460206195
31516.3467401067
3501.81630445523
50.4261547841398
50.426154784121
50.4261547841016
50.4261547840792
50.4261547840516
50.4261547840186
50.4261547839801
50.4261547839364
50.4261547838875
50.4261547838338
50.4261547837756
50.4261547837132
50.4261547836469
50.4261547835769
50.4261547835038
50.4261547834279
50.4261547833495
50.4261547832691
50.4261547831869
50.4261547831035
50.4261547830191
50.4261547829343
50.4261547828493
50.4261547827646
50.4261547826804
50.4261547825971
50.4261547825151
50.4261547824348
50.4261547823562
50.4261547822798
50.4261547822058
50.4261547821343
50.4261547820658
50.4261547820002
50.4261547819378
50.4261547818788
50.4261547818231
50.4261547817711
50.4261547817226
50.4261547816779
50.4261547816369
50.4261547816001
50.4261547815676
50.4261547815404
50.4261547815213
50.4261547815133
3501.81630427187
31516.3467384576
31516.3474580387
3501.81638422673
50.426155932855
50.4261559328372
50.4261559328175
50.4261559327941
50.4261559327656
50.4261559327317
50.4261559326925
50.4261559326481
50.4261559325987
50.4261559325447
50.4261559324862
50.4261559324235
50.426155932357
50.426155932287
50.4261559322139
50.426155932138
50.4261559320597
50.4261559319794
50.4261559318974
50.4261559318142
50.4261559317301
50.4261559316456
50.4261559315609
50.4261559314765
50.4261559313927
50.4261559313099
50.4261559312283
50.4261559311483
50.4261559310703
50.4261559309943
50.4261559309208
50.4261559308499
50.4261559307818
50.4261559307168
50.426155930655
50.4261559305965
50.4261559305415
50.42615593049
50.4261559304423
50.4261559303983
50.4261559303582
50.4261559303223
50.4261559302909
50.4261559302647
50.4261559302461
50.4261559302372
3501.81638404393
31516.3474563907
31516.3481759904
3501.81646399941
50.4261570815824
50.4261570815642
50.4261570815435
50.4261570815192
50.4261570814897
50.4261570814549
50.4261570814149
50.4261570813699
50.4261570813201
50.4261570812656
50.4261570812068
50.4261570811439
50.4261570810772
50.4261570810071
50.426157080934
50.4261570808581
50.4261570807799
50.4261570806997
50.4261570806179
50.4261570805349
50.4261570804511
50.4261570803669
50.4261570802826
50.4261570801985
50.4261570801151
50.4261570800327
50.4261570799516
50.4261570798721
50.4261570797944
50.426157079719
50.4261570796459
50.4261570795756
50.426157079508
50.4261570794436
50.4261570793823
50.4261570793244
50.42615707927
50.4261570792192
50.4261570791722
50.426157079129
50.4261570790898
50.4261570790549
50.4261570790244
50.4261570789993
50.4261570789816
50.4261570789732
3501.81646381719
31516.3481743476
31516.3488939467
3501.81654377236
50.4261582303126
50.4261582302935
50.426158230272
50.4261582302466
50.4261582302161
50.4261582301805
50.4261582301398
50.4261582300942
50.4261582300438
50.426158229989
50.4261582299298
50.4261582298667
50.4261582297999
50.4261582297297
50.4261582296566
50.4261582295807
50.4261582295026
50.4261582294225
50.4261582293409
50.4261582292581
50.4261582291746
50.4261582290906
50.4261582290066
50.426158228923
50.42615822884
50.4261582287579
50.4261582286773
50.4261582285982
50.4261582285211
50.4261582284461
50.4261582283736
50.4261582283037
50.4261582282367
50.4261582281728
50.4261582281121
50.4261582280548
50.4261582280011
50.426158227951
50.4261582279047
50.4261582278623
50.4261582278239
50.4261582277899
50.4261582277604
50.4261582277364
50.4261582277195
50.426158227712
3501.81654359073
31516.3488923067
31516.349611904
3501.81662354536
50.4261593790432
50.4261593790232
50.4261593790009
50.4261593789745
50.4261593789431
50.4261593789067
50.4261593788653
50.4261593788191
50.4261593787683
50.426159378713
50.4261593786535
50.4261593785902
50.4261593785232
50.4261593784529
50.4261593783797
50.4261593783039
50.4261593782258
50.4261593781459
50.4261593780645
50.426159377982
50.4261593778987
50.426159377815
50.4261593777314
50.4261593776481
50.4261593775654
50.4261593774838
50.4261593774036
50.426159377325
50.4261593772483
50.4261593771739
50.4261593771019
50.4261593770325
50.4261593769661
50.4261593769027
50.4261593768426
50.4261593767859
50.4261593767328
50.4261593766834
50.4261593766378
50.4261593765962
50.4261593765587
50.4261593765256
50.4261593764971
50.426159376474
50.426159376458
50.4261593764512
3501.81662336428
31516.3496102702
31516.3503298614
3501.81670331837
50.4261605277738
50.426160527753
50.4261605277298
50.4261605277025
50.4261605276703
50.4261605276331
50.426160527591
50.4261605275441
50.4261605274928
50.4261605274371
50.4261605273773
50.4261605273137
50.4261605272466
50.4261605271762
50.426160527103
50.4261605270272
50.4261605269492
50.4261605268694
50.4261605267882
50.4261605267059
50.4261605266229
50.4261605265395
50.4261605264562
50.4261605263733
50.426160526291
50.4261605262099
50.4261605261301
50.4261605260519
50.4261605259757
50.4261605259018
50.4261605258303
50.4261605257615
50.4261605256956
50.4261605256328
50.4261605255733
50.4261605255172
50.4261605254648
50.426160525416
50.4261605253712
50.4261605253303
50.4261605252937
50.4261605252614
50.4261605252339
50.4261605252117
50.4261605251965
50.4261605251906
3501.81670313792
31516.3503282329
31516.3510478186
3501.81678309136
50.4261616765042
50.4261616764825
50.4261616764584
50.4261616764302
50.4261616763972
50.4261616763592
50.4261616763164
50.426161676269
50.4261616762172
50.4261616761612
50.426161676101
50.4261616760372
50.4261616759699
50.4261616758994
50.4261616758262
50.4261616757504
50.4261616756725
50.4261616755928
50.4261616755118
50.4261616754297
50.4261616753469
50.4261616752639
50.4261616751809
50.4261616750983
50.4261616750165
50.4261616749357
50.4261616748564
50.4261616747787
50.426161674703
50.4261616746295
50.4261616745586
50.4261616744903
50.4261616744249
50.4261616743627
50.4261616743038
50.4261616742484
50.4261616741966
50.4261616741485
50.4261616741044
50.4261616740643
50.4261616740285
50.4261616739971
50.4261616739704
50.4261616739492
50.4261616739348
50.4261616739297
3501.81678291151
31516.3510461966
31516.3517657757
3501.81686286432
50.4261628252342
50.4261628252116
50.4261628251867
50.4261628251576
50.4261628251238
50.4261628250851
50.4261628250416
50.4261628249937
50.4261628249414
50.4261628248849
50.4261628248245
50.4261628247604
50.4261628246929
50.4261628246224
50.4261628245491
50.4261628244733
50.4261628243955
50.426162824316
50.4261628242351
50.4261628241532
50.4261628240707
50.426162823988
50.4261628239053
50.4261628238231
50.4261628237417
50.4261628236614
50.4261628235824
50.4261628235052
50.42616282343
50.4261628233571
50.4261628232866
50.4261628232188
50.4261628231541
50.4261628230924
50.4261628230341
50.4261628229793
50.4261628229281
50.4261628228808
50.4261628228374
50.4261628227981
50.426162822763
50.4261628227325
50.4261628227067
50.4261628226863
50.4261628226727
50.4261628226685
3501.81686268512
31516.351764159
31516.3524837326
3501.81694263726
50.4261639739637
50.4261639739403
50.4261639739145
50.4261639738846
50.4261639738499
50.4261639738105
50.4261639737663
50.4261639737179
50.4261639736651
50.4261639736082
50.4261639735475
50.4261639734832
50.4261639734155
50.4261639733449
50.4261639732716
50.4261639731958
50.4261639731181
50.4261639730387
50.426163972958
50.4261639728764
50.4261639727941
50.4261639727117
50.4261639726293
50.4261639725475
50.4261639724665
50.4261639723866
50.4261639723081
50.4261639722313
50.4261639721566
50.4261639720841
50.4261639720142
50.426163971947
50.4261639718827
50.4261639718217
50.4261639717639
50.4261639717097
50.4261639716592
50.4261639716126
50.4261639715699
50.4261639715313
50.4261639714971
50.4261639714673
50.4261639714424
50.4261639714229
50.4261639714101
50.4261639714067
3501.81694245861
31516.3524821212
31516.3532016892
3501.81702241017
50.4261651226927
50.4261651226682
50.4261651226417
50.4261651226108
50.4261651225754
50.4261651225353
50.4261651224905
50.4261651224415
50.4261651223882
50.426165122331
50.42616512227
50.4261651222054
50.4261651221376
50.4261651220669
50.4261651219935
50.4261651219178
50.4261651218402
50.4261651217609
50.4261651216804
50.4261651215989
50.426165121517
50.4261651214348
50.4261651213528
50.4261651212713
50.4261651211907
50.4261651211112
50.4261651210331
50.4261651209568
50.4261651208826
50.4261651208106
50.4261651207411
50.4261651206745
50.4261651206108
50.4261651205503
50.4261651204931
50.4261651204395
50.4261651203897
50.4261651203437
50.4261651203017
50.4261651202639
50.4261651202304
50.4261651202015
50.4261651201774
50.4261651201588
50.4261651201469
50.4261651201444
3501.81702223207
31516.3532000809
31516.3539196454
3501.81710218303
50.4261662714211
50.4261662713955
50.4261662713681
50.4261662713364
50.4261662713001
50.4261662712593
50.4261662712139
50.4261662711644
50.4261662711107
50.4261662710531
50.4261662709917
50.426166270927
50.426166270859
50.4261662707882
50.4261662707148
50.4261662706391
50.4261662705616
50.4261662704824
50.426166270402
50.4261662703208
50.4261662702391
50.4261662701572
50.4261662700756
50.4261662699945
50.4261662699142
50.4261662698351
50.4261662697575
50.4261662696816
50.4261662696078
50.4261662695363
50.4261662694674
50.4261662694012
50.4261662693381
50.4261662692781
50.4261662692216
50.4261662691686
50.4261662691194
50.4261662690741
50.4261662690328
50.4261662689957
50.426166268963
50.4261662689349
50.4261662689116
50.4261662688939
50.4261662688827
50.4261662688813
3501.81710200556
31516.3539180434
31516.3546376013
3501.81718195584
50.4261674201486
50.4261674201219
50.4261674200936
50.4261674200609
50.4261674200239
50.4261674199824
50.4261674199364
50.4261674198864
50.4261674198322
50.4261674197743
50.4261674197127
50.4261674196477
50.4261674195796
50.4261674195086
50.4261674194352
50.4261674193596
50.4261674192821
50.426167419203
50.4261674191228
50.4261674190419
50.4261674189604
50.4261674188788
50.4261674187975
50.4261674187167
50.4261674186368
50.4261674185581
50.4261674184809
50.4261674184055
50.4261674183321
50.4261674182611
50.4261674181926
50.426167418127
50.4261674180644
50.426167418005
50.4261674179491
50.4261674178967
50.4261674178481
50.4261674178034
50.4261674177628
50.4261674177264
50.4261674176945
50.4261674176672
50.4261674176447
50.426167417628
50.4261674176176
50.4261674176173
3501.817181779
31516.3546360056
31516.3553555567
3501.8172617286
50.4261685688751
50.4261685688471
50.426168568818
50.4261685687844
50.4261685687466
50.4261685687044
50.4261685686579
50.4261685686073
50.4261685685527
50.4261685684944
50.4261685684325
50.4261685683673
50.4261685682991
50.4261685682281
50.4261685681546
50.426168568079
50.4261685680016
50.4261685679227
50.4261685678427
50.4261685677619
50.4261685676807
50.4261685675994
50.4261685675184
50.4261685674379
50.4261685673584
50.42616856728
50.4261685672033
50.4261685671283
50.4261685670554
50.4261685669848
50.4261685669168
50.4261685668517
50.4261685667896
50.4261685667308