/*--------------------------------*- C++ -*----------------------------------*\
  =========                 |
  \\      /  F ield         | OpenFOAM: The Open Source CFD Toolbox
   \\    /   O peration     | Website:  https://openfoam.org
    \\  /    A nd           | Version:  10
     \\/     M anipulation  |
\*---------------------------------------------------------------------------*/
FoamFile
{
    format      ascii;
    class       volScalarField;
    location    "3.8";
    object      p;
}
// * * * * * * * * * * * * * * * * * * * * * * * * * * * * * * * * * * * * * //

dimensions      [1 -1 -2 0 0 0 0];

internalField   nonuniform List<scalar> 
2500
(
100079.773301152
100079.773302717
100079.773303687
100079.773304457
100079.77330487
100079.773305108
100079.773305244
100079.77330532
100079.773305367
100079.773305399
100079.773305424
100079.773305447
100079.773305471
100079.773305496
100079.773305524
100079.773305556
100079.773305591
100079.77330563
100079.773305673
100079.773305719
100079.77330577
100079.773305824
100079.773305881
100079.77330594
100079.773306003
100079.773306068
100079.773306134
100079.773306202
100079.77330627
100079.773306339
100079.773306408
100079.773306476
100079.773306543
100079.773306609
100079.773306673
100079.773306735
100079.773306793
100079.773306847
100079.773306896
100079.773306939
100079.773306973
100079.773306993
100079.773306991
100079.773306954
100079.773306851
100079.77330664
100079.773306249
100079.773305492
100079.773304513
100079.77330294
100079.771055673
100079.771056939
100079.771057677
100079.771058336
100079.771058696
100079.771058907
100079.771059027
100079.771059095
100079.771059138
100079.771059168
100079.771059193
100079.771059216
100079.77105924
100079.771059265
100079.771059294
100079.771059326
100079.771059361
100079.7710594
100079.771059443
100079.77105949
100079.77105954
100079.771059594
100079.771059652
100079.771059712
100079.771059774
100079.771059839
100079.771059905
100079.771059973
100079.771060041
100079.77106011
100079.771060179
100079.771060247
100079.771060315
100079.77106038
100079.771060444
100079.771060506
100079.771060564
100079.771060618
100079.771060667
100079.77106071
100079.771060744
100079.771060766
100079.771060768
100079.771060739
100079.771060651
100079.771060468
100079.771060129
100079.771059484
100079.771058739
100079.771057468
100079.768797191
100079.768797896
100079.768798153
100079.768798524
100079.768798731
100079.768798862
100079.768798943
100079.768798992
100079.768799026
100079.768799053
100079.768799077
100079.7687991
100079.768799123
100079.768799149
100079.768799178
100079.76879921
100079.768799246
100079.768799285
100079.768799328
100079.768799375
100079.768799426
100079.76879948
100079.768799538
100079.768799598
100079.76879966
100079.768799725
100079.768799792
100079.768799859
100079.768799928
100079.768799997
100079.768800066
100079.768800134
100079.768800202
100079.768800267
100079.768800331
100079.768800392
100079.768800451
100079.768800505
100079.768800554
100079.768800597
100079.768800633
100079.768800659
100079.768800669
100079.76880066
100079.768800611
100079.768800508
100079.768800321
100079.768799964
100079.768799706
100079.768798981
100079.766529922
100079.766530062
100079.766529957
100079.766530045
100079.7665301
100079.766530149
100079.766530193
100079.766530224
100079.76653025
100079.766530274
100079.766530296
100079.766530318
100079.766530342
100079.766530368
100079.766530397
100079.766530429
100079.766530465
100079.766530505
100079.766530548
100079.766530595
100079.766530646
100079.766530701
100079.766530758
100079.766530819
100079.766530882
100079.766530947
100079.766531013
100079.766531081
100079.76653115
100079.766531219
100079.766531288
100079.766531356
100079.766531424
100079.76653149
100079.766531554
100079.766531615
100079.766531673
100079.766531728
100079.766531777
100079.766531822
100079.766531859
100079.766531888
100079.766531907
100079.766531916
100079.766531906
100079.766531883
100079.766531849
100079.766531776
100079.766531889
100079.766531729
100079.764256676
100079.764256483
100079.764256231
100079.764256148
100079.764256111
100079.764256105
100079.764256119
100079.764256136
100079.764256155
100079.764256175
100079.764256195
100079.764256217
100079.76425624
100079.764256266
100079.764256295
100079.764256328
100079.764256364
100079.764256404
100079.764256448
100079.764256496
100079.764256547
100079.764256602
100079.764256659
100079.76425672
100079.764256783
100079.764256848
100079.764256915
100079.764256984
100079.764257052
100079.764257122
100079.764257191
100079.76425726
100079.764257327
100079.764257393
100079.764257457
100079.764257519
100079.764257577
100079.764257632
100079.764257683
100079.764257728
100079.764257768
100079.764257801
100079.764257828
100079.764257851
100079.76425787
100079.764257904
100079.764257963
100079.764258063
100079.764258328
100079.764258511
100079.761979889
100079.76197958
100079.761979305
100079.761979141
100079.761979058
100079.761979018
100079.761979014
100079.761979019
100079.761979032
100079.761979049
100079.761979067
100079.761979088
100079.761979111
100079.761979137
100079.761979166
100079.761979199
100079.761979236
100079.761979276
100079.76197932
100079.761979368
100079.76197942
100079.761979475
100079.761979533
100079.761979594
100079.761979658
100079.761979723
100079.761979791
100079.761979859
100079.761979928
100079.761979998
100079.761980067
100079.761980136
100079.761980204
100079.76198027
100079.761980335
100079.761980397
100079.761980455
100079.761980511
100079.761980562
100079.761980609
100079.761980651
100079.761980688
100079.761980722
100079.761980757
100079.761980795
100079.761980862
100079.761980969
100079.761981151
100079.761981442
100079.761981751
100079.759701293
100079.759700995
100079.759700751
100079.759700565
100079.759700465
100079.759700409
100079.759700392
100079.759700389
100079.759700397
100079.75970041
100079.759700427
100079.759700446
100079.759700469
100079.759700495
100079.759700525
100079.759700558
100079.759700595
100079.759700635
100079.75970068
100079.759700729
100079.759700781
100079.759700836
100079.759700895
100079.759700957
100079.759701021
100079.759701086
100079.759701154
100079.759701223
100079.759701292
100079.759701362
100079.759701432
100079.759701501
100079.759701569
100079.759701636
100079.759701701
100079.759701763
100079.759701822
100079.759701879
100079.759701931
100079.759701979
100079.759702024
100079.759702065
100079.759702104
100079.759702148
100079.759702198
100079.759702283
100079.759702407
100079.759702612
100079.759702871
100079.759703175
100079.757421885
100079.757421643
100079.757421447
100079.75742127
100079.75742117
100079.757421106
100079.757421082
100079.757421073
100079.757421077
100079.757421087
100079.757421102
100079.757421121
100079.757421143
100079.757421169
100079.757421199
100079.757421233
100079.75742127
100079.757421311
100079.757421357
100079.757421406
100079.757421458
100079.757421515
100079.757421574
100079.757421636
100079.7574217
100079.757421766
100079.757421835
100079.757421904
100079.757421974
100079.757422044
100079.757422114
100079.757422184
100079.757422252
100079.757422319
100079.757422384
100079.757422447
100079.757422507
100079.757422564
100079.757422618
100079.757422668
100079.757422715
100079.757422759
100079.757422803
100079.757422853
100079.757422912
100079.757423004
100079.757423127
100079.757423324
100079.757423533
100079.757423782
100079.755142153
100079.755141973
100079.755141821
100079.755141666
100079.755141573
100079.755141509
100079.755141481
100079.755141468
100079.755141469
100079.755141477
100079.755141491
100079.755141509
100079.755141531
100079.755141557
100079.755141587
100079.755141621
100079.755141659
100079.7551417
100079.755141746
100079.755141796
100079.755141849
100079.755141906
100079.755141966
100079.755142028
100079.755142093
100079.75514216
100079.755142229
100079.755142298
100079.755142369
100079.75514244
100079.75514251
100079.75514258
100079.755142649
100079.755142717
100079.755142782
100079.755142846
100079.755142907
100079.755142964
100079.755143019
100079.755143071
100079.75514312
100079.755143167
100079.755143215
100079.755143269
100079.755143333
100079.755143426
100079.755143541
100079.755143716
100079.755143878
100079.755144063
100079.752862307
100079.752862177
100079.752862063
100079.752861932
100079.75286185
100079.752861789
100079.75286176
100079.752861745
100079.752861743
100079.752861749
100079.752861762
100079.752861779
100079.752861801
100079.752861828
100079.752861858
100079.752861892
100079.752861931
100079.752861973
100079.75286202
100079.75286207
100079.752862124
100079.752862181
100079.752862242
100079.752862305
100079.752862371
100079.752862438
100079.752862507
100079.752862577
100079.752862648
100079.75286272
100079.752862791
100079.752862861
100079.752862931
100079.752862999
100079.752863065
100079.752863129
100079.752863191
100079.752863249
100079.752863305
100079.752863358
100079.752863409
100079.752863459
100079.75286351
100079.752863567
100079.752863633
100079.752863723
100079.752863827
100079.752863976
100079.752864099
100079.752864232
100079.750582426
100079.750582333
100079.750582247
100079.75058214
100079.75058207
100079.750582014
100079.750581984
100079.750581969
100079.750581965
100079.750581971
100079.750581983
100079.750582
100079.750582022
100079.750582048
100079.750582079
100079.750582114
100079.750582153
100079.750582196
100079.750582243
100079.750582294
100079.750582349
100079.750582407
100079.750582468
100079.750582532
100079.750582598
100079.750582667
100079.750582736
100079.750582807
100079.750582879
100079.75058295
100079.750583022
100079.750583093
100079.750583163
100079.750583232
100079.750583299
100079.750583363
100079.750583426
100079.750583486
100079.750583543
100079.750583597
100079.75058365
100079.750583702
100079.750583755
100079.750583813
100079.750583879
100079.750583964
100079.750584057
100079.750584182
100079.750584275
100079.750584368
100079.748302535
100079.748302468
100079.748302404
100079.748302317
100079.748302257
100079.748302207
100079.74830218
100079.748302164
100079.748302161
100079.748302166
100079.748302177
100079.748302194
100079.748302216
100079.748302243
100079.748302274
100079.74830231
100079.74830235
100079.748302394
100079.748302442
100079.748302493
100079.748302549
100079.748302608
100079.74830267
100079.748302734
100079.748302801
100079.74830287
100079.74830294
100079.748303012
100079.748303084
100079.748303156
100079.748303229
100079.7483033
100079.748303371
100079.74830344
100079.748303508
100079.748303573
100079.748303636
100079.748303697
100079.748303755
100079.748303811
100079.748303865
100079.748303918
100079.748303973
100079.748304032
100079.748304096
100079.748304176
100079.748304258
100079.748304362
100079.748304432
100079.748304497
100079.746022639
100079.746022591
100079.746022543
100079.746022474
100079.746022423
100079.74602238
100079.746022355
100079.74602234
100079.746022337
100079.746022342
100079.746022353
100079.746022371
100079.746022393
100079.74602242
100079.746022452
100079.746022488
100079.746022529
100079.746022574
100079.746022622
100079.746022675
100079.746022731
100079.746022791
100079.746022854
100079.746022919
100079.746022987
100079.746023056
100079.746023128
100079.7460232
100079.746023273
100079.746023346
100079.746023419
100079.746023491
100079.746023562
100079.746023632
100079.7460237
100079.746023766
100079.74602383
100079.746023892
100079.746023951
100079.746024008
100079.746024063
100079.746024117
100079.746024173
100079.746024231
100079.746024294
100079.746024367
100079.74602444
100079.746024526
100079.746024579
100079.746024625
100079.74374274
100079.743742705
100079.743742669
100079.743742614
100079.743742572
100079.743742535
100079.743742513
100079.7437425
100079.743742497
100079.743742503
100079.743742515
100079.743742532
100079.743742555
100079.743742583
100079.743742615
100079.743742652
100079.743742694
100079.74374274
100079.743742789
100079.743742843
100079.7437429
100079.743742961
100079.743743024
100079.74374309
100079.743743159
100079.743743229
100079.743743301
100079.743743374
100079.743743448
100079.743743521
100079.743743595
100079.743743668
100079.74374374
100079.74374381
100079.743743879
100079.743743946
100079.743744011
100079.743744073
100079.743744133
100079.743744191
100079.743744247
100079.743744302
100079.743744358
100079.743744416
100079.743744476
100079.743744544
100079.743744608
100079.743744679
100079.743744719
100079.743744752
100079.741462837
100079.741462811
100079.741462784
100079.74146274
100079.741462706
100079.741462675
100079.741462656
100079.741462645
100079.741462644
100079.74146265
100079.741462662
100079.74146268
100079.741462704
100079.741462733
100079.741462766
100079.741462804
100079.741462846
100079.741462893
100079.741462943
100079.741462998
100079.741463056
100079.741463118
100079.741463182
100079.741463249
100079.741463318
100079.74146339
100079.741463462
100079.741463536
100079.74146361
100079.741463685
100079.741463759
100079.741463833
100079.741463905
100079.741463977
100079.741464046
100079.741464114
100079.741464179
100079.741464242
100079.741464303
100079.741464362
100079.741464419
100079.741464474
100079.74146453
100079.741464586
100079.741464644
100079.741464706
100079.741464763
100079.741464822
100079.741464853
100079.741464876
100079.739182928
100079.739182909
100079.739182888
100079.739182854
100079.739182827
100079.739182801
100079.739182785
100079.739182777
100079.739182777
100079.739182784
100079.739182797
100079.739182816
100079.739182841
100079.73918287
100079.739182904
100079.739182943
100079.739182987
100079.739183034
100079.739183086
100079.739183141
100079.739183201
100079.739183263
100079.739183328
100079.739183396
100079.739183467
100079.739183539
100079.739183612
100079.739183687
100079.739183762
100079.739183837
100079.739183912
100079.739183986
100079.73918406
100079.739184132
100079.739184202
100079.73918427
100079.739184336
100079.7391844
100079.739184462
100079.739184521
100079.739184578
100079.739184634
100079.73918469
100079.739184745
100079.7391848
100079.739184857
100079.739184908
100079.739184958
100079.739184982
100079.739184998
100079.736903014
100079.736902999
100079.736902984
100079.736902958
100079.736902936
100079.736902915
100079.736902903
100079.736902897
100079.736902898
100079.736902907
100079.736902921
100079.736902941
100079.736902966
100079.736902997
100079.736903032
100079.736903072
100079.736903116
100079.736903165
100079.736903218
100079.736903274
100079.736903334
100079.736903398
100079.736903464
100079.736903533
100079.736903604
100079.736903677
100079.736903752
100079.736903827
100079.736903903
100079.736903979
100079.736904055
100079.73690413
100079.736904204
100079.736904276
100079.736904347
100079.736904417
100079.736904483
100079.736904548
100079.73690461
100079.73690467
100079.736904728
100079.736904784
100079.736904838
100079.736904892
100079.736904945
100079.736904998
100079.736905043
100079.736905085
100079.736905104
100079.736905116
100079.734623094
100079.734623083
100079.734623071
100079.734623051
100079.734623034
100079.734623018
100079.734623009
100079.734623006
100079.734623009
100079.734623019
100079.734623034
100079.734623056
100079.734623082
100079.734623113
100079.73462315
100079.734623191
100079.734623236
100079.734623286
100079.73462334
100079.734623397
100079.734623459
100079.734623523
100079.734623591
100079.73462366
100079.734623733
100079.734623806
100079.734623882
100079.734623958
100079.734624035
100079.734624111
100079.734624188
100079.734624264
100079.734624339
100079.734624412
100079.734624484
100079.734624553
100079.734624621
100079.734624686
100079.734624749
100079.734624809
100079.734624867
100079.734624923
100079.734624977
100079.73462503
100079.73462508
100079.734625129
100079.73462517
100079.734625206
100079.734625221
100079.73462523
100079.732343168
100079.73234316
100079.732343152
100079.732343137
100079.732343124
100079.732343112
100079.732343106
100079.732343105
100079.73234311
100079.732343122
100079.732343138
100079.732343161
100079.732343188
100079.732343221
100079.732343258
100079.732343301
100079.732343347
100079.732343398
100079.732343453
100079.732343512
100079.732343574
100079.73234364
100079.732343708
100079.732343779
100079.732343852
100079.732343927
100079.732344003
100079.73234408
100079.732344158
100079.732344236
100079.732344313
100079.73234439
100079.732344465
100079.732344539
100079.732344612
100079.732344682
100079.73234475
100079.732344816
100079.732344879
100079.73234494
100079.732344998
100079.732345054
100079.732345107
100079.732345158
100079.732345207
100079.732345252
100079.73234529
100079.732345321
100079.732345334
100079.732345339
100079.730063238
100079.730063231
100079.730063225
100079.730063215
100079.730063206
100079.730063197
100079.730063194
100079.730063196
100079.730063203
100079.730063216
100079.730063234
100079.730063258
100079.730063287
100079.730063321
100079.730063359
100079.730063403
100079.730063451
100079.730063503
100079.730063559
100079.730063619
100079.730063682
100079.730063749
100079.730063818
100079.73006389
100079.730063965
100079.73006404
100079.730064117
100079.730064195
100079.730064274
100079.730064352
100079.73006443
100079.730064508
100079.730064584
100079.730064659
100079.730064732
100079.730064803
100079.730064872
100079.730064938
100079.730065002
100079.730065063
100079.730065121
100079.730065177
100079.730065229
100079.730065279
100079.730065326
100079.730065369
100079.730065404
100079.730065431
100079.730065441
100079.730065445
100079.727783303
100079.727783298
100079.727783294
100079.727783287
100079.727783281
100079.727783276
100079.727783275
100079.727783279
100079.727783288
100079.727783303
100079.727783323
100079.727783348
100079.727783378
100079.727783413
100079.727783453
100079.727783498
100079.727783547
100079.7277836
100079.727783658
100079.727783719
100079.727783784
100079.727783851
100079.727783922
100079.727783995
100079.72778407
100079.727784147
100079.727784225
100079.727784304
100079.727784383
100079.727784462
100079.727784541
100079.72778462
100079.727784697
100079.727784772
100079.727784846
100079.727784918
100079.727784987
100079.727785054
100079.727785118
100079.727785179
100079.727785237
100079.727785293
100079.727785345
100079.727785394
100079.727785439
100079.727785479
100079.727785511
100079.727785536
100079.727785545
100079.727785548
100079.725503364
100079.72550336
100079.725503358
100079.725503353
100079.72550335
100079.725503348
100079.72550335
100079.725503356
100079.725503368
100079.725503384
100079.725503405
100079.725503432
100079.725503464
100079.7255035
100079.725503542
100079.725503588
100079.725503638
100079.725503693
100079.725503751
100079.725503814
100079.725503879
100079.725503948
100079.72550402
100079.725504094
100079.72550417
100079.725504248
100079.725504327
100079.725504407
100079.725504487
100079.725504567
100079.725504647
100079.725504726
100079.725504804
100079.72550488
100079.725504954
100079.725505027
100079.725505096
100079.725505164
100079.725505228
100079.72550529
100079.725505348
100079.725505403
100079.725505455
100079.725505503
100079.725505546
100079.725505584
100079.725505615
100079.725505637
100079.725505645
100079.725505647
100079.723223422
100079.723223419
100079.723223418
100079.723223416
100079.723223415
100079.723223416
100079.72322342
100079.723223428
100079.723223442
100079.72322346
100079.723223483
100079.723223511
100079.723223544
100079.723223582
100079.723223625
100079.723223672
100079.723223724
100079.72322378
100079.72322384
100079.723223903
100079.72322397
100079.72322404
100079.723224113
100079.723224189
100079.723224266
100079.723224344
100079.723224424
100079.723224505
100079.723224586
100079.723224667
100079.723224748
100079.723224827
100079.723224906
100079.723224983
100079.723225058
100079.723225131
100079.723225201
100079.723225269
100079.723225334
100079.723225395
100079.723225454
100079.723225509
100079.72322556
100079.723225607
100079.723225649
100079.723225686
100079.723225714
100079.723225735
100079.723225742
100079.723225744
100079.720943477
100079.720943475
100079.720943474
100079.720943475
100079.720943476
100079.720943479
100079.720943486
100079.720943497
100079.720943512
100079.720943532
100079.720943556
100079.720943586
100079.720943621
100079.72094366
100079.720943704
100079.720943753
100079.720943806
100079.720943863
100079.720943925
100079.720943989
100079.720944058
100079.720944129
100079.720944203
100079.720944279
100079.720944357
100079.720944437
100079.720944518
100079.7209446
100079.720944682
100079.720944764
100079.720944845
100079.720944925
100079.720945005
100079.720945082
100079.720945158
100079.720945231
100079.720945302
100079.72094537
100079.720945436
100079.720945497
100079.720945556
100079.72094561
100079.720945661
100079.720945707
100079.720945748
100079.720945783
100079.720945811
100079.72094583
100079.720945837
100079.720945838
100079.71866353
100079.718663529
100079.718663529
100079.718663531
100079.718663535
100079.71866354
100079.718663549
100079.718663562
100079.718663579
100079.7186636
100079.718663627
100079.718663658
100079.718663694
100079.718663735
100079.718663781
100079.718663831
100079.718663885
100079.718663944
100079.718664006
100079.718664073
100079.718664142
100079.718664215
100079.71866429
100079.718664367
100079.718664446
100079.718664527
100079.718664609
100079.718664692
100079.718664774
100079.718664857
100079.718664939
100079.71866502
100079.7186651
100079.718665179
100079.718665255
100079.718665329
100079.7186654
100079.718665469
100079.718665534
100079.718665596
100079.718665655
100079.718665709
100079.718665759
100079.718665805
100079.718665845
100079.718665879
100079.718665905
100079.718665923
100079.71866593
100079.718665931
100079.716383582
100079.716383581
100079.716383583
100079.716383586
100079.716383592
100079.716383599
100079.71638361
100079.716383625
100079.716383644
100079.716383667
100079.716383695
100079.716383728
100079.716383766
100079.716383808
100079.716383855
100079.716383907
100079.716383963
100079.716384023
100079.716384087
100079.716384154
100079.716384225
100079.716384298
100079.716384375
100079.716384453
100079.716384533
100079.716384615
100079.716384698
100079.716384781
100079.716384865
100079.716384949
100079.716385032
100079.716385114
100079.716385194
100079.716385273
100079.71638535
100079.716385425
100079.716385497
100079.716385565
100079.716385631
100079.716385693
100079.716385752
100079.716385806
100079.716385856
100079.716385901
100079.71638594
100079.716385973
100079.716385998
100079.716386015
100079.716386022
100079.716386022
100079.714103634
100079.714103634
100079.714103636
100079.714103641
100079.714103648
100079.714103658
100079.71410367
100079.714103687
100079.714103708
100079.714103733
100079.714103763
100079.714103797
100079.714103837
100079.714103881
100079.714103929
100079.714103982
100079.714104039
100079.714104101
100079.714104166
100079.714104234
100079.714104306
100079.714104381
100079.714104458
100079.714104538
100079.714104619
100079.714104702
100079.714104786
100079.71410487
100079.714104955
100079.714105039
100079.714105123
100079.714105206
100079.714105287
100079.714105367
100079.714105444
100079.714105519
100079.714105591
100079.714105661
100079.714105727
100079.714105789
100079.714105847
100079.714105901
100079.714105951
100079.714105995
100079.714106034
100079.714106066
100079.714106091
100079.714106107
100079.714106113
100079.714106114
100079.711823687
100079.711823687
100079.71182369
100079.711823696
100079.711823705
100079.711823716
100079.711823731
100079.711823749
100079.711823772
100079.711823799
100079.71182383
100079.711823866
100079.711823907
100079.711823953
100079.711824003
100079.711824057
100079.711824116
100079.711824178
100079.711824245
100079.711824315
100079.711824388
100079.711824464
100079.711824542
100079.711824623
100079.711824705
100079.711824789
100079.711824874
100079.711824959
100079.711825044
100079.71182513
100079.711825214
100079.711825298
100079.71182538
100079.71182546
100079.711825538
100079.711825613
100079.711825686
100079.711825756
100079.711825822
100079.711825884
100079.711825942
100079.711825996
100079.711826046
100079.711826089
100079.711826128
100079.711826159
100079.711826183
100079.711826199
100079.711826205
100079.711826205
100079.70954374
100079.709543741
100079.709543745
100079.709543752
100079.709543762
100079.709543776
100079.709543792
100079.709543812
100079.709543837
100079.709543865
100079.709543898
100079.709543936
100079.709543979
100079.709544025
100079.709544077
100079.709544133
100079.709544193
100079.709544257
100079.709544324
100079.709544396
100079.70954447
100079.709544547
100079.709544627
100079.709544708
100079.709544792
100079.709544877
100079.709544962
100079.709545048
100079.709545135
100079.709545221
100079.709545306
100079.70954539
100079.709545473
100079.709545554
100079.709545632
100079.709545708
100079.709545781
100079.709545851
100079.709545917
100079.70954598
100079.709546038
100079.709546092
100079.709546141
100079.709546184
100079.709546222
100079.709546252
100079.709546276
100079.709546291
100079.709546297
100079.709546297
100079.707263796
100079.707263797
100079.707263801
100079.707263811
100079.707263822
100079.707263837
100079.707263855
100079.707263877
100079.707263903
100079.707263934
100079.707263968
100079.707264008
100079.707264052
100079.7072641
100079.707264153
100079.70726421
100079.707264272
100079.707264337
100079.707264406
100079.707264478
100079.707264554
100079.707264632
100079.707264713
100079.707264796
100079.70726488
100079.707264966
100079.707265052
100079.707265139
100079.707265227
100079.707265313
100079.707265399
100079.707265484
100079.707265567
100079.707265649
100079.707265728
100079.707265804
100079.707265878
100079.707265948
100079.707266014
100079.707266077
100079.707266135
100079.707266189
100079.707266237
100079.70726628
100079.707266317
100079.707266347
100079.70726637
100079.707266385
100079.707266391
100079.707266391
100079.704983854
100079.704983856
100079.704983861
100079.704983872
100079.704983885
100079.704983901
100079.704983921
100079.704983945
100079.704983973
100079.704984005
100079.704984041
100079.704984082
100079.704984127
100079.704984177
100079.704984232
100079.70498429
100079.704984353
100079.70498442
100079.70498449
100079.704984564
100079.70498464
100079.70498472
100079.704984802
100079.704984885
100079.704984971
100079.704985057
100079.704985145
100079.704985233
100079.704985321
100079.704985408
100079.704985495
100079.70498558
100079.704985664
100079.704985746
100079.704985826
100079.704985902
100079.704985976
100079.704986047
100079.704986113
100079.704986176
100079.704986234
100079.704986288
100079.704986336
100079.704986379
100079.704986415
100079.704986444
100079.704986467
100079.704986481
100079.704986487
100079.704986486
100079.702703916
100079.702703919
100079.702703925
100079.702703937
100079.702703951
100079.70270397
100079.702703991
100079.702704016
100079.702704046
100079.702704079
100079.702704117
100079.70270416
100079.702704207
100079.702704258
100079.702704314
100079.702704374
100079.702704438
100079.702704506
100079.702704577
100079.702704652
100079.70270473
100079.702704811
100079.702704893
100079.702704978
100079.702705065
100079.702705152
100079.70270524
100079.702705329
100079.702705418
100079.702705506
100079.702705593
100079.702705679
100079.702705764
100079.702705846
100079.702705926
100079.702706004
100079.702706078
100079.702706148
100079.702706215
100079.702706278
100079.702706336
100079.702706389
100079.702706437
100079.70270648
100079.702706516
100079.702706544
100079.702706567
100079.70270658
100079.702706585
100079.702706584
100079.700423982
100079.700423986
100079.700423993
100079.700424006
100079.700424022
100079.700424042
100079.700424065
100079.700424092
100079.700424123
100079.700424159
100079.700424198
100079.700424242
100079.700424291
100079.700424343
100079.700424401
100079.700424462
100079.700424527
100079.700424596
100079.700424669
100079.700424745
100079.700424824
100079.700424906
100079.700424989
100079.700425075
100079.700425163
100079.700425251
100079.70042534
100079.70042543
100079.700425519
100079.700425608
100079.700425696
100079.700425783
100079.700425868
100079.70042595
100079.700426031
100079.700426109
100079.700426183
100079.700426254
100079.700426321
100079.700426383
100079.700426442
100079.700426495
100079.700426543
100079.700426584
100079.70042662
100079.700426648
100079.70042667
100079.700426682
100079.700426687
100079.700426685
100079.698144053
100079.698144058
100079.698144066
100079.698144081
100079.698144099
100079.69814412
100079.698144145
100079.698144174
100079.698144206
100079.698144243
100079.698144284
100079.69814433
100079.69814438
100079.698144434
100079.698144492
100079.698144555
100079.698144622
100079.698144692
100079.698144766
100079.698144843
100079.698144923
100079.698145006
100079.69814509
100079.698145177
100079.698145265
100079.698145355
100079.698145444
100079.698145535
100079.698145625
100079.698145714
100079.698145803
100079.69814589
100079.698145976
100079.698146059
100079.69814614
100079.698146218
100079.698146293
100079.698146364
100079.698146431
100079.698146493
100079.698146551
100079.698146604
100079.698146652
100079.698146693
100079.698146728
100079.698146756
100079.698146777
100079.698146788
100079.698146793
100079.69814679
100079.69586413
100079.695864136
100079.695864146
100079.695864163
100079.695864181
100079.695864205
100079.695864231
100079.695864261
100079.695864296
100079.695864334
100079.695864376
100079.695864423
100079.695864475
100079.69586453
100079.69586459
100079.695864654
100079.695864722
100079.695864794
100079.695864869
100079.695864947
100079.695865028
100079.695865111
100079.695865197
100079.695865285
100079.695865374
100079.695865464
100079.695865554
100079.695865645
100079.695865736
100079.695865826
100079.695865916
100079.695866003
100079.695866089
100079.695866173
100079.695866254
100079.695866333
100079.695866407