/*--------------------------------*- C++ -*----------------------------------*\
  =========                 |
  \\      /  F ield         | OpenFOAM: The Open Source CFD Toolbox
   \\    /   O peration     | Website:  https://openfoam.org
    \\  /    A nd           | Version:  10
     \\/     M anipulation  |
\*---------------------------------------------------------------------------*/
FoamFile
{
    format      ascii;
    class       volScalarField;
    location    "3.8";
    object      p_rgh;
}
// * * * * * * * * * * * * * * * * * * * * * * * * * * * * * * * * * * * * * //

dimensions      [1 -1 -2 0 0 0 0];

internalField   nonuniform List<scalar> 
2500
(
79.8865389221755
79.8865485750284
79.8865574622178
79.8865622161684
79.8865643675526
79.8865653298271
79.8865657552378
79.8865659410949
79.8865660281008
79.8865660737356
79.8865661038872
79.8865661288582
79.8865661531017
79.8865661790624
79.8865662077005
79.8865662396711
79.8865662750759
79.8865663143515
79.886566357527
79.8865664044279
79.8865664549958
79.8865665090125
79.8865665662161
79.8865666262136
79.8865666887723
79.8865667534701
79.8865668198268
79.8865668874787
79.8865669559746
79.8865670248488
79.8865670936357
79.8865671618842
79.886567229114
79.8865672948159
79.8865673585678
79.8865674197586
79.8865674777335
79.886567531692
79.8865675801353
79.8865676209098
79.8865676492278
79.8865676538844
79.8865676091082
79.886567457419
79.8865670591185
79.8865661255986
79.8865640081785
79.8865592667571
79.8865502678091
79.8865407624107
79.8871084916755
79.8871375706804
79.8871610410715
79.8871736873552
79.887179732963
79.8871825154783
79.8871837455226
79.887184263469
79.8871844778041
79.8871845690155
79.8871846142865
79.8871846440597
79.8871846698312
79.8871846962284
79.887184725012
79.8871847570117
79.8871847925184
79.8871848318377
79.8871848750277
79.8871849219868
79.8871849726129
79.8871850267024
79.8871850839641
79.887185144049
79.8871852066222
79.8871852713637
79.8871853377641
79.8871854054451
79.8871854739991
79.8871855428879
79.8871856117039
79.8871856800106
79.8871857471968
79.887185812855
79.8871858765779
79.8871859377396
79.8871859955398
79.8871860489016
79.8871860955551
79.887186130567
79.8871861414518
79.8871860960498
79.8871859162464
79.8871854229947
79.8871842159569
79.8871814751619
79.8871754966385
79.8871628446941
79.8871389837877
79.8871101911354
79.8876239405945
79.8876621441887
79.8876905558573
79.8877056379279
79.8877128069435
79.8877160861157
79.8877175292728
79.8877181338175
79.8877183812001
79.8877184841695
79.8877185332676
79.8877185642486
79.8877185904566
79.8877186170575
79.8877186459868
79.8877186781174
79.8877187137841
79.8877187532489
79.88771879657
79.8877188436745
79.8877188944316
79.887718948652
79.8877190060593
79.8877190662897
79.8877191289939
79.8877191938227
79.887719260325
79.8877193281223
79.8877193967637
79.8877194657398
79.8877195346286
79.887719603008
79.8877196702088
79.8877197358815
79.8877197996771
79.8877198608971
79.8877199186973
79.8877199719573
79.8877200183342
79.8877200522402
79.8877200593561
79.8877200024144
79.8877197899274
79.887719211154
79.8877177933318
79.887714557859
79.8877074475022
79.8876922981581
79.8876632747124
79.8876246888976
79.8880077745125
79.8880424008821
79.8880652767402
79.8880769629177
79.8880822835345
79.8880846241082
79.8880856293545
79.8880860453937
79.8880862177612
79.8880862928927
79.8880863322556
79.8880863600498
79.8880863853265
79.8880864117527
79.8880864407838
79.8880864730745
79.8880865089886
79.8880865486863
79.8880865922401
79.8880866395775
79.8880866905529
79.888086744977
79.8880868025735
79.8880868630076
79.888086925901
79.8880869909044
79.8880870575667
79.8880871254951
79.8880871942674
79.8880872633599
79.8880873323651
79.8880874008319
79.8880874681927
79.888087534011
79.8880875978939
79.8880876592302
79.8880877173069
79.8880877711345
79.8880878190248
79.8880878571217
79.8880878758646
79.8880878503405
79.888087718602
79.8880873353773
79.8880863591185
79.8880840524216
79.8880787571543
79.8880669573409
79.8880434549064
79.8880078123766
79.8882514671714
79.888276228201
79.8882909218082
79.8882981298084
79.8883012777806
79.8883026091644
79.8883031706355
79.8883034023165
79.8883035025501
79.8883035509789
79.8883035808394
79.8883036054322
79.8883036297484
79.8883036559855
79.8883036851039
79.888303717642
79.8883037538617
79.8883037938795
79.8883038377535
79.8883038853965
79.888303936692
79.8883039914217
79.8883040492947
79.8883041100053
79.888304173146
79.8883042383823
79.888304305292
79.8883043734386
79.8883044424001
79.8883045116963
79.8883045808761
79.888304649503
79.888304717053
79.8883047830896
79.8883048471616
79.8883049087162
79.8883049671422
79.8883050216828
79.8883050711593
79.8883051133016
79.8883051429293
79.8883051465673
79.8883050909062
79.8883048971766
79.8883043684764
79.8883030679572
79.8882999347406
79.8882926275546
79.8882774266822
79.8882514769502
79.888387087427
79.8884019537945
79.8884099358984
79.888413676963
79.8884152440587
79.8884158768342
79.8884161407186
79.8884162503382
79.8884163024923
79.8884163326729
79.8884163557523
79.8884163778857
79.8884164014162
79.8884164275369
79.8884164568008
79.8884164896153
79.8884165261989
79.8884165666095
79.888416610891
79.8884166589414
79.8884167106298
79.8884167657088
79.8884168239456
79.8884168850054
79.8884169484954
79.8884170140518
79.8884170812671
79.8884171497048
79.8884172189282
79.8884172884864
79.8884173579136
79.8884174267878
79.8884174945852
79.8884175608982
79.8884176252614
79.8884176871361
79.8884177460131
79.8884178012959
79.8884178521985
79.888417897484
79.8884179347515
79.8884179579327
79.8884179522283
79.8884178829321
79.8884176538122
79.8884170520323
79.8884155024862
79.888411703505
79.8884033825452
79.8883875291504
79.888454656364
79.8884624201601
79.888466202392
79.8884678666363
79.8884685273661
79.8884687725367
79.8884688737162
79.8884689161932
79.8884689410188
79.8884689602128
79.8884689788829
79.8884689992847
79.8884690222039
79.8884690482228
79.8884690776758
79.8884691108251
79.888469147787
79.8884691886487
79.8884692333813
79.888469281912
79.888469334066
79.8884693896107
79.8884694482986
79.8884695097659
79.8884695736779
79.8884696396271
79.8884697072208
79.8884697760222
79.8884698455804
79.8884699154587
79.888469985206
79.8884700543858
79.8884701225033
79.8884701891657
79.888470253878
79.8884703161748
79.8884703756339
79.888470431717
79.8884704839438
79.8884705316741
79.8884705740347
79.8884706089739
79.8884706314129
79.8884706301324
79.8884705642849
79.8884703502408
79.8884697113681
79.8884680260089
79.8884640520846
79.8884556285921
79.8884852649062
79.8884888630855
79.8884904433944
79.8884910613415
79.8884912806679
79.8884913410875
79.8884913643124
79.8884913736838
79.8884913840448
79.888491396865
79.8884914126538
79.8884914317896
79.8884914542577
79.8884914802329
79.8884915099188
79.8884915434173
79.8884915808303
79.8884916222014
79.8884916674579
79.8884917165269
79.8884917692194
79.8884918252879
79.8884918844851
79.8884919464617
79.8884920108394
79.8884920772543
79.8884921452845
79.888492214508
79.8884922844736
79.8884923547594
79.8884924248996
79.8884924944432
79.8884925629682
79.8884926300234
79.8884926951869
79.8884927580075
79.8884928181069
79.8884928750485
79.8884929285414
79.8884929782944
79.8884930242639
79.8884930662171
79.8884931037173
79.8884931359207
79.8884931480425
79.8884931183711
79.8884929228807
79.8884923063306
79.8884906330786
79.8884866587323
79.8884979991271
79.8884994883701
79.8885000596783
79.8885002195748
79.888500251458
79.8885002346506
79.8885002241586
79.8885002183088
79.8885002211609
79.8885002302268
79.8885002441093
79.8885002623283
79.8885002844618
79.8885003105097
79.888500340443
79.888500374349
79.8885004122712
79.8885004541953
79.8885005000629
79.8885005497286
79.8885006030177
79.8885006596829
79.8885007194476
79.8885007819772
79.8885008469078
79.8885009138612
79.8885009824007
79.8885010521044
79.8885011225357
79.8885011932725
79.8885012638493
79.888501333844
79.8885014028201
79.8885014703555
79.8885015360283
79.8885015994601
79.888501660258
79.8885017181165
79.8885017728462
79.8885018243745
79.8885018730653
79.8885019194859
79.8885019650916
79.8885020129092
79.8885020587622
79.8885021058377
79.8885020980088
79.8885019501031
79.8885013407853
79.8884996620036
79.8885028727236
79.8885034146224
79.8885035747517
79.8885035610874
79.8885035247076
79.888503480659
79.8885034571867
79.8885034447885
79.8885034437699
79.8885034505947
79.8885034631821
79.8885034807754
79.8885035027342
79.8885035288986
79.8885035591811
79.8885035935673
79.8885036320571
79.8885036746069
79.8885037211148
79.8885037714499
79.8885038253939
79.8885038827284
79.8885039431334
79.8885040063033
79.8885040718305
79.888504139366
79.8885042084585
79.8885042787151
79.8885043496703
79.8885044209164
79.8885044920025
79.888504562492
79.8885046319774
79.8885047000367
79.8885047662916
79.8885048303491
79.8885048919183
79.888504950708
79.8885050066456
79.8885050597601
79.888505110619
79.8885051601101
79.8885052103142
79.8885052651749
79.888505324212
79.8885053982085
79.8885054581915
79.8885054877901
79.8885053157865
79.8885046872747
79.888504554503
79.8885047146468
79.8885047271178
79.8885046609794
79.888504606075
79.8885045559582
79.8885045286734
79.8885045139177
79.8885045110073
79.8885045165225
79.8885045283532
79.8885045455827
79.888504567527
79.8885045939387
79.8885046246432
79.8885046595824
79.8885046986834
79.8885047419171
79.8885047891381
79.8885048401862
79.8885048948869
79.8885049529199
79.8885050140379
79.8885050778772
79.8885051440739
79.8885052122496
79.8885052819678
79.8885053528065
79.8885054243583
79.8885054961574
79.8885055677965
79.8885056388535
79.8885057088919
79.8885057775333
79.8885058443993
79.8885059091554
79.8885059714958
79.8885060312314
79.8885060882894
79.88850614283
79.8885061954643
79.8885062471527
79.8885063000635
79.8885063578491
79.8885064211063
79.8885065010982
79.888506579111
79.8885066620714
79.8885066485527
79.8885064513597
79.8885050253739
79.8885050488025
79.8885050178505
79.8885049449309
79.8885048901866
79.888504842238
79.8885048151424
79.888504800183
79.8885047965741
79.8885048014781
79.8885048129596
79.8885048300726
79.888504852177
79.8885048789234
79.8885049101373
79.8885049457022
79.8885049855162
79.8885050294921
79.8885050774843
79.8885051293328
79.8885051847901
79.8885052436235
79.8885053054983
79.8885053700797
79.8885054370039
79.888505505849
79.8885055762366
79.8885056477302
79.8885057199077
79.888505792318
79.8885058645537
79.8885059362074
79.8885060068424
79.8885060761095
79.8885061436304
79.8885062090849
79.8885062722256
79.8885063328635
79.8885063909838
79.8885064467904
79.8885065008799
79.8885065541399
79.8885066086368
79.8885066673538
79.8885067309311
79.8885068088421
79.8885068864183
79.8885069759999
79.8885070096148
79.8885069705429
79.8885050618119
79.888505044175
79.8885050066601
79.8885049417295
79.8885048931406
79.8885048502998
79.8885048251832
79.8885048111697
79.8885048076772
79.8885048125376
79.8885048240045
79.8885048412776
79.8885048637167
79.8885048909433
79.8885049227538
79.8885049590172
79.8885049996024
79.8885050443932
79.8885050932149
79.8885051459074
79.8885052022088
79.8885052618571
79.8885053245467
79.8885053899139
79.8885054575949
79.8885055271967
79.8885055982973
79.8885056704894
79.8885057433363
79.8885058164014
79.8885058892774
79.8885059615568
79.8885060328466
79.8885061027686
79.8885061709589
79.888506237141
79.8885063010675
79.8885063625785
79.8885064216884
79.8885064785864
79.8885065337963
79.8885065882205
79.8885066435323
79.8885067020601
79.8885067642696
79.8885068373202
79.8885069086828
79.8885069898388
79.8885070309916
79.8885070412507
79.8885049482196
79.8885049229721
79.8885048900265
79.8885048363445
79.8885047951917
79.8885047582589
79.8885047359363
79.8885047235672
79.8885047207732
79.8885047260264
79.888504737828
79.8885047554795
79.8885047784133
79.8885048062511
79.8885048387601
79.8885048758093
79.8885049172386
79.8885049629025
79.888505012641
79.8885050662211
79.8885051234247
79.8885051839461
79.8885052474798
79.888505313691
79.8885053821868
79.8885054525599
79.8885055244173
79.8885055973369
79.8885056708968
79.8885057446605
79.8885058182204
79.8885058911692
79.8885059631139
79.8885060337052
79.888506102594
79.8885061695037
79.8885062341869
79.8885062965419
79.8885063565249
79.8885064143542
79.88850647051
79.8885065256618
79.8885065812938
79.8885066390358
79.8885066991352
79.8885067666124
79.8885068306263
79.8885069001699
79.8885069368407
79.8885069576354
79.8885047825752
79.8885047597432
79.8885047334625
79.8885046905052
79.8885046564974
79.8885046254436
79.8885046062787
79.8885045959614
79.8885045943171
79.8885046002979
79.8885046127107
79.8885046309733
79.8885046545474
79.8885046831274
79.8885047164513
79.888504754359
79.8885047967051
79.8885048433149
79.8885048939846
79.8885049485252
79.8885050066601
79.8885050681129
79.8885051325633
79.8885051996331
79.8885052689875
79.88850534019
79.8885054128477
79.8885054865241
79.8885055608262
79.8885056353174
79.8885057096049
79.8885057832522
79.8885058558953
79.8885059271706
79.8885059967579
79.8885060643952
79.8885061298352
79.8885061929614
79.8885062537447
79.8885063123598
79.8885063691996
79.888506424817
79.8885064803908
79.8885065369832
79.8885065946815
79.8885066567309
79.8885067138326
79.8885067723895
79.8885068023083
79.8885068216186
79.8885045968782
79.8885045784555
79.8885045583011
79.8885045245406
79.8885044969502
79.8885044714116
79.88850445555
79.8885044475028
79.8885044473282
79.8885044543276
79.888504467599
79.8885044866474
79.8885045110364
79.8885045404604
79.8885045747011
79.8885046135547
79.8885046568757
79.8885047044896
79.888504756178
79.8885048117227
79.8885048708471
79.8885049332603
79.8885049986566
79.8885050666577
79.8885051368852
79.8885052089609
79.8885052824335
79.8885053569393
79.8885054320126
79.888505507246
79.8885055822466
79.8885056566214
79.8885057299631
79.8885058019514
79.8885058722517
79.888505940602
79.8885060067696
79.8885060706089
79.8885061321198
79.8885061913898
79.8885062487534
79.8885063046037
79.8885063598718
79.88850641514
79.88850647035
79.8885065274226
79.8885065784416
79.8885066277435
79.8885066514922
79.888506666699
79.8885044010385
79.888504386734
79.8885043715563
79.8885043454211
79.8885043234477
79.8885043029441
79.8885042903858
79.8885042847542
79.888504286253
79.8885042945039
79.888504308823
79.8885043288465
79.8885043541814
79.8885043845803
79.888504419825
79.8885044597118
79.8885045040661
79.8885045527277
79.8885046054638
79.8885046620562
79.8885047222138
79.8885047856456
79.8885048520169
79.8885049209784
79.8885049921228
79.8885050650861
79.8885051394318
79.8885052147525
79.8885052906408
79.88850536666
79.8885054424172
79.8885055175197
79.8885055916035
79.8885056642903
79.8885057353036
79.8885058043525
79.888505871204
79.8885059357272
79.8885059978638
79.8885060576868
79.8885061154142
79.8885061713372
79.8885062261106
79.8885062799964
79.8885063328198
79.8885063854395
79.8885064312926
79.8885064730712
79.8885064919014
79.8885065031791
79.8885041982139
79.8885041871836
79.8885041759349
79.8885041560134
79.8885041389003
79.8885041229805
79.8885041136236
79.8885041104659
79.8885041137837
79.8885041234753
79.8885041390167
79.8885041601461
79.8885041865578
79.8885042180191
79.8885042543261
79.8885042953043
79.888504340779
79.8885043905466
79.8885044443887
79.8885045020579
79.8885045632924
79.8885046277719
79.8885046951618
79.8885047650983
79.8885048372031
79.8885049110831
79.8885049863165
79.8885050624958
79.8885051392135
79.8885052160331
79.8885052925616
79.8885053684207
79.8885054432321
79.8885055166465
79.8885055883584
79.8885056580912
79.888505725612
79.888505790761
79.8885058534652
79.8885059137392
79.8885059717286
79.8885060275934
79.8885060817847
79.8885061343026
79.8885061848414
79.8885062336049
79.8885062751215
79.8885063108901
79.888506325995
79.8885063341731
79.8885039894958
79.8885039809829
79.8885039727902
79.8885039579473
79.8885039450688
79.8885039332235
79.8885039269371
79.8885039262241
79.8885039314919
79.8885039427259
79.8885039596207
79.8885039819725
79.8885040095774
79.8885040422028
79.888504079674
79.8885041218164
79.8885041684407
79.8885042193579
79.8885042743495
79.8885043331538
79.8885043954942
79.8885044610506
79.8885045294883
79.8885046004289
79.8885046735231
79.8885047483491
79.8885048244847
79.8885049015516
79.8885049790988
79.8885050567478
79.8885051340767
79.8885052106925
79.8885052862461
79.8885053603735
79.8885054327839
79.8885055031715
79.8885055713326
79.8885056370636
79.8885057002917
79.8885057609441
79.8885058190936
79.8885058748274
79.888505928393
79.8885059795866
79.8885060280591
79.8885060734901
79.8885061113979
79.8885061423935
79.8885061547626
79.8885061606416
79.8885037754953
79.8885037689179
79.8885037631117
79.888503752416
79.8885037432046
79.888503735041
79.888503731665
79.8885037333675
79.8885037406144
79.8885037535074
79.8885037718428
79.8885037955624
79.8885038244189
79.8885038582812
79.8885038969893
79.888503940354
79.8885039882007
79.8885040403111
79.888504096496
79.8885041564645
79.8885042199254
79.8885042865877
79.8885043561022
79.8885044280905
79.8885045021743
79.8885045779607
79.8885046550422
79.8885047329968
79.8885048114171
79.888504889881
79.8885049680102
79.8885050453973
79.888505121693
79.8885051965481
79.8885052696278
79.8885053406702
79.888505409428
79.888505475712
79.8885055393766
79.8885056003492
79.8885056586005
79.8885057141451
79.8885057670705
79.8885058170417
79.8885058636515
79.888505906245
79.8885059411696
79.8885059684399
79.8885059788008
79.8885059830354
79.8885035568237
79.8885035517305
79.888503547787
79.8885035405256
79.8885035345156
79.8885035296407
79.888503529015
79.888503533075
79.8885035423009
79.888503556911
79.8885035768035
79.8885036019201
79.8885036321444
79.8885036673164
79.8885037073051
79.8885037519503
79.8885038010631
79.8885038544249
79.8885039118177
79.8885039729794
79.8885040376044
79.8885041054018
79.8885041760077
79.8885042490438
79.8885043241607
79.8885044009221
79.8885044789495
79.8885045578063
79.8885046370997
79.8885047164076
79.8885047953518
79.8885048735101
79.8885049505479
79.888505026116
79.8885050998797
79.8885051715479
79.8885052408732
79.8885053076665
79.8885053717386
79.888505432973
79.8885054912826
79.8885055466089
79.8885055989231
79.8885056477739
79.8885056927247
79.8885057329317
79.8885057653824
79.8885057897569
79.8885057986772
79.8885058017186
79.8885033340775
79.8885033301485
79.8885033277038
79.8885033233091
79.8885033200932
79.8885033181868
79.8885033201514
79.8885033264814
79.8885033377155
79.8885033540719
79.8885033755505
79.8885034021514
79.8885034338018
79.8885034703417
79.8885035116837
79.8885035576386
79.8885036080319
79.8885036626743
79.888503721304
79.8885037836735
79.8885038494918
79.8885039184388
79.8885039901506
79.8885040642781
79.8885041404137
79.8885042181792
79.8885042971524
79.8885043769405
79.888504457107
79.8885045372735
79.8885046170035
79.8885046959622
79.8885047737276
79.8885048499942
79.8885049244127
79.8885049967066
79.8885050665849
79.8885051338584
79.8885051982943
79.888505259747
79.8885053181002
79.8885053731938
79.8885054249113
79.8885054727725
79.8885055162682
79.888505554467
79.8885055849096
79.8885056069994
79.8885056149302
79.8885056171275
79.8885031079262
79.8885031049285
79.8885031037207
79.8885031017271
79.8885031009995
79.8885031017562
79.8885031061509
79.8885031146783
79.8885031278915
79.8885031460231
79.8885031691461
79.8885031972895
79.8885032303951
79.8885032683611
79.8885033110855
79.8885033583938
79.8885034101258
79.8885034660634
79.8885035259591
79.8885035895801
79.8885036565916
79.8885037267028
79.8885037995497
79.8885038747394
79.8885039519373
79.8885040306923
79.8885041106405
79.8885041913454
79.8885042724141
79.8885043534247
79.8885044339841
79.8885045136994
79.888504592207
79.8885046691721
79.8885047442309
79.8885048171069
79.8885048875236
79.8885049552191
79.8885050200042
79.8885050816607
79.8885051400284
79.8885051948891
79.8885052460682
79.8885052930418
79.8885053352569
79.8885053717677
79.8885054005805
79.8885054208949
79.8885054281563
79.8885054297425
79.8885028790683
79.8885028768564
79.8885028766672
79.8885028767254
79.8885028782097
79.8885028814257
79.888502888105
79.8885028987424
79.8885029139055
79.8885029338271
79.888502958609
79.8885029883386
79.888503022943
79.8885030623642
79.8885031065001
79.8885031552054
79.8885032082762
79.888503265538
79.8885033267434
79.8885033916013
79.8885034598352
79.888503531125
79.888503605107
79.8885036814027
79.8885037596337
79.8885038394073
79.888503920316
79.8885040019522
79.8885040838941
79.8885041657486
79.8885042471084
79.888504327595
79.8885044068302
79.8885044844792
79.8885045601783
79.8885046336218
79.8885047045478
79.8885047726653
79.888504837756
79.8885048995871
79.8885049579403
79.8885050125973
79.8885050632816
79.8885051094694
79.8885051505931
79.8885051856923
79.8885052131664
79.8885052320984
79.8885052389232
79.8885052400874
79.8885026482603
79.8885026467324
79.8885026474163
79.888502649279
79.8885026527569
79.8885026582284
79.8885026670614
79.8885026797361
79.8885026968201
79.888502718517
79.8885027449869
79.8885027763026
79.8885028124496
79.8885028533696
79.8885028989316
79.8885029490484
79.8885030035017
79.8885030620877
79.8885031245882
79.8885031907121
79.8885032601684
79.8885033326515
79.8885034077539
79.8885034851555
79.8885035644344
79.8885036452266
79.8885037270957
79.8885038096487
79.8885038924927
79.8885039751913
79.8885040573514
79.8885041385947
79.8885042185429
79.8885042968468
79.888504373157
79.8885044471681
79.8885045185743
79.8885045870848
79.888504652452
79.8885047144431
79.8885047727963
79.8885048272496
79.8885048774973
79.8885049229866
79.888504963179
79.888504997085
79.8885050234821
79.8885050413228
79.8885050478566
79.8885050487297
79.8885024162446
79.8885024153278
79.888502416783
79.8885024202755
79.8885024255578
79.8885024331394
79.8885024440096
79.8885024586489
79.88850247761
79.8885025010823
79.8885025292402
79.8885025621566
79.8885025998607
79.8885026422795
79.8885026893113
79.8885027408396
79.8885027966753
79.8885028566292
79.8885029204248
79.8885029878293
79.8885030585079
79.8885031321552
79.8885032083926
79.8885032868857
79.8885033672268
79.8885034490086
79.8885035318526
79.888503615337
79.8885036990541
79.8885037825821
79.8885038655426
79.8885039475426
79.8885040282039
79.888504107148
79.8885041840695
79.8885042586044
79.8885043304472
79.8885043993359
79.8885044649796
79.8885045271163
79.8885045854549
79.8885046397336
79.8885046895593
79.888504734452
79.8885047738295
79.8885048067314
79.8885048322409
79.8885048492084
79.8885048555821
79.8885048562079
79.8885021838068
79.8885021834867
79.8885021856549
79.8885021906317
79.8885021976021
79.8885022071481
79.8885022199684
79.8885022365139
79.8885022573086
79.888502282527
79.8885023123585
79.8885023469047
79.8885023861658
79.888502430098
79.8885024786141
79.8885025315685
79.8885025888012
79.8885026500939
79.8885027152137
79.8885027838696
79.8885028557706
79.8885029305966
79.8885030079837
79.8885030875535
79.8885031689279
79.8885032517283
79.8885033355182
79.8885034199047
79.8885035044805
79.8885035888379
79.8885036725842
79.8885037553118
79.888503836657
79.8885039162415
79.8885039937304
79.8885040687746
79.8885041410686
79.8885042103066
79.8885042761976
79.8885043384507
79.8885043967748
79.8885044508788
79.8885045003553
79.8885045447241
79.888504583374
79.8885046154173
79.8885046401847
79.8885046564246
79.8885046627111
79.8885046631331
79.8885019517038
79.8885019519657
79.8885019548034
79.8885019611917
79.8885019697482
79.8885019811569
79.8885019958543
79.8885020142334
79.8885020368325
79.8885020637681
79.8885020952875
79.8885021314636
79.8885021722817
79.8885022177274
79.8885022677277
79.8885023221083
79.8885023807379
79.8885024433694
79.8885025097989
79.8885025797208
79.8885026528442
79.8885027288343
79.8885028073419
79.8885028879886
79.8885029704106
79.888503054186
79.8885031389218
79.8885032242106
79.8885033096449
79.8885033948172
79.8885034793202
79.8885035627754
79.8885036447755
79.8885037249856
79.8885038030276
79.8885038785666
79.8885039512679
79.8885040208406
79.88850408695
79.8885041493195
79.888504207629
79.888504261573
79.8885043107293
79.8885043546179
79.8885043926566
79.8885044239287
79.8885044480703
79.8885044636845
79.8885044699127
79.8885044701165
79.8885017207358
79.8885017216235
79.888501725145
79.8885017329012
79.8885017429711
79.8885017561697
79.888501772657
79.8885017928114
79.8885018171859
79.8885018458241
79.8885018789879
79.8885019167501
79.8885019591398
79.8885020061134
79.888502057569
79.8885021133901
79.8885021733877
79.8885022373724
79.8885023050971
79.8885023762705
79.8885024505871
79.8885025277414
79.8885026073549
79.8885026890785
79.8885027725191
79.8885028572695
79.8885029429366
79.8885030291131
79.8885031153768
79.888503201335
79.8885032865946
79.8885033707338
79.8885034534032
79.8885035341955
79.8885036127758
79.8885036887805
79.8885037618747
79.8885038317385
79.8885038980661
79.8885039605375
79.8885040188325
79.8885040726309
79.8885041214817
79.8885041649337
79.8885042024049
79.888504232993
79.8885042565962
79.8885042716138
79.8885042777838
79.8885042777692
79.8885014916596
79.8885014932021
79.8885014974221
79.8885015065462
79.8885015180713
79.8885015330306
79.8885015512496
79.8885015731503
79.8885015992419
79.8885016295535
79.8885016643617
79.8885017037246
79.8885017476423
79.8885017961147
79.88850184904
79.8885019062727
79.8885019676527
79.8885020329617
79.8885021019669
79.8885021743772
79.8885022498871
79.8885023281764
79.8885024088959
79.8885024916526
79.8885025761119
79.8885026618082
79.8885027483775
79.8885028354271
79.8885029225057
79.8885030092497
79.8885030952224
79.8885031800455
79.8885032633407
79.8885033447004
79.8885034237901
79.8885035002313
79.8885035736894
79.8885036438442
79.888503710361
79.8885037729196
79.8885038311855
79.8885038848384
79.8885039334127
79.8885039764718
79.8885040134337
79.888504043367
79.8885040664463
79.8885040808673
79.88850408695
79.8885040866589
79.8885012652463
79.8885012675164
79.8885012724932
79.8885012830287
79.8885012959799
79.888501312671
79.8885013325635
79.8885013561812
79.8885013839608
79.8885014159168
79.8885014523257
79.8885014932603
79.8885015387204
79.8885015886772
79.8885016430431
79.8885017017019
79.8885017644207
79.8885018310539
79.8885019013105
79.8885019749287
79.8885020516173
79.8885021310125
79.8885022128088
79.8885022965842
79.8885023820039
79.8885024686315
79.888502556103
79.8885026439821
79.8885027318611
79.8885028193472
79.8885029060184
79.8885029915109
79.8885030753881
79.8885031573009
79.8885032368707
79.888503313734
79.8885033875413
79.8885034579434
79.8885035246349
79.8885035872663
79.8885036455031
79.8885036990105
79.8885037472937
79.8885037899745
79.8885038264561
79.8885038557491
79.8885038783337
79.8885038921435
79.8885038980661
79.8885038974258
79.8885010422382
79.8885010453378
79.8885010511585
79.8885010631784
79.8885010775412
79.8885010959348
79.8885011174716
79.8885011427483
79.8885011721868
79.8885012057581
79.8885012437677
79.8885012862447
79.8885013332183
79.8885013846448
79.8885014404368
79.8885015004489
79.8885015645064
79.8885016324202
79.8885017039138
79.8885017787252
79.8885018565488
79.88850193705
79.8885020198795
79.8885021046735
79.8885021910246
79.8885022785689
79.8885023668845
79.8885024555784
79.8885025442287
79.8885026324424
79.8885027197975
79.8885028059012
79.8885028903605
79.8885029727971
79.8885030528181
79.8885031300597
79.8885032041726
79.8885032748221
79.8885033416591
79.8885034043487
79.8885034625273
79.8885035158892
79.8885035639105
79.8885036061984
79.8885036422143
79.8885036708671
79.8885036929569
79.8885037060536
79.8885037117288
79.8885037106229
79.8885008234211
79.888500827481
79.8885008342622
79.8885008478392
79.888500863628
79.8885008837387
79.8885009068763
79.8885009337973
79.8885009648657
79.8885010000085
79.8885010395607
79.8885010835656
79.888501132009
79.8885011848761
79.8885012420506
79.888501303416
79.8885013687832
79.8885014379484
79.8885015106644
79.8885015866399
79.8885016655695
79.888501747133
79.8885018309666
79.888501916721
79.8885020040034
79.8885020924208
79.8885021815659
79.8885022710456
79.888502360438
79.8885024493502
79.8885025373456
79.8885026240459
79.8885027090582
79.8885027919605
79.8885028724035
79.8885029500088
79.8885030244273
79.8885030952661
79.888503162234
79.8885032249527
79.8885032830731
79.8885033362749
79.8885033840052
79.8885034259147
79.8885034614505
79.8885034894483
79.8885035110143
79.8885035232961
79.888503528593
79.888503526905
79.8885006095079
79.8885006147029
79.8885006225755
79.8885006378405
79.8885006550699
79.8885006769124
79.8885007016215
79.8885007301578
79.8885007628123
79.8885007994977
79.8885008405778
79.888500886067
79.888500935951
79.8885009902297
79.888501048772
79.8885011114471
79.8885011780949
79.8885012484679
79.888501322348
79.8885013994441
79.8885014794505
79.8885015620472
79.8885016468557
79.888501733556
79.8885018217115
79.888501910973
79.8885020009184
79.8885020911403
79.8885021812457
79.8885022708273
79.8885023594485
79.8885024467018
79.8885025322234
79.8885026155913
79.8885026964272
79.8885027743672
79.8885028490186
79.8885029200464
79.8885029871017
79.888503049835
79.888503107868
79.8885031608952
79.8885032083344
79.8885032498365
79.8885032849066
79.8885033121769
79.8885033331753
79.8885033444967
79.8885033492552
79.888503346825
79.88850040127
79.8885004077747
79.8885004169715
79.8885004340555
79.8885004527692
79.8885004763288
79.888500502595
79.888500532732
79.888500566929
79.8885006051278
79.8885006476921
79.8885006946366
79.8885007459321
79.8885008015786
79.8885008614452
79.8885009254009
79.888500993271
79.8885010648373
79.8885011398379
79.8885012180253
79.888501299065
79.8885013826366
79.8885014684056
79.8885015559936
79.8885016450076
79.8885017350694
79.8885018257715
79.888501916721
79.8885020074813
79.8885020976741
79.8885021868773
79.888502274669
79.8885023606563
79.8885024444462
79.8885025256313
79.8885026038624