/*--------------------------------*- C++ -*----------------------------------*\
  =========                 |
  \\      /  F ield         | OpenFOAM: The Open Source CFD Toolbox
   \\    /   O peration     | Website:  https://openfoam.org
    \\  /    A nd           | Version:  10
     \\/     M anipulation  |
\*---------------------------------------------------------------------------*/
FoamFile
{
    format      ascii;
    class       surfaceScalarField;
    location    "3.8";
    object      phi;
}
// * * * * * * * * * * * * * * * * * * * * * * * * * * * * * * * * * * * * * //

dimensions      [1 0 -1 0 0 0 0];

internalField   nonuniform List<scalar> 
4900
(
-6.43340522226277e-12
6.67420359954306e-12
-7.57916500304489e-12
1.50855086407399e-12
-5.81352827096286e-12
-1.37458564101082e-12
-3.86877337074153e-12
-1.55484129571795e-12
-2.4906020006253e-12
-9.93777453671618e-13
-1.64337095294816e-12
-4.67158384051247e-13
-1.13430104626599e-12
-1.32080638162646e-13
-8.25005366743163e-13
6.54080296396568e-14
-6.27907980054759e-13
1.75971398071235e-13
-4.94970313012537e-13
2.39139773275053e-13
-4.00160556066756e-13
2.76863295738191e-13
-3.29142708861038e-13
3.00750502130396e-13
-2.73920366542771e-13
3.16998648158712e-13
-2.29739258209513e-13
3.28739259863923e-13
-1.93652632387124e-13
3.37656769914239e-13
-1.63696646298691e-13
3.44673236713008e-13
-1.38508292384337e-13
3.50318500731503e-13
-1.1706769033466e-13
3.5492341571361e-13
-9.85882281486624e-14
3.58686373673636e-13
-8.244700767556e-14
3.61783353684117e-13
-6.81212739405817e-14
3.6429566513468e-13
-5.51587437980194e-14
3.66314211441168e-13
-4.31746273942809e-14
3.6789294018865e-13
-3.18117315172027e-14
3.69082242825067e-13
-2.0748087494803e-14
3.69905782626556e-13
-9.64713999244071e-15
3.70371624083379e-13
1.80065964685084e-15
3.70496653178256e-13
1.39311028134295e-14
3.70276086057285e-13
2.70915960990497e-14
3.69690263979115e-13
4.16597402691272e-14
3.68728640791705e-13
5.80777370284573e-14
3.67319579727856e-13
7.68612329744557e-14
3.65407958570458e-13
9.86115526215451e-14
3.62903043876879e-13
1.2409999651872e-13
3.59654521484701e-13
1.54356838274529e-13
3.5540391537792e-13
1.90770721082512e-13
3.49820969962666e-13
2.35311853091923e-13
3.42339656634952e-13
2.90964462527559e-13
3.31992018171917e-13
3.62483084536461e-13
3.17042717482185e-13
4.57957598507192e-13
2.94210106178707e-13
5.91804587519815e-13
2.57193253018713e-13
7.90184223402702e-13
1.94273174668291e-13
1.10124738720068e-12
8.34900306237769e-14
1.61345977565436e-12
-1.15264364502877e-13
2.46660317615849e-12
-4.52687761364426e-13
3.86125937305473e-12
-9.88360447595027e-13
5.85168762904315e-12
-1.57495850252164e-12
7.69750502729819e-12
-1.41831145654377e-12
6.55502473746209e-12
1.56494127393076e-12
6.84214673822275e-12
-7.45126886389294e-12
1.44544116476049e-11
-1.18014869962056e-11
6.31473772291051e-12
-9.949635435337e-12
-2.74932255069216e-12
-7.18071233774228e-12
-3.85208382928489e-12
-4.98594771746295e-12
-2.72592598863179e-12
-3.5254315816567e-12
-1.4719305960859e-12
-2.58441511753882e-12
-6.2193465117957e-13
-1.96526957333366e-12
-1.05600091158774e-13
-1.53784908161728e-12
1.94760497350909e-13
-1.22662644829859e-12
3.73086175472103e-13
-9.89099256704295e-13
4.84181578499655e-13
-8.00998912440177e-13
5.57745819772829e-13
-6.47867853548934e-13
6.09610187920733e-13
-5.20620205549909e-13
6.48148743576986e-13
-4.13261454144561e-13
6.77999422193482e-13
-3.21585967867794e-13
7.01804285980471e-13
-2.42540315124327e-13
7.21168361174896e-13
-1.7377525040068e-13
7.37112105883437e-13
-1.13453517136432e-13
7.50308398352057e-13
-6.00488039008581e-14
7.61256858012484e-13
-1.22772531565687e-14
7.70262457844053e-13
3.09936118698573e-14
7.7758902785711e-13
7.07562362521619e-14
7.83418238706248e-13
1.07947384296159e-13
7.87880229459096e-13
1.43434956692555e-13
7.91056661090132e-13
1.78108325170364e-13
7.9295872445059e-13
2.12820493430281e-13
7.93631311679523e-13
2.48482060965656e-13
7.930352039715e-13
2.86032098156171e-13
7.91114596143602e-13
3.26504222054825e-13
7.87786656514285e-13
3.71060000696786e-13
7.82844893481707e-13
4.21034817983307e-13
7.7608176596028e-13
4.77979921319848e-13
7.67186569688495e-13
5.43803943442859e-13
7.55673772926956e-13
6.20935907998271e-13
7.40769116816837e-13
7.12545162072957e-13
7.21436041677495e-13
8.22920458911845e-13
6.96012070065823e-13
9.58180821749551e-13
6.61755714387026e-13
1.12751070997994e-12
6.13911967726923e-13
1.34556414391709e-12
5.43794533131539e-13
1.63687712330514e-12
4.35254426909944e-13
2.04434757370911e-12
2.58259855732113e-13
2.64414668865078e-12
-4.23151614917175e-14
3.56788903103116e-12
-5.61590662686335e-13
5.01686769231503e-12
-1.41884347714385e-12
7.22027399458165e-12
-2.69964700759172e-12
1.00557230339572e-11
-3.90403160078796e-12
1.20382954916392e-11
-2.88060585885584e-12
7.68400493064467e-12
6.41560572212519e-12
1.4839069159121e-11
-4.27661582656891e-12
1.90651211513343e-11
-9.4280645294509e-12
1.19028985460221e-11
-8.98578806666885e-12
-2.75175763319576e-12
-7.2108610667028e-12
-5.19886211828075e-12
-5.50739198448074e-12
-4.01363488734548e-12
-4.21308433468087e-12
-2.35934740168319e-12
-3.28386695065459e-12
-1.1497480741379e-12
-2.61133184525339e-12
-3.79950379067859e-13
-2.10973128433679e-12
8.95490698544346e-14
-1.72252381670703e-12
3.81438068685633e-13
-1.41433114020114e-12
5.71403677543426e-13
-1.16296816032266e-12
7.02162094397647e-13
-9.53944605190731e-13
7.97068374271439e-13
-7.77444992376649e-13
8.69058281958036e-13
-6.26578113812943e-13
9.25572972121804e-13
-4.9629321436432e-13
9.71038669134976e-13
-3.82792109196348e-13
1.00824364638068e-12
-2.83084966898639e-13
1.03900561047484e-12
-1.94785511277877e-13
1.06456752117947e-12
-1.1587850197448e-13
1.08581263376767e-12
-4.46652592461877e-14
1.10334392439786e-12
2.03771394625937e-14
1.11762266923267e-12
8.05993183422942e-14
1.12899023311255e-12
1.37278178128596e-13
1.13767442350965e-12
1.91616950293808e-13
1.14382012940198e-12
2.44814627547159e-13
1.14746621451447e-12
2.98056867691538e-13
1.14866232194392e-12
3.52585001390169e-13
1.14733655776386e-12
4.09688569117393e-13
1.14337744620396e-12
4.70785744440916e-13
1.13659466680181e-12
5.37439533203439e-13
1.12663136058313e-12
6.11442555187577e-13
1.11306931012479e-12
6.94861656024199e-13
1.09532033813465e-12
7.90197231899579e-13
1.07248755468909e-12
9.00533194722411e-13
1.04321703657386e-12
1.02980745249392e-12
1.00565055227958e-12
1.18317554429529e-12
9.56930833820121e-13
1.36764007114671e-12
8.92523872473377e-13
1.5931001681976e-12
8.04822068185834e-13
1.87418267740019e-12
6.80476394586589e-13
2.2332415794335e-12
4.95657364048203e-13
2.70593476928296e-12
2.0711370989108e-13
3.34944814340502e-12
-2.61606748064423e-13
4.25094232595829e-12
-1.03497924823448e-12
5.5235186061206e-12
-2.25677602816995e-12
7.22684272711119e-12
-3.95671106691914e-12
9.0626047820204e-12
-5.27538805075152e-12
9.64773886182003e-12
-2.98541679959197e-12
4.51127829242268e-12
1.20065486449644e-11
1.96273720405399e-11
-2.71174108740964e-12
2.20900369688744e-11
-5.91338311740497e-12
1.54948771583427e-11
-6.52432891665436e-12
-1.76097678309669e-12
-5.96342714415838e-12
-5.39567255847165e-12
-5.06441287462078e-12
-4.56253798074767e-12
-4.18814845486909e-12
-2.89512318329151e-12
-3.45132961629125e-12
-1.55176062594995e-12
-2.85591552594932e-12
-6.43627181615482e-13
-2.37764650914122e-12
-5.85004466936974e-14
-1.99034832907829e-12
3.23792933546394e-13
-1.67263563504112e-12
5.83388271570145e-13
-1.4084657631247e-12
7.68161945618406e-13
-1.18594864239734e-12
9.05467588326214e-13
-9.96302573734584e-13
1.01125588926164e-12
-8.32975254549859e-13
1.09509632552704e-12
-6.9097297999389e-13
1.16292815843172e-12
-5.66418802763793e-13
1.21859702586869e-12
-4.56210405842992e-13
1.26468701935419e-12
-3.57829910896401e-13
1.30299511982103e-12
-2.69132065618778e-13
1.3347895502628e-12
-1.88297266018342e-13
1.36098199677668e-12
-1.13688732313548e-13
1.38223670545615e-12
-4.38438480679824e-14
1.39905771966113e-12
2.26203189008078e-14
1.41177348825055e-12
8.70126128863856e-14
1.42059504102345e-12
1.50617341540092e-13
1.42560698236174e-12
2.1472501429012e-13
1.42684545544748e-12
2.80666425852195e-13
1.42421874448145e-12
3.49835113444436e-13
1.41754657573389e-12
4.23765012963114e-13
1.40651850070092e-12
5.0412133167774e-13
1.39064020182658e-12
5.92817338060012e-13
1.3692642541117e-12
6.92042664247957e-13
1.34152322697908e-12
8.04426198007046e-13
1.30609974230415e-12
9.33138046425812e-13
1.26110383797493e-12
1.08215134248019e-12
1.20390256998043e-12
1.25653606901116e-12
1.13056332495338e-12
1.46288856227095e-12
1.03507342256007e-12
1.70999047258334e-12
9.07680040098154e-13
2.00971710968322e-12
7.32000847464604e-13
2.37802425522974e-12
4.80176878100177e-13
2.83620562756476e-12
1.03720041235219e-13
3.41052249063745e-12
-4.78553191011273e-13
4.12580380758748e-12
-1.38900328830331e-12
4.98421580994615e-12
-2.74717656388167e-12
5.88330283129523e-12
-4.47544110715449e-12
6.49676433173634e-12
-5.48864925748456e-12
6.01569828010516e-12
-2.08653403754714e-12
2.84544838339382e-12
1.55711868578096e-11
2.27076771140411e-11
-1.99902647262243e-12
2.43575847604525e-11
-3.48131548564045e-12
1.7294677948866e-11
-4.55767749049724e-12
-3.87601309210391e-13
-4.73827109246982e-12
-4.93424965558661e-12
-4.41351868593512e-12
-4.61952346073422e-12
-3.88605218098042e-12
-3.16370387292948e-12
-3.34500688240443e-12
-1.83900405497756e-12
-2.85649234620041e-12
-8.80885336412198e-13
-2.43714247271197e-12
-2.27676287670086e-13
-2.08342526544597e-12
2.20005649732015e-13
-1.78579534299728e-12
5.35942864770157e-13
-1.53424665985903e-12
7.67385846520739e-13
-1.32001262702303e-12
9.42801054591239e-13
-1.13595642195501e-12
1.07969931700924e-12
-9.76414334595411e-13
1.18904089462048e-12
-8.36888677279409e-13
1.27789755829939e-12
-7.13787712579359e-13
1.35096997038257e-12
-6.04179993514149e-13
1.41149825787797e-12
-5.0564591030689e-13
1.46176264821397e-12
-4.16110359703895e-13
1.5033892451508e-12
-3.33795993255951e-13
1.53757063240285e-12
-2.57105598800376e-13
1.5651698373394e-12
-1.84599690579269e-13
1.58683859843559e-12
-1.14924096894077e-13
1.60301062321415e-12
-4.67912645181797e-14
1.6139552010054e-12
2.1060393152894e-14
1.61980308113526e-12
8.9894191034763e-14
1.62058255056317e-12
1.61015027008115e-13
1.61617925719717e-12
2.35791182477919e-13
1.60634424216898e-12
3.15715115267961e-13
1.59066106319089e-12
4.02410965155279e-13
1.56849864934441e-12
4.97729057350528e-13
1.53900087302769e-12
6.03784922557594e-13
1.50103163791986e-12
7.23081068884381e-13
1.45290565575658e-12
8.58588404687356e-13
1.39226690559437e-12
1.01395816954221e-12
1.31582807113588e-12
1.1937165654693e-12
1.21879798402783e-12
1.40351494613077e-12
1.0940797565464e-12
1.65040674256925e-12
9.30549911356726e-13
1.94301750011821e-12
7.10305940966135e-13
2.29104521269202e-12
4.04459396369119e-13
2.70356111916254e-12
-3.47566649971495e-14
3.18347579145842e-12
-6.82144963761096e-13
3.7135013621666e-12
-1.63924062334711e-12
4.23031261121455e-12
-2.97807700042157e-12
4.55738266764897e-12
-4.50507056917179e-12
4.42459012339209e-12
-5.03925853543519e-12
3.45680006096799e-12
-7.85142944607694e-13
2.02303950677673e-12
1.73191955584549e-11
2.49108389952986e-11
-1.43185659005515e-12
2.60001256419747e-11
-2.24780790885342e-12
1.83434423496752e-11
-3.42034578444275e-12
9.93670186091159e-13
-3.88499686946985e-12
-4.27515193651146e-12
-3.84738695463779e-12
-4.47350619838658e-12
-3.53644376321912e-12
-3.29834344568839e-12
-3.14149417885713e-12
-2.06173544299406e-12
-2.74771659059385e-12
-1.10431761993015e-12
-2.38980871446958e-12
-4.15855130873184e-13
-2.0768321707175e-12
7.68294844669794e-14
-1.8071452733307e-12
4.36508454918706e-13
-1.57546471539163e-12
7.0665545521055e-13
-1.37585707571841e-12
9.14987646989413e-13
-1.20288280252567e-12
1.07946138442219e-12
-1.05191682528384e-12
1.21178698451623e-12
-9.19105917294641e-13
1.31978433251408e-12
-8.01282464904403e-13
1.40879696139972e-12
-6.95786877107987e-13
1.48257096783104e-12
-6.00386004993487e-13
1.54378787081483e-12
-5.13151383967798e-13
1.59439023454061e-12
-4.32409169813049e-13
1.63580995963426e-12
-3.56651909181638e-13
1.66909471117532e-12
-2.84507683035435e-13
1.69502107998551e-12
-2.14684631234911e-13
1.71412241147895e-12
-1.4596158936268e-13
1.72673054115269e-12
-7.71335650678232e-14
1.73301176185993e-12
-7.00131590231698e-15
1.73299373255846e-12
6.56785749477554e-14
1.72653642401528e-12
1.42206913315213e-13
1.7133283249032e-12
2.23994830317792e-13
1.69285993034606e-12
3.12578607068613e-13
1.66437067042332e-12
4.09682575167864e-13
1.62683263490528e-12
5.17276112833745e-13
1.57886154763657e-12
6.37653144338801e-13
1.51846461248056e-12
7.7348841148945e-13
1.44290602308383e-12
9.27986011621707e-13
1.3483917478495e-12
1.10498473957226e-12
1.22950784890813e-12
1.30906399360057e-12
1.07844910242661e-12
1.54551981499843e-12
8.83397757615567e-13
1.82006673955013e-12
6.26070745475894e-13
2.13754454038164e-12
2.78486066439447e-13
2.49886923635573e-12
-2.03124928820408e-13
2.89387328903369e-12
-8.82305343915572e-13
3.28637521381882e-12
-1.8340612558931e-12
3.59300847662073e-12
-3.08197085937944e-12
3.63577083150197e-12
-4.33523716057992e-12
3.21774432696719e-12
-4.39164261789071e-12
2.13736165784084e-12
5.40432858530159e-13
1.3884969358095e-12
1.82974850071768e-11
2.64258241909144e-11
-9.24466121341177e-13
2.70656443192159e-11
-1.71917050988392e-12
1.92753758698219e-11
-2.81445352697308e-12
2.20257976557701e-12
-3.3204055006968e-12
-3.66547996848651e-12
-3.39665676864582e-12
-4.30074990654805e-12
-3.21041895531581e-12
-3.39313697892871e-12
-2.91832340017187e-12
-2.26514422434057e-12
-2.60098425251668e-12
-1.33405022892126e-12
-2.29750679888909e-12
-6.31848855915235e-13
-2.0229332479779e-12
-1.09878948441369e-13
-1.7806044874787e-12
2.82685112267903e-13
-1.56878416918725e-12
5.84143571312317e-13
-1.38394394460257e-12
8.20349379698201e-13
-1.22221226968074e-12
1.008888560738e-12
-1.07999261301665e-12
1.16169647790812e-12
-9.5409701361629e-13
1.28698838167197e-12
-8.41803680348137e-13
1.39053660513931e-12
-7.40757420873942e-13
1.4764552743149e-12
-6.48936278198049e-13
1.5477354581968e-12
-5.64568732240988e-13
1.60658251656548e-12
-4.86093432380458e-13
1.65462370451808e-12
-4.1209871334754e-13
1.69307350246147e-12
-3.41291709729334e-13
1.72281764640021e-12
-2.72449109335956e-13
1.74447705704372e-12
-2.04413663760257e-13
1.75844182908953e-12
-1.36038626881227e-13
1.76490792307292e-12
-6.61895501026463e-14
1.76390826393423e-12
6.31423751519761e-15
1.75527526325657e-12
8.27016154590139e-14
1.7386436056261e-12
1.64302818443974e-13
1.71341945660547e-12
2.52554584350637e-13
1.67873113588746e-12
3.49056595686201e-13
1.63340354653026e-12
4.55614161303993e-13
1.57584349656412e-12
5.7429378811931e-13
1.5038127881165e-12
7.07454276542179e-13
1.41428310328789e-12
8.57837568034689e-13
1.30309699379381e-12
1.02859303911997e-12
1.16443856474163e-12
1.2232513970801e-12
9.90145714907635e-13
1.44550883834035e-12
7.6824526524737e-13
1.6986286737825e-12
4.8091014051952e-13
1.98385519454702e-12
1.02189571203312e-13
2.29703336814776e-12
-4.06240130353211e-13
2.6218622278689e-12
-1.09566072727613e-12
2.91755081448162e-12
-2.01621418169708e-12
3.10488584877455e-12
-3.15205229313493e-12
3.03746758729732e-12
-4.14292750228514e-12
2.57867123194075e-12
-3.79412927442489e-12
1.56770562135651e-12
1.70259026865667e-12
8.53188333142378e-13
1.91513658133131e-11
2.73483700427314e-11
-5.62555796714873e-13
2.76988727206251e-11
-1.47448142689238e-12
2.02332469000872e-11
-2.43267389446869e-12
3.18800323677715e-12
-2.90221164863012e-12
-3.17348925192767e-12
-3.02123677645055e-12
-4.16270012928117e-12
-2.91293329385713e-12
-3.48511535803975e-12
-2.69661728283798e-12
-2.46655160720245e-12
-2.44139220935642e-12
-1.57469398606728e-12
-2.18497577933727e-12
-8.73369908686892e-13
-1.94494955693625e-12
-3.34365380483772e-13
-1.72780704999256e-12
8.18812458121202e-14
-1.5344823988941e-12
4.08050765066225e-13
-1.36344241158471e-12
6.67481076804718e-13
-1.21221119504553e-12
8.76804249157881e-13
-1.07814255137674e-12
1.04774768866369e-12
-9.58695488539674e-13
1.18862538356668e-12
-8.51583852869748e-13
1.30543313554688e-12
-7.54756446916754e-13
1.40252341252389e-12
-6.66405624962542e-13
1.48310848878656e-12
-5.84917865338785e-13
1.54960079378641e-12
-5.08849675348866e-13
1.60378257453409e-12
-4.36879707118538e-13
1.64700787365947e-12
-3.67792370843654e-13
1.68025724695661e-12
-3.00429593513992e-13
1.70422764357208e-12
-2.33693933553502e-13
1.71936180385672e-12
-1.66498657768499e-13
1.72588505610834e-12
-9.77630899750146e-14
1.72382946924761e-12
-2.63679272947592e-14
1.71300686463946e-12
4.88515809910231e-14
1.69300107565657e-12
1.29141729684188e-13
1.66315304237397e-12
2.15844992376112e-13
1.62249092091168e-12
3.10436723341162e-13
1.56972189076994e-12
4.14561689705351e-13
1.50307946557467e-12
5.30060561147471e-13
1.42014495007579e-12
6.58985782663356e-13
1.31767622573366e-12
8.03628556062845e-13
1.19129388051291e-12
9.66479259264611e-13
1.03498371003355e-12
1.15010491332206e-12
8.40522538814554e-13
1.35680465079781e-12
5.96203772241902e-13
1.58782859602675e-12
2.85256007296245e-13
1.84175626975473e-12
-1.15608773175451e-13
2.1113156697561e-12
-6.38848405678923e-13
2.37775791283602e-12
-1.3242119735862e-12
2.60194477817062e-12
-2.20121225657989e-12
2.71610618217458e-12
-3.22462991456203e-12
2.61008388986846e-12
-3.98997905039123e-12
2.18782059375412e-12
-3.31466945830266e-12
1.31069521553881e-12
2.64640919715489e-12
4.83683270836764e-13
2.00360504947494e-11
2.785253969204e-11
-3.60238301563224e-13
2.80610234058794e-11
-1.30942389146803e-12
2.11428987712315e-11
-2.12602915792298e-12
3.95316950755649e-12
-2.55134887852685e-12
-2.79859992024154e-12
-2.69044421094508e-12
-4.07351299128839e-12
-2.63714238508928e-12
-3.58865017534574e-12
-2.47984428748942e-12
-2.67418744159783e-12
-2.27629936541034e-12
-1.82819979033779e-12
-2.0609461902392e-12
-1.13798105212371e-12
-1.8521550120134e-12
-5.91545971061198e-13
-1.65838130537711e-12
-1.59349794669857e-13
-1.48254031837666e-12
1.857228322309e-13
-1.32470938548277e-12
4.64144379364266e-13
-1.18361685940242e-12
6.91199588597171e-13
-1.05746962275736e-12
8.78065995829965e-13
-9.44332587074566e-13
1.03291608273068e-12
-8.42335902912994e-13
1.1617825541659e-12
-7.49725486027254e-13
1.26913944411823e-12
-6.64911191733752e-13
1.35834276995153e-12
-5.86430006238112e-13
1.43194357628768e-12
-5.12962185237742e-13
1.49185426424618e-12
-4.43276590107403e-13
1.5395331178174e-12
-3.76236334676649e-13
1.57604521445808e-12
-3.10748084457465e-13
1.60214813824517e-12
-2.45772976703733e-13
1.61833177832458e-12
-1.80281428611137e-13
1.62484826051239e-12
-1.13246634946219e-13
1.6217264625096e-12
-4.3611194609423e-14
1.60876455365536e-12
2.97239109719904e-14
1.58549944780277e-12
1.07927146212501e-13
1.5512191923722e-12
1.92243952982757e-13
1.504870274713e-12
2.84027968297627e-13
1.4450668682341e-12
3.84764002210439e-13
1.36990768814159e-12
4.960730679449e-13
1.27685159766776e-12
6.19704510613656e-13
1.16252586968906e-12
7.57527723056904e-13
1.0224444021839e-12
9.11427233343718e-13
8.50574407559566e-13
1.08311438189075e-12
6.38874375086891e-13
1.27368653317596e-12
3.76237968173844e-13
1.48278907573766e-12
4.73368411148345e-14
1.70706818261455e-12
-3.68148239058113e-13
1.93739313730731e-12
-8.96915045334739e-13
2.15443061087665e-12
-1.56851275885562e-12
2.32277463592063e-12
-2.39626242894333e-12
2.38602314495334e-12
-3.31346612552454e-12
2.26382231737105e-12
-3.89028806007778e-12
1.8846294836719e-12
-2.95139632828954e-12
1.14620601376093e-12
3.374452122515e-12
2.81099686325124e-13
2.08846675563384e-11
2.81094000154733e-11
-2.69194752113636e-13
2.82738020805161e-11
-1.16205492091175e-12
2.19274035170539e-11
-1.85348399486284e-12
4.53221378891807e-12
-2.24129102421311e-12
-2.5171284340116e-12
-2.39213112183283e-12
-4.02518776492829e-12
-2.37984078554186e-12
-3.70178365576571e-12
-2.26957525877879e-12
-2.88430892799011e-12
-2.1094396306696e-12
-2.08724658947963e-12
-1.93012321066383e-12
-1.41520679187861e-12
-1.74977086289663e-12
-8.68770509471798e-13
-1.57794625493368e-12
-4.27014648896811e-13
-1.41894812718781e-12
-6.80842878504765e-14
-1.27411149758401e-12
2.25515732549333e-13
-1.14316423336945e-12
4.67473618801817e-13
-1.02506098374176e-12
6.68171705745911e-13
-9.18414459346208e-13
8.35444883027216e-13
-8.21746875739771e-13
9.75210862375626e-13
-7.33589900939924e-13
1.09195960730699e-12
-6.52567186366431e-13
1.18911999747537e-12
-5.77369312820353e-13
1.26932226041952e-12
-5.06798949433288e-13
1.33457665034886e-12
-4.39719492834187e-13
1.3864187558422e-12
-3.75073856729605e-13
1.4259822095612e-12
-3.1183593352806e-13
1.45407350995774e-12
-2.49029115634186e-13
1.47122374171607e-12
-1.85680302084525e-13
1.47770630960904e-12
-1.20824557065327e-13
1.47355164060268e-12
-5.34604178048078e-14
1.45853872730801e-12
1.74357718369342e-14
1.43217694594547e-12
9.29589353461742e-14
1.39369895006688e-12
1.74249843190956e-13
1.3420008886113e-12
2.62546454738951e-13
1.27561481431902e-12
3.59167278706467e-13
1.19255497415048e-12
4.65525522258085e-13
1.09019902751672e-12
5.83081086857021e-13
9.65124439839039e-13
7.1330643582546e-13
8.12843505166863e-13
8.57540719183318e-13
6.27450297542498e-13
1.01675355565027e-12
4.01273795536639e-13
1.19105690633542e-12
1.24043106236681e-13
1.37886739041224e-12
-2.17898485442236e-13
1.57549486828573e-12
-6.41813619605263e-13
1.77083284533141e-12
-1.16902849564278e-12
1.94600072889273e-12
-1.82036652730079e-12
2.06979164804485e-12
-2.59679816618541e-12
2.09540041323991e-12
-3.41576174281339e-12
1.96458037191059e-12
-3.8350799263486e-12
1.62056079699746e-12
-2.67990488670763e-12
1.00308157050189e-12
3.92169827697275e-12
1.91147166095818e-13
2.16220015609835e-11
2.82432851789602e-11
-2.35023635562826e-13
2.8405138074506e-11
-1.02440374249621e-12
2.25551109916771e-11
-1.61143945422337e-12
4.96083496974321e-12
-1.96609444408304e-12
-2.31045563987913e-12
-2.12284059921958e-12
-4.00984454116046e-12
-2.14074915162344e-12
-3.82196592427287e-12
-2.0678089760073e-12
-3.09346551365859e-12
-1.94399419076832e-12
-2.34588375083075e-12
-1.79621120761218e-12
-1.69658228507375e-12
-1.64172109485861e-12
-1.15569203857069e-12
-1.49053692663904e-12
-7.09524130612457e-13
-1.34783895538206e-12
-3.41029925932202e-13
-1.21589340279227e-12
-3.56320645111355e-14
-1.09522330694639e-12
2.18631598468606e-13
-9.85416225334602e-13
4.31189340347704e-13
-8.85566340106588e-13
6.09390920690096e-13
-7.9455681044326e-13
7.58920201278962e-13
-7.11190585192781e-13
8.84195444860259e-13
-6.3429247620143e-13
9.88647786607681e-13
-5.62709749950974e-13
1.07494347943345e-12
-4.9536670547294e-13
1.14515482436055e-12
-4.31225726392315e-13
1.20087171397583e-12
-3.69310183666681e-13
1.24327835001944e-12
-3.0866637590894e-13
1.27322139114121e-12
-2.48383943251205e-13
1.29126691302432e-12
-1.8754820347281e-13
1.29770166410533e-12
-1.25258191807467e-13
1.29256292097647e-12
-6.05745255300196e-14
1.27560858043674e-12
7.45120378953645e-15
1.24633330285649e-12
7.98333189638459e-14
1.20392006073569e-12
1.57610318596116e-13
1.14723590504217e-12
2.41899176232703e-13
1.07474937399684e-12
3.33861568198772e-13
9.84426574927424e-13
4.34705191918405e-13
8.73611363580389e-13
5.45619472579937e-13
7.38895979339649e-13
6.67714088506503e-13
5.75882688037832e-13
8.01854741274205e-13
3.78899196227547e-13
9.48389723197638e-13
1.40788799042746e-13
1.10664972580635e-12
-1.4773219962471e-13
1.27415687540601e-12
-4.98547381298544e-13
1.44539620513305e-12
-9.25947643879608e-13
1.60994170866298e-12
-1.44641880924208e-12
1.74999505053697e-12
-2.07349714537453e-12
1.83847629230102e-12
-2.79892432273399e-12
1.83657636198765e-12
-3.52834252458273e-12
1.70210000718217e-12
-3.815767156278e-12
1.38834141818391e-12
-2.48144630639536e-12
8.69678277818758e-13
4.32364767416907e-12
1.57821240169566e-13
2.22144214523614e-11
2.831812184526e-11
-2.22363689446005e-13
2.84913558342521e-11
-8.99424364093623e-13
2.30366958056044e-11
-1.40063208192813e-12
5.27595259216838e-12
-1.7234487331845e-12
-2.16027479220022e-12
-1.88080459721911e-12
-4.01669065221856e-12
-1.91993874204706e-12
-3.94259188625261e-12
-1.8761455192701e-12
-3.29453147438642e-12
-1.78241667195045e-12
-2.59518847132383e-12
-1.66200987698065e-12
-1.97118824436257e-12
-1.53088589370897e-12
-1.43977563660742e-12
-1.39899481430761e-12
-9.93219985817124e-13
-1.27199632721206e-12
-6.18721844007493e-13
-1.15278528921321e-12
-3.04466681592827e-13
-1.04248984135929e-12
-4.02400702660492e-14
-9.41213329417226e-13
1.82346456425412e-13
-8.48461257900321e-13
3.70053157654073e-13
-7.63439260027568e-13
5.28243905390025e-13
-6.85199590238513e-13
6.6119217430801e-13
-6.12758744836457e-13
7.72274479124356e-13
-5.45116280849063e-13
8.64153030566602e-13
-4.81316723812814e-13
9.38931173411958e-13
-4.2042185939212e-13
9.98231076114459e-13
-3.61540200891854e-13
1.04327378787342e-12
-3.03793501465635e-13
1.07493559750232e-12
-2.46337003933741e-13
1.09380831955178e-12
-1.88324463391338e-13
1.1001939362314e-12
-1.28915534745049e-13
1.09412948338469e-12
-6.72435585248583e-14
1.0753629259527e-12
-2.42968618886102e-15
1.04337162888904e-12
6.64499109002587e-14
9.97308969681519e-13
1.40339463774954e-13
9.36017566226241e-13
2.20225273379382e-13
8.5793831411313e-13
3.07122894636251e-13
7.61003970180431e-13
4.02044741851475e-13
6.42574944167227e-13
5.05932046943112e-13
4.9931011541375e-13
6.19575486471225e-13
3.26971014991563e-13
7.43431162148706e-13
1.20208802205664e-13
8.77352733403874e-13
-1.27537707182773e-13
1.0200842482741e-12
-4.24477236879805e-13
1.16854796358072e-12
-7.80715193902046e-13
1.31681586984765e-12
-1.2077690114194e-12
1.45462277582029e-12
-1.71787446779028e-12
1.56564211014873e-12
-2.31861862799635e-12
1.62666448154461e-12
-2.99496736334301e-12
1.60567533441025e-12
-3.64385615497843e-12
1.47211339524149e-12
-3.82080652663069e-12
1.18726133368911e-12
-2.33812535963812e-12
7.48325855179221e-13
4.61686011124265e-12
1.45529987242526e-13
2.2669379060465e-11
2.83658232515643e-11
-2.14019015181149e-13
2.85493512393414e-11
-7.8846746258099e-13
2.3397211473937e-11
-1.21881011605607e-12
5.50618503987171e-12
-1.51022438205394e-12
-2.05351519666394e-12
-1.66376253535405e-12
-4.03818502435857e-12
-1.71682751465132e-12
-4.05938932908805e-12
-1.69533636482415e-12
-3.48300165603827e-12
-1.62624137973258e-12
-2.82937595380505e-12
-1.52939547803951e-12
-2.23166253163314e-12
-1.41920621026826e-12
-1.71230936113449e-12
-1.30520113535723e-12
-1.26838558575685e-12
-1.19319189518671e-12
-8.90758294631993e-13
-1.08644857327317e-12
-5.70149846844319e-13
-9.86531496603769e-13
-2.98036510037758e-13
-8.93945237308458e-13
-6.70991043073472e-14
-8.08531340596523e-13
1.28769196593155e-13
-7.29778135801902e-13
2.9455874530321e-13
-6.5695973841541e-13
4.34338304057854e-13
-5.89271924199728e-13
5.51388092337452e-13
-5.25860216300646e-13
6.48332420129368e-13
-4.65887381410052e-13
7.27277737368283e-13
-4.08514194573428e-13
7.89859721117209e-13
-3.52934322208377e-13
8.37321577040783e-13
-2.98347673834166e-13
8.70562495331971e-13
-2.43978217639288e-13
8.90190077123167e-13
-1.89049792208436e-13
8.96523046073257e-13
-1.32786577201726e-13
8.89592311471914e-13
-7.43973718212989e-14
8.69147019085654e-13
-1.30748774393298e-14
8.34642964821184e-13
5.2013261693816e-14
7.85224058207522e-13
1.21713004281986e-13
7.19714703334279e-13
1.96891826711423e-13
6.36548923135931e-13
2.78420912079425e-13
5.33651886441246e-13
3.67131828768349e-13
4.08436814553763e-13
4.63743830972197e-13
2.57669799893124e-13
5.68774259994452e-13
7.73232240337988e-14
6.8233752206865e-13
-1.37561282069332e-13
8.03908103934462e-13
-3.92912861572159e-13
9.3182096806141e-13
-6.95838363230177e-13
1.06265151406593e-12
-1.05473108300611e-12
1.19037943239915e-12
-1.47859538933357e-12
1.30524251249939e-12
-1.97602352478638e-12
1.3925940797416e-12
-2.54984619452834e-12
1.43275752943055e-12
-3.18015073800195e-12
1.39955877960658e-12
-3.75762152053215e-12
1.27084459489727e-12
-3.84226821523501e-12
1.0148341865557e-12
-2.23752792799153e-12
6.40815219239617e-13
4.82842581262078e-12
1.37614834774105e-13
2.30084922616079e-11
2.83972342501156e-11
-2.03832273093542e-13
2.85894883447294e-11
-6.90656302449379e-13
2.36661975728375e-11
-1.06168661892218e-12
5.67597785971674e-12
-1.32247280079794e-12
-1.97769234297622e-12
-1.46890082876505e-12
-4.06663458538974e-12
-1.53018875450926e-12
-4.16748713088171e-12
-1.52538084185887e-12
-3.6541282793046e-12
-1.47622885665142e-12
-3.04287623064944e-12
-1.39949381955955e-12
-2.47124852489602e-12
-1.30791808701669e-12
-1.96543536594248e-12
-1.21036683405834e-12
-1.5262889927859e-12
-1.11254841098958e-12
-1.1477804788349e-12
-1.01790366682863e-12
-8.22895752150518e-13
-9.28267179770752e-13
-5.4469898205426e-13
-8.44439480481577e-13
-3.06919471288484e-13
-7.66530509113891e-13
-1.04131046339562e-13
-6.94265591753578e-13
6.82521167760488e-14
-6.27113842516355e-13
2.14052403202165e-13
-5.64431515480808e-13
3.36418783885145e-13
-5.05503545693225e-13
4.37916930588265e-13
-4.4960381879688e-13
5.20628113455699e-13
-3.95993264020881e-13
5.86189852768703e-13
-3.43950240160463e-13
6.35852311745851e-13
-2.92752321611072e-13
6.70530111246332e-13
-2.41698028514899e-13
6.90843705814227e-13
-1.90077894618042e-13
6.97120155741808e-13
-1.37189652538647e-13
6.89391583820393e-13
-8.23131255391511e-14
6.67404797210908e-13
-2.47192579263516e-14
6.30601992173748e-13
3.63384154084221e-14
5.78124636088898e-13
1.01604409701767e-13
5.08794845945567e-13
1.7183625896137e-13
4.21048128237772e-13
2.4776430583087e-13
3.12832977514219e-13
3.3006032179446e-13
1.8163425900133e-13
4.19248922267784e-13
2.43602620293059e-14
5.15613750582682e-13
-1.62766770075647e-13
6.19009245083221e-13
-3.8428839556263e-13
7.28626540790318e-13
-6.45478783651105e-13
8.42547423915858e-13
-9.523727524226e-13
9.57206116245656e-13
-1.31176335258844e-12
1.06672979220371e-12
-1.7304320162154e-12
1.16208884278827e-12
-2.21391386665615e-12
1.23039374136247e-12
-2.76131692353109e-12
1.25513169041581e-12
-3.34928553099677e-12