/*--------------------------------*- C++ -*----------------------------------*\
  =========                 |
  \\      /  F ield         | OpenFOAM: The Open Source CFD Toolbox
   \\    /   O peration     | Website:  https://openfoam.org
    \\  /    A nd           | Version:  10
     \\/     M anipulation  |
\*---------------------------------------------------------------------------*/
FoamFile
{
    format      ascii;
    class       volScalarField;
    location    "3.8";
    object      rho;
}
// * * * * * * * * * * * * * * * * * * * * * * * * * * * * * * * * * * * * * //

dimensions      [1 -3 0 0 0 0 0];

internalField   nonuniform List<scalar> 
2500
(
1.14288077532352
1.14296240857073
1.14304231115384
1.14308251862409
1.14310006426704
1.14310737061573
1.14311029329775
1.14311140816134
1.14311181274056
1.14311195011836
1.14311199981603
1.14311201780878
1.1431120248239
1.14311203018101
1.14311203458682
1.1431120391931
1.14311204163155
1.1431120445697
1.14311204788422
1.14311205024391
1.14311205236725
1.1431120543455
1.14311205603468
1.14311205696981
1.14311205794908
1.1431120589665
1.14311205934493
1.14311205964146
1.14311205979847
1.14311205951967
1.14311205906812
1.14311205826504
1.14311205689711
1.14311205511937
1.1431120533564
1.14311205135806
1.14311204878157
1.14311204554744
1.14311203708373
1.1431120179194
1.14311196424521
1.14311180964986
1.1431113757819
1.14311021286401
1.14310723410929
1.14309993948872
1.1430825227482
1.14304231024462
1.14296135798355
1.14288130017754
1.14854881998728
1.14882408000458
1.14904905795778
1.14916769529107
1.14922396238009
1.14924941625628
1.1492603952671
1.1492648560379
1.14926655205285
1.14926715421586
1.14926735713884
1.14926742199401
1.14926744176938
1.14926744885516
1.14926745224319
1.1492674547384
1.14926745610312
1.14926745761048
1.14926745932839
1.1492674606934
1.14926746208054
1.14926746358496
1.14926746494483
1.14926746564281
1.14926746620202
1.14926746690019
1.14926746714489
1.14926746736229
1.14926746776727
1.149267467572
1.14926746740102
1.14926746737747
1.14926746604218
1.14926746424145
1.14926746319815
1.14926746196975
1.14926745901948
1.14926745120294
1.14926742619414
1.14926734945017
1.14926711822166
1.1492664540832
1.14926465265521
1.14926005267332
1.14924898103584
1.14922367077534
1.14916785709709
1.14904902303293
1.14882025579674
1.14854787403802
1.15360176340642
1.1539658113404
1.15423914238844
1.15438195734961
1.15444954821298
1.15448011836058
1.15449333680261
1.15449873416143
1.15450079902427
1.15450153752821
1.15450178623413
1.15450186498385
1.15450188811103
1.15450189501992
1.15450189731939
1.15450189839702
1.15450189886352
1.15450189936686
1.15450190002575
1.15450190060806
1.15450190132885
1.1545019022744
1.15450190321881
1.15450190371124
1.15450190399133
1.15450190441842
1.1545019045224
1.15450190463958
1.1545019050729
1.15450190502933
1.15450190503692
1.15450190528745
1.15450190417625
1.15450190267941
1.15450190238666
1.15450190197489
1.15450189925719
1.15450189050373
1.15450186169471
1.15450177019717
1.15450149211483
1.1545006920841
1.15449852433636
1.15449299762196
1.15447970911821
1.15444930140196
1.15438207894779
1.15423847804699
1.15395921763384
1.1535916519914
1.15729564987292
1.15762419841389
1.15784312693136
1.15795362650825
1.15800378980258
1.1580256163888
1.15803477995077
1.1580384488703
1.15803983563758
1.15804032828611
1.15804049348536
1.15804054543419
1.15804056030219
1.15804056441999
1.15804056551913
1.15804056582757
1.1580405657892
1.15804056578281
1.15804056592448
1.15804056608076
1.1580405663585
1.15804056684909
1.15804056742181
1.15804056775237
1.15804056787024
1.1580405680795
1.15804056812082
1.158040568136
1.15804056835961
1.15804056837449
1.15804056840319
1.15804056869577
1.15804056806224
1.15804056722681
1.15804056716437
1.15804056706981
1.15804056580055
1.15804056067268
1.15804054284946
1.15804048496474
1.15804030623428
1.15803978427333
1.1580383475363
1.15803461418053
1.15802541273295
1.15800365009929
1.1579535293746
1.15784180967257
1.15761683430881
1.15727879353222
1.15959927455801
1.15983265174272
1.1599724193308
1.16004060315841
1.16007039268631
1.16008289966528
1.16008801310088
1.16009002811409
1.16009078404243
1.16009105210203
1.16009114214745
1.16009117044217
1.16009117840579
1.16009118046128
1.16009118077895
1.16009118072363
1.160091180602
1.16009118051035
1.1600911805177
1.16009118052467
1.16009118056846
1.16009118077119
1.16009118107335
1.16009118127038
1.16009118128691
1.16009118131315
1.16009118130455
1.1600911812999
1.16009118138708
1.16009118139665
1.16009118144357
1.16009118170605
1.16009118141923
1.16009118107156
1.16009118109897
1.16009118108093
1.16009118058778
1.16009117815292
1.16009116907361
1.16009113893571
1.16009104489995
1.16009076764029
1.16008999630724
1.16008796283117
1.1600828443155
1.16007036735543
1.16004051028574
1.15997124049957
1.15982660138605
1.15958220656561
1.16085992375043
1.16099928993366
1.16107512054786
1.16111097926495
1.16112613992095
1.16113230968737
1.16113477420638
1.16113573292313
1.16113609102331
1.16113621818366
1.16113626111426
1.16113627464214
1.16113627838554
1.16113627923827
1.16113627927932
1.16113627920441
1.1611362790967
1.16113627900769
1.16113627896852
1.16113627895797
1.16113627895359
1.1611362790091
1.16113627914845
1.16113627923808
1.16113627921995
1.16113627919938
1.1611362791851
1.1611362791782
1.16113627920586
1.16113627921588
1.16113627925782
1.16113627942327
1.16113627931109
1.16113627918766
1.16113627923503
1.16113627924022
1.1611362790852
1.16113627808639
1.16113627400727
1.16113626019695
1.1611362168068
1.16113608824138
1.16113572838079
1.16113476994886
1.16113231545966
1.16112617179548
1.16111096284708
1.16107439917805
1.16099531358295
1.16084688779198
1.16147838044156
1.1615511127942
1.16158742788984
1.16160411897319
1.16161098363564
1.16161370360761
1.16161476817766
1.16161517786957
1.16161533054375
1.16161538493723
1.16161540342207
1.16161540927327
1.16161541086087
1.16161541117598
1.16161541115856
1.16161541110268
1.16161541103487
1.16161541097759
1.16161541094294
1.1616154109336
1.16161541092206
1.16161541093259
1.1616154109897
1.16161541102091
1.16161541100333
1.16161541098672
1.16161541097801
1.16161541097304
1.1616154109826
1.16161541098896
1.16161541101361
1.16161541110144
1.16161541106525
1.16161541103007
1.16161541106054
1.16161541105984
1.16161541102947
1.16161541067176
1.16161540900645
1.16161540324272
1.16161538506199
1.16161533113587
1.1616151798463
1.16161477427613
1.16161372119749
1.16161102431836
1.16160414782473
1.16158708856974
1.16154890980593
1.16147017807037
1.16175490989818
1.16178894539254
1.16180469192421
1.16181174007262
1.16181457225855
1.16181566923651
1.16181609094819
1.16181625174265
1.16181631159697
1.16181633301417
1.16181634034324
1.16181634267467
1.16181634329268
1.16181634339831
1.16181634338194
1.16181634335076
1.16181634331603
1.16181634328673
1.16181634326727
1.16181634326199
1.16181634325414
1.16181634325464
1.16181634327586
1.16181634328382
1.16181634327404
1.16181634326698
1.16181634326375
1.16181634326149
1.16181634326619
1.16181634327152
1.1618163432835
1.16181634332405
1.161816343316
1.16181634331009
1.16181634332412
1.16181634332522
1.1618163433278
1.1618163432098
1.16181634258129
1.16181634034645
1.1618163332827
1.16181631237364
1.16181625376263
1.16181609611166
1.16181568235645
1.16181460187045
1.16181177546055
1.16180456465635
1.16178788021447
1.16175045006796
1.16186907165838
1.1618836166276
1.16188991216796
1.16189265978826
1.1618937422472
1.1618941535205
1.16189430914457
1.16189436799543
1.16189438989103
1.16189439776302
1.16189440047489
1.16189440134193
1.1618944015676
1.16189440160039
1.16189440159093
1.16189440157655
1.16189440156153
1.16189440154906
1.16189440154057
1.16189440153764
1.16189440153523
1.16189440153691
1.16189440154292
1.16189440154363
1.16189440154076
1.16189440153919
1.16189440153905
1.16189440153913
1.16189440154218
1.16189440154608
1.16189440155217
1.16189440156976
1.16189440157002
1.16189440157168
1.16189440157862
1.16189440158041
1.16189440158538
1.16189440155022
1.16189440132841
1.16189440051283
1.16189439793289
1.16189439032903
1.16189436908493
1.16189431190251
1.16189416063091
1.16189375906313
1.16189268514895
1.16188987509092
1.16188315626266
1.16186691246191
1.16191303483331
1.16191878916903
1.16192114137648
1.16192214316161
1.16192253110696
1.16192267612772
1.16192273024383
1.16192275055553
1.16192275811027
1.16192276083926
1.16192276178528
1.16192276208923
1.1619227621676
1.16192276217773
1.16192276217379
1.16192276216844
1.16192276216318
1.16192276215903
1.1619227621564
1.16192276215576
1.16192276215597
1.1619227621577
1.16192276215997
1.16192276216057
1.16192276216066
1.16192276216138
1.16192276216261
1.16192276216392
1.16192276216634
1.1619227621692
1.16192276217276
1.16192276218034
1.16192276218269
1.16192276218514
1.16192276218876
1.16192276219125
1.16192276219501
1.16192276218603
1.1619227621119
1.1619227618294
1.16192276093539
1.16192275831519
1.16192275103187
1.16192273145599
1.16192267938611
1.1619225392774
1.16192215737747
1.16192113454135
1.16191860827351
1.16191208471988
1.16192895329265
1.16193108318817
1.16193191290401
1.16193225794095
1.16193238953666
1.16193243805949
1.16193245594694
1.1619324626146
1.16193246509382
1.16193246599353
1.16193246630741
1.16193246640898
1.16193246643518
1.16193246643883
1.16193246643827
1.16193246643711
1.16193246643612
1.16193246643561
1.16193246643567
1.16193246643644
1.16193246643755
1.16193246643918
1.16193246644108
1.16193246644249
1.16193246644383
1.16193246644541
1.16193246644716
1.16193246644895
1.16193246645111
1.16193246645343
1.16193246645595
1.16193246645967
1.16193246646193
1.16193246646416
1.16193246646674
1.16193246646905
1.16193246647167
1.1619324664702
1.16193246644699
1.161932466354
1.16193246605842
1.16193246519672
1.16193246281575
1.16193245643595
1.16193243941061
1.16193239309795
1.16193226477345
1.16193191354085
1.16193101777366
1.16192856760004
1.16193440257795
1.16193514634692
1.16193542481486
1.1619355379587
1.16193558051897
1.16193559603165
1.16193560169026
1.16193560378631
1.1619356045655
1.16193560484969
1.16193560494972
1.16193560498267
1.16193560499171
1.16193560499367
1.16193560499438
1.16193560499496
1.16193560499569
1.16193560499663
1.1619356049978
1.16193560499924
1.16193560500084
1.16193560500263
1.16193560500452
1.1619356050063
1.1619356050081
1.16193560500998
1.16193560501191
1.16193560501386
1.16193560501591
1.16193560501799
1.16193560502011
1.16193560502254
1.16193560502457
1.16193560502655
1.16193560502862
1.16193560503059
1.16193560503258
1.16193560503321
1.16193560502685
1.16193560499803
1.16193560490471
1.16193560463309
1.16193560388664
1.16193560189443
1.16193559657007
1.16193558196316
1.16193554091417
1.16193542623618
1.16193512439852
1.16193425650507
1.16193616805126
1.1619364147594
1.16193650421909
1.16193653976347
1.16193655296439
1.16193655772924
1.16193655945186
1.16193656008647
1.16193656032251
1.16193656040929
1.16193656044043
1.16193656045126
1.16193656045488
1.16193656045642
1.16193656045764
1.16193656045889
1.16193656046025
1.16193656046173
1.16193656046332
1.16193656046504
1.16193656046685
1.16193656046874
1.16193656047068
1.16193656047261
1.16193656047456
1.16193656047654
1.16193656047852
1.16193656048051
1.16193656048251
1.16193656048449
1.16193656048647
1.16193656048849
1.16193656049038
1.16193656049222
1.16193656049405
1.16193656049581
1.1619365604975
1.16193656049872
1.16193656049774
1.16193656048975
1.16193656046193
1.16193656037992
1.16193656015481
1.16193655955603
1.16193655795514
1.16193655353466
1.16193654095934
1.16193650513672
1.1619364079026
1.16193611599436
1.16193670312479
1.16193678129247
1.16193680893203
1.16193681968297
1.1619368236285
1.16193682504096
1.16193682554793
1.161936825734
1.16193682580349
1.16193682582953
1.16193682583941
1.16193682584343
1.1619368258454
1.16193682584684
1.16193682584825
1.16193682584974
1.16193682585132
1.16193682585299
1.16193682585473
1.16193682585656
1.16193682585844
1.16193682586038
1.16193682586234
1.16193682586433
1.16193682586632
1.16193682586833
1.16193682587033
1.16193682587232
1.16193682587429
1.16193682587624
1.16193682587816
1.16193682588006
1.16193682588188
1.16193682588365
1.16193682588537
1.16193682588703
1.16193682588861
1.16193682588999
1.16193682589066
1.16193682588918
1.16193682588178
1.1619368258584
1.16193682579326
1.16193682561974
1.16193682515534
1.16193682386627
1.16193682015926
1.16193680940005
1.16193677931185
1.16193668556137
1.16193684586681
1.16193686963538
1.16193687787888
1.16193688102228
1.16193688216309
1.16193688256871
1.16193688271361
1.16193688276684
1.16193688278708
1.16193688279512
1.16193688279868
1.16193688280067
1.16193688280217
1.16193688280358
1.16193688280506
1.16193688280663
1.16193688280828
1.16193688281001
1.16193688281181
1.16193688281367
1.16193688281558
1.16193688281753
1.16193688281951
1.1619368828215
1.16193688282351
1.16193688282552
1.16193688282752
1.1619368828295
1.16193688283146
1.1619368828334
1.16193688283529
1.16193688283714
1.16193688283894
1.16193688284067
1.16193688284235
1.16193688284396
1.1619368828455
1.16193688284692
1.16193688284808
1.16193688284857
1.1619368828473
1.16193688284143
1.16193688282371
1.16193688277546
1.16193688264543
1.16193688228222
1.16193688122685
1.16193687810746
1.16193686912967
1.16193684024379
1.1619368686038
1.16193687556728
1.1619368779479
1.16193687883929
1.16193687915948
1.16193687927276
1.16193687931327
1.16193687932841
1.16193687933454
1.16193687933743
1.16193687933918
1.16193687934059
1.16193687934195
1.16193687934336
1.16193687934487
1.16193687934646
1.16193687934814
1.16193687934988
1.1619368793517
1.16193687935356
1.16193687935548
1.16193687935743
1.16193687935941
1.16193687936141
1.16193687936341
1.16193687936542
1.16193687936741
1.16193687936939
1.16193687937134
1.16193687937326
1.16193687937514
1.16193687937698
1.16193687937876
1.16193687938048
1.16193687938213
1.16193687938372
1.16193687938524
1.16193687938666
1.16193687938797
1.16193687938902
1.16193687938954
1.16193687938873
1.16193687938461
1.1619368793721
1.16193687933723
1.1619368792384
1.16193687894755
1.16193687807183
1.16193687548067
1.16193686690827
1.16193685598627
1.16193685795845
1.16193685862583
1.16193685887171
1.16193685895927
1.16193685899025
1.16193685900154
1.16193685900607
1.1619368590083
1.16193685900975
1.161936859011
1.16193685901226
1.16193685901358
1.161936859015
1.16193685901651
1.16193685901811
1.16193685901979
1.16193685902154
1.16193685902336
1.16193685902523
1.16193685902714
1.16193685902909
1.16193685903107
1.16193685903306
1.16193685903506
1.16193685903706
1.16193685903905
1.16193685904102
1.16193685904296
1.16193685904487
1.16193685904674
1.16193685904856
1.16193685905033
1.16193685905204
1.16193685905369
1.16193685905526
1.16193685905676
1.16193685905819
1.16193685905952
1.16193685906074
1.16193685906175
1.16193685906235
1.16193685906202
1.1619368590594
1.16193685905079
1.16193685902508
1.16193685894753
1.161936858709
1.16193685798379
1.16193685552527
1.16193683330188
1.16193683384331
1.16193683402535
1.16193683409156
1.16193683411506
1.16193683412352
1.16193683412687
1.16193683412854
1.16193683412971
1.16193683413079
1.16193683413192
1.16193683413313
1.16193683413445
1.16193683413587
1.16193683413738
1.16193683413898
1.16193683414067
1.16193683414242
1.16193683414424
1.1619368341461
1.16193683414802
1.16193683414996
1.16193683415193
1.16193683415392
1.16193683415591
1.16193683415791
1.16193683415989
1.16193683416185
1.16193683416378
1.16193683416569
1.16193683416755
1.16193683416936
1.16193683417112
1.16193683417281
1.16193683417445
1.16193683417601
1.16193683417751
1.16193683417892
1.16193683418026
1.16193683418151
1.16193683418265
1.16193683418363
1.1619368341843
1.16193683418434
1.16193683418276
1.16193683417667
1.16193683415687
1.16193683409384
1.16193683389665
1.16193683321341
1.16193680783877
1.16193680798311
1.16193680803155
1.1619368080491
1.16193680805544
1.16193680805791
1.16193680805917
1.1619368080601
1.16193680806101
1.161936808062
1.1619368080631
1.1619368080643
1.16193680806562
1.16193680806704
1.16193680806856
1.16193680807017
1.16193680807185
1.1619368080736
1.16193680807542
1.16193680807728
1.16193680807919
1.16193680808113
1.1619368080831
1.16193680808508
1.16193680808707
1.16193680808905
1.16193680809103
1.16193680809298
1.16193680809491
1.1619368080968
1.16193680809865
1.16193680810045
1.1619368081022
1.16193680810389
1.16193680810551
1.16193680810707
1.16193680810855
1.16193680810996
1.16193680811129
1.16193680811254
1.1619368081137
1.16193680811477
1.1619368081157
1.16193680811641
1.16193680811664
1.16193680811567
1.16193680811105
1.161936808095
1.1619368080429
1.16193680785858
1.16193678163018
1.16193678166753
1.16193678168018
1.16193678168489
1.16193678168676
1.1619367816877
1.16193678168844
1.16193678168919
1.16193678169005
1.16193678169102
1.16193678169212
1.16193678169333
1.16193678169466
1.16193678169608
1.1619367816976
1.16193678169921
1.16193678170089
1.16193678170264
1.16193678170446
1.16193678170632
1.16193678170822
1.16193678171016
1.16193678171212
1.1619367817141
1.16193678171608
1.16193678171805
1.16193678172002
1.16193678172196
1.16193678172388
1.16193678172576
1.1619367817276
1.1619367817294
1.16193678173113
1.16193678173281
1.16193678173443
1.16193678173597
1.16193678173744
1.16193678173884
1.16193678174016
1.1619367817414
1.16193678174256
1.16193678174364
1.16193678174462
1.16193678174548
1.16193678174616
1.16193678174646
1.16193678174571
1.1619367817419
1.16193678172858
1.16193678168036
1.16193675522677
1.16193675523607
1.16193675523938
1.1619367552408
1.16193675524154
1.16193675524212
1.16193675524275
1.16193675524348
1.16193675524434
1.16193675524532
1.16193675524642
1.16193675524764
1.16193675524897
1.1619367552504
1.16193675525192
1.16193675525353
1.16193675525521
1.16193675525696
1.16193675525877
1.16193675526063
1.16193675526254
1.16193675526447
1.16193675526642
1.16193675526839
1.16193675527036
1.16193675527233
1.16193675527429
1.16193675527623
1.16193675527813
1.16193675528001
1.16193675528184
1.16193675528362
1.16193675528535
1.16193675528702
1.16193675528862
1.16193675529015
1.16193675529161
1.161936755293
1.16193675529431
1.16193675529554
1.16193675529668
1.16193675529775
1.16193675529873
1.16193675529961
1.16193675530038
1.16193675530097
1.16193675530117
1.16193675530044
1.16193675529722
1.16193675528511
1.16193672877366
1.1619367287758
1.16193672877673
1.16193672877734
1.16193672877783
1.16193672877835
1.16193672877896
1.16193672877971
1.16193672878058
1.16193672878157
1.16193672878268
1.16193672878391
1.16193672878525
1.16193672878668
1.16193672878821
1.16193672878982
1.1619367287915
1.16193672879325
1.16193672879506
1.16193672879692
1.16193672879881
1.16193672880074
1.16193672880269
1.16193672880465
1.16193672880662
1.16193672880858
1.16193672881053
1.16193672881245
1.16193672881435
1.16193672881621
1.16193672881804
1.16193672881981
1.16193672882152
1.16193672882318
1.16193672882477
1.16193672882629
1.16193672882774
1.16193672882912
1.16193672883041
1.16193672883163
1.16193672883276
1.16193672883381
1.16193672883477
1.16193672883564
1.16193672883641
1.16193672883705
1.16193672883746
1.16193672883748
1.16193672883682
1.16193672883404
1.16193670230816
1.16193670230851
1.16193670230887
1.1619367023093
1.16193670230975
1.16193670231027
1.1619367023109
1.16193670231166
1.16193670231255
1.16193670231356
1.16193670231468
1.16193670231592
1.16193670231726
1.1619367023187
1.16193670232023
1.16193670232184
1.16193670232352
1.16193670232527
1.16193670232708
1.16193670232893
1.16193670233083
1.16193670233275
1.16193670233469
1.16193670233665
1.1619367023386
1.16193670234056
1.1619367023425
1.16193670234442
1.1619367023463
1.16193670234816
1.16193670234997
1.16193670235173
1.16193670235343
1.16193670235508
1.16193670235666
1.16193670235817
1.16193670235961
1.16193670236097
1.16193670236225
1.16193670236345
1.16193670236457
1.1619367023656
1.16193670236654
1.16193670236739
1.16193670236814
1.16193670236877
1.16193670236921
1.16193670236939
1.16193670236935
1.16193670236893
1.16193667583962
1.16193667583955
1.16193667583978
1.16193667584019
1.16193667584065
1.16193667584118
1.16193667584184
1.16193667584262
1.16193667584353
1.16193667584455
1.16193667584569
1.16193667584693
1.16193667584828
1.16193667584972
1.16193667585126
1.16193667585287
1.16193667585455
1.1619366758563
1.16193667585811
1.16193667585996
1.16193667586185
1.16193667586376
1.1619366758657
1.16193667586765
1.1619366758696
1.16193667587155
1.16193667587348
1.16193667587538
1.16193667587726
1.16193667587911
1.16193667588091
1.16193667588266
1.16193667588435
1.16193667588598
1.16193667588755
1.16193667588905
1.16193667589048
1.16193667589182
1.16193667589309
1.16193667589428
1.16193667589538
1.16193667589639
1.16193667589731
1.16193667589814
1.16193667589886
1.16193667589947
1.1619366758999
1.1619366759001
1.16193667590021
1.16193667590035
1.16193664937036
1.1619366493702
1.16193664937041
1.16193664937083
1.16193664937131
1.16193664937187
1.16193664937255
1.16193664937335
1.16193664937427
1.16193664937531
1.16193664937646
1.16193664937771
1.16193664937907
1.16193664938052
1.16193664938205
1.16193664938367
1.16193664938535
1.1619366493871
1.1619366493889
1.16193664939075
1.16193664939264
1.16193664939455
1.16193664939648
1.16193664939842
1.16193664940037
1.1619366494023
1.16193664940422
1.16193664940612
1.16193664940799
1.16193664940982
1.16193664941161
1.16193664941335
1.16193664941503
1.16193664941666
1.16193664941821
1.1619366494197
1.16193664942111
1.16193664942244
1.1619366494237
1.16193664942487
1.16193664942595
1.16193664942695
1.16193664942785
1.16193664942865
1.16193664942936
1.16193664942993
1.16193664943034
1.16193664943054
1.16193664943067
1.16193664943094
1.16193662290093
1.16193662290077
1.16193662290098
1.16193662290142
1.16193662290192
1.1619366229025
1.16193662290321
1.16193662290403
1.16193662290496
1.16193662290601
1.16193662290718
1.16193662290844
1.1619366229098
1.16193662291126
1.1619366229128
1.16193662291441
1.1619366229161
1.16193662291785
1.16193662291965
1.16193662292149
1.16193662292337
1.16193662292528
1.1619366229272
1.16193662292914
1.16193662293107
1.161936622933
1.16193662293492
1.16193662293681
1.16193662293866
1.16193662294049
1.16193662294226
1.16193662294399
1.16193662294566
1.16193662294727
1.16193662294882
1.16193662295029
1.16193662295169
1.16193662295301
1.16193662295425
1.1619366229554
1.16193662295647
1.16193662295744
1.16193662295833
1.16193662295911
1.16193662295979
1.16193662296034
1.16193662296073
1.16193662296091
1.16193662296103
1.16193662296133
1.16193659643147
1.16193659643131
1.16193659643154
1.161936596432
1.16193659643252
1.16193659643313
1.16193659643385
1.16193659643469
1.16193659643564
1.16193659643671
1.16193659643788
1.16193659643915
1.16193659644052
1.16193659644198
1.16193659644353
1.16193659644514
1.16193659644683
1.16193659644858
1.16193659645038
1.16193659645222
1.1619365964541
1.161936596456
1.16193659645792
1.16193659645984
1.16193659646177
1.16193659646369
1.16193659646559
1.16193659646747
1.16193659646932
1.16193659647113
1.1619365964729
1.16193659647462
1.16193659647628
1.16193659647787
1.1619365964794
1.16193659648086
1.16193659648225
1.16193659648356
1.16193659648478
1.16193659648592
1.16193659648697
1.16193659648793
1.16193659648879
1.16193659648955
1.16193659649021
1.16193659649074
1.16193659649111
1.16193659649127
1.16193659649138
1.16193659649168
1.161936569962
1.16193656996186
1.16193656996211
1.16193656996258
1.16193656996312
1.16193656996375
1.16193656996449
1.16193656996535
1.16193656996632
1.1619365699674
1.16193656996858
1.16193656996986
1.16193656997124
1.16193656997271
1.16193656997425
1.16193656997587
1.16193656997756
1.16193656997931
1.16193656998111
1.16193656998294
1.16193656998482
1.16193656998671
1.16193656998863
1.16193656999055
1.16193656999247
1.16193656999438
1.16193656999627
1.16193656999814
1.16193656999998
1.16193657000178
1.16193657000354
1.16193657000524
1.16193657000689
1.16193657000847
1.16193657000999
1.16193657001144
1.16193657001281
1.1619365700141
1.16193657001531
1.16193657001643
1.16193657001747
1.16193657001841
1.16193657001925
1.16193657002
1.16193657002063
1.16193657002114
1.16193657002149
1.16193657002163
1.16193657002173
1.16193657002202
1.16193654349254
1.16193654349241
1.16193654349267
1.16193654349317
1.16193654349373
1.16193654349438
1.16193654349514
1.16193654349601
1.161936543497
1.16193654349809
1.16193654349929
1.16193654350058
1.16193654350196
1.16193654350343
1.16193654350499
1.16193654350661
1.1619365435083
1.16193654351004
1.16193654351184
1.16193654351367
1.16193654351554
1.16193654351743
1.16193654351934
1.16193654352125
1.16193654352317
1.16193654352507
1.16193654352695
1.16193654352881
1.16193654353064
1.16193654353243
1.16193654353418
1.16193654353587
1.16193654353751
1.16193654353908
1.16193654354058
1.16193654354202
1.16193654354338
1.16193654354465
1.16193654354585
1.16193654354695
1.16193654354797
1.16193654354889
1.16193654354972
1.16193654355044
1.16193654355106
1.16193654355155
1.16193654355188
1.161936543552
1.16193654355209
1.16193654355236
1.16193651702309
1.16193651702297
1.16193651702325
1.16193651702377
1.16193651702435
1.16193651702502
1.1619365170258
1.16193651702669
1.16193651702769
1.16193651702879
1.16193651703
1.1619365170313
1.16193651703269
1.16193651703417
1.16193651703572
1.16193651703735
1.16193651703904
1.16193651704078
1.16193651704258
1.16193651704441
1.16193651704627
1.16193651704816
1.16193651705006
1.16193651705197
1.16193651705387
1.16193651705577
1.16193651705764
1.16193651705949
1.16193651706131
1.16193651706309
1.16193651706482
1.16193651706651
1.16193651706813
1.16193651706969
1.16193651707118
1.1619365170726
1.16193651707395
1.16193651707521
1.16193651707639
1.16193651707748
1.16193651707848
1.16193651707939
1.16193651708019
1.1619365170809
1.16193651708149
1.16193651708196
1.16193651708227
1.16193651708237
1.16193651708245
1.16193651708271
1.16193649055365
1.16193649055355
1.16193649055384
1.16193649055438
1.16193649055498
1.16193649055567
1.16193649055647
1.16193649055737
1.16193649055839
1.16193649055951
1.16193649056072
1.16193649056203
1.16193649056343
1.16193649056492
1.16193649056647
1.1619364905681
1.16193649056979
1.16193649057154
1.16193649057333
1.16193649057516
1.16193649057702
1.1619364905789
1.16193649058079
1.16193649058269
1.16193649058459
1.16193649058648
1.16193649058834
1.16193649059018
1.16193649059199
1.16193649059376
1.16193649059548
1.16193649059715
1.16193649059876
1.16193649060031
1.16193649060179
1.1619364906032
1.16193649060453
1.16193649060578
1.16193649060694
1.16193649060802
1.161936490609
1.16193649060989
1.16193649061068
1.16193649061137
1.16193649061194
1.16193649061239
1.16193649061268
1.16193649061276
1.16193649061282
1.16193649061307
1.16193646408422
1.16193646408413
1.16193646408445
1.16193646408501
1.16193646408562
1.16193646408633
1.16193646408715
1.16193646408807
1.16193646408911
1.16193646409024
1.16193646409146
1.16193646409278
1.16193646409419
1.16193646409567
1.16193646409724
1.16193646409887
1.16193646410056
1.1619364641023
1.16193646410409
1.16193646410592
1.16193646410777
1.16193646410965
1.16193646411154
1.16193646411343
1.16193646411532
1.1619364641172
1.16193646411906
1.16193646412089
1.16193646412269
1.16193646412445
1.16193646412616
1.16193646412782
1.16193646412942
1.16193646413095
1.16193646413242
1.16193646413381
1.16193646413513
1.16193646413636
1.16193646413751
1.16193646413857
1.16193646413954
1.16193646414041
1.16193646414118
1.16193646414185
1.16193646414241
1.16193646414283
1.16193646414311
1.16193646414317
1.16193646414321
1.16193646414344
1.1619364376148
1.16193643761473
1.16193643761507
1.16193643761566
1.16193643761629
1.16193643761702
1.16193643761785
1.16193643761879
1.16193643761984
1.16193643762098
1.16193643762222
1.16193643762355
1.16193643762496
1.16193643762645
1.16193643762802
1.16193643762965
1.16193643763134
1.16193643763308
1.16193643763487
1.1619364376367
1.16193643763855
1.16193643764042
1.1619364376423
1.16193643764419
1.16193643764607
1.16193643764794
1.16193643764979
1.16193643765161
1.1619364376534
1.16193643765515
1.16193643765685
1.1619364376585
1.16193643766008
1.16193643766161
1.16193643766306
1.16193643766444
1.16193643766575
1.16193643766697
1.1619364376681
1.16193643766915
1.1619364376701
1.16193643767095
1.16193643767171
1.16193643767235
1.16193643767289
1.1619364376733
1.16193643767356
1.16193643767359
1.16193643767362
1.16193643767383
1.1619364111454
1.16193641114535
1.16193641114571
1.16193641114632
1.16193641114697
1.16193641114773
1.16193641114858
1.16193641114954
1.1619364111506
1.16193641115175
1.161936411153
1.16193641115433
1.16193641115575
1.16193641115725
1.16193641115882
1.16193641116045
1.16193641116214
1.16193641116389
1.16193641116567
1.16193641116749
1.16193641116934
1.16193641117121
1.16193641117308
1.16193641117496
1.16193641117684
1.1619364111787
1.16193641118054
1.16193641118236
1.16193641118413
1.16193641118587
1.16193641118756
1.1619364111892
1.16193641119078
1.16193641119229
1.16193641119373
1.1619364111951
1.16193641119639
1.1619364111976
1.16193641119872
1.16193641119975
1.16193641120068
1.16193641120152
1.16193641120225
1.16193641120288
1.1619364112034
1.16193641120379
1.16193641120403
1.16193641120403
1.16193641120404
1.16193641120424
1.16193638467601
1.16193638467599
1.16193638467637
1.16193638467702
1.16193638467769
1.16193638467846
1.16193638467933
1.1619363846803
1.16193638468138
1.16193638468254
1.1619363846838
1.16193638468514
1.16193638468657
1.16193638468807
1.16193638468964
1.16193638469128
1.16193638469297
1.16193638469472
1.1619363846965
1.16193638469832
1.16193638470016
1.16193638470202
1.16193638470389
1.16193638470577
1.16193638470763
1.16193638470949
1.16193638471132
1.16193638471313
1.16193638471489
1.16193638471662
1.1619363847183
1.16193638471993
1.16193638472149
1.16193638472299
1.16193638472443
1.16193638472578
1.16193638472706