/*--------------------------------*- C++ -*----------------------------------*\
  =========                 |
  \\      /  F ield         | OpenFOAM: The Open Source CFD Toolbox
   \\    /   O peration     | Website:  https://openfoam.org
    \\  /    A nd           | Version:  10
     \\/     M anipulation  |
\*---------------------------------------------------------------------------*/
FoamFile
{
    format      ascii;
    class       volScalarField;
    location    "3.8";
    object      T;
}
// * * * * * * * * * * * * * * * * * * * * * * * * * * * * * * * * * * * * * //

dimensions      [0 0 0 1 0 0 0];

internalField   nonuniform List<scalar> 
2500
(
305.002230018747
304.980445998055
304.959126820436
304.948400007525
304.943719302472
304.941770208025
304.94099053941
304.940693134304
304.940585207599
304.940548560522
304.940535303311
304.940530503835
304.940528632807
304.940527204102
304.94052602919
304.940524800823
304.940524150776
304.940523367446
304.940522483732
304.940521854746
304.940521288827
304.940520761621
304.940520311537
304.940520062613
304.940519801919
304.940519531048
304.940519430634
304.940519352066
304.940519310711
304.940519385607
304.940519506574
304.940519721307
304.940520086706
304.940520561409
304.940521032155
304.94052156567
304.940522253392
304.940523116523
304.940525374687
304.940530487351
304.940544805946
304.940586046576
304.940701786937
304.941012011649
304.941806639003
304.943752605508
304.948398923571
304.959127079427
304.980726346422
305.002089966706
303.497048826566
303.424330470719
303.364921534457
303.333602865193
303.318751367076
303.312033384871
303.309135812177
303.307958544711
303.307510942307
303.307352023458
303.307298469624
303.307281353793
303.307276135155
303.307274265493
303.307273371742
303.307272713642
303.307272353912
303.307271956558
303.307271503656
303.307271143905
303.307270778325
303.307270381805
303.307270023442
303.307269839769
303.307269692722
303.307269509001
303.307269444956
303.307269388114
303.307269281761
303.307269333812
303.307269379447
303.307269386156
303.30726973904
303.307270214743
303.30727049053
303.30727081515
303.307271594171
303.307273657444
303.307280257956
303.307300512055
303.3073615367
303.307536812285
303.308012235307
303.309226243769
303.31214826476
303.318828347319
303.333560171156
303.364930771435
303.425340529952
303.49729880449
302.167680814159
302.07235431805
302.000821695966
301.963459509161
301.945780113657
301.937784716962
301.934327662207
301.932916099328
301.932376082618
301.932182944799
301.932117902051
301.93209730729
301.932091259283
301.932089452802
301.932088851825
301.932088570414
301.932088448849
301.932088317672
301.932088145829
301.932087994031
301.932087806029
301.932087559258
301.932087312796
301.932087184541
301.932087111824
301.932087000663
301.932086974001
301.932086943886
301.932086831085
301.932086842995
301.932086841517
301.932086776491
301.932087067578
301.932087459503
301.932087536508
301.932087644623
301.932088355774
301.932090645408
301.932098180064
301.932122109359
301.932194835397
301.932404064644
301.932970989146
301.934416383299
301.937891764088
301.94584468287
301.963427717594
302.000995533895
302.0740803715
302.170329378397
301.203207297321
301.117721978309
301.060785718679
301.032056511935
301.019016175183
301.013342537969
301.010960611137
301.010006942718
301.009646479714
301.009518425771
301.009475485826
301.009461983092
301.009458118799
301.009457048832
301.009456763526
301.009456683769
301.00945669418
301.009456696295
301.009456659945
301.009456619813
301.009456548123
301.009456421117
301.009456272773
301.009456187377
301.009456157271
301.009456103411
301.009456093202
301.009456089782
301.009456032183
301.009456028827
301.009456021872
301.009455946313
301.009456111464
301.009456329076
301.009456345751
301.009456370752
301.009456701072
301.009458034337
301.009462667476
301.009477713773
301.009524171478
301.009659845144
301.010033297339
301.011003715423
301.013395491151
301.019052506401
301.032081779733
301.061128247108
301.119637535636
301.207594487965
300.604839328223
300.544352747017
300.508139506526
300.49047650802
300.482760192252
300.479520655266
300.47819620191
300.477674287858
300.47747849344
300.477409063067
300.477385740529
300.477378412183
300.477376349858
300.47737581783
300.477375735943
300.477375750687
300.477375782626
300.477375806821
300.477375805391
300.477375804074
300.477375793233
300.477375741236
300.477375663494
300.477375612987
300.477375609237
300.477375602971
300.477375605729
300.477375607459
300.477375585398
300.477375583431
300.47737557178
300.477375504286
300.477375579051
300.47737566956
300.477375662902
300.477375667998
300.47737579613
300.477376427163
300.477378779164
300.477386585559
300.477410942232
300.477482756064
300.477682540974
300.478209237594
300.479535007236
300.482766769291
300.490500581271
300.508444916821
300.54592058433
300.609263973549
300.278387211678
300.242341837483
300.22273280296
300.213460991094
300.209541147223
300.207945960583
300.207308766647
300.207060894195
300.20696830907
300.20693543255
300.206924333316
300.206920836056
300.206919868562
300.206919648461
300.206919638239
300.206919658022
300.206919686307
300.206919709775
300.206919720376
300.206919723592
300.206919725224
300.206919711384
300.206919675876
300.206919653228
300.206919658443
300.206919664292
300.206919668514
300.206919670822
300.20691966419
300.206919662109
300.206919651768
300.206919609479
300.206919638959
300.20691967133
300.206919659523
300.206919658602
300.20691969908
300.206919957695
300.206921012687
300.206924583612
300.206935802251
300.206969042576
300.207062083325
300.207309882553
300.207944483664
300.209532921837
300.213465252062
300.222919346044
300.243370168721
300.281759263189
300.118490034149
300.099697641246
300.090315523499
300.086003526867
300.084230136831
300.083527475743
300.083252462175
300.083146625498
300.083107184992
300.08309313364
300.083088358691
300.08308684745
300.083086437664
300.083086356628
300.083086361521
300.083086376371
300.083086394325
300.083086409576
300.083086418999
300.083086421902
300.083086425382
300.083086423174
300.08308640894
300.083086401402
300.083086406473
300.083086411292
300.083086414069
300.083086415878
300.083086413925
300.083086412794
300.083086406924
300.083086384722
300.083086394544
300.08308640409
300.083086396659
300.083086397261
300.083086405506
300.083086498291
300.083086928846
300.083088418133
300.08309311511
300.08310704626
300.083146129552
300.083250901863
300.083522947166
300.084219642848
300.085996089426
300.090403201341
300.100266825199
300.120609505002
300.047046787559
300.038256679484
300.034190107385
300.032369944991
300.031638548003
300.031355260235
300.031246356047
300.031204832105
300.031189375337
300.031183844737
300.031181952336
300.031181350573
300.031181191316
300.031181164406
300.031181169022
300.031181177491
300.031181186895
300.031181194916
300.031181200413
300.031181202264
300.03118120479
300.031181205172
300.03118120021
300.031181198679
300.031181201733
300.031181204084
300.031181205445
300.031181206552
300.031181205855
300.031181204988
300.031181202391
300.031181192405
300.031181194958
300.031181196941
300.031181193757
300.031181193891
300.031181193626
300.031181224476
300.031181387137
300.0311819646
300.031183789071
300.031189188979
300.031204325146
300.031245037721
300.031351887554
300.031630916661
300.032360822207
300.034222990257
300.038531783954
300.048198650942
300.017558233022
300.013802480985
300.012176897134
300.011467433998
300.011187933147
300.011081738737
300.011041555331
300.011026359673
300.011020706238
300.011018673865
300.011017973914
300.011017750346
300.011017692415
300.011017684313
300.011017687147
300.011017691273
300.011017695589
300.011017699263
300.011017701925
300.011017703169
300.011017704292
300.011017704369
300.011017703335
300.011017703674
300.011017704941
300.011017705875
300.011017706437
300.011017706938
300.011017706665
300.011017706166
300.011017705092
300.011017701034
300.011017701438
300.011017701465
300.01101770011
300.011017700068
300.011017699183
300.011017708641
300.011017766267
300.01101797719
300.011018643665
300.011020607339
300.011026093024
300.011040858295
300.011079918209
300.011183606864
300.011460901598
300.012186486944
300.0139213696
300.018115797518
300.006199667637
300.004713903878
300.004106570338
300.00384791271
300.003747746601
300.003710302772
300.003696330275
300.003691086007
300.003689135592
300.003688431214
300.003688187228
300.003688109057
300.003688089159
300.003688086909
300.003688088316
300.003688090112
300.003688091905
300.00368809343
300.00368809458
300.003688095233
300.003688095677
300.00368809574
300.00368809567
300.003688096039
300.003688096541
300.00368809688
300.003688097088
300.00368809727
300.003688097161
300.003688096929
300.003688096505
300.003688095032
300.003688094893
300.003688094717
300.003688094218
300.003688093995
300.00368809342
300.003688096118
300.003688115613
300.003688188888
300.003688420032
300.003689096854
300.003690977666
300.003696032364
300.003709476889
300.003745652742
300.003844258173
300.004108351253
300.004760626874
300.006445003555
300.002082740059
300.001532816389
300.001318590167
300.001229504224
300.001195527206
300.00118299898
300.001178380653
300.001176659247
300.001176019317
300.001175787253
300.001175706481
300.001175680562
300.001175674134
300.001175673555
300.00117567409
300.001175674803
300.001175675491
300.001175676077
300.001175676532
300.00117567682
300.001175677032
300.001175677119
300.001175677146
300.001175677303
300.001175677482
300.001175677599
300.001175677671
300.001175677726
300.001175677682
300.001175677588
300.001175677431
300.001175676953
300.001175676838
300.001175676716
300.001175676487
300.001175676308
300.001175676027
300.001175676785
300.001175683134
300.001175707481
300.001175784114
300.001176006899
300.001176621935
300.001178269437
300.001182665529
300.001194623405
300.001227756051
300.001318441822
300.001549722066
300.002182339465
300.000668944406
300.000476910098
300.000405012209
300.000375799382
300.00036481066
300.000360805417
300.000359344488
300.000358803437
300.000358602441
300.000358529295
300.000358503737
300.000358495534
300.000358493536
300.000358493392
300.000358493597
300.000358493859
300.000358494106
300.000358494317
300.000358494485
300.000358494597
300.000358494683
300.000358494729
300.000358494756
300.000358494817
300.000358494877
300.000358494915
300.000358494938
300.000358494952
300.000358494935
300.000358494902
300.000358494846
300.000358494699
300.000358494642
300.000358494582
300.000358494483
300.00035849439
300.000358494274
300.000358494488
300.000358496488
300.000358504265
300.000358528678
300.00035859911
300.000358792128
300.000359306788
300.000360681775
300.000364453452
300.000375052203
300.000404661293
300.000482593093
300.000706675227
300.00020628213
300.000142584447
300.000119486752
300.000110309416
300.000106901025
300.000105670788
300.000105226099
300.00010506238
300.000105001619
300.000104979445
300.000104971673
300.000104969178
300.000104968577
300.000104968544
300.000104968617
300.000104968707
300.00010496879
300.00010496886
300.000104968918
300.000104968959
300.00010496899
300.000104969009
300.000104969022
300.000104969044
300.000104969062
300.000104969074
300.000104969081
300.000104969084
300.000104969078
300.000104969067
300.000104969048
300.000104969005
300.000104968981
300.000104968956
300.000104968918
300.000104968879
300.000104968837
300.000104968899
300.000104969511
300.00010497191
300.000104979412
300.00010500089
300.000105059302
300.000105214187
300.000105627804
300.000106769424
300.000110016521
300.000119265857
300.000144370904
300.000219738819
300.000061297449
300.00004111526
300.000033978932
300.000031203051
300.000030184332
300.000029819665
300.000029688852
300.000029640949
300.000029623192
300.000029616697
300.000029614414
300.00002961368
300.000029613504
300.000029613495
300.000029613519
300.000029613547
300.000029613572
300.000029613594
300.000029613613
300.000029613626
300.000029613636
300.000029613642
300.000029613647
300.000029613654
300.000029613659
300.000029613663
300.000029613665
300.000029613665
300.000029613663
300.00002961366
300.000029613654
300.000029613641
300.000029613633
300.000029613624
300.000029613612
300.000029613598
300.000029613585
300.000029613603
300.000029613787
300.000029614505
300.000029616736
300.000029623075
300.000029640183
300.000029685267
300.000029805442
300.000030138549
300.000031095912
300.000033874087
300.000041642704
300.000065848234
300.000017608791
300.000011471921
300.000009343481
300.000008531821
300.000008237274
300.00000813258
300.00000809526
300.000008081657
300.000008076621
300.000008074775
300.000008074123
300.000008073913
300.00000807386
300.000008073857
300.000008073863
300.00000807387
300.000008073877
300.000008073882
300.000008073887
300.000008073891
300.000008073893
300.000008073895
300.000008073896
300.000008073898
300.000008073899
300.0000080739
300.0000080739
300.0000080739
300.0000080739
300.000008073899
300.000008073897
300.000008073894
300.000008073892
300.00000807389
300.000008073886
300.000008073882
300.000008073879
300.000008073886
300.000008073942
300.000008074151
300.000008074796
300.000008076613
300.000008081476
300.000008094209
300.000008128048
300.000008222087
300.000008494804
300.000009300422
300.000011618522
300.000019076654
300.000004904194
300.000003106241
300.000002491557
300.000002261373
300.000002178719
300.000002149518
300.000002139162
300.000002135401
300.000002134009
300.000002133496
300.000002133314
300.000002133253
300.000002133236
300.000002133233
300.000002133234
300.000002133234
300.000002133235
300.000002133235
300.000002133236
300.000002133236
300.000002133236
300.000002133236
300.000002133236
300.000002133236
300.000002133236
300.000002133236
300.000002133236
300.000002133236
300.000002133236
300.000002133236
300.000002133236
300.000002133235
300.000002133235
300.000002133235
300.000002133235
300.000002133235
300.000002133235
300.000002133239
300.000002133256
300.000002133317
300.0000021335
300.000002134008
300.000002135354
300.000002138853
300.000002148114
300.000002173878
300.000002249185
300.000002475481
300.000003144601
300.000005357982
300.000001327765
300.00000081853
300.000000646203
300.000000582706
300.000000560129
300.000000552195
300.000000549391
300.000000548374
300.000000547997
300.000000547856
300.000000547804
300.000000547785
300.000000547778
300.000000547775
300.000000547773
300.000000547772
300.000000547771
300.00000054777
300.000000547769
300.000000547768
300.000000547767
300.000000547767
300.000000547766
300.000000547766
300.000000547765
300.000000547765
300.000000547765
300.000000547765
300.000000547765
300.000000547765
300.000000547765
300.000000547766
300.000000547766
300.000000547767
300.000000547768
300.000000547769
300.000000547771
300.000000547773
300.00000054778
300.000000547799
300.000000547851
300.000000547991
300.000000548357
300.000000549296
300.000000551766
300.000000558635
300.000000578854
300.000000640612
300.000000827948
300.000001462776
300.000000350494
300.000000210676
300.000000163671
300.000000146582
300.00000014056
300.000000138453
300.000000137709
300.000000137438
300.000000137335
300.000000137295
300.000000137278
300.000000137271
300.000000137267
300.000000137264
300.000000137261
300.000000137259
300.000000137258
300.000000137256
300.000000137255
300.000000137253
300.000000137252
300.000000137252
300.000000137251
300.00000013725
300.00000013725
300.00000013725
300.000000137249
300.000000137249
300.000000137249
300.00000013725
300.00000013725
300.000000137251
300.000000137252
300.000000137253
300.000000137254
300.000000137255
300.000000137257
300.00000013726
300.000000137263
300.00000013727
300.000000137287
300.000000137327
300.000000137426
300.000000137674
300.000000138319
300.000000140108
300.000000145405
300.000000161832
300.000000212824
300.000000389284
300.000000090662
300.000000053376
300.000000040875
300.000000036366
300.000000034788
300.000000034237
300.000000034041
300.000000033968
300.000000033938
300.000000033925
300.000000033918
300.000000033913
300.00000003391
300.000000033907
300.000000033904
300.000000033902
300.0000000339
300.000000033898
300.000000033897
300.000000033896
300.000000033894
300.000000033893
300.000000033893
300.000000033892
300.000000033892
300.000000033891
300.000000033891
300.000000033891
300.000000033891
300.000000033892
300.000000033892
300.000000033893
300.000000033894
300.000000033895
300.000000033896
300.000000033898
300.0000000339
300.000000033902
300.000000033905
300.000000033909
300.000000033916
300.000000033929
300.000000033957
300.000000034024
300.000000034191
300.00000003465
300.000000036014
300.000000040295
300.000000053819
300.000000101452
300.000000023301
300.000000013648
300.000000010397
300.000000009215
300.000000008802
300.000000008658
300.000000008605
300.000000008583
300.000000008572
300.000000008565
300.000000008561
300.000000008557
300.000000008553
300.000000008551
300.000000008548
300.000000008546
300.000000008544
300.000000008542
300.00000000854
300.000000008539
300.000000008538
300.000000008537
300.000000008536
300.000000008535
300.000000008535
300.000000008535
300.000000008534
300.000000008534
300.000000008535
300.000000008535
300.000000008535
300.000000008536
300.000000008537
300.000000008538
300.00000000854
300.000000008541
300.000000008543
300.000000008545
300.000000008548
300.000000008551
300.000000008556
300.000000008562
300.000000008572
300.000000008592
300.000000008637
300.000000008756
300.000000009109
300.000000010219
300.000000013722
300.00000002621
300.000000006242
300.000000003837
300.000000003005
300.000000002683
300.000000002569
300.000000002529
300.000000002512
300.000000002503
300.000000002497
300.000000002492
300.000000002488
300.000000002485
300.000000002481
300.000000002478
300.000000002476
300.000000002474
300.000000002472
300.00000000247
300.000000002468
300.000000002467
300.000000002466
300.000000002465
300.000000002464
300.000000002463
300.000000002463
300.000000002462
300.000000002462
300.000000002462
300.000000002462
300.000000002463
300.000000002463
300.000000002464
300.000000002465
300.000000002466
300.000000002467
300.000000002469
300.000000002471
300.000000002473
300.000000002476
300.000000002479
300.000000002483
300.000000002487
300.000000002492
300.0000000025
300.000000002515
300.000000002549
300.000000002648
300.000000002949
300.000000003839
300.000000006999
300.000000002014
300.000000001464
300.00000000125
300.000000001146
300.000000001107
300.000000001093
300.000000001085
300.00000000108
300.000000001075
300.000000001071
300.000000001067
300.000000001063
300.00000000106
300.000000001057
300.000000001054
300.000000001052
300.00000000105
300.000000001048
300.000000001047
300.000000001045
300.000000001044
300.000000001043
300.000000001042
300.000000001041
300.000000001041
300.000000001041
300.00000000104
300.00000000104
300.000000001041
300.000000001041
300.000000001041
300.000000001042
300.000000001043
300.000000001044
300.000000001046
300.000000001048
300.00000000105
300.000000001052
300.000000001055
300.000000001057
300.000000001061
300.000000001065
300.000000001069
300.000000001074
300.000000001081
300.000000001094
300.00000000113
300.00000000123
300.000000001454
300.000000002199
300.000000000987
300.0000000009
300.000000000841
300.000000000791
300.000000000771
300.000000000763
300.000000000758
300.000000000754
300.000000000749
300.000000000745
300.000000000741
300.000000000738
300.000000000734
300.000000000732
300.000000000729
300.000000000727
300.000000000724
300.000000000723
300.000000000721
300.00000000072
300.000000000718
300.000000000717
300.000000000716
300.000000000716
300.000000000715
300.000000000715
300.000000000715
300.000000000715
300.000000000715
300.000000000715
300.000000000716
300.000000000717
300.000000000718
300.000000000719
300.00000000072
300.000000000722
300.000000000724
300.000000000726
300.000000000729
300.000000000732
300.000000000735
300.000000000739
300.000000000743
300.000000000747
300.000000000752
300.00000000076
300.000000000781
300.000000000832
300.00000000089
300.000000001024
300.000000000742
300.000000000769
300.000000000748
300.000000000711
300.000000000696
300.000000000689
300.000000000685
300.00000000068
300.000000000676
300.000000000672
300.000000000668
300.000000000665
300.000000000661
300.000000000659
300.000000000656
300.000000000654
300.000000000651
300.00000000065
300.000000000648
300.000000000647
300.000000000645
300.000000000644
300.000000000644
300.000000000643
300.000000000642
300.000000000642
300.000000000642
300.000000000642
300.000000000642
300.000000000642
300.000000000643
300.000000000644
300.000000000645
300.000000000646
300.000000000647
300.000000000649
300.000000000651
300.000000000653
300.000000000656
300.000000000659
300.000000000662
300.000000000666
300.00000000067
300.000000000674
300.000000000678
300.000000000685
300.000000000702
300.000000000741
300.000000000759
300.000000000742
300.000000000684
300.000000000739
300.000000000727
300.000000000694
300.000000000679
300.000000000673
300.000000000669
300.000000000664
300.00000000066
300.000000000656
300.000000000652
300.000000000649
300.000000000646
300.000000000643
300.00000000064
300.000000000638
300.000000000636
300.000000000634
300.000000000632
300.000000000631
300.000000000629
300.000000000628
300.000000000628
300.000000000627
300.000000000626
300.000000000626
300.000000000626
300.000000000626
300.000000000626
300.000000000626
300.000000000627
300.000000000628
300.000000000629
300.00000000063
300.000000000631
300.000000000633
300.000000000635
300.000000000637
300.00000000064
300.000000000643
300.000000000646
300.00000000065
300.000000000654
300.000000000658
300.000000000662
300.000000000668
300.000000000685
300.000000000721
300.000000000729
300.000000000676
300.000000000671
300.000000000732
300.000000000722
300.00000000069
300.000000000675
300.00000000067
300.000000000665
300.000000000661
300.000000000657
300.000000000653
300.000000000649
300.000000000645
300.000000000642
300.000000000639
300.000000000637
300.000000000634
300.000000000632
300.00000000063
300.000000000629
300.000000000627
300.000000000626
300.000000000625
300.000000000624
300.000000000623
300.000000000623
300.000000000623
300.000000000622
300.000000000622
300.000000000623
300.000000000623
300.000000000624
300.000000000624
300.000000000625
300.000000000627
300.000000000628
300.00000000063
300.000000000632
300.000000000634
300.000000000637
300.00000000064
300.000000000643
300.000000000646
300.00000000065
300.000000000654
300.000000000658
300.000000000665
300.000000000681
300.000000000717
300.000000000723
300.000000000661
300.000000000669
300.000000000731
300.000000000722
300.000000000689
300.000000000675
300.000000000669
300.000000000664
300.00000000066
300.000000000656
300.000000000652
300.000000000648
300.000000000644
300.000000000641
300.000000000638
300.000000000636
300.000000000633
300.000000000631
300.000000000629
300.000000000628
300.000000000626
300.000000000625
300.000000000624
300.000000000623
300.000000000623
300.000000000622
300.000000000622
300.000000000622
300.000000000622
300.000000000622
300.000000000622
300.000000000623
300.000000000624
300.000000000625
300.000000000626
300.000000000627
300.000000000629
300.000000000631
300.000000000633
300.000000000636
300.000000000639
300.000000000642
300.000000000646
300.000000000649
300.000000000653
300.000000000658
300.000000000664
300.000000000681
300.000000000716
300.000000000722
300.000000000658
300.000000000669
300.000000000731
300.000000000722
300.000000000689
300.000000000675
300.000000000669
300.000000000664
300.00000000066
300.000000000655
300.000000000651
300.000000000647
300.000000000644
300.000000000641
300.000000000638
300.000000000635
300.000000000633
300.000000000631
300.000000000629
300.000000000627
300.000000000626
300.000000000625
300.000000000624
300.000000000623
300.000000000622
300.000000000622
300.000000000621
300.000000000621
300.000000000621
300.000000000622
300.000000000622
300.000000000622
300.000000000623
300.000000000624
300.000000000625
300.000000000627
300.000000000629
300.000000000631
300.000000000633
300.000000000636
300.000000000638
300.000000000642
300.000000000645
300.000000000649
300.000000000653
300.000000000658
300.000000000664
300.000000000681
300.000000000716
300.000000000722
300.000000000658
300.000000000669
300.000000000732
300.000000000722
300.000000000689
300.000000000675
300.000000000668
300.000000000664
300.000000000659
300.000000000655
300.000000000651
300.000000000647
300.000000000643
300.00000000064
300.000000000637
300.000000000635
300.000000000632
300.00000000063
300.000000000629
300.000000000627
300.000000000626
300.000000000624
300.000000000623
300.000000000623
300.000000000622
300.000000000621
300.000000000621
300.000000000621
300.000000000621
300.000000000621
300.000000000622
300.000000000622
300.000000000623
300.000000000624
300.000000000625
300.000000000626
300.000000000628
300.00000000063
300.000000000632
300.000000000635
300.000000000638
300.000000000641
300.000000000645
300.000000000649
300.000000000653
300.000000000658
300.000000000664
300.000000000681
300.000000000717
300.000000000723
300.000000000658
300.000000000671
300.000000000733
300.000000000723
300.000000000689
300.000000000674
300.000000000668
300.000000000663
300.000000000659
300.000000000654
300.00000000065
300.000000000646
300.000000000643
300.000000000639
300.000000000637
300.000000000634
300.000000000632
300.00000000063
300.000000000628
300.000000000626
300.000000000625
300.000000000624
300.000000000623
300.000000000622
300.000000000622
300.000000000621
300.000000000621
300.000000000621
300.000000000621
300.000000000621
300.000000000621
300.000000000622
300.000000000622
300.000000000623
300.000000000625
300.000000000626
300.000000000628
300.00000000063
300.000000000632
300.000000000635
300.000000000638
300.000000000641
300.000000000644
300.000000000648
300.000000000653
300.000000000657
300.000000000664
300.000000000682
300.000000000718
300.000000000724
300.00000000066
300.000000000672
300.000000000735
300.000000000724
300.00000000069
300.000000000674
300.000000000668
300.000000000663
300.000000000658
300.000000000653
300.000000000649
300.000000000645
300.000000000642
300.000000000639
300.000000000636
300.000000000633
300.000000000631
300.000000000629
300.000000000627
300.000000000626
300.000000000624
300.000000000623
300.000000000622
300.000000000622
300.000000000621
300.00000000062
300.00000000062
300.00000000062
300.00000000062
300.00000000062
300.000000000621
300.000000000621
300.000000000622
300.000000000623
300.000000000624
300.000000000625
300.000000000627
300.000000000629
300.000000000631
300.000000000634
300.000000000637
300.00000000064
300.000000000644
300.000000000648
300.000000000652
300.000000000657
300.000000000665
300.000000000682
300.000000000719
300.000000000726
300.000000000661
300.000000000674
300.000000000736
300.000000000725
300.00000000069
300.000000000674
300.000000000667
300.000000000662
300.000000000657
300.000000000652
300.000000000648
300.000000000644
300.000000000641
300.000000000638
300.000000000635
300.000000000632
300.00000000063
300.000000000628
300.000000000626
300.000000000625
300.000000000624
300.000000000622
300.000000000622
300.000000000621
300.00000000062
300.00000000062
300.000000000619
300.000000000619
300.000000000619
300.00000000062
300.00000000062
300.00000000062
300.000000000621
300.000000000622
300.000000000623
300.000000000625
300.000000000626
300.000000000628
300.000000000631
300.000000000633
300.000000000636
300.000000000639
300.000000000643
300.000000000647
300.000000000652
300.000000000657
300.000000000665
300.000000000683
300.00000000072
300.000000000728
300.000000000664
300.000000000676
300.000000000738
300.000000000726
300.00000000069
300.000000000674
300.000000000667
300.000000000661
300.000000000656
300.000000000651
300.000000000647
300.000000000643
300.000000000639
300.000000000636
300.000000000634
300.000000000631
300.000000000629
300.000000000627
300.000000000625
300.000000000624
300.000000000623
300.000000000622
300.000000000621
300.00000000062
300.000000000619
300.000000000619
300.000000000619
300.000000000619
300.000000000619
300.000000000619
300.000000000619
300.00000000062
300.00000000062
300.000000000621
300.000000000622
300.000000000624
300.000000000625
300.000000000627
300.00000000063
300.000000000632
300.000000000635
300.000000000639
300.000000000642
300.000000000647
300.000000000651
300.000000000657
300.000000000665
300.000000000684
300.000000000722
300.000000000731
300.000000000666
300.000000000679
300.000000000741
300.000000000727
300.000000000691
300.000000000674
300.000000000666
300.00000000066
300.000000000655
300.00000000065
300.000000000645
300.000000000641
300.000000000638
300.000000000635
300.000000000632
300.00000000063
300.000000000628
300.000000000626
300.000000000624
300.000000000623
300.000000000622
300.000000000621
300.00000000062
300.000000000619
300.000000000618
300.000000000618
300.000000000618
300.000000000618
300.000000000618
300.000000000618
300.000000000618
300.000000000619
300.000000000619
300.00000000062
300.000000000621
300.000000000623
300.000000000624
300.000000000626
300.000000000628
300.000000000631
300.000000000634
300.000000000637
300.000000000641
300.000000000646
300.000000000651
300.000000000656
300.000000000665
300.000000000685
300.000000000724
300.000000000734
300.000000000669
300.000000000682
300.000000000744
300.000000000729
300.000000000691
300.000000000673
300.000000000665
300.000000000659
300.000000000653
300.000000000648
300.000000000644
300.00000000064
300.000000000636
300.000000000633
300.000000000631
300.000000000628
300.000000000626
300.000000000625
300.000000000623
300.000000000622
300.00000000062
300.000000000619
300.000000000619
300.000000000618
300.000000000617
300.000000000617
300.000000000617
300.000000000617
300.000000000617
300.000000000617
300.000000000617
300.000000000618
300.000000000618
300.000000000619
300.00000000062
300.000000000622