/*--------------------------------*- C++ -*----------------------------------*\
  =========                 |
  \\      /  F ield         | OpenFOAM: The Open Source CFD Toolbox
   \\    /   O peration     | Website:  https://openfoam.org
    \\  /    A nd           | Version:  10
     \\/     M anipulation  |
\*---------------------------------------------------------------------------*/
FoamFile
{
    format      ascii;
    class       volVectorField;
    location    "3.8";
    object      U;
}
// * * * * * * * * * * * * * * * * * * * * * * * * * * * * * * * * * * * * * //

dimensions      [0 1 -1 0 0 0 0];

internalField   nonuniform List<vector> 
2500
(
(-1.63598600748158e-06 -8.03071497611957e-06 1.12301203284692e-24)
(-3.88707293470038e-06 -9.9922520986677e-06 1.12214277925039e-23)
(-2.96277548311807e-06 -1.03755314828845e-05 1.35603831354159e-24)
(-2.08172498014117e-06 -1.0423149265447e-05 6.73713332592705e-25)
(-1.32172307748581e-06 -1.03560535983629e-05 3.01078534689704e-24)
(-8.60388663027231e-07 -1.02902995918048e-05 6.68726583327585e-25)
(-5.89460855603253e-07 -1.02469387236869e-05 2.94486522420037e-25)
(-4.23848872682356e-07 -1.02217633763594e-05 3.62771798049138e-25)
(-3.2239296098915e-07 -1.02091246472739e-05 1.0076475259434e-24)
(-2.55746094745433e-07 -1.02030722425565e-05 8.11456986585162e-24)
(-2.09301092702716e-07 -1.02002219037499e-05 2.39799878310123e-24)
(-1.75460811120097e-07 -1.01988548110969e-05 1.22314303352554e-23)
(-1.49626470800902e-07 -1.01981250436723e-05 8.06058742547931e-24)
(-1.29279478841708e-07 -1.01976892011163e-05 1.77035654953684e-24)
(-1.12843204089727e-07 -1.01973985108949e-05 1.06566690618183e-23)
(-9.92983593603024e-08 -1.01971791987296e-05 1.85125668266774e-24)
(-8.79494057805194e-08 -1.01970255626746e-05 9.14485627900599e-24)
(-7.83041521086233e-08 -1.01969090816303e-05 1.27229854464498e-23)
(-6.99770737604612e-08 -1.01968234537435e-05 2.3327487200806e-24)
(-6.26696116060772e-08 -1.01967576614312e-05 1.12199957620552e-23)
(-5.61445383527255e-08 -1.01967191966461e-05 1.40202448254153e-24)
(-5.02012775582292e-08 -1.01966984282092e-05 6.87867613124317e-25)
(-4.4658023449146e-08 -1.01966878957062e-05 9.2128849356621e-24)
(-3.93662498869484e-08 -1.01966906371307e-05 1.00913131885722e-24)
(-3.41906366987389e-08 -1.01966984169529e-05 7.66548421053301e-25)
(-2.89896669390816e-08 -1.01967175115241e-05 1.10052092248595e-23)
(-2.36321665734639e-08 -1.01967457520707e-05 7.4665919440218e-25)
(-1.79863167628854e-08 -1.01967728974729e-05 3.98529754742195e-25)
(-1.19113752441983e-08 -1.01968145090627e-05 6.65233462183469e-24)
(-5.25629422259394e-09 -1.0196853711898e-05 1.6077698899779e-25)
(2.14650685565702e-09 -1.01969007692418e-05 2.1260941364915e-26)
(1.05034159926112e-08 -1.01969574471475e-05 -8.65454228137393e-25)
(2.00531185854389e-08 -1.01970198955944e-05 1.20334971548036e-25)
(3.1073857446627e-08 -1.01971010682273e-05 2.38860789648344e-25)
(4.39498514502717e-08 -1.01972103841509e-05 2.70111824301846e-25)
(5.91941273415656e-08 -1.01973625616692e-05 9.88838395400113e-24)
(7.75051574871102e-08 -1.01975930859676e-05 -9.9830671084976e-24)
(9.99063638123245e-08 -1.01979745861996e-05 -8.93244804144008e-25)
(1.2798123790472e-07 -1.01986668286143e-05 -1.89069174390026e-25)
(1.64263598032944e-07 -1.0200042955705e-05 -4.58852442608195e-24)
(2.13367445228863e-07 -1.02029616816174e-05 -1.19601495786854e-23)
(2.83022733625089e-07 -1.02091316175434e-05 -1.14613561534898e-23)
(3.87663071630873e-07 -1.02217901356174e-05 -3.96689817158141e-24)
(5.57381573443276e-07 -1.02467321099498e-05 -1.14596945168111e-23)
(8.3275946098169e-07 -1.02892605114965e-05 -1.05091636974141e-23)
(1.3017200584191e-06 -1.03544138360887e-05 -4.71924531391393e-24)
(2.07463828085029e-06 -1.04229985068914e-05 -1.12989956041724e-23)
(2.9906453192928e-06 -1.03784792144981e-05 -9.48543278888197e-24)
(3.953230743178e-06 -9.98000877602486e-06 -4.25161713995518e-24)
(1.66977216497878e-06 -7.99862991921437e-06 -7.05683321994374e-24)
(-1.05080782838193e-06 -9.68553281981929e-06 1.37461055919837e-24)
(-5.98380308033025e-06 -1.28177143250466e-05 3.13402640987043e-24)
(-4.92843219414751e-06 -1.40779729240096e-05 1.90669777496627e-24)
(-3.69450492451452e-06 -1.40539146661024e-05 1.68115336756986e-24)
(-2.52700912943558e-06 -1.37201221009658e-05 8.5608351942804e-24)
(-1.7613320140382e-06 -1.34226162269922e-05 4.35868708083078e-25)
(-1.2840768598241e-06 -1.32339242901146e-05 6.76478873711239e-25)
(-9.70901992318412e-07 -1.31259497553133e-05 6.45131420432049e-25)
(-7.61337817296428e-07 -1.30677622331346e-05 -1.29371369898257e-24)
(-6.11273995849614e-07 -1.30364141289777e-05 2.95671923425513e-24)
(-4.98017251816137e-07 -1.30188050596558e-05 4.87189118597566e-24)
(-4.09568590018828e-07 -1.30081548574854e-05 6.45867078709595e-24)
(-3.38226883877028e-07 -1.30011194997124e-05 1.90322776992358e-24)
(-2.79435602035473e-07 -1.29961009134437e-05 2.92067588738763e-24)
(-2.30129406312821e-07 -1.2992294372353e-05 2.17408452631469e-24)
(-1.88215630185018e-07 -1.29892886466745e-05 1.836711047812e-24)
(-1.52175674862633e-07 -1.29868609229687e-05 6.26520913110202e-24)
(-1.20870187504697e-07 -1.29848635707229e-05 4.29477683395848e-24)
(-9.34171407702951e-08 -1.29832148473453e-05 2.4275345020014e-24)
(-6.91073782346047e-08 -1.29818411023952e-05 3.20178406075937e-24)
(-4.73494016469864e-08 -1.29807077830967e-05 1.51160170347516e-24)
(-2.76289329486452e-08 -1.29797762166399e-05 -1.70056342249899e-24)
(-9.49486187526668e-09 -1.29790279637796e-05 4.79006072808136e-24)
(7.45554490206659e-09 -1.29784488697936e-05 1.11081284760579e-24)
(2.35937798627525e-08 -1.29780181209666e-05 -1.55099334515251e-24)
(3.9292575081867e-08 -1.29777417077143e-05 5.13873006025051e-24)
(5.49288959361475e-08 -1.29776029059534e-05 -6.30513045535109e-25)
(7.08606152076378e-08 -1.29776217885625e-05 1.0926882149484e-24)
(8.74799633064592e-08 -1.29777990991982e-05 2.8938182948059e-24)
(1.05211115083651e-07 -1.29781380161809e-05 -2.13234215741286e-24)
(1.24503585859045e-07 -1.2978670884182e-05 1.54024280721897e-24)
(1.45902768840713e-07 -1.29794247159491e-05 -3.90300607747785e-24)
(1.70020361317674e-07 -1.29804307984934e-05 2.4440680167078e-24)
(1.97573190785966e-07 -1.298176637223e-05 2.48437946711595e-24)
(2.29490178319415e-07 -1.2983529146577e-05 -2.22839714858304e-24)
(2.66952059709789e-07 -1.29858666076898e-05 3.62167318147882e-24)
(3.11513517800291e-07 -1.29890192825926e-05 -4.13620359664079e-24)
(3.65319642697873e-07 -1.29934339804864e-05 -8.26776599771874e-25)
(4.31466071850751e-07 -1.29999348987066e-05 1.23773915809125e-24)
(5.14565271851607e-07 -1.30102059371836e-05 -1.38142437962543e-23)
(6.2238899609102e-07 -1.30276757810735e-05 -7.08387373350063e-24)
(7.67266240603537e-07 -1.30591450797349e-05 -5.95130325397156e-24)
(9.71786427237786e-07 -1.31176379766782e-05 -1.22875943648921e-23)
(1.28150508993172e-06 -1.3225982651398e-05 -6.02475823486191e-24)
(1.75577701513245e-06 -1.34149110557208e-05 -6.40505977140457e-24)
(2.5236664845359e-06 -1.37148890386152e-05 -1.42132222988373e-23)
(3.70243613105912e-06 -1.40591648412848e-05 -5.87972525968919e-24)
(4.99221727934391e-06 -1.40943674840736e-05 -6.85957458193729e-24)
(6.1224946323993e-06 -1.27910383682496e-05 -1.26457949943281e-23)
(1.12743942458778e-06 -9.58138189885029e-06 -4.75140695246184e-24)
(3.52723029070826e-07 7.25376684340389e-07 9.41925111277369e-25)
(-4.5002941189036e-06 -5.83241369498276e-07 -6.85363636837528e-24)
(-4.12649883856383e-06 -2.68828104539222e-06 1.46740467411389e-24)
(-3.4752614449765e-06 -2.80862578593102e-06 7.84768974053169e-25)
(-2.65120116770689e-06 -2.4188532962565e-06 -5.39917657969579e-24)
(-2.02100683723188e-06 -2.03728629392843e-06 -7.68804439135902e-24)
(-1.58038903972852e-06 -1.7863068429973e-06 4.85655375347142e-25)
(-1.25705646855375e-06 -1.63630966265766e-06 3.09181696101253e-25)
(-1.01979313976619e-06 -1.54917763834977e-06 -8.55786674084163e-24)
(-8.37551052705145e-07 -1.49709900942579e-06 -4.68353130369397e-24)
(-6.92935102027488e-07 -1.46424425837655e-06 9.71359765424545e-24)
(-5.75885333633063e-07 -1.44214671243779e-06 3.91457680447795e-24)
(-4.79096490930724e-07 -1.42635473624291e-06 -5.66114342364549e-24)
(-3.97840817189931e-07 -1.41449209755932e-06 8.31663391814718e-24)
(-3.28709070919862e-07 -1.40522212121279e-06 -5.6783919477768e-24)
(-2.69235329143043e-07 -1.3977834652494e-06 1.36638834472332e-24)
(-2.17561980099738e-07 -1.39168883376922e-06 3.56666247842402e-24)
(-1.72266731343482e-07 -1.38664257016543e-06 -4.81266684711208e-24)
(-1.32211642852448e-07 -1.38243121875126e-06 1.4053570931503e-24)
(-9.64614180832208e-08 -1.37891708927905e-06 -6.96393695753059e-24)
(-6.42342630081802e-08 -1.37599677496304e-06 6.28330149066854e-25)
(-3.4853295947732e-08 -1.37358833414678e-06 -7.44711263924986e-24)
(-7.70685693970298e-09 -1.37164974882126e-06 2.47836306257684e-24)
(1.77639773716004e-08 -1.37013843477093e-06 6.65813012144507e-25)
(4.2074312204315e-08 -1.36902995060161e-06 -7.66726501300486e-24)
(6.5737431697009e-08 -1.36831554072294e-06 2.29864933998416e-24)
(8.92541762681245e-08 -1.36798901844566e-06 -5.08170826170958e-24)
(1.13133332713775e-07 -1.36806033592105e-06 6.79699777236027e-24)
(1.37916749663804e-07 -1.36854948229074e-06 1.41819732416936e-24)
(1.64175136708961e-07 -1.3694883752843e-06 -8.08243515697233e-24)
(1.92536340174414e-07 -1.37093808338903e-06 6.06683911924933e-24)
(2.23720195091339e-07 -1.37295541505877e-06 -1.16799168164426e-23)
(2.58545157558469e-07 -1.37565034149998e-06 8.71335978855687e-24)
(2.97969995004844e-07 -1.37916290547643e-06 7.79737227003063e-24)
(3.43183711084698e-07 -1.38372168516168e-06 -7.51792648434772e-24)
(3.95667522797764e-07 -1.38964024968454e-06 1.16485626069332e-24)
(4.57321305507935e-07 -1.39741450776114e-06 -1.97064913728869e-24)
(5.30661931786455e-07 -1.40783406419789e-06 -2.27811666707112e-25)
(6.1912939688056e-07 -1.42226339638299e-06 8.08510469642696e-24)
(7.27482551632303e-07 -1.44317214035576e-06 -1.36287075082677e-23)
(8.63060931441252e-07 -1.47511870551316e-06 -4.60296184530421e-24)
(1.03621043262907e-06 -1.52671892377161e-06 -3.51947780439845e-24)
(1.26413024536618e-06 -1.61402673801325e-06 -1.1496124477494e-23)
(1.57940443428877e-06 -1.76532450970054e-06 -3.46004896464075e-24)
(2.01200124818955e-06 -2.01934045747065e-06 -4.18096266460518e-24)
(2.63987465601232e-06 -2.40954974973522e-06 -1.47640050555001e-23)
(3.47150937990698e-06 -2.82188485030728e-06 -3.50821645165348e-24)
(4.17451497552715e-06 -2.72552806151651e-06 -3.98453979021883e-24)
(4.64849647326559e-06 -5.65740701023734e-07 -1.42526341805132e-23)
(-2.52989475437184e-07 8.55015146139354e-07 -2.64190961077782e-24)
(7.88563159719032e-08 7.10349707442234e-06 1.536971737858e-24)
(-2.40718781824912e-06 6.67820852169401e-06 -7.60293724969612e-25)
(-2.6601121482628e-06 3.31656149150856e-06 2.04722214699052e-24)
(-2.65187430002202e-06 2.62773472003438e-06 6.4026073783397e-25)
(-2.32407662954395e-06 2.78093521826822e-06 -1.1071214409526e-24)
(-1.94750283651233e-06 3.0853490041407e-06 -2.66048995748639e-25)
(-1.62628411832836e-06 3.32560251894222e-06 7.59661168726764e-25)
(-1.3519487465676e-06 3.4873449139103e-06 8.60304689788519e-25)
(-1.13124080114653e-06 3.59202079694635e-06 -7.81687485522283e-25)
(-9.51606251644906e-07 3.66101103684739e-06 -7.85617031257638e-25)
(-8.03972547527638e-07 3.70819073118268e-06 4.31715399701592e-24)
(-6.8182228703974e-07 3.7418756265325e-06 2.4706181626994e-24)
(-5.79353118542068e-07 3.76691227918203e-06 -1.31500025507961e-24)
(-4.9244583504744e-07 3.78618040941981e-06 2.54244372562635e-24)
(-4.17913042664998e-07 3.80144735168804e-06 -1.07191512357718e-24)
(-3.53347955546671e-07 3.81380179947861e-06 1.89458118479538e-24)
(-2.96886060240961e-07 3.82396126919082e-06 2.14640327756825e-24)
(-2.47052259714981e-07 3.8324013883666e-06 3.33618977570063e-25)
(-2.02661515950009e-07 3.83945318668741e-06 2.29072940667403e-24)
(-1.62731252027751e-07 3.84534113052394e-06 -3.80045284404982e-25)
(-1.2641668949117e-07 3.85022374173882e-06 1.62123735041631e-24)
(-9.29929021890871e-08 3.85422618706421e-06 -1.15317081422837e-24)
(-6.18061275524335e-08 3.85744988818965e-06 1.72388328605385e-24)
(-3.2248586975752e-08 3.85994235268708e-06 1.24720855890588e-24)
(-3.75974619309976e-09 3.86174461849736e-06 -1.11232192957682e-24)
(2.42070530777065e-08 3.86286893469104e-06 1.42571915002613e-24)
(5.2204665926992e-08 3.86331769916143e-06 -3.97612772289385e-25)
(8.0776880710888e-08 3.86308505411008e-06 8.33253347504738e-25)
(1.10497673593247e-07 3.86212939370497e-06 5.84754995102315e-25)
(1.41991575134975e-07 3.86039895005324e-06 -1.74534475058754e-24)
(1.7593720706141e-07 3.8578022477572e-06 1.24888922987665e-24)
(2.13090901194166e-07 3.8542271468725e-06 -3.67627946047595e-24)
(2.54322076918728e-07 3.84950392003984e-06 1.92599661651066e-24)
(3.00654810334514e-07 3.84340327179253e-06 2.01275854738273e-24)
(3.53313992024083e-07 3.835572991626e-06 -1.9769092160084e-24)
(4.13803973307091e-07 3.82552383764193e-06 -6.82952474977206e-27)
(4.84030728403314e-07 3.81252406003192e-06 -4.17782265818195e-25)
(5.66434106603397e-07 3.79546756162329e-06 -5.72712995832384e-25)
(6.64192995073308e-07 3.77256110097364e-06 2.24014132852776e-24)
(7.81420801271063e-07 3.74084444046439e-06 -3.78150774699305e-24)
(9.23851545206011e-07 3.69538560061904e-06 -1.37682456039421e-24)
(1.09812976261523e-06 3.62772233195176e-06 -1.18264468925255e-24)
(1.31287855323141e-06 3.52364592435514e-06 -2.01154339039165e-24)
(1.58185693083208e-06 3.36101168035051e-06 -9.73701075170431e-25)
(1.89675551353668e-06 3.11678885317481e-06 -8.78692356501397e-25)
(2.27190362456041e-06 2.79900889084826e-06 -3.67913036880737e-24)
(2.60711382738e-06 2.61020953063051e-06 -1.42914508448092e-24)
(2.65770859206512e-06 3.25516528890908e-06 -6.33516108930163e-25)
(2.49767809596851e-06 6.68657378266747e-06 -3.03611238726398e-24)
(-9.3758694251137e-09 7.20640313131605e-06 9.82918064141904e-25)
(-3.62291860519987e-07 9.33841528767851e-06 1.61129834296206e-24)
(-1.02982040038401e-06 8.62365409685689e-06 4.4790844593619e-24)
(-1.64927648414847e-06 4.51443352012518e-06 2.02311099459427e-24)
(-1.97000114431276e-06 3.36904802832443e-06 4.59645969882903e-25)
(-1.96257691669447e-06 3.31125980022485e-06 -4.78754081530301e-25)
(-1.77086555136985e-06 3.54063674269579e-06 1.26265742065078e-24)
(-1.55426560124238e-06 3.7714964616578e-06 7.04924716376185e-25)
(-1.33642447716316e-06 3.94540326422946e-06 8.78218259079532e-25)
(-1.14654881152848e-06 4.06709227318533e-06 1.8723914935381e-24)
(-9.84439882725131e-07 4.15202152113613e-06 2.43357243650424e-24)
(-8.47307339985841e-07 4.21257598829869e-06 1.48087475252817e-24)
(-7.31752599117544e-07 4.25711948576811e-06 2.57272630377943e-24)
(-6.33622753919171e-07 4.29089366745571e-06 2.35468393038187e-24)
(-5.49659529296437e-07 4.3172330174574e-06 1.00014035085232e-24)
(-4.77156003003066e-07 4.33826345108198e-06 2.24936960428177e-24)
(-4.13972638464082e-07 4.35536893646136e-06 1.8475001279128e-24)
(-3.58394650424891e-07 4.36945945493317e-06 2.93657808869583e-24)
(-3.09048261912279e-07 4.38117285540407e-06 3.10270472084103e-24)
(-2.64803510854089e-07 4.39094046787048e-06 2.33639943792245e-24)
(-2.24709867362827e-07 4.39907885336414e-06 2.86747163774539e-24)
(-1.879517984549e-07 4.4058127183246e-06 1.84140110881e-24)
(-1.53813432859961e-07 4.41130859541026e-06 1.60134488283532e-24)
(-1.2165946938859e-07 4.41568969568318e-06 2.31440549585196e-24)
(-9.08990262427905e-08 4.4190376827121e-06 1.27124739325063e-24)
(-6.09744206576071e-08 4.42140028905223e-06 1.57880560556246e-24)
(-3.13504448556056e-08 4.42280700634192e-06 2.40486827280413e-24)
(-1.49335364293433e-09 4.42325992620906e-06 1.18259599616707e-24)
(2.91362125765425e-08 4.42272499598525e-06 -3.80074459987654e-25)
(6.11028408611933e-08 4.42117603525602e-06 1.31370776473329e-24)
(9.50118152297241e-08 4.41852327225634e-06 6.97728219652773e-25)
(1.3152563358348e-07 4.41464634317015e-06 -6.1449051560988e-25)
(1.71373132771628e-07 4.40937810571586e-06 -8.1838424180347e-25)
(2.15397997074739e-07 4.40250391499145e-06 -7.85282913593248e-25)
(2.64583936832935e-07 4.39369490172206e-06 -5.89094775849756e-25)
(3.20083888520993e-07 4.3824854262762e-06 5.02856059414274e-25)
(3.83297662501791e-07 4.3682465437737e-06 1.26582253725703e-24)
(4.55958455143246e-07 4.35003805562803e-06 -9.18566800991834e-25)
(5.40212138075011e-07 4.32646363470322e-06 -6.8319983571868e-25)
(6.38737267553616e-07 4.2953713920066e-06 5.35795329058803e-26)
(7.54742852117866e-07 4.25335470985439e-06 1.35255715548081e-24)
(8.92249117142666e-07 4.19508581360639e-06 -1.39761088265229e-24)
(1.05464057242862e-06 4.11210517330802e-06 -1.11082910241504e-24)
(1.24401117498818e-06 3.99172625351101e-06 2.13513693682199e-24)
(1.46130396909753e-06 3.81783456827627e-06 -9.33501688721597e-25)
(1.67512837324319e-06 3.583467057066e-06 -1.07157904755711e-24)
(1.86729780360222e-06 3.3386288132213e-06 1.80224940785522e-24)
(1.88198851774978e-06 3.3516179452848e-06 -9.6536164617908e-25)
(1.59859578755543e-06 4.43809838567112e-06 -9.10908327022492e-25)
(1.04817019705481e-06 8.63314159796474e-06 2.54214880218486e-24)
(3.83392172244772e-07 9.43248210155176e-06 -1.29760906055106e-25)
(-4.29078422962447e-07 9.12569496937915e-06 1.22469803227241e-24)
(-4.18700430343865e-07 7.84044507268133e-06 5.54427953211828e-24)
(-1.17492482682379e-06 3.62181775588069e-06 1.50007921145722e-24)
(-1.56022768209427e-06 2.2821830627826e-06 4.20869451907929e-25)
(-1.68586082446248e-06 2.12219643294427e-06 1.23240130858606e-24)
(-1.59236206524681e-06 2.31013182568716e-06 2.40696682899062e-24)
(-1.4458626580612e-06 2.53802752860349e-06 5.66423917023693e-25)
(-1.27460813806552e-06 2.72210635191453e-06 6.4222546619758e-25)
(-1.1151635547733e-06 2.85726892273481e-06 2.46771531843291e-24)
(-9.73362836290422e-07 2.95507991753105e-06 3.10943850636974e-24)
(-8.50168265202892e-07 3.02679338529998e-06 -5.50942931562392e-25)
(-7.44464324416077e-07 3.0806646635641e-06 1.75478305668921e-24)
(-6.53534293254804e-07 3.12213627059628e-06 3.2970608572922e-24)
(-5.7498438436655e-07 3.15481931651133e-06 -4.34100425073582e-25)
(-5.06643942558283e-07 3.18108450119328e-06 3.08893586284217e-24)
(-4.46715468645734e-07 3.20253784971122e-06 1.2847208683527e-24)
(-3.93706840839337e-07 3.22024138767685e-06 2.15165110948742e-24)
(-3.4637672456374e-07 3.23495169035587e-06 3.43870715094429e-24)
(-3.03696390989408e-07 3.24721059049885e-06 1.68247494054566e-24)
(-2.64783878950831e-07 3.25740039019923e-06 3.38666658234835e-24)
(-2.28872645760902e-07 3.26580207018718e-06 1.40231071098415e-24)
(-1.95295243675345e-07 3.27262561417909e-06 2.51674684699326e-24)
(-1.6344641425132e-07 3.2780145712012e-06 1.81174203189946e-24)
(-1.32760988570682e-07 3.28208206629329e-06 9.29278469428633e-25)
(-1.02709171688668e-07 3.28488647219346e-06 2.66873405381236e-24)
(-7.27829121117208e-08 3.28646141290956e-06 2.04067862072648e-24)
(-4.24787375391152e-08 3.28681055742863e-06 1.7856515144477e-24)
(-1.12756981025449e-08 3.28590781114041e-06 -1.53942361813514e-24)
(2.13604569607017e-08 3.28368995769741e-06 1.07623994157067e-24)
(5.5997808738961e-08 3.28006052609706e-06 1.75074667040421e-24)
(9.32663209124392e-08 3.27485966074037e-06 -1.67675695888521e-24)
(1.33852242746482e-07 3.26788614140563e-06 7.5951848087884e-25)
(1.78538481102562e-07 3.25887105653785e-06 -1.99513146736653e-24)
(2.28230319272657e-07 3.24740939879121e-06 -1.80370950710623e-24)
(2.83984851891071e-07 3.23294952657542e-06 1.66223574950594e-24)
(3.47047450229435e-07 3.2147270139069e-06 1.14838281770039e-24)
(4.18911353647764e-07 3.19164159989993e-06 -7.80710032266865e-25)
(5.01373453584568e-07 3.16210426779214e-06 -5.75601057116795e-25)
(5.96554767693775e-07 3.12370650592664e-06 -1.43712753534785e-24)
(7.06773443558762e-07 3.07277181081833e-06 2.58408384457961e-24)
(8.34569161374101e-07 3.0037967519143e-06 -8.41755907940982e-25)
(9.80960532528113e-07 2.90843088890145e-06 -7.67696065880396e-25)
(1.14416267629579e-06 2.77522337404641e-06 2.48345862841252e-24)
(1.31873778767604e-06 2.59209381203392e-06 -6.86972561439157e-25)
(1.46554208421408e-06 2.36142515507561e-06 -7.0344519864091e-25)
(1.56144824122785e-06 2.15698037787559e-06 2.78113910384359e-24)
(1.4433176813277e-06 2.2654064698104e-06 -7.34342279528598e-25)
(1.09458616718985e-06 3.53737307606782e-06 -6.88176284302291e-25)
(3.86014074284765e-07 7.84864675149515e-06 4.13058091068089e-24)
(4.18304195656644e-07 9.21913317791089e-06 -3.27778498050155e-25)
(-2.64842849102857e-07 8.11963870927338e-06 7.09704881554367e-25)
(-2.45003494319747e-07 6.49123856089406e-06 3.99581460140893e-24)
(-9.90031944393429e-07 2.43747507755005e-06 8.57530264061552e-25)
(-1.32456540281567e-06 1.03594409806099e-06 2.22773766721088e-25)
(-1.48085064997833e-06 8.30546718537562e-07 5.27904034833569e-25)
(-1.43455841335322e-06 9.92838143414653e-07 1.01914776714229e-24)
(-1.33337462094716e-06 1.21718643992188e-06 2.87364038122964e-25)
(-1.19845284991131e-06 1.40680285701349e-06 3.29432612299851e-25)
(-1.06544865950361e-06 1.55093265295222e-06 1.20848027074004e-24)
(-9.42590395831276e-07 1.65821423724561e-06 2.05747132235534e-24)
(-8.32939209715714e-07 1.73871202971769e-06 -1.17102739144768e-25)
(-7.37014652946342e-07 1.80029266082708e-06 1.67394382474774e-24)
(-6.53304724793551e-07 1.84836202480231e-06 2.13335876953378e-24)
(-5.80204570251429e-07 1.88662353863907e-06 -3.27666962907178e-26)
(-5.16068324032291e-07 1.91758598808465e-06 2.04518785512089e-24)
(-4.59444555293331e-07 1.94296500932507e-06 7.35650345260763e-25)
(-4.09072764470084e-07 1.96396791486415e-06 1.73026865654848e-24)
(-3.63862481496793e-07 1.98143047425012e-06 2.29167512726365e-24)
(-3.228907099767e-07 1.99597259008576e-06 9.33536181101476e-25)
(-2.85355872164724e-07 2.00803774348124e-06 2.21732461703471e-24)
(-2.50548343166548e-07 2.01795743013397e-06 7.38822254683989e-25)
(-2.1784121267738e-07 2.02596999405662e-06 1.22900566168261e-24)
(-1.86665287081329e-07 2.03226068088636e-06 1.77965942847872e-24)
(-1.56488904822783e-07 2.03694787507479e-06 5.14264683815494e-25)
(-1.26811826591095e-07 2.04011198379773e-06 1.2104511062246e-24)
(-9.71494682689076e-08 2.0417866319545e-06 1.68420453147138e-24)
(-6.70220235482824e-08 2.0419832557145e-06 8.85993338757601e-25)
(-3.59421049234737e-08 2.0406618123584e-06 -5.00019963777665e-25)
(-3.39958657025467e-09 2.03774818142646e-06 1.15277615058486e-24)
(3.1142318556218e-08 2.03312508536746e-06 8.40936447017914e-25)
(6.82700981343168e-08 2.02661808690761e-06 -6.06307081044095e-25)
(1.08627757494181e-07 2.01798071264407e-06 3.45174751969314e-25)
(1.52936228183133e-07 2.006895686183e-06 -8.56399732811336e-25)
(2.0202011919699e-07 1.99290210701895e-06 -8.34058552224925e-25)
(2.56819043857277e-07 1.97537812997787e-06 7.88837478136211e-25)
(3.18418966630024e-07 1.95345444340679e-06 1.1524678389314e-24)
(3.88083272595099e-07 1.92591938087594e-06 -9.39162993843731e-25)
(4.67246274268489e-07 1.89107220909008e-06 -3.33271520007911e-25)
(5.57491707596588e-07 1.84636717002787e-06 -5.4923026557806e-25)
(6.60339977425441e-07 1.78805009086605e-06 1.15403611783125e-24)
(7.77098050751855e-07 1.71068773984572e-06 -1.06610423676765e-24)
(9.07118455354425e-07 1.60636628501329e-06 -1.06486903556797e-24)
(1.0465034327887e-06 1.46489198792443e-06 1.1398553047385e-24)
(1.18725374246653e-06 1.27725246892628e-06 -1.05210607952136e-24)
(1.29114820513672e-06 1.05096788524338e-06 -1.05113759917996e-24)
(1.34190585958853e-06 8.7129688272856e-07 1.25041016458948e-24)
(1.19416339314605e-06 1.01855106090952e-06 -1.45038557213806e-24)
(8.97081542424253e-07 2.3453147732904e-06 -1.4862411738113e-24)
(1.88530435311598e-07 6.48923884582632e-06 1.88923571210133e-24)
(2.42247405872002e-07 8.20376375112053e-06 -1.18925799524823e-24)
(-9.04686837525302e-08 7.2093824582377e-06 2.90536963017541e-25)
(-2.33578712127745e-07 5.51856999393913e-06 1.58872801598474e-24)
(-8.93847454114226e-07 1.6346370417049e-06 3.55824054501002e-25)
(-1.16188766262741e-06 2.00860084262543e-07 7.57775207526853e-26)
(-1.3137651133591e-06 -3.75433343916006e-08 -1.08218748998351e-25)
(-1.29376342555924e-06 9.96687341764549e-08 4.06693885583452e-25)
(-1.2243129882031e-06 3.14834907048408e-07 1.23946983968807e-25)
(-1.11854580003448e-06 5.0402812515833e-07 1.41424054364051e-25)
(-1.00818600433138e-06 6.52382751169439e-07 5.40253085181027e-25)
(-9.02279602036649e-07 7.65765010171109e-07 7.63717912540772e-25)
(-8.05055462950639e-07 8.52755012164891e-07 -8.22973973020782e-26)
(-7.18217891006899e-07 9.20498809753624e-07 5.21374073799e-25)
(-6.41242795677269e-07 9.74112685820745e-07 8.2739467102634e-25)
(-5.73219638500609e-07 1.01722316371938e-06 -3.26494729287304e-27)
(-5.12995147445601e-07 1.05235897164293e-06 8.0209091828776e-25)
(-4.59438680574795e-07 1.08129251004495e-06 3.10416352227616e-25)
(-4.11514888821478e-07 1.10530568578633e-06 6.46226577295936e-25)
(-3.68291597659964e-07 1.12530206598163e-06 9.14339473864963e-25)
(-3.28949089894993e-07 1.14195046522327e-06 3.9339445475415e-25)
(-2.92762115325038e-07 1.15575012774514e-06 8.56541864463255e-25)
(-2.59079687422289e-07 1.16707339806218e-06 3.06651762134034e-25)
(-2.27319858484094e-07 1.17619015700524e-06 5.05774969267282e-25)
(-1.96948194630389e-07 1.18329838391525e-06 5.65118093290293e-25)
(-1.67462474191653e-07 1.18854419427728e-06 2.12953424394199e-25)
(-1.38387656593097e-07 1.19201371499012e-06 5.00123081346434e-25)
(-1.09265333546239e-07 1.19375015918741e-06 6.31842941340205e-25)
(-7.96429452121673e-08 1.19376186450182e-06 3.87231808807007e-25)
(-4.90542901752975e-08 1.19200410584883e-06 -1.96903751265697e-25)
(-1.70151589477821e-08 1.18839949196967e-06 4.08306576249085e-25)
(1.69804223119943e-08 1.18280166505009e-06 3.42146989288304e-25)
(5.34804324313729e-08 1.17501987968124e-06 -2.27225174638354e-25)
(9.30807559924643e-08 1.16478184662389e-06 1.60212417088454e-25)
(1.36446067623343e-07 1.15172524627033e-06 -3.64052486877883e-25)
(1.84317020312785e-07 1.13534114916483e-06 -3.59089602043333e-25)
(2.37525251911063e-07 1.11495497818703e-06 3.1717893747678e-25)
(2.96998124563177e-07 1.08964382560258e-06 3.99276176830347e-25)
(3.63771553358403e-07 1.05812037920304e-06 -3.05534927693649e-25)
(4.38944520158212e-07 1.01862144953315e-06 -1.36630847251211e-25)
(5.23607893887361e-07 9.68614833287067e-07 -1.9934334255918e-25)
(6.18588116812494e-07 9.04427495879105e-07 8.21755119832508e-25)
(7.24200387711439e-07 8.20940252399492e-07 -3.45321804215263e-25)
(8.38596749945076e-07 7.11033173206308e-07 -3.55259641805998e-25)
(9.56785885595904e-07 5.66051685891391e-07 8.883738959434e-25)
(1.06991893587684e-06 3.79852680959314e-07 -3.58964737783967e-25)
(1.14400504045241e-06 1.63527765724575e-07 -3.5227754459387e-25)
(1.17051562500278e-06 8.06861785126384e-09 8.14506169334742e-25)
(1.02869085028044e-06 1.82062920751088e-07 -4.05411550358866e-25)
(7.98193307843714e-07 1.53431249342823e-06 -4.22214804746702e-25)
(1.71077545468666e-07 5.50122745774474e-06 1.49024736266383e-24)
(6.66155126778286e-08 7.27363628006522e-06 -3.23695665882786e-25)
(8.94728074350741e-09 6.63182826177054e-06 1.2821218958493e-25)
(-2.5069854584017e-07 5.03630936623075e-06 8.92798024821067e-25)
(-8.0488183556198e-07 1.24208154728579e-06 1.58325228017473e-25)
(-1.02459155117466e-06 -2.2867937385219e-07 5.84882032945032e-26)
(-1.16597268626532e-06 -5.03005437278816e-07 3.18180419660262e-25)
(-1.16473247498708e-06 -3.93914164324991e-07 3.98630134452034e-25)
(-1.11939177087839e-06 -1.93260222574932e-07 7.10136228430253e-26)
(-1.03773132349742e-06 -9.36640459173042e-09 7.7632616490999e-26)
(-9.46944968548115e-07 1.39317684455867e-07 4.32016136654839e-25)
(-8.56241839120867e-07 2.55957103937208e-07 4.2133258819083e-25)
(-7.70467306069893e-07 3.47432663862768e-07 -1.87948888398691e-25)
(-6.92167863947952e-07 4.19951066303994e-07 1.61164361854816e-25)
(-6.21610070355001e-07 4.78139575650713e-07 4.82149307301866e-25)
(-5.58473021493854e-07 5.25412116964462e-07 -1.39582356503302e-25)
(-5.02035361584877e-07 5.64228412610317e-07 4.3617964854861e-25)
(-4.51467420050912e-07 5.96367848399008e-07 1.27131041946895e-25)
(-4.05946212976791e-07 6.23121922648974e-07 2.27634459614532e-25)
(-3.64692382623503e-07 6.45450813528859e-07 5.05847825978884e-25)
(-3.26988532683843e-07 6.64056748221159e-07 1.75566735856094e-25)
(-2.9218549085838e-07 6.79476272647129e-07 5.34566050492676e-25)
(-2.59693178614328e-07 6.92106197966419e-07 1.45117472782313e-25)
(-2.28975846267502e-07 7.02247030941111e-07 3.79788509699613e-25)
(-1.99529652487976e-07 7.10118009098161e-07 1.88976574888968e-25)
(-1.70882728642901e-07 7.15876668889633e-07 9.18579377660899e-26)
(-1.4259166723569e-07 7.19619018335441e-07 3.94071407340429e-25)
(-1.14218149572546e-07 7.21393429315182e-07 2.29413809077106e-25)
(-8.53313857923585e-08 7.21210816575196e-07 3.1587268137181e-25)
(-5.54913197538855e-08 7.1902540110172e-07 -2.61453394878711e-25)
(-2.42430441958818e-08 7.14740787220794e-07 1.21975075006752e-25)
(8.89013436122396e-09 7.08208917042259e-07 2.6948636854381e-25)
(4.44218710400086e-08 6.99203423319726e-07 -2.10994066289263e-25)
(8.29017556172789e-08 6.87442175205458e-07 2.62861903675544e-25)
(1.24932397240427e-07 6.72524961026466e-07 -3.24165773114517e-25)
(1.71177957375027e-07 6.53915350911928e-07 -3.09797837984603e-25)
(2.22362692794067e-07 6.30898234894098e-07 3.00632889991824e-25)
(2.79259038996464e-07 6.02508617749486e-07 1.29047946301142e-25)
(3.42684972236427e-07 5.67452527350506e-07 -8.64057200360898e-26)
(4.13444530975101e-07 5.23961289086041e-07 -5.82864835434652e-26)
(4.92195988980005e-07 4.69585939690959e-07 -2.17603850045237e-25)
(5.7916899623477e-07 4.008909488372e-07 4.06151124438811e-25)
(6.73905773824133e-07 3.13263655836384e-07 -7.71726363515813e-26)
(7.73728808148517e-07 2.00568467543052e-07 -8.01614264408644e-26)
(8.7313860259275e-07 5.59184386279494e-08 4.29921407942731e-25)
(9.63129275272675e-07 -1.24113641451551e-07 -8.39854995665327e-26)
(1.01469410938252e-06 -3.25314537932202e-07 -7.66767595978553e-26)