/*--------------------------------*- C++ -*----------------------------------*\
  =========                 |
  \\      /  F ield         | OpenFOAM: The Open Source CFD Toolbox
   \\    /   O peration     | Website:  https://openfoam.org
    \\  /    A nd           | Version:  10
     \\/     M anipulation  |
\*---------------------------------------------------------------------------*/
FoamFile
{
    format      ascii;
    class       volScalarField;
    location    "3.8";
    object      wallHeatFlux;
}
// * * * * * * * * * * * * * * * * * * * * * * * * * * * * * * * * * * * * * //

dimensions      [1 0 -3 0 0 0 0];

internalField   uniform 0;

boundaryField
{
    back
    {
        type            calculated;
        value           uniform 0;
    }
    bottom
    {
        type            calculated;
        value           nonuniform List<scalar> 
50
(
159.484617231835
165.166410464902
170.72602679131
173.522146244934
174.741311707992
175.248277715156
175.45084944795
175.527418264764
175.554509192851
175.563619184945
175.56629845263
175.567049596432
175.56723641919
175.567200029584
175.567142161673
175.567037300464
175.567017289131
175.566963699814
175.566895624828
175.566867072197
175.566847217127
175.566841208917
175.56683808812
175.566835078822
175.566819422513
175.566812017981
175.566813400353
175.566814444991
175.566827240485
175.566831492365
175.566846024445
175.566887427593
175.566893532923
175.566896944082
175.566929003086
175.566974601931
175.567012862799
175.566953091941
175.566749505131
175.565761197237
175.562429988168
175.552151201061
175.522540900016
175.442074814352
175.235902485528
174.728930215329
173.518059606923
170.721641930621
165.088411347049
159.516773645174
)
;
    }
    left
    {
        type            calculated;
        value           uniform 0;
    }
    front
    {
        type            calculated;
        value           uniform 0;
    }
    right
    {
        type            calculated;
        value           uniform 0;
    }
    top
    {
        type            calculated;
        value           uniform 0;
    }
}


// ************************************************************************* //
