/*--------------------------------*- C++ -*----------------------------------*\
  =========                 |
  \\      /  F ield         | OpenFOAM: The Open Source CFD Toolbox
   \\    /   O peration     | Website:  https://openfoam.org
    \\  /    A nd           | Version:  10
     \\/     M anipulation  |
\*---------------------------------------------------------------------------*/
FoamFile
{
    format      ascii;
    class       volScalarField;
    location    "6.6";
    object      alphat;
}
// * * * * * * * * * * * * * * * * * * * * * * * * * * * * * * * * * * * * * //

dimensions      [1 -1 -1 0 0 0 0];

internalField   nonuniform List<scalar> 
2500
(
8.34108031013766e-15
1.63646878100707e-13
6.97992134080225e-13
1.20589551229116e-12
1.63700912391236e-12
1.97596292574941e-12
2.22370644462264e-12
2.39241054365738e-12
2.49969652735848e-12
2.56357895159521e-12
2.5992921549281e-12
2.6180895148997e-12
2.62743050634868e-12
2.63182474068373e-12
2.63378656513607e-12
2.63461963821833e-12
2.63495663786975e-12
2.63508654156608e-12
2.63513411118637e-12
2.63515046005231e-12
2.63515553366133e-12
2.63515676299121e-12
2.63515679073079e-12
2.63515651160857e-12
2.63515623864712e-12
2.63515604003779e-12
2.63515589508127e-12
2.63515566590355e-12
2.63515492145907e-12
2.63515243604122e-12
2.63514479346814e-12
2.63512280036238e-12
2.63506274156674e-12
2.63490601336237e-12
2.63451430545758e-12
2.63357677866814e-12
2.63143068827144e-12
2.62674131745889e-12
2.6169828048795e-12
2.59769218653351e-12
2.56156562378459e-12
2.49765202675797e-12
2.39114159231443e-12
2.22442605160141e-12
1.98000073797844e-12
1.64518620655192e-12
1.21762835486288e-12
7.1019297663096e-13
1.68796805283137e-13
8.76673535263655e-15
8.27146667505027e-13
4.25739268637572e-11
1.85395575297088e-10
3.2058409652664e-10
4.35565162403962e-10
5.26254052042141e-10
5.92803503919732e-10
6.38333752901871e-10
6.67441481211361e-10
6.84873630553666e-10
6.94679180165402e-10
6.99873675677343e-10
7.02472248027179e-10
7.03703040982616e-10
7.04256345581446e-10
7.04492947733077e-10
7.045893396795e-10
7.04626767221672e-10
7.04640581105673e-10
7.04645375813468e-10
7.0464688806239e-10
7.04647271164646e-10
7.04647296285889e-10
7.04647226700592e-10
7.0464715462616e-10
7.04647100773502e-10
7.04647059145698e-10
7.04646989288378e-10
7.04646765774564e-10
7.04646031183796e-10
7.04643795394523e-10
7.04637412447215e-10
7.04620099711597e-10
7.04575209580405e-10
7.04463717509285e-10
7.0419852627234e-10
7.03595247994729e-10
7.02285213121609e-10
6.99575851668146e-10
6.94252519758005e-10
6.84342398543484e-10
6.66910047407184e-10
6.38016722527212e-10
5.93018241596633e-10
5.27342847290281e-10
4.37732249355974e-10
3.23665603896083e-10
1.88580115133246e-10
4.38841005217794e-11
8.67660845890986e-13
2.93776259970719e-12
7.6596070347525e-10
2.61998793117545e-07
4.52006803102211e-07
6.12531343285814e-07
7.38727831031874e-07
8.31218166755124e-07
8.94528572409352e-07
9.35083309919879e-07
9.59446682396071e-07
9.73205399344698e-07
9.80527414015335e-07
9.84208593496151e-07
9.85961386577052e-07
9.86753700243407e-07
9.870944338494e-07
9.87234066125395e-07
9.87288619068082e-07
9.87308892306948e-07
9.87315990897402e-07
9.87318262454918e-07
9.87318859904334e-07
9.87318919545626e-07
9.87318833293648e-07
9.87318737037793e-07
9.87318662842066e-07
9.87318602196556e-07
9.87318496046571e-07
9.87318161601143e-07
9.87317077822715e-07
9.87313806556352e-07
9.87304521678964e-07
9.87279456276656e-07
9.87214742244241e-07
9.87054676452058e-07
9.8667550201723e-07
9.85816439983055e-07
9.83958544218663e-07
9.80131536895862e-07
9.72641486116105e-07
9.58748500082173e-07
9.34388969868244e-07
8.94118263619817e-07
8.31503402969786e-07
7.40151079846387e-07
6.15356382839649e-07
4.56019237418441e-07
2.66137496704321e-07
7.87327348207868e-10
3.05910349394351e-12
5.20402428550401e-12
1.36639281304202e-09
4.68588452765478e-07
8.0502428464996e-07
1.0872732401711e-06
1.30802894851799e-06
1.46925525457592e-06
1.57938307708031e-06
1.64985929636355e-06
1.69219447458119e-06
1.71611606195283e-06
1.72885985664494e-06
1.7352758605719e-06
1.73833595832527e-06
1.73972183780304e-06
1.74031908534729e-06
1.74056440308662e-06
1.74066049425625e-06
1.74069631318467e-06
1.74070890660058e-06
1.74071296464098e-06
1.74071404969523e-06
1.74071417330534e-06
1.7407140362665e-06
1.74071387394506e-06
1.74071374689322e-06
1.740713641356e-06
1.74071345643661e-06
1.74071287834525e-06
1.74071100945451e-06
1.74070536847056e-06
1.74068934581233e-06
1.74064604817274e-06
1.74053414940108e-06
1.74025711196711e-06
1.73960028630553e-06
1.73811107678111e-06
1.73488836753176e-06
1.72824660955961e-06
1.71524174070619e-06
1.69110822262579e-06
1.64876760612903e-06
1.57870646891552e-06
1.46961211961747e-06
1.31008464392925e-06
1.09142271139982e-06
8.10933681487471e-07
4.74640383895055e-07
1.39705123586283e-09
5.37521578597615e-12
7.42769547575127e-12
1.95131431804062e-09
6.67186728377929e-07
1.14178244412287e-06
1.53760439891166e-06
1.84585932241437e-06
2.07033460029432e-06
2.22339928474447e-06
2.32127545020546e-06
2.38006622958539e-06
2.41330227201397e-06
2.43102405351955e-06
2.43995707417486e-06
2.44422388151765e-06
2.44615950635794e-06
2.44699523918159e-06
2.44733923866687e-06
2.44747430891329e-06
2.44752480576577e-06
2.44754263278996e-06
2.44754841929305e-06
2.44754999257521e-06
2.44755019544928e-06
2.44755002583557e-06
2.44754980885788e-06
2.44754963583245e-06
2.44754948877695e-06
2.44754923033797e-06
2.44754843068575e-06
2.44754585575899e-06
2.44753808844033e-06
2.44751601497419e-06
2.44745630951958e-06
2.44730183990074e-06
2.44691899880016e-06
2.44601042421605e-06
2.44394860037859e-06
2.4394832764982e-06
2.43027443023013e-06
2.41223240084241e-06
2.3787320696339e-06
2.31991980306361e-06
2.22251852830723e-06
2.07065880353467e-06
1.84817287626766e-06
1.54236946320524e-06
1.14859640150556e-06
6.74148304055119e-07
1.98673477186912e-09
7.62792989402106e-12
9.53901460235616e-12
2.5063123420072e-09
8.53972114508774e-07
1.45632994613968e-06
1.95616125796335e-06
2.34399584346271e-06
2.6257387127923e-06
2.8175833396621e-06
2.94018409679081e-06
3.01382808550855e-06
3.05548178798672e-06
3.07771094400506e-06
3.08892871055542e-06
3.09429412785937e-06
3.09673195577361e-06
3.09778638738138e-06
3.09822127609184e-06
3.09839243116159e-06
3.09845660448865e-06
3.09847935491609e-06
3.09848679700091e-06
3.09848885840611e-06
3.09848915714759e-06
3.09848896920664e-06
3.09848871315624e-06
3.09848850188602e-06
3.09848831658822e-06
3.09848798853068e-06
3.09848698603401e-06
3.09848377751467e-06
3.09847411526505e-06
3.09844665689723e-06
3.09837233825668e-06
3.09817989026655e-06
3.09770247459423e-06
3.09656843678052e-06
3.09399288054044e-06
3.088410984949e-06
3.07689235378421e-06
3.0543128243112e-06
3.01236597536523e-06
2.93868427087684e-06
2.8165691526601e-06
2.62597886871343e-06
2.34631368197965e-06
1.9610381618308e-06
1.46334066249391e-06
8.61151369889619e-07
2.54349366359393e-09
9.75429716232e-12
1.14962586196622e-11
3.02109548789222e-09
1.02607680053221e-06
1.74440599843736e-06
2.33786570633999e-06
2.79693132141119e-06
3.12975381248246e-06
3.3561260298994e-06
3.50073032133809e-06
3.58760059265981e-06
3.63676032189321e-06
3.66301679798052e-06
3.67628113408126e-06
3.68263355868539e-06
3.68552410083297e-06
3.68677643315999e-06
3.68729392600348e-06
3.68749804625539e-06
3.68757479754838e-06
3.68760212193874e-06
3.68761113113415e-06
3.68761367635261e-06
3.6876140877959e-06
3.68761389901339e-06
3.68761361683418e-06
3.68761337522259e-06
3.68761315491304e-06
3.68761276038526e-06
3.68761157153702e-06
3.68760779677282e-06
3.68759645996401e-06
3.68756425933383e-06
3.68747707499127e-06
3.68725115321836e-06
3.68669024838798e-06
3.68535684590584e-06
3.68232632204758e-06
3.6757542304505e-06
3.66218487555999e-06
3.63557287018011e-06
3.58611328673388e-06
3.49919500709507e-06
3.35505798716731e-06
3.12990700788255e-06
2.79910884210779e-06
2.34253222662784e-06
1.75114671945147e-06
1.03301658912557e-06
3.05803489585606e-09
1.17168105022978e-11
1.32728163154171e-11
3.48888546804405e-09
1.18166120030351e-06
2.00348012566453e-06
2.67990990573294e-06
3.20180864532887e-06
3.57956732099011e-06
3.83627765092246e-06
4.00021446597751e-06
4.09871514959371e-06
4.15448533684054e-06
4.18429603350448e-06
4.19937114290501e-06
4.20659945157541e-06
4.20989309231201e-06
4.21132230564624e-06
4.21191394989789e-06
4.21214781614398e-06
4.21223599474538e-06
4.21226751793223e-06
4.21227799282216e-06
4.21228101216533e-06
4.21228155188866e-06
4.21228137886039e-06
4.21228108274474e-06
4.21228081830771e-06
4.21228056610218e-06
4.21228010790283e-06
4.21227874764748e-06
4.21227446912163e-06
4.21226166478937e-06
4.21222533053172e-06
4.21212694506203e-06
4.21187186262033e-06
4.21123813323344e-06
4.20973058114742e-06
4.20630208268471e-06
4.19886277738098e-06
4.18349556101005e-06
4.15334535507754e-06
4.09728934875712e-06
3.99874148330505e-06
3.83524187181072e-06
3.5796719999552e-06
3.20379569535068e-06
2.68420081525421e-06
2.00968823378849e-06
1.18809337537047e-06
3.52433285518211e-09
1.34920033603456e-11
1.48542451430135e-11
3.90595197319551e-09
1.31982080210501e-06
2.23253476227427e-06
2.98141991891006e-06
3.55799047446562e-06
3.97477127407756e-06
4.25780828323124e-06
4.43852608538887e-06
4.54713279308877e-06
4.60865657152087e-06
4.6415674808183e-06
4.65822615703273e-06
4.66622273255871e-06
4.66987113345292e-06
4.67145660586344e-06
4.67211404050058e-06
4.67237443650665e-06
4.67247287736305e-06
4.67250821102226e-06
4.6725200412179e-06
4.67252351898214e-06
4.67252419820559e-06
4.67252405530941e-06
4.67252375630411e-06
4.6725234758343e-06
4.67252319472776e-06
4.6725226756913e-06
4.67252115805356e-06
4.67251643368614e-06
4.67250235393996e-06
4.67246245266884e-06
4.67235442095238e-06
4.67207422185073e-06
4.67137770393573e-06
4.66971981206697e-06
4.66594732252922e-06
4.6577576106672e-06
4.64083326950905e-06
4.60761641659532e-06
4.54583987215123e-06
4.43720168337506e-06
4.25689335426162e-06
3.97489705450091e-06
3.55981211862121e-06
2.98529678290183e-06
2.2381120471436e-06
1.32562752142943e-06
3.9392503559593e-09
1.50679794670326e-11
1.62361471098841e-11
4.27110618571808e-09
1.4404263860773e-06
2.4317653193753e-06
3.24303637103726e-06
3.86655053441732e-06
4.31679205577021e-06
4.62239767608886e-06
4.81750937522961e-06
4.93479536667967e-06
5.00126931407977e-06
5.03685351219594e-06
5.05488128758612e-06
5.06354407504517e-06
5.06750114621513e-06
5.0692230904584e-06
5.06993823310683e-06
5.07022202119941e-06
5.07032957318345e-06
5.07036832545359e-06
5.07038139439652e-06
5.0703853085672e-06
5.07038613426402e-06
5.0703860329963e-06
5.07038574040843e-06
5.07038544978633e-06
5.07038514272564e-06
5.07038456604399e-06
5.07038290465912e-06
5.07037778825672e-06
5.07036260974541e-06
5.07031966183813e-06
5.0702034138242e-06
5.06990182668082e-06
5.06915180001116e-06
5.06736564565871e-06
5.06329935003069e-06
5.05446806743494e-06
5.03621134720357e-06
5.00036880751806e-06
4.93369198925863e-06
4.81640713240772e-06
4.62168966550494e-06
4.31702787502209e-06
3.86828526576722e-06
3.24655437808237e-06
2.43673669405899e-06
1.44560344840961e-06
4.30205832575332e-09
1.64423956717759e-11
1.74221956780801e-11
4.58521181958572e-09
1.54396321606076e-06
2.6023009300925e-06
3.46654160974999e-06
4.12983368686174e-06
4.6084054612038e-06
4.9331216249405e-06
5.14043208325078e-06
5.26508427275354e-06
5.33576752368689e-06
5.37363019747263e-06
5.39282800984008e-06
5.40206187037754e-06
5.40628442643224e-06
5.40812419285969e-06
5.4088893728711e-06
5.40919354944185e-06
5.40930909742671e-06
5.40935088116285e-06
5.40936506852783e-06
5.40936939137526e-06
5.40937036532915e-06
5.40937031493038e-06
5.40937003620739e-06
5.40936974040852e-06
5.40936941035829e-06
5.40936877978572e-06
5.40936698825911e-06
5.40936152993819e-06
5.40934541390024e-06
5.40929989177902e-06
5.40917672523736e-06
5.40885713894387e-06
5.40806205610305e-06
5.40616779547437e-06
5.4018536121486e-06
5.39248053390626e-06
5.37309780460742e-06
5.33503502462643e-06
5.26421297948371e-06
5.13961172985313e-06
4.93269896876131e-06
4.60884759064658e-06
4.13159165369171e-06
3.46981691691059e-06
2.60677467837924e-06
1.54858563732207e-06
4.61395658949973e-09
1.7620508632789e-11
1.84223236508144e-11
4.85074058345275e-09
1.63138824277803e-06
2.74596884386222e-06
3.65455532379884e-06
4.35110429131029e-06
4.85335429324205e-06
5.19405036626709e-06
5.41157237124037e-06
5.5424006786979e-06
5.61662035983664e-06
5.65640189642478e-06
5.67658778526048e-06
5.68630538836095e-06
5.69075359620219e-06
5.69269388682064e-06
5.69350194268801e-06
5.69382368052142e-06
5.69394616295715e-06
5.69399060272945e-06
5.69400578733979e-06
5.69401048661626e-06
5.69401160638e-06
5.69401161264054e-06
5.69401135319599e-06
5.69401105628357e-06
5.69401070624636e-06
5.69401002615682e-06
5.69400811820188e-06
5.69400236462805e-06
5.69398545711645e-06
5.69393778488139e-06
5.69380886258538e-06
5.69347431543665e-06
5.69264176689027e-06
5.69065753519434e-06
5.68613685544558e-06
5.67631206765126e-06
5.65598991297092e-06
5.61607386149558e-06
5.54179056104468e-06
5.41107885201214e-06
5.19397931825479e-06
4.85409549467879e-06
4.35300755228454e-06
3.65773554525839e-06
2.75010089815445e-06
1.63557925577495e-06
4.8776382332731e-09
1.86133761613272e-11
1.92510557254442e-11
5.07136152406537e-09
1.70400221845101e-06
2.86509101738817e-06
3.81027790885048e-06
4.53425423121284e-06
5.05603392824648e-06
5.40992035625813e-06
5.63588240113726e-06
5.77182440222543e-06
5.84897847540774e-06
5.89035618432383e-06
5.9113662994032e-06
5.92148868631994e-06
5.92612636368187e-06
5.92815138206909e-06
5.92899573298404e-06
5.92933241386103e-06
5.92946083705532e-06
5.92950757527569e-06
5.9295236376792e-06
5.92952867821875e-06
5.92952993763363e-06
5.92953000310233e-06
5.92952976643315e-06
5.92952947164498e-06
5.92952910467411e-06
5.92952838002625e-06
5.92952636943934e-06
5.92952036390894e-06
5.92950279604365e-06
5.92945334994468e-06
5.92931969994106e-06
5.92897287789155e-06
5.92810958177458e-06
5.92605145552186e-06
5.92136103029384e-06
5.91116463237774e-06
5.89006914296912e-06
5.84862677071514e-06
5.77149199043994e-06
5.63574546636707e-06
5.4102515551348e-06
5.05715468902958e-06
4.5364204287411e-06
3.81351749593519e-06
2.86905499198504e-06
1.70790689148318e-06
5.09689200893737e-09
1.94362235708936e-11
1.99259566124715e-11
5.25155283789069e-09
1.76333151501365e-06
2.9623005186473e-06
3.93726209678337e-06
4.68354529282601e-06
5.22121624521992e-06
5.5858468999908e-06
5.8186942426964e-06
5.95881595014773e-06
6.03837391159051e-06
6.08106260874971e-06
6.10275164189833e-06
6.11320851059675e-06
6.11800329669543e-06
6.12009884215777e-06
6.12097353651516e-06
6.12132277489083e-06
6.12145622414768e-06
6.1215049261899e-06
6.12152175089295e-06
6.1215270958037e-06
6.12152848597665e-06
6.12152861083806e-06
6.12152839854951e-06
6.12152810837889e-06
6.12152772754077e-06
6.12152696374118e-06
6.12152486422763e-06
6.1215186465889e-06
6.12150053482258e-06
6.12144964435207e-06
6.12131216278245e-06
6.12095540544154e-06
6.12006721822097e-06
6.11794923022597e-06
6.11312118231598e-06
6.10262327171186e-06
6.08089994113405e-06
6.03821786025379e-06
5.95876640298223e-06
5.81892875636092e-06
5.58661340293375e-06
5.22277865750103e-06
4.6860755471005e-06
3.940703588649e-06
2.96626450185868e-06
1.76709586068928e-06
5.2762318204775e-09
2.01069502270952e-11
2.046620703379e-11
5.39623953148333e-09
1.81101928704917e-06
3.04037483114659e-06
4.03920714559356e-06
4.80337784253457e-06
5.35380212443759e-06
5.7270666532e-06
5.96545636967564e-06
6.10894952357321e-06
6.19045115007358e-06
6.23420269498052e-06
6.25644377597967e-06
6.26717350457058e-06
6.27209690920589e-06
6.27425041717342e-06
6.27515015851761e-06
6.27550981624206e-06
6.27564746368743e-06
6.27569782197056e-06
6.27571529960524e-06
6.27572091149596e-06
6.27572242226266e-06
6.2757226052131e-06
6.27572241652284e-06
6.27572213278501e-06
6.27572174109232e-06
6.27572094380012e-06
6.27571876873132e-06
6.27571237524158e-06
6.27569382171417e-06
6.27564177140641e-06
6.27550122783662e-06
6.27513654179153e-06
6.27422848860373e-06
6.27206269247192e-06
6.26712464624898e-06
6.25638556747393e-06
6.23415975152594e-06
6.19048505216105e-06
6.10917814593377e-06
5.96606340063504e-06
5.72828356229351e-06
5.35584660952796e-06
4.80634913441367e-06
4.04296859483319e-06
3.04448525736766e-06
1.81477525870047e-06
5.42055514241451e-09
2.06447826864929e-11
2.08913548211014e-11
5.51047093428464e-09
1.84872932222656e-06
3.10208996170147e-06
4.1197794934714e-06
4.89808957797296e-06
5.45860618059798e-06
5.83871359244129e-06
6.08150430160391e-06
6.22768052595293e-06
6.31073284827678e-06
6.35533472062494e-06
6.37801881593471e-06
6.38896824063652e-06
6.39399557773524e-06
6.39619610829784e-06
6.39711625906838e-06
6.39748445107493e-06
6.39762556000891e-06
6.39767729684321e-06
6.39769532601103e-06
6.39770116774863e-06
6.39770278580764e-06
6.39770302305385e-06
6.39770285962944e-06
6.39770258370144e-06
6.39770218405882e-06
6.39770135898455e-06
6.39769912112297e-06
6.39769258431655e-06
6.39767367739713e-06
6.39762070937027e-06
6.39747775452417e-06
6.39710683354261e-06
6.39618315676222e-06
6.39397973704025e-06
6.38895505647349e-06
6.37802589352936e-06
6.35540378701555e-06
6.31094589482049e-06
6.22817457180181e-06
6.08247293658973e-06
5.84037918356088e-06
5.46115091923297e-06
4.90155140697981e-06
4.1239477688804e-06
3.10646224711225e-06
1.85258555705095e-06
5.53484205130143e-09
2.10691112328795e-11
2.12202930334369e-11
5.59915331899029e-09
1.87806663894874e-06
3.15010089249354e-06
4.18246634515382e-06
4.97179147552135e-06
5.54018133305578e-06
5.92563639757206e-06
6.17187356367196e-06
6.32015588976301e-06
6.40442865765811e-06
6.4497017061779e-06
6.47273658362074e-06
6.48386055951458e-06
6.48897077694539e-06
6.49120895607714e-06
6.49214552073322e-06
6.49252061210363e-06
6.49266453789686e-06
6.49271740700544e-06
6.49273589567472e-06
6.49274193264064e-06
6.49274364460633e-06
6.49274393185944e-06
6.49274379313244e-06
6.49274352594965e-06
6.49274312108614e-06
6.49274227378718e-06
6.49273998503553e-06
6.49273333365514e-06
6.49271414870628e-06
6.49266046592976e-06
6.49251564154073e-06
6.49213989267085e-06
6.49120411602201e-06
6.48897153720786e-06
6.48387965607459e-06
6.47280293196673e-06
6.44987298566013e-06
6.40480640317991e-06
6.32089655459791e-06
6.17318328057968e-06
5.92773448835541e-06
5.54322399149053e-06
4.97576619636433e-06
4.1870955315255e-06
3.15481598632875e-06
1.88210432886317e-06
5.62390785663606e-09
2.13985510737727e-11
2.14704962721976e-11
5.66684712170107e-09
1.90051739233084e-06
3.18685189929014e-06
4.23046638952875e-06
5.02824566609859e-06
5.60268836310973e-06
5.99226270571459e-06
6.24116063648931e-06
6.39107302966739e-06
6.4762930145137e-06
6.52208855702897e-06
6.54539740429716e-06
6.55665818973549e-06
6.56183361335796e-06
6.56410153428019e-06
6.56505112466897e-06
6.56543172011783e-06
6.56557790796519e-06
6.56563169471322e-06
6.56565056101532e-06
6.56565676202015e-06
6.56565855511118e-06
6.56565888691533e-06
6.56565877135881e-06
6.56565851347848e-06
6.56565810589235e-06
6.56565724160911e-06
6.56565491281203e-06
6.56564817184266e-06
6.56562877222e-06
6.56557454237491e-06
6.56542829268937e-06
6.56504886681532e-06
6.56410387118906e-06
6.56184905607219e-06
6.55670587801224e-06
6.54551641168961e-06
6.52235108436361e-06
6.47681880498383e-06
6.39203750850378e-06
6.24278401739055e-06
5.99476589159049e-06
5.60620953096511e-06
5.03273165675674e-06
4.23558018439881e-06
3.19195754129929e-06
1.90479031372529e-06
5.69221709027693e-09
2.16502508630983e-11
2.16575166775653e-11
5.71763024150365e-09
1.91740843240789e-06
3.21451702910447e-06
4.26661794256496e-06
5.07078560551004e-06
5.64981093030461e-06
6.04251081264401e-06
6.29343255573086e-06
6.44458814211722e-06
6.53053266226309e-06
6.5767291394785e-06
6.60024893768046e-06
6.61161545038392e-06
6.61684146396483e-06
6.61913255786856e-06
6.62009234456339e-06
6.62047727169887e-06
6.62062525169504e-06
6.62067977217337e-06
6.62069894462355e-06
6.62070528169621e-06
6.62070714391638e-06
6.62070751471775e-06
6.62070742042878e-06
6.62070717217606e-06
6.62070676409817e-06
6.62070588761911e-06
6.62070352842927e-06
6.62069671924693e-06
6.62067715749146e-06
6.62062251726661e-06
6.62047520160169e-06
6.62009302680715e-06
6.61914113341331e-06
6.61686965997632e-06
6.61168800316639e-06
6.60041386784122e-06
6.57707159518251e-06
6.53118895324499e-06
6.44575162457089e-06
6.29533810205507e-06
6.04538416106057e-06
5.65377861606792e-06
5.07576231338996e-06
4.27221480799311e-06
3.22003233389952e-06
1.92194599108159e-06
5.74375936219966e-09
2.18394449089097e-11
2.17947136278816e-11
5.75502155092238e-09
1.92988477428105e-06
3.23496795173848e-06
4.29336103423104e-06
5.10227463635539e-06
5.68471190721437e-06
6.07974455600923e-06
6.33218083501088e-06
6.48426949774683e-06
6.57075954134612e-06
6.61725892416894e-06
6.64093867772882e-06
6.65238567144019e-06
6.65765035486606e-06
6.65995924079624e-06
6.66092689447016e-06
6.66131518246971e-06
6.66146456259977e-06
6.66151966176605e-06
6.66153907908577e-06
6.66154552740019e-06
6.6615474475528e-06
6.66154785220313e-06
6.66154777755499e-06
6.66154753911189e-06
6.66154713248239e-06
6.66154624806015e-06
6.66154386688168e-06
6.66153700749728e-06
6.6615173266789e-06
6.66146238629694e-06
6.66131429208055e-06
6.66093010817648e-06
6.65997316477951e-06
6.65768947116572e-06
6.65247953306392e-06
6.64114306135244e-06
6.61767032679233e-06
6.57152905439867e-06
6.48560698966208e-06
6.3343356694535e-06
6.08294937431114e-06
5.68908646483448e-06
5.1077085781648e-06
4.29942089071708e-06
3.24088996122002e-06
1.93469691133485e-06
5.7819809951236e-09
2.19792213313038e-11
2.18931726900916e-11
5.78195376318017e-09
1.93890180221783e-06
3.24976425672604e-06
4.31272730327533e-06
5.12509601011458e-06
5.7100235983866e-06
6.10676364087793e-06
6.36031179553911e-06
6.51308771260156e-06
6.59998098207389e-06
6.64670510739604e-06
6.67050402021667e-06
6.6820112259169e-06
6.68730497221813e-06
6.68962729524831e-06
6.69060092195309e-06
6.69099177719782e-06
6.69114223485112e-06
6.69119778393683e-06
6.69121739452994e-06
6.69122393262414e-06
6.69122590082484e-06
6.69122633475276e-06
6.69122627811527e-06
6.69122604951372e-06
6.69122564596434e-06
6.69122475726378e-06
6.69122236125332e-06
6.69121546664612e-06
6.69119570179697e-06
6.6911405495994e-06
6.69099190536709e-06
6.69060629817935e-06
6.68964576479777e-06
6.6873533534126e-06
6.68212317462201e-06
6.67074196381264e-06
6.64717537271267e-06
6.60084766649303e-06
6.51457560454448e-06
6.36268408274063e-06
6.11026100316443e-06
5.71476255651312e-06
5.13094693104311e-06
4.31921871045549e-06
3.25607526555389e-06
1.94398473261705e-06
5.80976197085515e-09
2.20804627536669e-11
2.19617604439883e-11
5.80078227810791e-09
1.94522826648067e-06
3.26016011772476e-06
4.32635012204057e-06
5.14116577381652e-06
5.72786258154551e-06
6.12581972680248e-06
6.38016337007412e-06
6.53343292190667e-06
6.62061704631208e-06
6.66750401632828e-06
6.69138968488705e-06
6.70294095184125e-06
6.70825607983897e-06
6.71058834518415e-06
6.71156641888803e-06
6.71195919897432e-06
6.7121104715519e-06
6.71216636497395e-06
6.71218612611035e-06
6.71219273597863e-06
6.71219474383372e-06
6.71219520297062e-06
6.71219516270589e-06
6.71219494385142e-06
6.71219454470032e-06
6.71219365477783e-06
6.71219124990595e-06
6.71218433242244e-06
6.71216451199365e-06
6.71210921893603e-06
6.71196020690482e-06
6.71157364130602e-06
6.71061067270583e-06
6.70831230684923e-06
6.70306821851278e-06
6.69165610113351e-06
6.66802438459294e-06
6.62156683510258e-06
6.53505026211192e-06
6.38272434899745e-06
6.12957353972311e-06
5.73292498582407e-06
5.14739236141689e-06
4.3332371267994e-06
3.26683483092807e-06
1.95057022651169e-06
5.829425563341e-09
2.21519089023861e-11
2.20072614427472e-11
5.81331632278646e-09
1.94945600232713e-06
3.26712103905395e-06
4.33548708959409e-06
5.15195957047335e-06
5.73985949374092e-06
6.13864813393675e-06
6.39353795427818e-06
6.54714826395746e-06
6.63453433437052e-06
6.68153506663253e-06
6.70548173696011e-06
6.71706419772628e-06
6.72239457212923e-06
6.72473398074536e-06
6.72571527561195e-06
6.72610946282087e-06
6.72626133789359e-06
6.72631748984509e-06
6.72633736660362e-06
6.72634403343876e-06
6.72634607398812e-06
6.72634655481713e-06
6.7263465293927e-06
6.72634632009755e-06
6.72634592634946e-06
6.72634503765948e-06
6.72634262880382e-06
6.72633569858021e-06
6.7263158458989e-06
6.72626046986562e-06
6.72611123784574e-06
6.72572408891475e-06
6.72475961233629e-06
6.72245750144626e-06
6.71720454682533e-06
6.7057725053185e-06
6.68209840844942e-06
6.63555570156859e-06
6.54887772705992e-06
6.39626353361967e-06
6.14262761647892e-06
5.74520951688305e-06
5.15852432042142e-06
4.34273517688106e-06
3.27413289857867e-06
1.95504241583481e-06
5.84276786461396e-09
2.2200290857609e-11
2.20345488880019e-11
5.82085989909013e-09
1.95201260857067e-06
3.27134485397011e-06
4.3410475744924e-06
5.15854499269669e-06
5.74719469776632e-06
6.14650564725213e-06
6.40174150221448e-06
6.55556970456377e-06
6.64308619491114e-06
6.69016116091553e-06
6.71414807165884e-06
6.72575134342467e-06
6.73109200890566e-06
6.73343629785971e-06
6.73441982186075e-06
6.73481499682466e-06
6.7349673021901e-06
6.73502364309552e-06
6.73504360716586e-06
6.73505031895704e-06
6.7350523865406e-06
6.73505288616619e-06
6.73505287426051e-06
6.73505267427781e-06
6.73505228663268e-06
6.73505140105624e-06
6.73504899212248e-06
6.73504205753169e-06
6.73502219220545e-06
6.73496678209916e-06
6.73481745466863e-06
6.73443003678426e-06
6.73346482439343e-06
6.73116079658259e-06
6.72590312349601e-06
6.71446014125028e-06
6.69076217891783e-06
6.64417053466159e-06
6.55739827352414e-06
6.40461341736746e-06
6.15068717950797e-06
5.75280439725114e-06
5.16541800254503e-06
4.34862838575352e-06
3.27867112494479e-06
1.95783029495258e-06
5.85109553744069e-09
2.2230491826121e-11
2.20467493863414e-11
5.82425221759552e-09
1.95317393322075e-06
3.27328206464826e-06
4.34361902832377e-06
5.16161224326551e-06
5.75063195786644e-06
6.15020616049661e-06
6.40562037708613e-06
6.55956358277827e-06
6.64715065286015e-06
6.69426681168923e-06
6.71827663330309e-06
6.72989206518179e-06
6.73523890258335e-06
6.73758619683546e-06
6.73857113206845e-06
6.73896695202019e-06
6.73911954925049e-06
6.73917602500975e-06
6.73919605577005e-06
6.73920280471247e-06
6.73920489619235e-06
6.73920541323169e-06
6.7392054142657e-06
6.73920522336573e-06
6.73920484186521e-06
6.73920395995249e-06
6.73920155278321e-06
6.73919461920949e-06
6.73917475633751e-06
6.73911935329278e-06
6.73897003909831e-06
6.73858262938769e-06
6.73761736150233e-06
6.7353130192828e-06
6.73005423962563e-06
6.71860808570887e-06
6.69490216588238e-06
6.64829252067482e-06
6.56148299902375e-06
6.40862697008991e-06
6.15457455879353e-06
5.75648321552717e-06
5.16877391507514e-06
4.35151373188761e-06
3.28090746112184e-06
1.95921414594003e-06
5.85526210158576e-09
2.22456974703766e-11
2.20453669674755e-11
5.82389830439456e-09
1.95307372628065e-06
3.27315170774656e-06
4.34348767683238e-06
5.16149826536862e-06
5.75054483875304e-06
6.15014848512243e-06
6.40558998720812e-06
6.55955569824302e-06
6.64715966202231e-06
6.69428749673366e-06
6.71830481868926e-06
6.72992475544754e-06
6.73527414019391e-06
6.73762280097249e-06
6.73860843886641e-06
6.73900461067844e-06
6.73915738396168e-06
6.73921395117093e-06
6.73923403345882e-06
6.73924081478884e-06
6.73924292884722e-06
6.73924346299504e-06
6.73924347685913e-06
6.73924329474296e-06
6.73924291887549e-06
6.73924204015366e-06
6.73923963510623e-06
6.7392327060003e-06
6.73921285828073e-06
6.73915750034813e-06
6.73900830323864e-06
6.73862116869279e-06
6.7376564991885e-06
6.73535337278069e-06
6.73009690831757e-06
6.71865488353947e-06
6.69495584097439e-06
6.6483568429463e-06
6.56156254333386e-06
6.40872641959361e-06
6.15469743865016e-06
5.75663012999888e-06
5.16894051797948e-06
4.35168869145839e-06
3.28107052964897e-06
1.95933415205143e-06
5.85569538670005e-09
2.22475084288013e-11
2.20303628900755e-11
5.81978931750224e-09
1.95170966283561e-06
3.27095050841155e-06
4.34064996367489e-06
5.15819980400364e-06
5.74693085131028e-06
6.14633119088307e-06
6.40165004985763e-06
6.55554682855518e-06
6.64311486022908e-06
6.69022549956914e-06
6.71423533950534e-06
6.72585239068733e-06
6.73120085027518e-06
6.73354932025231e-06
6.73453499302093e-06
6.73493124264507e-06
6.73508408443838e-06
6.73514070292685e-06
6.73516082261401e-06
6.73516763172669e-06
6.73516976690966e-06
6.7351703176368e-06
6.73517034398808e-06
6.73517017020396e-06
6.73516979941477e-06
6.73516892351071e-06
6.73516652127648e-06
6.73515960089115e-06
6.73513978284482e-06
6.73508451219364e-06
6.73493554520739e-06
6.73454897270275e-06
6.73358559666648e-06
6.73128529731941e-06
6.72603471973461e-06
6.71460438400497e-06
6.69092746835451e-06
6.64436837520897e-06
6.55764259091509e-06
6.40491840613389e-06
6.15106341890955e-06
5.75325347973148e-06
5.16592640005493e-06
4.34916136380092e-06
3.27916701826016e-06
1.95819455975309e-06
5.85240950055921e-09
2.22359823479606e-11
2.20001760164163e-11
5.81150701354901e-09
1.94894417486881e-06
3.26645365375612e-06
4.33481309647609e-06
5.15137373685742e-06
5.73941162901898e-06
6.13835267355026e-06
6.39338458671546e-06
6.5471126822936e-06
6.63458751951629e-06
6.6816498243237e-06
6.7056361362639e-06
6.71724244929129e-06
6.7225863261103e-06
6.72493298011138e-06
6.72591799744243e-06
6.72631404407427e-06
6.72646684487253e-06
6.72652347370575e-06
6.72654361613075e-06
6.7265504479462e-06
6.72655260239053e-06
6.72655316881412e-06
6.72655320704504e-06
6.72655304103396e-06
6.72655267484408e-06
6.72655180169651e-06
6.72654940368478e-06
6.7265424978118e-06
6.72652272742432e-06
6.72646759433169e-06
6.7263189897284e-06
6.72593331120806e-06
6.72497202658775e-06
6.72267639212339e-06
6.71743575236809e-06
6.7060256362384e-06
6.68238797550171e-06
6.63590151312002e-06
6.54930364114358e-06
6.39679366181776e-06
6.14327957046593e-06
5.74598519007687e-06
5.15939953331838e-06
4.34364962436353e-06
3.27498089190436e-06
1.95566331777486e-06
5.84500501102545e-09
2.22096483103471e-11
2.195164923216e-11
5.79820593077933e-09