/*--------------------------------*- C++ -*----------------------------------*\
  =========                 |
  \\      /  F ield         | OpenFOAM: The Open Source CFD Toolbox
   \\    /   O peration     | Website:  https://openfoam.org
    \\  /    A nd           | Version:  10
     \\/     M anipulation  |
\*---------------------------------------------------------------------------*/
FoamFile
{
    format      ascii;
    class       volScalarField;
    location    "6.6";
    object      h;
}
// * * * * * * * * * * * * * * * * * * * * * * * * * * * * * * * * * * * * * //

dimensions      [0 2 -2 0 0 0 0];

internalField   nonuniform List<scalar> 
2500
(
6397.79068489582
6391.98433950426
6379.65083766663
6370.74769203133
6365.35211825364
6362.28014603207
6360.59022300721
6359.68952649094
6359.22726334518
6359.00082643921
6358.89349130206
6358.84503853536
6358.82404196685
6358.81469812788
6358.81040722818
6358.80803346737
6358.80696186265
6358.80605907776
6358.80517747871
6358.8045751458
6358.80407229105
6358.80364320039
6358.80329297103
6358.80307549922
6358.8028547262
6358.80267263317
6358.80260734566
6358.80258873404
6358.80262973431
6358.80274246108
6358.80293993405
6358.80330864841
6358.80376792389
6358.80443543931
6358.80550330507
6358.80753393857
6358.81188441813
6358.82157206818
6358.84444475522
6358.89529831978
6359.00586179412
6359.2374013132
6359.70304721268
6360.60284017797
6362.28495992089
6365.33700614577
6370.72119749834
6379.66898247615
6392.09843506872
6397.67858880207
5468.75221267532
5438.44366859323
5402.83896736872
5377.64501503254
5362.02451599007
5352.85126743195
5347.6315139285
5344.75434639564
5343.22796049314
5342.45291484283
5342.07644224362
5341.90192101987
5341.8246128119
5341.79154315568
5341.77777914855
5341.77202156071
5341.76969910219
5341.76855044986
5341.76780277774
5341.76732106899
5341.76694086464
5341.76661095435
5341.76633694755
5341.76615069535
5341.7659845135
5341.7658457181
5341.76577680337
5341.76573941057
5341.76573318972
5341.76578173139
5341.76590514018
5341.76618583901
5341.76675299244
5341.76791735024
5341.77048286584
5341.77666097522
5341.79169030138
5341.8274085777
5341.90990333921
5342.09230261979
5342.47951964587
5343.26704026623
5344.80154660313
5347.67317062359
5352.86353589524
5361.98582663314
5377.59343036835
5402.94925040634
5438.90050888536
5468.36559709957
4528.02852374845
4476.13875062036
4425.87104113456
4391.46086786868
4370.3312883498
4357.97506290557
4350.95652332985
4347.08742374343
4345.03123789605
4343.98373542641
4343.47335928396
4343.23589076741
4343.13034730897
4343.08534792559
4343.06686350982
4343.0594650727
4343.0566041143
4343.0554163857
4343.05481919225
4343.05447907258
4343.05422632972
4343.05400120675
4343.05380769323
4343.05367166302
4343.0535603947
4343.05346603723
4343.0534102449
4343.05336956789
4343.05333912957
4343.05333832816
4343.05339485491
4343.05359679352
4343.05417264274
4343.05553181108
4343.05876243224
4343.06689012158
4343.08705912951
4343.13540517888
4343.24699357718
4343.49376704673
4344.01680701669
4345.07849099372
4347.14386673689
4351.0062458789
4357.99131934812
4370.29855704347
4391.45445006514
4426.17297805827
4477.11407106573
4528.40699409663
3695.5731984747
3634.15292154694
3582.36480393422
3548.29535894061
3527.98226067841
3516.41579884277
3510.00079941375
3506.53522068592
3504.72374087999
3503.81317926067
3503.37446067914
3503.1722238479
3503.08306603253
3503.04538842474
3503.03008776442
3503.02409159361
3503.02183727713
3503.02097259592
3503.0205949624
3503.02040139163
3503.0202613018
3503.02012711618
3503.02000368614
3503.01991547797
3503.019849087
3503.01979199429
3503.01975376501
3503.01971914887
3503.01968260092
3503.01966269899
3503.01966089407
3503.01974197931
3503.02015768615
3503.02120862679
3503.02373702764
3503.03025578724
3503.04671930477
3503.08671527632
3503.18006373674
3503.38892232797
3503.83697688787
3504.75854275473
3506.57845052544
3510.04220046535
3516.43856901103
3527.98727109004
3548.3852598246
3582.87814259731
3635.60168585056
3697.20587633873
3037.82497085653
2979.31006849892
2934.71282540025
2906.50350651215
2890.20075957132
2881.17675547229
2876.29510350256
2873.71126657796
2872.38200845158
2871.72184069678
2871.40664980027
2871.26234728889
2871.19907028659
2871.17246839621
2871.16173978429
2871.15759352484
2871.15607337448
2871.15552761231
2871.15531960922
2871.15522934253
2871.15516769729
2871.15509994181
2871.15502954772
2871.15497863504
2871.15494432749
2871.15491438642
2871.15489163526
2871.15486655213
2871.15483460487
2871.15480873086
2871.15478636603
2871.15478811993
2871.15503621079
2871.15573686711
2871.15742075088
2871.16185236486
2871.17319433648
2871.20101911605
2871.26652220595
2871.41441206385
2871.73483023444
2872.40147799955
2873.73630639504
2876.32068374117
2881.19575019489
2890.2262837469
2906.64571041719
2935.31471033564
2980.97073053053
3040.41483485227
2566.95437200181
2519.24790988093
2485.67694697373
2465.21831038664
2453.75284648115
2447.58121864766
2444.32327411441
2442.63241089467
2441.77521361397
2441.35389511394
2441.15416514681
2441.06314977373
2441.02336315315
2441.00668197835
2440.99998298766
2440.99742122125
2440.99650447561
2440.99619643524
2440.9960966828
2440.99606559943
2440.99604901067
2440.99602307637
2440.99598778311
2440.99596190219
2440.99594757673
2440.9959345448
2440.99592264259
2440.99590659072
2440.99588313501
2440.9958592364
2440.99583085639
2440.99580228431
2440.99593327708
2440.99634459774
2440.99734499886
2441.00003378693
2441.00698779065
2441.02416809692
2441.06486863898
2441.15737598117
2441.35934907265
2441.78357044769
2442.64338274428
2444.33472158928
2447.59135126918
2453.77834342689
2465.35715695132
2486.23196472159
2520.81464219475
2569.8534544099
2258.15263156447
2223.75541662708
2201.10171918166
2187.76916817063
2180.51465861859
2176.71336178066
2174.75346190393
2173.75514615211
2173.2558316205
2173.0126055708
2172.8979295125
2172.84582561695
2172.82308028876
2172.81355334248
2172.80973741368
2172.80829045898
2172.80778416175
2172.80762748871
2172.80758887022
2172.80758233566
2172.8075842808
2172.80758164411
2172.80756697756
2172.8075559141
2172.80755241494
2172.80754821066
2172.80754271483
2172.80753350863
2172.80751824921
2172.80749993663
2172.80747506725
2172.8074436571
2172.80750326597
2172.80771995435
2172.80826339792
2172.80975687421
2172.81365128987
2172.82331865377
2172.84632029933
2172.89884234273
2173.01416949858
2173.25825783825
2173.75822320846
2174.75615559509
2176.71557591366
2180.53033551208
2187.87300530075
2201.53061291182
2225.02256602148
2260.7815094785
2070.96550709016
2048.57159139918
2034.63538118156
2026.69573936409
2022.49494501889
2020.34950718817
2019.26808682186
2018.72700428522
2018.45975352491
2018.33058351276
2018.26993431502
2018.2424210839
2018.23041129938
2018.22537984108
2018.22336774086
2018.22261028674
2018.22235090094
2018.22227993059
2018.22227209144
2018.22227610625
2018.22227953475
2018.22228146313
2018.22227799658
2018.22227461846
2018.22227610089
2018.22227574256
2018.22227352358
2018.22226870225
2018.2222596244
2018.22224731685
2018.22222956811
2018.22220635145
2018.22222732152
2018.22233002365
2018.22260547283
2018.22337682825
2018.22540063921
2018.23043901287
2018.24245830188
2018.26998057789
2018.3306501141
2018.45982359194
2018.72682058124
2019.26692240986
2020.34727099148
2022.50068651461
2026.75942118504
2034.92335500495
2049.47466791245
2073.01287070851
1965.29440539913
1951.93667847977
1944.02330797121
1939.6495162872
1937.39576383596
1936.27240725973
1935.71831611855
1935.44579917382
1935.31277826275
1935.24892844885
1935.21904211376
1935.20549104994
1935.19957031961
1935.19708719297
1935.19609511848
1935.19572410898
1935.19560146414
1935.19557366744
1935.19557463598
1935.19557940335
1935.19558315897
1935.19558580542
1935.19558613634
1935.19558640557
1935.19558814599
1935.19558865685
1935.19558793055
1935.19558547641
1935.19558043054
1935.19557295571
1935.19556193096
1935.19554811284
1935.19555195023
1935.19559579605
1935.19572759392
1935.19610185446
1935.19708846097
1935.19954807421
1935.20542212386
1935.21888896673
1935.248642919
1935.31227391229
1935.4448165986
1935.71624245054
1936.2688248094
1937.39544343557
1939.68229061306
1944.19522293153
1952.51507998423
1966.70873223175
1909.37955067673
1901.99888250542
1897.81113058491
1895.56100464387
1894.43006863806
1893.87922294245
1893.61311166124
1893.4843838641
1893.42225274992
1893.39261525948
1893.37877470958
1893.37249699934
1893.36974946495
1893.36859525779
1893.36813439343
1893.36796317831
1893.36790917723
1893.36789949143
1893.36790180155
1893.36790562257
1893.36790866536
1893.36791081782
1893.3679118605
1893.36791283463
1893.36791412904
1893.36791476847
1893.36791457053
1893.36791328788
1893.36791064693
1893.36790646771
1893.36790026548
1893.36789299712
1893.3678923078
1893.36790939333
1893.36796831275
1893.36814015389
1893.36859502223
1893.36972929912
1893.37243755919
1893.37864496539
1893.39237077865
1893.42181292168
1893.48353917469
1893.61137352907
1893.87602362118
1894.42743068785
1895.57503474342
1897.90381291926
1902.33674529055
1910.26427478232
1881.49066415353
1877.68023299832
1875.59869842193
1874.50934854024
1873.97451901041
1873.7196501842
1873.59895744792
1873.54150661251
1873.51407724425
1873.50106781347
1873.49500272725
1873.49224905113
1873.49104111608
1873.49053264252
1873.49032970176
1873.49025483903
1873.4902323746
1873.49022948366
1873.49023141345
1873.49023389066
1873.49023588589
1873.49023730905
1873.49023818073
1873.49023898396
1873.49023978232
1873.49024024565
1873.49024018417
1873.4902395332
1873.49023823153
1873.490236054
1873.4902328222
1873.49022911797
1873.49022793075
1873.49023417129
1873.49025904974
1873.49033416308
1873.49053376446
1873.49103123171
1873.49221733086
1873.49493167221
1873.50093029664
1873.513819298
1873.54098539646
1873.59782756218
1873.71739528454
1873.97175867368
1874.5140188847
1875.64430855271
1877.86229499001
1881.9991481778
1868.31384214539
1866.46276849727
1865.48472485003
1864.98528679579
1864.74543286784
1864.63347347022
1864.5814618259
1864.55708921658
1864.54557522102
1864.54014353807
1864.53761434466
1864.53646433833
1864.53595850992
1864.53574509766
1864.53565995156
1864.53562881078
1864.53562002543
1864.53561936173
1864.53562049581
1864.5356218963
1864.53562303542
1864.53562385823
1864.53562441277
1864.53562491378
1864.53562534927
1864.5356256151
1864.53562559323
1864.53562527894
1864.53562466187
1864.53562359494
1864.53562201884
1864.53562022489
1864.53561942486
1864.53562153582
1864.53563154176
1864.53566296648
1864.53574676866
1864.535955407
1864.53645164015
1864.53758416334
1864.54008252526
1864.54545315984
1864.55682053816
1864.58082922745
1864.6321012129
1864.74337496359
1864.98613392231
1865.50535844751
1866.55409971579
1868.58528584967
1862.39064316324
1861.53952555334
1861.1027678346
1860.88477050837
1860.78222756378
1860.73529081565
1860.71388334162
1860.70400419387
1860.69938531262
1860.69721750946
1860.696208985
1860.69574956709
1860.69554688495
1860.69546116355
1860.69542697559
1860.69541460342
1860.69541130819
1860.69541123944
1860.69541186226
1860.69541258044
1860.69541316846
1860.6954135988
1860.69541390425
1860.69541417445
1860.69541439081
1860.69541452254
1860.69541451442
1860.69541437073
1860.69541408813
1860.69541359351
1860.69541286869
1860.69541204594
1860.69541162337
1860.69541227713
1860.69541613653
1860.69542877575
1860.69546258891
1860.69554665273
1860.69574592719
1860.6961990225
1860.69719565122
1860.69933660741
1860.70388236472
1860.71356476603
1860.73454021692
1860.78094173272
1860.88444580615
1861.11138132982
1861.5824945878
1862.52638313114
1859.8476550361
1859.47541056224
1859.2891980386
1859.19820052726
1859.15622224612
1859.13736012113
1859.12890746024
1859.12506448463
1859.12328600011
1859.12245541559
1859.12206924517
1859.12189295727
1859.12181493316
1859.12178185033
1859.12176866104
1859.12176394527
1859.12176275791
1859.1217628032
1859.12176311304
1859.12176345332
1859.12176373343
1859.121763941
1859.12176409298
1859.12176422464
1859.1217643242
1859.12176438344
1859.12176438043
1859.12176431753
1859.12176419278
1859.12176397497
1859.12176365894
1859.1217633002
1859.12176309464
1859.12176327713
1859.12176472301
1859.12176962862
1859.12178279039
1859.12181545681
1859.12189257858
1859.12206712796
1859.12244957277
1859.1232697067
1859.12501471612
1859.12875964491
1859.13698256637
1859.15550889737
1859.19772533851
1859.2925165104
1859.49448652403
1859.91167891741
1858.80132905871
1858.64580727709
1858.5697128139
1858.53324686458
1858.51672877121
1858.50943520691
1858.50622125403
1858.50478107991
1858.50412124948
1858.50381457846
1858.50367205826
1858.50360684599
1858.5035778856
1858.50356557387
1858.50356066699
1858.50355893354
1858.50355852066
1858.50355856312
1858.50355870453
1858.50355885495
1858.5035589794
1858.50355907264
1858.50355914223
1858.50355920134
1858.50355924409
1858.50355926888
1858.50355926779
1858.50355924128
1858.50355918842
1858.50355909715
1858.50355896612
1858.50355881734
1858.50355872851
1858.5035587758
1858.50355930002
1858.50356114157
1858.50356610057
1858.50357838387
1858.50360724836
1858.503672232
1858.50381393942
1858.50411699838
1858.50476253145
1858.50615705202
1858.50925791864
1858.51636703275
1858.53290201773
1858.57088692661
1858.65383953559
1858.82997391211
1858.38746479938
1858.325165257
1858.29526136787
1858.28118591117
1858.27491776018
1858.27219516667
1858.27101446836
1858.27049276926
1858.27025609408
1858.27014661077
1858.27009574539
1858.27007241319
1858.27006201471
1858.27005758156
1858.27005581445
1858.27005519641
1858.27005505642
1858.27005507991
1858.27005513947
1858.27005520161
1858.27005525325
1858.2700552923
1858.27005532178
1858.27005534638
1858.27005536353
1858.27005537326
1858.27005537286
1858.27005536213
1858.27005534075
1858.27005530441
1858.27005525279
1858.27005519418
1858.27005515733
1858.27005516942
1858.27005535695
1858.27005602822
1858.2700578425
1858.27006232499
1858.27007280371
1858.27009625679
1858.27014712158
1858.27025551163
1858.27048641905
1858.27098805287
1858.27211660767
1858.27474712276
1858.28098670293
1858.29563759184
1858.32838701051
1858.39967987408
1858.22966259994
1858.2056568673
1858.19432259879
1858.18907456576
1858.18677419059
1858.18579028804
1858.18537000723
1858.18518679243
1858.18510447125
1858.18506656444
1858.18504895577
1858.18504085682
1858.18503723341
1858.18503568335
1858.18503506447
1858.18503484889
1858.18503480129
1858.18503481116
1858.18503483399
1858.18503485764
1858.18503487737
1858.18503489236
1858.18503490376
1858.18503491313
1858.18503491945
1858.18503492298
1858.18503492282
1858.18503491869
1858.18503491055
1858.18503489696
1858.18503487786
1858.18503485622
1858.18503484219
1858.18503484599
1858.18503491282
1858.1850351522
1858.1850357991
1858.18503739119
1858.18504109109
1858.18504931911
1858.18506705576
1858.18510468609
1858.18518478701
1858.18535961123
1858.18575716748
1858.18669842596
1858.18897341232
1858.19442808538
1858.20689240507
1858.23464757244
1858.17151810493
1858.16259490462
1858.15844106047
1858.15654624474
1858.15572776306
1858.15538268462
1858.15523736373
1858.15517482345
1858.15514698327
1858.15513421946
1858.15512828962
1858.15512555363
1858.15512432374
1858.15512379478
1858.15512358234
1858.1551235074
1858.15512348992
1858.15512349258
1858.15512349995
1858.15512350772
1858.15512351421
1858.15512351913
1858.15512352287
1858.15512352592
1858.1551235279
1858.15512352899
1858.15512352889
1858.15512352745
1858.15512352466
1858.1551235201
1858.15512351374
1858.15512350662
1858.15512350209
1858.15512350436
1858.15512352905
1858.15512361357
1858.15512383976
1858.15512439228
1858.15512566668
1858.15512848014
1858.15513450397
1858.15514721832
1858.15517423559
1858.15523341638
1858.15536931152
1858.15569582675
1858.15649927128
1858.15846447546
1858.16304937531
1858.17347189689
1858.15076819779
1858.14756044958
1858.14608521688
1858.14542130823
1858.14513836513
1858.14502065586
1858.1449717392
1858.14495094111
1858.14494176369
1858.14493757246
1858.14493562359
1858.1449347203
1858.14493431114
1858.14493413313
1858.14493406019
1858.1449340332
1858.14493402533
1858.1449340245
1858.14493402576
1858.14493402727
1858.14493402851
1858.1449340294
1858.14493403007
1858.14493403064
1858.14493403099
1858.14493403116
1858.14493403106
1858.14493403066
1858.14493402997
1858.14493402884
1858.14493402729
1858.14493402566
1858.14493402509
1858.14493402731
1858.14493403738
1858.14493406781
1858.14493414653
1858.14493433538
1858.14493476564
1858.14493570646
1858.14493770456
1858.14494189579
1858.14495077709
1858.14497028061
1858.14501545567
1858.14512550098
1858.14540094258
1858.14608757641
1858.14772122747
1858.15150589729
1858.1435817285
1858.14246401461
1858.14195531392
1858.14172915105
1858.14163394457
1858.14159482077
1858.14157875943
1858.14157200609
1858.14156904921
1858.14156770226
1858.14156707395
1858.14156678008
1858.14156664476
1858.14156658409
1858.14156655769
1858.14156654648
1858.14156654175
1858.14156653959
1858.1415665384
1858.14156653754
1858.14156653681
1858.14156653617
1858.14156653565
1858.14156653527
1858.141566535
1858.14156653482
1858.14156653473
1858.14156653474
1858.14156653483
1858.14156653497
1858.14156653518
1858.14156653559
1858.14156653659
1858.14156653881
1858.14156654389
1858.14156655599
1858.14156658437
1858.14156664926
1858.14156679326
1858.14156710296
1858.14156775304
1858.14156910522
1858.14157195781
1858.14157822896
1858.14159286262
1858.14162896587
1858.1417208026
1858.14195389969
1858.14251884657
1858.14385078363
1858.14116178058
1858.14078353191
1858.14061294195
1858.14053792684
1858.14050669747
1858.14049400591
1858.14048885193
1858.1404867051
1858.14048577015
1858.14048534359
1858.14048514249
1858.14048504627
1858.14048500003
1858.14048497761
1858.14048496634
1858.14048496021
1858.14048495644
1858.14048495378
1858.14048495169
1858.14048494997
1858.14048494852
1858.14048494731
1858.14048494635
1858.14048494562
1858.14048494511
1858.14048494482
1858.14048494475
1858.14048494491
1858.14048494528
1858.14048494588
1858.14048494671
1858.14048494785
1858.14048494942
1858.14048495166
1858.14048495512
1858.14048496114
1858.14048497275
1858.14048499642
1858.14048504568
1858.14048514779
1858.14048535732
1858.14048578683
1858.14048668548
1858.14048865805
1858.14049328659
1858.14050483639
1858.14053466269
1858.14061166573
1858.14080159478
1858.14125679732
1858.14036815542
1858.14024362165
1858.14018792888
1858.14016368226
1858.14015368671
1858.14014966286
1858.14014804258
1858.14014737133
1858.14014707849
1858.14014694298
1858.14014687694
1858.14014684334
1858.14014682542
1858.14014681517
1858.14014680872
1858.14014680419
1858.1401468007
1858.14014679784
1858.14014679544
1858.14014679341
1858.1401467917
1858.14014679029
1858.14014678916
1858.14014678831
1858.14014678772
1858.1401467874
1858.14014678734
1858.14014678754
1858.14014678802
1858.14014678878
1858.14014678983
1858.14014679122
1858.140146793
1858.14014679526
1858.1401467982
1858.14014680226
1858.14014680841
1858.14014681869
1858.14014683731
1858.14014687268
1858.14014694147
1858.14014707795
1858.14014735809
1858.14014796801
1858.14014940133
1858.14015301015
1858.14016245636
1858.14018723278
1858.14024937825
1858.14040071393
1858.14011428712
1858.1400743454
1858.14005664906
1858.14004901857
1858.14004589795
1858.14004464963
1858.14004414834
1858.14004393944
1858.14004384618
1858.14004380075
1858.14004377651
1858.14004376234
1858.14004375323
1858.14004374678
1858.14004374183
1858.14004373779
1858.14004373438
1858.14004373146
1858.14004372895
1858.14004372681
1858.140043725
1858.14004372352
1858.14004372233
1858.14004372144
1858.14004372083
1858.14004372049
1858.14004372044
1858.14004372066
1858.14004372118
1858.14004372199
1858.14004372313
1858.14004372461
1858.14004372646
1858.14004372873
1858.14004373151
1858.14004373495
1858.14004373936
1858.14004374538
1858.14004375431
1858.14004376868
1858.14004379346
1858.14004383887
1858.14004392751
1858.14004411526
1858.14004455223
1858.1400456556
1858.14004857299
1858.14005633261
1858.1400761219
1858.14012513135
1858.14003496523
1858.14002248136
1858.1400170327
1858.1400147093
1858.14001376321
1858.14001338395
1858.14001322946
1858.14001316246
1858.14001312999
1858.1400131119
1858.14001310035
1858.1400130921
1858.14001308568
1858.14001308041
1858.14001307592
1858.14001307203
1858.14001306865
1858.1400130657
1858.14001306315
1858.14001306098
1858.14001305914
1858.14001305764
1858.14001305643
1858.14001305553
1858.14001305491
1858.14001305457
1858.14001305452
1858.14001305475
1858.14001305528
1858.14001305612
1858.14001305728
1858.14001305879
1858.14001306067
1858.14001306295
1858.14001306568
1858.14001306892
1858.14001307279
1858.14001307748
1858.1400130834
1858.14001309128
1858.14001310259
1858.14001312026
1858.14001315083
1858.1400132106
1858.1400133438
1858.14001367494
1858.14001455063
1858.14001690261
1858.1400230119
1858.1400384803
1858.14001072578
1858.14000693303
1858.14000533794
1858.14000467083
1858.14000439746
1858.14000428459
1858.14000423539
1858.14000421108
1858.14000419677
1858.14000418682
1858.14000417905
1858.14000417257
1858.14000416697
1858.14000416205
1858.14000415771
1858.14000415388
1858.14000415051
1858.14000414756
1858.14000414501
1858.14000414283
1858.14000414099
1858.14000413948
1858.14000413827
1858.14000413736
1858.14000413675
1858.14000413641
1858.14000413636
1858.1400041366
1858.14000413714
1858.14000413799
1858.14000413916
1858.14000414067
1858.14000414256
1858.14000414484
1858.14000414755
1858.14000415073
1858.14000415442
1858.1400041587
1858.1400041637
1858.14000416962
1858.14000417687
1858.14000418626
1858.14000419959
1858.14000422136
1858.14000426395
1858.14000436229
1858.14000461396
1858.14000528766
1858.14000708554
1858.14001183453
1858.14000347328
1858.14000236716
1858.14000195707
1858.14000179555
1858.14000172588
1858.14000169294
1858.14000167504
1858.1400016633
1858.14000165429
1858.14000164671
1858.14000164005
1858.14000163409
1858.14000162874
1858.14000162395
1858.14000161966
1858.14000161586
1858.14000161251
1858.14000160957
1858.14000160703
1858.14000160485
1858.14000160302
1858.14000160151
1858.14000160032
1858.14000159941
1858.1400015988
1858.14000159847
1858.14000159842
1858.14000159866
1858.1400015992
1858.14000160005
1858.14000160122
1858.14000160274
1858.14000160462
1858.1400016069
1858.14000160959
1858.14000161274
1858.14000161638
1858.14000162053
1858.14000162524
1858.14000163058
1858.14000163664
1858.14000164362
1858.14000165195
1858.14000166271
1858.14000167886
1858.14000170858
1858.14000177371
1858.1400019382
1858.14000240846
1858.14000381227
1858.14000134684
1858.14000105294
1858.14000099929
1858.14000098874
1858.14000097936
1858.14000096983
1858.14000096097
1858.1400009528
1858.14000094527
1858.14000093835
1858.14000093199
1858.14000092619
1858.14000092092
1858.14000091618
1858.14000091193
1858.14000090815
1858.14000090482
1858.1400009019
1858.14000089938
1858.14000089722
1858.1400008954
1858.14000089391
1858.14000089272
1858.14000089183
1858.14000089122
1858.14000089089
1858.14000089085
1858.1400008911
1858.14000089164
1858.14000089248
1858.14000089365
1858.14000089516
1858.14000089703
1858.1400008993
1858.14000090198
1858.14000090511
1858.14000090871
1858.14000091281
1858.14000091744
1858.14000092261
1858.14000092834
1858.14000093465
1858.14000094161
1858.1400009493
1858.14000095799
1858.14000096801
1858.14000097868
1858.14000099211
1858.14000106256
1858.1400014456
1858.14000073596
1858.14000068253
1858.1400007337
1858.14000076709
1858.140000775
1858.14000077202
1858.1400007656
1858.14000075833
1858.14000075115
1858.14000074436
1858.14000073808
1858.14000073232
1858.14000072708
1858.14000072237
1858.14000071815
1858.1400007144
1858.1400007111
1858.14000070822
1858.14000070572
1858.14000070359
1858.14000070179
1858.14000070031
1858.14000069914
1858.14000069826
1858.14000069766
1858.14000069734
1858.1400006973
1858.14000069755
1858.14000069809
1858.14000069893
1858.14000070009
1858.14000070158
1858.14000070344
1858.14000070569
1858.14000070835
1858.14000071146
1858.14000071504
1858.14000071912
1858.14000072371
1858.14000072884
1858.1400007345
1858.14000074068
1858.14000074732
1858.14000075426
1858.14000076102
1858.14000076567
1858.14000076099
1858.14000073077
1858.14000068349
1858.14000076153
1858.14000056472
1858.14000058113
1858.14000066227
1858.14000070786
1858.14000072034
1858.14000071894
1858.14000071299
1858.14000070582
1858.14000069864
1858.14000069183
1858.14000068554
1858.14000067979
1858.14000067458
1858.14000066989
1858.14000066571
1858.140000662
1858.14000065874
1858.14000065589
1858.14000065343
1858.14000065132
1858.14000064955
1858.1400006481
1858.14000064695
1858.14000064608
1858.1400006455
1858.14000064519
1858.14000064515
1858.1400006454
1858.14000064593
1858.14000064676
1858.14000064791
1858.14000064939
1858.14000065123
1858.14000065346
1858.14000065609
1858.14000065918
1858.14000066273
1858.14000066679
1858.14000067137
1858.14000067649
1858.14000068217
1858.14000068837
1858.14000069502
1858.14000070192
1858.14000070836
1858.14000071181
1858.14000070318
1858.14000066092
1858.14000057991
1858.14000056859
1858.14000051895
1858.1400005553
1858.14000064451
1858.14000069299
1858.14000070628
1858.14000070496
1858.14000069886
1858.14000069154
1858.14000068423
1858.14000067735
1858.14000067102
1858.14000066527
1858.14000066008
1858.14000065543
1858.14000065129
1858.14000064763
1858.14000064441
1858.14000064161
1858.14000063919
1858.14000063712
1858.14000063538
1858.14000063396
1858.14000063283
1858.14000063198
1858.14000063141
1858.14000063111
1858.14000063108
1858.14000063132
1858.14000063185
1858.14000063267
1858.1400006338
1858.14000063527
1858.14000063708
1858.14000063928
1858.14000064188
1858.14000064493
1858.14000064846
1858.14000065249
1858.14000065707
1858.1400006622
1858.14000066791
1858.1400006742
1858.14000068099
1858.14000068806
1858.14000069469
1858.14000069818
1858.14000068893
1858.14000064385
1858.14000055368
1858.14000051662
1858.14000050865
1858.14000055064
1858.14000064155
1858.14000069014
1858.14000070306
1858.1400007013
1858.14000069485
1858.14000068726
1858.14000067977
1858.14000067278
1858.14000066641
1858.14000066065
1858.14000065548
1858.14000065088
1858.14000064679
1858.14000064318
1858.14000064002
1858.14000063727
1858.1400006349
1858.14000063288
1858.14000063118
1858.14000062979
1858.14000062869
1858.14000062787
1858.14000062731
1858.14000062702
1858.140000627
1858.14000062724
1858.14000062776
1858.14000062856
1858.14000062968
1858.14000063111
1858.1400006329
1858.14000063506
1858.14000063763
1858.14000064064
1858.14000064413
1858.14000064813
1858.1400006527
1858.14000065785
1858.14000066361
1858.14000067001
1858.14000067698
1858.14000068434
1858.14000069134
1858.14000069529
1858.14000068647
1858.14000064129
1858.14000054911
1858.14000050471
1858.14000050858
1858.14000055216
1858.14000064284
1858.1400006906
1858.14000070269
1858.14000070029
1858.14000069335
1858.14000068543
1858.14000067772
1858.14000067062
1858.1400006642
1858.14000065844
1858.1400006533
1858.14000064874
1858.14000064472
1858.14000064118
1858.14000063808
1858.1400006354
1858.14000063308
1858.14000063111
1858.14000062946
1858.14000062811
1858.14000062704
1858.14000062624
1858.14000062571
1858.14000062543
1858.14000062541
1858.14000062565
1858.14000062616
1858.14000062695
1858.14000062803
1858.14000062944
1858.14000063119
1858.14000063331
1858.14000063583
1858.14000063879
1858.14000064224
1858.14000064622
1858.14000065076
1858.14000065592
1858.14000066175
1858.14000066827
1858.14000067546
1858.14000068315
1858.14000069064
1858.14000069526
1858.14000068727
1858.14000064292
1858.14000055085
1858.14000050435
1858.14000051182
1858.14000055587
1858.14000064559
1858.14000069208
1858.14000070308
1858.14000069986
1858.14000069236
1858.14000068405
1858.14000067612
1858.14000066889
1858.14000066242
1858.14000065666
1858.14000065157
1858.14000064707
1858.14000064312
1858.14000063965
1858.14000063664
1858.14000063402
1858.14000063177
1858.14000062986
1858.14000062826
1858.14000062696
1858.14000062592
1858.14000062515
1858.14000062464
1858.14000062437
1858.14000062435
1858.14000062459
1858.14000062509
1858.14000062586
1858.14000062692
1858.14000062829
1858.14000062999
1858.14000063206
1858.14000063453
1858.14000063744
1858.14000064084
1858.14000064477
1858.14000064929
1858.14000065446
1858.14000066035
1858.140000667
1858.14000067443
1858.1400006825
1858.14000069056
1858.14000069599
1858.14000068909
1858.140000646
1858.14000055481
1858.1400005077
1858.14000051662
1858.14000056076
1858.14000064913
1858.14000069398
1858.14000070365
1858.14000069948
1858.14000069133
1858.1400006826
1858.14000067442
1858.14000066707
1858.14000066056
1858.14000065482
1858.14000064978
1858.14000064535
1858.14000064148
1858.14000063811
1858.14000063518
1858.14000063264
1858.14000063047
1858.14000062863
1858.14000062708
1858.14000062583
1858.14000062483
1858.14000062409
1858.1400006236
1858.14000062335
1858.14000062334
1858.14000062357
1858.14000062405
1858.1400006248
1858.14000062583
1858.14000062716
1858.14000062882
1858.14000063083
1858.14000063324
1858.14000063609
1858.14000063942
1858.14000064329
1858.14000064778
1858.14000065295
1858.14000065888
1858.14000066567
1858.14000067335
1858.14000068185
1858.14000069056
1858.14000069694
1858.14000069136
1858.14000064987
1858.14000055999
1858.14000051271
1858.14000052265
1858.14000056672
1858.14000065331
1858.14000069615
1858.14000070425
1858.14000069898
1858.1400006901
1858.14000068093
1858.14000067249
1858.14000066502
1858.14000065848
1858.14000065278
1858.14000064781
1858.14000064348
1858.14000063971
1858.14000063643
1858.1400006336
1858.14000063115
1858.14000062906
1858.14000062729
1858.14000062581
1858.14000062461
1858.14000062366
1858.14000062296
1858.14000062249
1858.14000062225
1858.14000062224
1858.14000062247
1858.14000062294
1858.14000062366
1858.14000062466
1858.14000062594
1858.14000062754
1858.14000062949
1858.14000063183
1858.1400006346