/*--------------------------------*- C++ -*----------------------------------*\
  =========                 |
  \\      /  F ield         | OpenFOAM: The Open Source CFD Toolbox
   \\    /   O peration     | Website:  https://openfoam.org
    \\  /    A nd           | Version:  10
     \\/     M anipulation  |
\*---------------------------------------------------------------------------*/
FoamFile
{
    format      ascii;
    class       volScalarField;
    location    "6.6";
    object      k;
}
// * * * * * * * * * * * * * * * * * * * * * * * * * * * * * * * * * * * * * //

dimensions      [0 2 -2 0 0 0 0];

internalField   nonuniform List<scalar> 
2500
(
9.32418906425796e-10
1.82946568247066e-08
7.80257379910659e-08
1.34795677312543e-07
1.8298041815983e-07
2.20864052098639e-07
2.48553394201958e-07
2.67408875642363e-07
2.79399935375588e-07
2.86539946164173e-07
2.90531561652967e-07
2.92632527493984e-07
2.93676567070198e-07
2.9416770968132e-07
2.9438698196093e-07
2.94480092994403e-07
2.94517758623343e-07
2.94532276654391e-07
2.94537591928705e-07
2.94539418122959e-07
2.94539984234144e-07
2.94540120804338e-07
2.94540123222656e-07
2.94540091609895e-07
2.94540060669382e-07
2.9454003811593e-07
2.94540021794898e-07
2.94539996149335e-07
2.94539913032162e-07
2.94539635462072e-07
2.94538781622854e-07
2.94536324122611e-07
2.9452961203808e-07
2.94512095262546e-07
2.94468314711193e-07
2.94363527772133e-07
2.94123659465087e-07
2.93599528792633e-07
2.92508824671354e-07
2.90352729362846e-07
2.86314915835679e-07
2.79171428201856e-07
2.67267057921455e-07
2.48633842673345e-07
2.21315384361488e-07
1.83894413140446e-07
1.36107159739277e-07
7.93896281363672e-08
1.88703966866006e-08
9.80000692225374e-10
2.29691238604756e-08
5.25335511808711e-07
2.28713067789542e-06
3.95422889639057e-06
5.37190666940684e-06
6.48999908630504e-06
7.31046615254204e-06
7.87179759816295e-06
8.23066554791838e-06
8.44559004422934e-06
8.56648703244625e-06
8.63053344997023e-06
8.66257350371551e-06
8.67774920884807e-06
8.68457152781593e-06
8.68748887060249e-06
8.68867740014729e-06
8.68913887419859e-06
8.68930917814563e-06
8.6893682768514e-06
8.6893869035451e-06
8.68939160898011e-06
8.6893919031423e-06
8.68939103443014e-06
8.68939013616723e-06
8.68938946416827e-06
8.68938894690541e-06
8.68938808332607e-06
8.68938532670123e-06
8.68937627082939e-06
8.68934870712451e-06
8.68927001150973e-06
8.68905655101817e-06
8.68850305259479e-06
8.6871283290022e-06
8.68385846249635e-06
8.67641996264074e-06
8.66026723183534e-06
8.62686126754306e-06
8.56122652947783e-06
8.43904057496389e-06
8.22411419254674e-06
7.8678904830245e-06
7.31311630133228e-06
6.50342711722651e-06
5.39863238798341e-06
3.9922362475796e-06
2.32641840518324e-06
5.4150385437363e-07
2.40941052959829e-08
8.10764729281492e-08
2.34797707655805e-06
1.1561268302125e-05
1.99412694551712e-05
2.70194027126738e-05
3.25834123444886e-05
3.66612327589067e-05
3.94525603910553e-05
4.12406406354126e-05
4.23148638865736e-05
4.29215259160136e-05
4.32443829925351e-05
4.34067045767076e-05
4.34839954007529e-05
4.35189336275322e-05
4.35339589281118e-05
4.35401163291719e-05
4.354252194446e-05
4.35434158866421e-05
4.35437288592339e-05
4.35438289695946e-05
4.35438552544599e-05
4.35438578293631e-05
4.3543853986394e-05
4.35438497093208e-05
4.35438464100159e-05
4.3543843719373e-05
4.35438390261731e-05
4.35438242673637e-05
4.35437764691169e-05
4.3543632212232e-05
4.35432227779422e-05
4.35421174802385e-05
4.35392637782205e-05
4.35322053010246e-05
4.35154848482172e-05
4.34776032904188e-05
4.33956780596603e-05
4.32269267099745e-05
4.28966612703296e-05
4.22840808765522e-05
4.12100304845099e-05
3.94344786601471e-05
3.66738252285375e-05
3.2646191736274e-05
2.71440123347089e-05
2.01182859275613e-05
1.17439209636524e-05
2.41348991046825e-06
8.44254533077624e-08
1.42835332574187e-07
4.16536822463444e-06
2.05628582616426e-05
3.53185792989053e-05
4.76952042768526e-05
5.73746713637466e-05
6.44438854405411e-05
6.92726830831114e-05
7.23629467260297e-05
7.42193245379655e-05
7.52683027745175e-05
7.58271403093784e-05
7.61084990231625e-05
7.62426947122751e-05
7.63034711047014e-05
7.63296631104565e-05
7.63404215072564e-05
7.63446355897026e-05
7.63462064024915e-05
7.63467586468561e-05
7.63469365602041e-05
7.63469840826089e-05
7.63469894419002e-05
7.63469833869906e-05
7.63469762341926e-05
7.63469706329911e-05
7.63469659849181e-05
7.63469578569981e-05
7.63469324837474e-05
7.63468505049701e-05
7.63466030928967e-05
7.63459003867452e-05
7.63440015800582e-05
7.63390942767562e-05
7.63269448056451e-05
7.62981399918151e-05
7.62328321709771e-05
7.60915055681338e-05
7.58002474471474e-05
7.52299625060095e-05
7.41716933884432e-05
7.23150817283218e-05
6.92430264063147e-05
6.4459555729135e-05
5.74648499085212e-05
4.78772299098747e-05
3.55778615343787e-05
2.08285030229526e-05
4.25886933918782e-06
1.47535630529437e-07
2.02984958060484e-07
5.92279162757671e-06
2.91528503942542e-05
4.98810923323853e-05
6.71661375149071e-05
8.06266167734432e-05
9.04287136573568e-05
9.71126602801775e-05
0.0001013867610465
0.00010395412239919
0.00010540555282446
0.00010617948387748
0.000106569605511784
0.000106755947370642
0.000106840481742204
0.000106876980967394
0.000106892004697542
0.000106897903750971
0.000106900109146013
0.000106900887709986
0.000106901140402483
0.000106901209070553
0.000106901217881685
0.00010690121043751
0.000106901200936371
0.000106901193358014
0.000106901186919026
0.000106901175613512
0.000106901140664669
0.000106901028181767
0.000106900688914163
0.000106899724816538
0.000106897117247395
0.000106890371000571
0.000106873650907829
0.000106833970387435
0.000106743924476526
0.000106548912902288
0.000106146745622126
0.000105358829582881
0.000103895859240059
0.000101327563255906
9.70742070662992e-05
9.0442889611388e-05
8.0727682299823e-05
6.73742979852421e-05
5.01788211418197e-05
2.94571550231272e-05
6.0303689604173e-06
2.08460557843144e-07
2.59872426637246e-07
7.58424168544726e-06
3.72037388669534e-05
6.34371734478903e-05
8.52031621065566e-05
0.00010209163078376
0.000114360340062022
0.000122714487185225
0.000128053402976659
0.000131260442362793
0.000133074398764771
0.000134042457104759
0.000134530985068409
0.00013476464823814
0.000134870816070714
0.00013491673704905
0.000134935676775659
0.000134943130753281
0.000134945925581121
0.00013494691639424
0.000134947240501777
0.000134947330258227
0.000134947343237675
0.000134947335029239
0.000134947323864787
0.000134947314651787
0.000134947306570963
0.000134947292268868
0.000134947248586558
0.000134947108825769
0.000134946687984064
0.000134945492074487
0.000134942255419565
0.00013493387417169
0.000134913082358963
0.000134863694434607
0.000134751528398501
0.000134508437471752
0.000134006806860616
0.000133023490102279
0.000131196768214561
0.000127988088366657
0.000122670325114733
0.000114370808387717
0.000102192590004605
8.54155964603704e-05
6.37426161879064e-05
3.7516644778238e-05
7.69683431400918e-06
2.65742494646773e-07
3.12553748551141e-07
9.12412237570622e-06
4.46173512692707e-05
7.58460726829371e-05
0.000101644573423888
0.000121600537198495
0.000136068696559626
0.000145909454524997
0.000152195703021374
0.000155972172566508
0.000158109288521825
0.000159250741986061
0.000159827388828961
0.000160103552217991
0.000160229215314442
0.000160283659283099
0.000160306156894261
0.000160315030914013
0.000160318367657372
0.000160319555586127
0.000160319947265564
0.000160320057916888
0.000160320075788939
0.000160320067569832
0.000160320055298318
0.000160320044789743
0.000160320035205908
0.00016032001804394
0.00016031996634223
0.000160319802213838
0.000160319309316426
0.00016031790935147
0.000160314119050665
0.000160304297267404
0.00016027991234723
0.000160221943879813
0.000160090195121418
0.000159804481793936
0.000159214574434898
0.000158057664645815
0.000155907513046049
0.000152128957045746
0.000145863023747075
0.000136075359290386
0.000121695209771642
0.000101847472680906
7.61392089465082e-05
4.49192448947387e-05
9.23576203406162e-06
3.18555538904848e-07
3.60406197801689e-07
1.05246790326611e-05
5.13260055972764e-05
8.70175108422427e-05
0.000116393762919094
0.000139058873421748
0.000155464327547751
0.000166612925814147
0.000173732538433681
0.00017801034997672
0.000180432419488426
0.000181727087272633
0.000182381795949753
0.000182695720645634
0.000182838763454554
0.000182900834325231
0.000182926529556775
0.00018293668645424
0.000182940516106452
0.000182941885186609
0.000182942340122996
0.000182942471257668
0.000182942494694074
0.00018294248717526
0.00018294247431657
0.000182942462831471
0.000182942451875336
0.00018294243196958
0.0001829423728817
0.00018294218704726
0.000182941630924155
0.0001829400528724
0.000182935779944364
0.000182924701650439
0.000182897178649969
0.000182831705486391
0.000182682805720975
0.000182359717293121
0.000181692322202744
0.000180382909280114
0.000177948426429676
0.000173668565690528
0.000166567940810544
0.000155468872663793
0.000139145171624185
0.000116580130007683
8.72871855882544e-05
5.16054887044575e-05
1.06316743963684e-05
3.66362914186673e-07
4.03065220961473e-07
1.17752635568966e-05
5.72925819008486e-05
9.69101019802367e-05
0.000129415851569028
0.000154442160869606
0.000172532785528913
0.000184818230852029
0.000192662459188387
0.000197376651198756
0.000200047164137332
0.000201475704206854
0.000202198796494611
0.000202545899092573
0.000202704263245992
0.000202773083064902
0.000202801620047829
0.000202812922973398
0.000202817195979411
0.000202818729707697
0.000202819243223976
0.000202819394186264
0.000202819423669675
0.000202819417467403
0.00020281940449091
0.00020281939231733
0.000202819380114446
0.000202819357581454
0.000202819291698866
0.000202819086619066
0.000202818475447232
0.000202816743441315
0.000202812054133083
0.000202799891639741
0.000202769658188322
0.000202697694875326
0.00020253394442091
0.000202178458356572
0.00020144383433423
0.000200002014108766
0.000197320529217611
0.000192604970418222
0.000184778515423768
0.000172538242902906
0.00015452122954473
0.000129584136094239
9.71522224730897e-05
5.75447135395069e-05
1.18756936853149e-05
4.08868670796115e-07
4.40399277752911e-07
1.28718273952343e-05
6.25088240950736e-05
0.00010552744807092
0.00014073183003098
0.000167788665029832
0.000187326530613234
0.000200588068369317
0.00020905481725745
0.000214144376339005
0.000217028978956702
0.000218573138280172
0.000219355445585172
0.000219731363630906
0.000219903079177508
0.000219977802313
0.000220008835689477
0.000220021150596175
0.000220025817793876
0.000220027499445587
0.000220028066573923
0.000220028236431665
0.000220028272264154
0.000220028267871125
0.000220028255176268
0.000220028242565759
0.000220028229240678
0.000220028204213871
0.000220028132114626
0.000220027910083421
0.000220027251406296
0.000220025387680885
0.000220020343123348
0.000220007255841694
0.000219974708688161
0.000219897199170307
0.000219720743844043
0.000219337513960409
0.000218545271587793
0.000216989901487142
0.000214096495168339
0.000209006985050363
0.000200557343261298
0.000187336761793509
0.000167863940000854
0.000140884491770267
0.000105743192749971
6.27335267692464e-05
1.29651368919e-05
4.45996309654774e-07
4.72482953603556e-07
1.38162177046944e-05
6.69920405102504e-05
0.000112912138754217
0.000150410443812179
0.000179189848810313
0.000199954496711487
0.000214043552355404
0.000223038519437885
0.000228447041123419
0.000231513911400981
0.000233156732781106
0.000233989705829726
0.000234390353512402
0.000234573565908617
0.000234653391516587
0.000234686591918309
0.000234699789847433
0.000234704803368208
0.000234706616328882
0.000234707231908372
0.000234707419474889
0.000234707461735226
0.000234707459549763
0.000234707447457521
0.000234707434623851
0.000234707420303229
0.000234707392942307
0.000234707315207673
0.00023470707837294
0.000234706379108305
0.000234704403940804
0.000234699059859289
0.000234685193322165
0.000234650695468797
0.000234568505409449
0.000234381317387488
0.000233974629163227
0.000233133632710016
0.000231482128850684
0.000228409236322722
0.00022300292469383
0.000214025212958128
0.000199973678804871
0.000179266122761816
0.000150552553990084
0.000113106255278835
6.71926261424462e-05
1.39028486051335e-05
4.77862734014163e-07
4.99562354008551e-07
1.46152247948101e-05
7.07806344586674e-05
0.00011913826983929
0.0001585585015422
0.000188779209146887
0.000210570008796604
0.000225351579197586
0.000234789076079185
0.000240465247145978
0.000243685373645408
0.000245411352519861
0.000246287146300941
0.000246708758516514
0.000246901750444665
0.000246985932768096
0.000247020991451093
0.000247034950521177
0.000247040264604467
0.000247042192691968
0.000247042851500628
0.000247043055387071
0.000247043103970628
0.000247043104243116
0.000247043092987489
0.000247043080105984
0.000247043064919109
0.000247043035411947
0.000247042952631533
0.000247042703002524
0.000247041969442614
0.000247039901109377
0.000247034307623861
0.00024701979280516
0.00024698367147318
0.000246897582701731
0.000246701446470683
0.000246275183881081
0.000245393477989429
0.000243661662959612
0.00024043877619335
0.000234767663828015
0.000225348496273438
0.000210602166042323
0.00018886178326993
0.000158696478172966
0.000119317546324641
7.09624786121786e-05
1.46962760087814e-05
5.0474407789679e-07
5.22014771631158e-07
1.52794545135183e-05
7.39289720392465e-05
0.000124303199222104
0.000165310424262491
0.000196720363997469
0.000219357945696178
0.000234711426931932
0.00024451486763726
0.000250412758638291
0.000253760115237437
0.000255555301810517
0.000256466833150939
0.000256905996539102
0.000257107203843926
0.000257195060001294
0.000257231692475258
0.000257246299500678
0.000257251871189997
0.000257253898946402
0.000257254595820823
0.000257254814507293
0.000257254869148045
0.000257254871988936
0.00025725486172137
0.000257254848932146
0.000257254833011009
0.000257254801571689
0.000257254714341186
0.000257254453788205
0.000257253691598616
0.000257251546359793
0.000257245747903825
0.000257230700900928
0.000257193246483343
0.000257103953929402
0.000256900458138149
0.000256458083752391
0.000255542848409093
0.000253744856382359
0.000250398336793582
0.000244508926593127
0.000234725795930973
0.000219406569864144
0.000196814344330989
0.000165450973626931
0.000124475177687827
7.40983824306296e-05
1.53563794362969e-05
5.27036288013817e-07
5.40306399130812e-07
1.58221350744143e-05
7.65020852630795e-05
0.000128519242153686
0.000170817848042343
0.000203195268260901
0.000226522070299952
0.000242341537385829
0.000252443598429198
0.000258522766414227
0.0002619743817106
0.000263826427202399
0.000264767404077632
0.000265221074452486
0.000265429095850243
0.000265520010918424
0.000265557959462854
0.000265573111142672
0.000265578900828866
0.000265581013763818
0.000265581743702789
0.000265581975591739
0.000265582035904601
0.000265582041321983
0.000265582032112084
0.000265582019523206
0.000265582003000614
0.000265581969863163
0.000265581878775756
0.000265581609023644
0.000265580823245559
0.000265578615365872
0.000265572650738371
0.000265557172849316
0.000265518638918605
0.000265426750183303
0.000265217285724478
0.000264761834749077
0.000263819369881025
0.000261967611432998
0.000258520616805483
0.000252453772760264
0.000242374791978099
0.000226589855216973
0.000203305042648198
0.000170967156124073
0.000128691218938183
7.66654029771662e-05
1.58964911322337e-05
5.45214400628775e-07
5.54951842378569e-07
1.6257965433719e-05
7.85706461937354e-05
0.00013190591565933
0.000175239991202784
0.000208393335568172
0.000232273349184492
0.000248467333851358
0.000258809810090327
0.000265035223602832
0.000268571150715798
0.00027046930026132
0.000271434223858517
0.000271899730385543
0.000272113331036104
0.00027220676042912
0.000272245795478074
0.00027226139913721
0.000272267370936965
0.000272269555718608
0.000272270313981624
0.000272270557452296
0.000272270622996701
0.000272270630934116
0.000272270622747964
0.000272270610438163
0.000272270593444721
0.000272270558854401
0.000272270464489543
0.000272270187109494
0.000272269382169226
0.000272267123979618
0.000272261026532422
0.00027224520472112
0.000272205809065226
0.000272111846553596
0.000271897610681643
0.000271431698499269
0.000270467437172325
0.000268572621550765
0.000265045142326
0.000258836145968346
0.000248520129114319
0.000232362048554506
0.000208522244072271
0.000175403180316544
0.000132084245190245
7.8733598755218e-05
1.63312251655359e-05
5.59794120464068e-07
5.66478415317452e-07
1.66020909310203e-05
8.02065447533044e-05
0.000134583192415469
0.000178735323622883
0.00021250205536986
0.000236819887688202
0.000253310725608545
0.000263844122617359
0.000270185931248078
0.000273789129642875
0.000275724167590981
0.000276708309803928
0.000277183347090338
0.000277401456501923
0.00027749692581666
0.00027753684626383
0.000277552820156566
0.000277558942122773
0.000277561186708976
0.000277561968898812
0.000277562222340857
0.000277562292539936
0.000277562302832883
0.00027756229574285
0.000277562283771869
0.00027756226643355
0.000277562230637995
0.000277562133549092
0.00027756184995181
0.000277561029681096
0.000277558731680096
0.000277552529629713
0.00027753643734142
0.000277496363919611
0.000277400769259795
0.000277182775101164
0.000276708616864801
0.000275727164016182
0.000273798372601316
0.000270207365271686
0.00026388614653726
0.000253382986738253
0.00023693029032173
0.000212652245608326
0.000178916162724718
0.000134772882458475
8.03738464989874e-05
1.66755172263665e-05
5.71298406124942e-07
5.7539714537703e-07
1.68692629260217e-05
8.14792842074554e-05
0.000136666054142196
0.000181454874861239
0.000215699474828162
0.000240358873968062
0.000257081709913635
0.00026776462506266
0.000274197803029549
0.000277853948227638
0.000279818103948035
0.000280817464225664
0.000281300074114697
0.000281521779150111
0.000281618881786364
0.000281659514323809
0.000281675787534778
0.00028168203170622
0.000281684325414523
0.000281685127539211
0.000281685389450995
0.000281685463724116
0.000281685476186563
0.000281685470168004
0.000281685458576427
0.000281685441011613
0.000281685404251878
0.000281685304955202
0.000281685016387358
0.000281684184054917
0.000281681855046007
0.000281675571889402
0.000281659270153158
0.00028161867180326
0.000281521812134997
0.000281300902613715
0.000280820342727415
0.000279825534851472
0.00027787033658992
0.000274229936522451
0.00026782144668476
0.000257172734863104
0.000240490878649203
0.0002158719166879
0.000181655710441627
0.000136870616790913
8.1654458072692e-05
1.69438441276662e-05
5.80230706103742e-07
5.82181312972131e-07
1.70732083304801e-05
8.245328664821e-05
0.000138260460500581
0.000183537310943653
0.000218148686511518
0.000243070682565934
0.000259972229578079
0.000270770579530305
0.000277274476449174
0.000280971715786236
0.000282958539435876
0.000283969785650444
0.000284458330901958
0.000284682864852116
0.000284781257810995
0.000284822455459156
0.00028483896746015
0.00028484530976904
0.000284847643288431
0.000284848461796441
0.000284848730824939
0.00028484880861763
0.000284848823012896
0.000284848817999574
0.000284848806811579
0.000284848789128648
0.000284848751632068
0.000284848650598062
0.000284848358143492
0.000284847516497654
0.000284845163754749
0.000284838818763131
0.000284822357503833
0.000284781359197944
0.000284683534829966
0.000284460399842407
0.000283974948745995
0.000282969929094258
0.000280994527024218
0.000277316320029278
0.000270841009346827
0.000260080829425439
0.000243223447201428
0.000218343309635225
0.00018375917111515
0.000138481966959787
8.26386658714091e-05
1.71496436115547e-05
5.87055440050814e-07
5.87252393847858e-07
1.7226207956444e-05
8.31860955200352e-05
0.000139460698584643
0.000185105728904044
0.000219994261854895
0.000245115073190787
0.000262152220342348
0.000273038372477175
0.000279596204770467
0.000283324877743945
0.000285329095764989
0.000286349493991322
0.000286842626173166
0.000287069354946302
0.000287168753254806
0.000287210393265252
0.000287227093194587
0.000287233513255076
0.000287235878607039
0.000287236710397149
0.00028723698532889
0.000287237066120718
0.000287237082207861
0.000287237078117222
0.000287237067346917
0.000287237049642653
0.000287237011616964
0.000287236909264385
0.000287236613850434
0.000287235765170549
0.000287233394623524
0.000287227003384911
0.000287210422865022
0.000287169125302774
0.000287070578221456
0.000286845773851422
0.000286356649429953
0.000285343953087393
0.000283353350700352
0.000279646682051794
0.000273121043940261
0.000262276879560531
0.000245287209850278
0.000220210174581105
0.000185348546940603
0.000139699978138776
8.33829559209305e-05
1.73049303910857e-05
5.92185454910635e-07
5.90972543821385e-07
1.73388615572533e-05
8.37273787763663e-05
0.000140347957674871
0.000186265972746647
0.000221360407507711
0.000246629245561429
0.000263767599389775
0.000274719459400637
0.000281317773043487
0.000285070113450875
0.00028708747297381
0.000288114810831812
0.000288611434665812
0.000288839841122049
0.000288940011333759
0.000288981992651326
0.000288998838390964
0.000289005319195919
0.000289007709654108
0.000289008552067815
0.000289008831825745
0.000289008915130952
0.00028900893268662
0.000289008929448091
0.000289008919103373
0.000289008901461947
0.000289008863091647
0.000289008759785099
0.000289008462193144
0.000289007608347741
0.000289005224778454
0.000288998799762512
0.000288982132077721
0.000288940615421879
0.000288841538170127
0.000288615506820786
0.000288123677945331
0.000287105321534593
0.00028510349850795
0.00028137579966572
0.000274812946143689
0.000263906639316555
0.000246819034220166
0.000221596157178322
0.000186528877504049
0.000140604881986294
8.39361516661367e-05
1.74200855984854e-05
5.95975546475202e-07
5.93642318936589e-07
1.74200041463403e-05
8.41185824757012e-05
0.000140989895520919
0.000187106178706597
0.000222350513362731
0.000247727393958315
0.000264939823135016
0.000275939921909564
0.000282568052097946
0.000286337886464818
0.000288364996440954
0.000289397504021763
0.000289896740151154
0.000290126407498957
0.000290227160678446
0.000290269401135499
0.000290286358254825
0.000290292885808001
0.000290295295785879
0.000290296146584716
0.000290296430237721
0.000290296515627481
0.000290296534453348
0.000290296531996204
0.00029029652207846
0.000290296504570663
0.00029029646601475
0.000290296362064718
0.000290296062944624
0.000290295205453544
0.000290292812694621
0.000290286363816184
0.000290269634382086
0.000290227961974411
0.000290128506501356
0.000289901597008045
0.000289407827123387
0.000288385398739949
0.000286375487269194
0.000282632603775407
0.000276042842768697
0.000265091554986535
0.000247932992014516
0.000222604353538698
0.000187387806155108
0.000141263696448524
8.4339103648611e-05
1.75037853603688e-05
5.98720765883183e-07
5.95502127888909e-07
1.74767318655668e-05
8.43930575411169e-05
0.000141440922438376
0.000187697208086681
0.000223047704140906
0.000248501342816419
0.000265766576324692
0.00027680118757581
0.000283450734226063
0.000287233187397434
0.000289267362422379
0.000290303633915743
0.000290804781649089
0.000291035376644377
0.000291136561172141
0.000291178994562548
0.000291196035191195
0.000291202598099862
0.000291205023016758
0.000291205880346901
0.000291206167113812
0.000291206254223968
0.000291206274143519
0.000291206272396703
0.000291206262901832
0.000291206245584853
0.000291206206975925
0.00029120610264144
0.000291205802528854
0.000291204942626435
0.000291202543756244
0.0002911960789207
0.000291179307905545
0.000291137529844945
0.000291037816034891
0.000290810303070892
0.000290315192293946
0.000289289938421387
0.00028727439365793
0.000283520901974529
0.000276912294764666
0.000265929434205135
0.000248720973481499
0.000223317842497556
0.000187995998413375
0.000141730502568599
8.46248166350317e-05
1.75630290227903e-05
6.00658081338548e-07
5.96735932284041e-07
1.75144955053707e-05
8.45764801823854e-05
0.000141742925959469
0.000188093620707737
0.000223515999313778
0.000249021835888087
0.000266323144294626
0.000277381451746125
0.000284045782357256
0.000287836997056726
0.000289876107709011
0.000290915025789714
0.00029141752687839
0.00029164878334409
0.000291750277784756
0.000291792850926106
0.000291809952603051
0.000291816541651057
0.000291818977784274
0.000291819840130682
0.000291820129369094
0.000291820217897684
0.000291820238758341
0.000291820237655366
0.000291820228575223
0.000291820211492652
0.000291820172937196
0.000291820068429872
0.000291819767764548
0.000291818906462826
0.000291816503992658
0.000291810029612693
0.000291793233289119
0.000291751389803525
0.000291651513512005
0.000291423615877083
0.000290927640676472
0.00028990054810187
0.000287881308723748
0.000284120814522324
0.00027749970007267
0.000266495792781541
0.000249253944808875
0.000223800808740301
0.000188408076490049
0.000142047133080952
8.48188448171363e-05
1.7603227800355e-05
6.01970004191146e-07
5.97475869474498e-07
1.75372237615844e-05
8.46874015035491e-05
0.000141926181154843
0.000188334868978374
0.000223801715748324
0.000249340082507753
0.000266664051909667
0.000277737372456858
0.000284411156569489
0.000288208029665311
0.00029025036101569
0.000291291024960232
0.000291794428949823
0.000292026131900924
0.00029212783807799
0.000292170507931509
0.000292187652462643
0.00029219426017905
0.000292196704510079
0.00029219757064452
0.000292197861833348
0.000292197951534812
0.000292197973210954
0.000292197972694485
0.00029219796401836
0.000292197947200563
0.000292197908780186
0.00029219780426947
0.000292197503414664
0.000292196641564309
0.000292194237615787
0.00029218775909617
0.000292170951103385
0.000292129075692925
0.000292029116231921
0.00029180101387764
0.000291304563994308
0.000290276435978129
0.00028825507337707
0.000284490488411828
0.000277861969518067
0.00026684546626237
0.0002495834574087
0.000224099898938537
0.000188663759891329
0.000142244028923957
8.49397998441866e-05
1.76283184049031e-05
6.02788942971319e-07
5.97806718151576e-07
1.75474450162776e-05
8.47377890314993e-05
0.000142010232839944
0.000188446439199735
0.000223934797557072
0.000249489218216702
0.000266824609555331
0.000277905668765104
0.000284584442562441
0.000288384377908875
0.000290428496488914
0.000291470154461156
0.000291974086036025
0.000292206056764349
0.000292307893329879
0.000292350624411158
0.00029236779692565
0.000292374417304817
0.000292376867486545
0.000292377736514346
0.000292378029314982
0.000292378120053184
0.000292378142484817
0.000292378142529733
0.000292378134247659
0.000292378117696444
0.000292378079435015
0.000292377975000846
0.000292377674190153
0.000292376812446236
0.000292374408803969
0.000292367930858301
0.000292351123219367
0.000292309245399393
0.000292209272293328
0.000291981121920481
0.00029148453441269
0.000290456061116553
0.000288433917458353
0.000284667715787073
0.000278036108784901
0.000267014131036153
0.000249743073048326
0.000224245504262238
0.000188788948238886
0.000142341058081998
8.49998416133841e-05
1.76408723292935e-05
6.03201277653109e-07
5.9776926049761e-07
1.75463795370596e-05
8.47334454457973e-05
0.00014200458381675
0.000188440749141524
0.000223929862862675
0.000249485449945394
0.000266822119480215
0.000277904362966692
0.000284584113454898
0.000288384781901752
0.000290429407129096
0.000291471390548572
0.000291975517589072
0.000292207598843654
0.000292309494700111
0.000292352256268043
0.000292369444048657
0.000292376072066123
0.000292378526215489
0.000292379397478838
0.000292379691684612
0.000292379783402379
0.000292379806576258
0.000292379807177804
0.000292379799276813
0.000292379782969986
0.000292379744846991
0.000292379640504874
0.000292379339888002
0.000292378478801428
0.000292376077116227
0.000292369604249957
0.00029235280854819
0.000292310956686872
0.000292211036323837
0.000291982986384516
0.000291486577995402
0.000290458403020099
0.000288436721194107
0.000284671179754328
0.000278040436030264
0.000267019474297526
0.000249749458256818
0.000224252742485521
0.000188796547398514
0.000142348139237258
8.50050519086666e-05
1.76421785441523e-05
6.03250409990066e-07
5.97362445928045e-07
1.75340006821445e-05
8.46742698700064e-05
0.000141909091989785
0.000188317644490993
0.000223786770422196
0.000249328669675889
0.000266656519603194
0.000277733442764213
0.000284410202950336
0.000288209312667964
0.000290253191973021
0.000291294850835055
0.000291798852708756
0.000292030893836216
0.000292132781419456
0.000292175544502362
0.000292192735659611
0.000292199366649664
0.000292201823023874
0.000292202695909817
0.000292202991320946
0.000292203083955201
0.00029220310784837
0.000292203108991669
0.000292203101452161
0.000292203085365653
0.000292203047364905
0.000292202943144833
0.000292202642906289
0.00029220178310704
0.000292199385208406
0.000292192922325663
0.000292176151007102
0.000292134355260555
0.000292034557544054
0.000291806762994591
0.000291310861708319
0.000290283646654961
0.000288263695996839
0.000284501126899674
0.0002778752393078
0.000266861825732237
0.000249602974793194
0.000224121986204669
0.000188686908735142
0.000142265562517779
8.49556149507575e-05
1.76322795512611e-05
6.02937902991439e-07
5.96543943477896e-07
1.75090483560162e-05
8.45542939530654e-05
0.000141714003913139
0.000188064422530676
0.000223490633967472
0.000249002462079652
0.000266310386433942
0.000277374861051209
0.000284044303280541
0.000287839369961011
0.000289881152381574
0.000290921790536788
0.000291425326562186
0.000291657168878315
0.000291758977680679
0.000291801712329592
0.000291818894680869
0.000291825523892668
0.000291827980715793
0.000291828854588249
0.000291829150984344
0.000291829244454251
0.000291829269028406
0.0002918292706871
0.000291829263484822
0.000291829247597854
0.000291829209716694
0.00029182910567981
0.000291828806070866
0.000291827948339243
0.000291825556408433
0.00029181910924726
0.000291802376713148
0.000291760671700084
0.000291661076363422
0.000291433712953007
0.000290938688864756
0.000289913176825966
0.000287896377137328
0.00028413935730205
0.00027752276264067
0.000266524138217274
0.000249287653838337
0.000223838830475356
0.000188447792351308
0.000142083955301177
8.48458017308414e-05
1.76099719300435e-05
6.02223872050449e-07
5.95228146611414e-07
1.74689753292134e-05
8.43614727906895e-05
0.000141399630278443