/*--------------------------------*- C++ -*----------------------------------*\
  =========                 |
  \\      /  F ield         | OpenFOAM: The Open Source CFD Toolbox
   \\    /   O peration     | Website:  https://openfoam.org
    \\  /    A nd           | Version:  10
     \\/     M anipulation  |
\*---------------------------------------------------------------------------*/
FoamFile
{
    format      ascii;
    class       volScalarField;
    location    "6.6";
    object      nut;
}
// * * * * * * * * * * * * * * * * * * * * * * * * * * * * * * * * * * * * * //

dimensions      [0 2 -1 0 0 0 0];

internalField   nonuniform List<scalar> 
2500
(
7.2855985668121e-15
1.42936260365834e-13
6.09631930805676e-13
1.05320815677293e-12
1.42971005965185e-12
1.72572385460295e-12
1.94208201066322e-12
2.08941418783404e-12
2.18310921122296e-12
2.23889924950445e-12
2.27008854506981e-12
2.28650483357366e-12
2.29466261790978e-12
2.29850024585936e-12
2.30021357007033e-12
2.30094111534505e-12
2.30123542542245e-12
2.30134886982724e-12
2.30139040804948e-12
2.30140468177435e-12
2.30140910901916e-12
2.30141017942368e-12
2.3014102010146e-12
2.30140995560727e-12
2.3014097155556e-12
2.30140954073032e-12
2.30140941364165e-12
2.30140921334976e-12
2.30140856349904e-12
2.30140639371162e-12
2.30139972056821e-12
2.30138051569741e-12
2.30132806689528e-12
2.30119119357763e-12
2.30084910410396e-12
2.30003033176555e-12
2.2981560796276e-12
2.2940606972704e-12
2.28553828548506e-12
2.26869122808806e-12
2.23714094840743e-12
2.18132371955366e-12
2.08830604021617e-12
1.94271056215718e-12
1.72925033912702e-12
1.43685158434801e-12
1.06345532518797e-12
6.20288281394647e-13
1.47434484478764e-13
7.65738834032949e-15
7.20284894495361e-13
3.70699776037426e-11
1.61408819480934e-10
2.7908338307214e-10
3.79160324847191e-10
4.58091394422015e-10
5.16012242409124e-10
5.55639296819021e-10
5.80973286240404e-10
5.96145554713486e-10
6.04680009900387e-10
6.09201183668509e-10
6.11462941561406e-10
6.12534211777395e-10
6.13015804859598e-10
6.13221742231154e-10
6.13305641360835e-10
6.1333821763318e-10
6.1335024034263e-10
6.13354412898476e-10
6.13355728461598e-10
6.1335606126687e-10
6.13356082582175e-10
6.13356021637321e-10
6.13355958566201e-10
6.13355911411227e-10
6.13355875037926e-10
6.13355814155839e-10
6.13355619587091e-10
6.13354980264622e-10
6.13353034383424e-10
6.13347478949492e-10
6.13332410322191e-10
6.13293338315082e-10
6.1319629586022e-10
6.12965474133502e-10
6.12440384295915e-10
6.11300143708204e-10
6.08941960349589e-10
6.04308656933943e-10
5.95683197897644e-10
5.80510775032061e-10
5.55363422895221e-10
5.16199233697552e-10
4.59039182767062e-10
3.81046729909967e-10
2.81765931039055e-10
1.64181398199469e-10
3.82108295099381e-11
7.55563956207336e-13
2.55033130864351e-12
6.64832521621836e-10
2.27370032602309e-07
3.92219990953789e-07
5.31475034877032e-07
6.40945867032325e-07
7.21177027294681e-07
7.76096176514073e-07
8.11276120496703e-07
8.32410856101921e-07
8.44346427543044e-07
8.50698293042697e-07
8.53891760339859e-07
8.55412343351388e-07
8.56099696368226e-07
8.56395293291151e-07
8.56516429079278e-07
8.56563755430067e-07
8.56581342647169e-07
8.56587500368877e-07
8.5658947044156e-07
8.56589988149247e-07
8.5659003934801e-07
8.5658996413301e-07
8.56589880308543e-07
8.56589815670949e-07
8.5658976289815e-07
8.56589670688649e-07
8.56589380440706e-07
8.56588440160977e-07
8.5658560219576e-07
8.56577547279457e-07
8.56555802359489e-07
8.56499660811671e-07
8.56360798109596e-07
8.56031852282834e-07
8.55286593645586e-07
8.53674833735439e-07
8.50354864076291e-07
8.43857236923748e-07
8.31805207377303e-07
8.1067383876253e-07
7.75740335268763e-07
7.21424620473828e-07
6.42180761389609e-07
5.3392617926429e-07
3.95701693359882e-07
2.30961947212545e-07
6.83380366082134e-10
2.65567310680986e-12
4.50534769188775e-12
1.18270537111959e-09
4.05525688953988e-07
6.96605569368266e-07
9.40778849269657e-07
1.13174770369513e-06
1.27121884813673e-06
1.36648724853915e-06
1.42745496207889e-06
1.46407887328489e-06
1.48477357053633e-06
1.4957984286174e-06
1.5013490721263e-06
1.50399646120058e-06
1.50519543869235e-06
1.5057121433835e-06
1.50592437940472e-06
1.50600751252725e-06
1.50603850094117e-06
1.50604939571603e-06
1.50605290600845e-06
1.50605384412302e-06
1.50605395045618e-06
1.50605383145276e-06
1.50605369068346e-06
1.5060535804754e-06
1.50605348897541e-06
1.50605332881247e-06
1.50605282847024e-06
1.50605121141999e-06
1.50604633087057e-06
1.5060324685799e-06
1.50599500982599e-06
1.5058982010009e-06
1.50565852267995e-06
1.50509027400502e-06
1.50380190182504e-06
1.50101383382156e-06
1.49526788987971e-06
1.48401718375286e-06
1.4631391680224e-06
1.42651059773936e-06
1.36590203990914e-06
1.27152778619177e-06
1.13352644108318e-06
9.44369254703753e-07
7.017193111902e-07
4.10763845324426e-07
1.20924808914617e-09
4.65358060030013e-12
6.4165237066649e-12
1.68534542815566e-09
5.76162581695516e-07
9.85917321874359e-07
1.3276338969832e-06
1.59374691294499e-06
1.787533894112e-06
1.91967405418386e-06
2.00417113253159e-06
2.05492614617059e-06
2.08361965128261e-06
2.0989194481486e-06
2.10663167908961e-06
2.11031540719748e-06
2.11198652896704e-06
2.1127080622872e-06
2.11300505693474e-06
2.11312167124553e-06
2.11316526820384e-06
2.11318065922438e-06
2.11318565479506e-06
2.1131870126757e-06
2.11318718734303e-06
2.11318704054479e-06
2.11318685296908e-06
2.11318670337179e-06
2.11318657624689e-06
2.11318635293844e-06
2.11318566230463e-06
2.11318343896128e-06
2.11317673258996e-06
2.11315767462112e-06
2.11310612734034e-06
2.11297276491355e-06
2.11264223599855e-06
2.11185781391704e-06
2.11007773762866e-06
2.10622262104943e-06
2.09827226061899e-06
2.08269598930794e-06
2.05377433362515e-06
2.00300080634748e-06
1.91891377152835e-06
1.78781396355377e-06
1.59574457567412e-06
1.33174837125999e-06
9.9180156998974e-07
5.82175549801454e-07
1.71594740991452e-09
6.58955556277584e-12
8.22759087270434e-12
2.16140306589137e-09
7.36369813974541e-07
1.25569059267454e-06
1.686595828369e-06
2.02094422535926e-06
2.26383260912625e-06
2.42922164661323e-06
2.53491652690993e-06
2.59840598754054e-06
2.63431645568873e-06
2.65348076145862e-06
2.66315192554642e-06
2.66777762832017e-06
2.6698793675825e-06
2.67078843399651e-06
2.67116336966561e-06
2.67131093004561e-06
2.67136625685769e-06
2.67138587109806e-06
2.67139228722152e-06
2.67139406425398e-06
2.67139432150495e-06
2.67139415924095e-06
2.67139393835792e-06
2.67139375609405e-06
2.67139359623255e-06
2.67139331325255e-06
2.6713924487324e-06
2.67138968226318e-06
2.67138135160431e-06
2.67135767783726e-06
2.67129360441561e-06
2.6711276870394e-06
2.67071608705273e-06
2.66973838845118e-06
2.66751790754086e-06
2.66270557014959e-06
2.65277502042524e-06
2.63330864910667e-06
2.59714545965955e-06
2.5336235033598e-06
2.42834733836742e-06
2.2640397501596e-06
2.02294268518312e-06
1.69080082170059e-06
1.26173601913215e-06
7.42561763880918e-07
2.19347901398268e-09
8.41335714277136e-12
9.90561509591509e-12
2.60279438784473e-09
8.83939752036293e-07
1.50269614866666e-06
2.01387596005738e-06
2.40929226683748e-06
2.69596990293313e-06
2.89095736063584e-06
3.01551409182409e-06
3.09034127921896e-06
3.13268603410566e-06
3.15530267817254e-06
3.16672826610407e-06
3.172200109384e-06
3.17468996618552e-06
3.17576870305399e-06
3.17621446317847e-06
3.17639028957762e-06
3.1764564023077e-06
3.17647993931687e-06
3.17648769980839e-06
3.1764898922179e-06
3.17649024647868e-06
3.17649008374623e-06
3.17648984064205e-06
3.17648963247517e-06
3.17648944264414e-06
3.17648910270343e-06
3.17648807847575e-06
3.17648482672229e-06
3.17647506099665e-06
3.17644732322257e-06
3.17637222374323e-06
3.17617761826774e-06
3.17569446369092e-06
3.17454589393144e-06
3.17193545848499e-06
3.16627439673464e-06
3.15458606991981e-06
3.13166317898803e-06
3.08906013732644e-06
3.01419160296858e-06
2.8900373811709e-06
2.69610188953281e-06
2.41116801303638e-06
2.01789588224198e-06
1.5085033755087e-06
8.89919473296545e-07
2.63463022872356e-09
1.00957389768632e-11
1.14292701338952e-11
3.00406877550622e-09
1.01741013613905e-06
1.72495069522671e-06
2.30730915930262e-06
2.75662619335376e-06
3.08184989673499e-06
3.30286026303191e-06
3.44399933827866e-06
3.52880235173111e-06
3.57681715917348e-06
3.60248244304452e-06
3.61546126047561e-06
3.62168443419984e-06
3.62452007989579e-06
3.62575055629165e-06
3.62625993106299e-06
3.62646127805463e-06
3.62653719559158e-06
3.62656433562229e-06
3.6265733540517e-06
3.62657595358774e-06
3.62657641822276e-06
3.62657626921323e-06
3.62657601428972e-06
3.62657578661787e-06
3.62657556945437e-06
3.62657517490858e-06
3.62657400368377e-06
3.62657031992637e-06
3.62655929578495e-06
3.62652801341802e-06
3.62644330840577e-06
3.62622369564922e-06
3.62567808774832e-06
3.62438016553668e-06
3.62142841381646e-06
3.61502358198255e-06
3.60179327425891e-06
3.57583568886154e-06
3.52757480457669e-06
3.44273116924435e-06
3.30196850240644e-06
3.08194000882042e-06
2.75833694163992e-06
2.31100352707983e-06
1.73029610022001e-06
1.02294921508511e-06
3.03459947099859e-09
1.16180917756625e-11
1.27865619323929e-11
3.36210174784742e-09
1.13602403627239e-06
1.92160658777537e-06
2.56617429391201e-06
3.06242995336122e-06
3.42115481111545e-06
3.66476637716882e-06
3.82031150790832e-06
3.91379023647845e-06
3.96674434750383e-06
3.99507111336004e-06
4.00940942274112e-06
4.01629216953084e-06
4.01943239301527e-06
4.02079702939835e-06
4.02136289221505e-06
4.02158701883002e-06
4.02167174845463e-06
4.02170216076125e-06
4.02171234324931e-06
4.02171533665198e-06
4.02171592127517e-06
4.02171579828609e-06
4.02171554095104e-06
4.02171529955337e-06
4.02171505759116e-06
4.02171461081581e-06
4.02171330449386e-06
4.02170923805625e-06
4.0216971192479e-06
4.02166277540492e-06
4.02156979083921e-06
4.02132861959954e-06
4.02072911730641e-06
4.01930214838707e-06
4.01605511975942e-06
4.00900613713586e-06
3.99443916507817e-06
3.96584906753339e-06
3.91267739496122e-06
3.81917156719748e-06
3.66397887065769e-06
3.42126304898452e-06
3.06399784066047e-06
2.56951119406809e-06
1.92640732602316e-06
1.14102276918667e-06
3.39077029439586e-09
1.29706056964147e-11
1.39735134688524e-11
3.67580422689512e-09
1.23964415604741e-06
2.09278390621285e-06
2.79095552531462e-06
3.3275454290007e-06
3.71501907472861e-06
3.978020710852e-06
4.14593236263712e-06
4.24686787467163e-06
4.30407492688968e-06
4.33469847336979e-06
4.35021307400346e-06
4.35766822176119e-06
4.36107365662337e-06
4.36255555330227e-06
4.36317100176744e-06
4.36341522866133e-06
4.36350778755411e-06
4.3635411376771e-06
4.36355238480783e-06
4.36355575336088e-06
4.36355646396813e-06
4.36355637683198e-06
4.363556125051e-06
4.36355587495228e-06
4.36355561069444e-06
4.36355511438604e-06
4.36355368456619e-06
4.36354928134813e-06
4.36353621868525e-06
4.36349925776248e-06
4.36339921512113e-06
4.36313967053456e-06
4.3624942010753e-06
4.36095704541197e-06
4.35745761227897e-06
4.3498574579107e-06
4.33414582758283e-06
4.30329995224031e-06
4.24591830843318e-06
4.14498377013262e-06
3.97741138806068e-06
3.71522199869301e-06
3.3290382998948e-06
2.79398309601832e-06
2.09706238254328e-06
1.24409996598499e-06
3.70244644345556e-09
1.41510612288311e-11
1.49928896967619e-11
3.94581182776998e-09
1.32865099298751e-06
2.23939092566752e-06
2.98310159153269e-06
3.55388869108952e-06
3.96571744400299e-06
4.24514789687742e-06
4.42354641137846e-06
4.53081438634931e-06
4.59164004212792e-06
4.62422233564291e-06
4.64074279751318e-06
4.64868889358819e-06
4.6523225677262e-06
4.65390575868434e-06
4.65456422614182e-06
4.65482598212305e-06
4.65492541578549e-06
4.65496137238937e-06
4.65497358121188e-06
4.65497730121625e-06
4.65497813935615e-06
4.65497809599882e-06
4.65497785615935e-06
4.65497760162023e-06
4.65497731759835e-06
4.65497677495593e-06
4.65497523325637e-06
4.65497053612108e-06
4.6549566675805e-06
4.65491749392951e-06
4.65481150420843e-06
4.65453648760093e-06
4.65385228760852e-06
4.65222220222937e-06
4.64850967913271e-06
4.6404437805213e-06
4.62376418994769e-06
4.5910096964982e-06
4.53006460178606e-06
4.42284046085188e-06
4.24478417704746e-06
3.96609789923241e-06
3.55540146595482e-06
2.98592010067338e-06
2.24324081162498e-06
1.33262899969515e-06
3.9705505873139e-09
1.51635759919845e-11
1.5852869540674e-11
4.17415776189604e-09
1.40383714124774e-06
2.36294866011291e-06
3.14479887533141e-06
3.74418816662876e-06
4.17638083575452e-06
4.46955432148543e-06
4.65673492709637e-06
4.76931445884106e-06
4.8331815074486e-06
4.86741406552173e-06
4.88478430099367e-06
4.89314643282258e-06
4.89697417737346e-06
4.89864382446256e-06
4.89933916785401e-06
4.89961602781222e-06
4.89972142570409e-06
4.89975966678161e-06
4.89977273337311e-06
4.89977677718097e-06
4.899777740763e-06
4.89977774615887e-06
4.89977752291066e-06
4.89977726741807e-06
4.89977696620615e-06
4.89977638097476e-06
4.89977473914285e-06
4.89976978809402e-06
4.89975523891526e-06
4.89971421625209e-06
4.89960327677532e-06
4.89931539424389e-06
4.89859897457534e-06
4.89689151557118e-06
4.89300140789481e-06
4.88454704203968e-06
4.8670595477209e-06
4.83271123739902e-06
4.76878944298514e-06
4.65631024491221e-06
4.46949317968467e-06
4.17701864144114e-06
3.74582593317233e-06
3.14753548141751e-06
2.36650436339823e-06
1.40744367510796e-06
4.19730499125769e-09
1.60172894255955e-11
1.65656889277151e-11
4.36393522258293e-09
1.46630140382027e-06
2.46542163856052e-06
3.27875741174013e-06
3.90174095097029e-06
4.35073381858873e-06
4.65525410078296e-06
4.84969510261136e-06
4.96667360014186e-06
5.03306491326732e-06
5.06867055801635e-06
5.08674982661071e-06
5.09546017185409e-06
5.09945090764982e-06
5.10119344231422e-06
5.10192000895274e-06
5.10220972393587e-06
5.10232023252102e-06
5.10236045092346e-06
5.10237427268406e-06
5.10237861009239e-06
5.1023796938286e-06
5.10237975016965e-06
5.10237954651918e-06
5.10237929285568e-06
5.10237897707637e-06
5.10237835351254e-06
5.10237662339164e-06
5.10237145560534e-06
5.10235633838855e-06
5.10231378984687e-06
5.10219878357959e-06
5.10190034209539e-06
5.10115747305954e-06
5.099386448975e-06
5.09535032346416e-06
5.08657629148895e-06
5.06842355795114e-06
5.03276227008546e-06
4.96638755837455e-06
4.84957726902483e-06
4.65553909662517e-06
4.35169823233769e-06
3.9036049614841e-06
3.28154507371537e-06
2.46883265101464e-06
1.46966143415375e-06
4.38590497439775e-09
1.67250348884851e-11
1.71463022769586e-11
4.51896001253164e-09
1.51734542654059e-06
2.54905657179262e-06
3.38800954234972e-06
4.03018512884777e-06
4.49285021497352e-06
4.80661438766236e-06
5.00697921014112e-06
5.12755375222934e-06
5.19601327295524e-06
5.23274684093414e-06
5.25141022572864e-06
5.26040834770923e-06
5.26453425497543e-06
5.26633746916693e-06
5.26709014255722e-06
5.26739066174796e-06
5.26750549467399e-06
5.2675474027274e-06
5.2675618803689e-06
5.26756647966208e-06
5.26756767590732e-06
5.26756778335318e-06
5.26756760068136e-06
5.2675673509914e-06
5.26756702328108e-06
5.26756636603183e-06
5.26756455940128e-06
5.26755920912748e-06
5.26754362396989e-06
5.2674998327772e-06
5.26738153005369e-06
5.26707454080747e-06
5.26631025683044e-06
5.26448773087145e-06
5.26033320185806e-06
5.25129976336183e-06
5.23260686565687e-06
5.19587899094829e-06
5.12751111686723e-06
5.00718100860118e-06
4.80727396172009e-06
4.49419466664391e-06
4.03236240458602e-06
3.39097093415504e-06
2.55246757128041e-06
1.52058465987974e-06
4.54019655882911e-09
1.73020511095648e-11
1.76111274620174e-11
4.64345020049255e-09
1.55837703252605e-06
2.61623372407665e-06
3.47572584316994e-06
4.13329237543981e-06
4.60693078703438e-06
4.92812377908028e-06
5.13325740807832e-06
5.25673283354449e-06
5.32686473739694e-06
5.36451281003976e-06
5.3836511933336e-06
5.39288409253744e-06
5.39712066744197e-06
5.39897375458906e-06
5.39974797932304e-06
5.40005746372258e-06
5.40017590894147e-06
5.40021924209697e-06
5.40023428155217e-06
5.40023911056956e-06
5.40024041058153e-06
5.40024056801139e-06
5.40024040564524e-06
5.40024016149061e-06
5.40023982444067e-06
5.4002391383731e-06
5.4002372667324e-06
5.40023176515236e-06
5.40021579989548e-06
5.40017101075876e-06
5.40005007343526e-06
5.39973626218327e-06
5.39895488513549e-06
5.39709122406242e-06
5.3928420501171e-06
5.38360110510787e-06
5.36447585734385e-06
5.32689391005702e-06
5.25692956240462e-06
5.13377975634788e-06
4.92917092543587e-06
4.60869005939713e-06
4.13584916085952e-06
3.47896255498657e-06
2.61977073092719e-06
1.56160904171873e-06
4.66437384534185e-09
1.77647931187989e-11
1.79769419435277e-11
4.74174109022517e-09
1.59082499961769e-06
2.66933724276951e-06
3.54505534685761e-06
4.21478832020342e-06
4.69711080579214e-06
5.02419184534476e-06
5.23311236487317e-06
5.35889647310053e-06
5.43036269389131e-06
5.46874244262e-06
5.48826202405003e-06
5.49768396415384e-06
5.50200996943466e-06
5.50390351797998e-06
5.50469530437373e-06
5.50501213225893e-06
5.50513355598569e-06
5.50517807534533e-06
5.50519358938021e-06
5.50519861617542e-06
5.50520000851037e-06
5.50520021266083e-06
5.50520007203554e-06
5.50519983460116e-06
5.50519949071062e-06
5.50519878073749e-06
5.5051968550658e-06
5.5051912301674e-06
5.5051749608314e-06
5.50512938203601e-06
5.50500636990989e-06
5.50468719375312e-06
5.50389237324241e-06
5.5019963385877e-06
5.4976726192446e-06
5.48826811431126e-06
5.46880187401706e-06
5.43054601968982e-06
5.35932159778082e-06
5.23394587176334e-06
5.0256250803621e-06
4.69930054375144e-06
4.21776721042202e-06
3.54864213076436e-06
2.67309957686294e-06
1.59414327794933e-06
4.76271240266611e-09
1.81299014847999e-11
1.82599830438579e-11
4.81805017293096e-09
1.6160691516535e-06
2.71064970896983e-06
3.59899618508625e-06
4.27820740644086e-06
4.76730468197475e-06
5.09898727612178e-06
5.31087340682967e-06
5.43846977606847e-06
5.51098616761148e-06
5.54994345116411e-06
5.56976487432592e-06
5.5793370126657e-06
5.58373433505144e-06
5.58566027956153e-06
5.58646618983682e-06
5.58678895451562e-06
5.58691280210676e-06
5.58695829577183e-06
5.58697420520136e-06
5.58697939998807e-06
5.58698087312867e-06
5.58698112030957e-06
5.58698100093615e-06
5.58698077102696e-06
5.58698042264397e-06
5.58697969354688e-06
5.58697772408524e-06
5.58697200059825e-06
5.5869554920238e-06
5.58690929820158e-06
5.58678467737331e-06
5.58646134691988e-06
5.585656114723e-06
5.58373498926586e-06
5.57935344519474e-06
5.56982196683611e-06
5.55009083651451e-06
5.51131121619578e-06
5.43910711532514e-06
5.31200041319629e-06
5.1007926751316e-06
4.76992287767765e-06
4.28162763795102e-06
3.60297958123799e-06
2.7147070281864e-06
1.619543568936e-06
4.83935137844782e-09
1.84133737276824e-11
1.84752788537832e-11
4.87629984735478e-09
1.63538778148326e-06
2.74227357547764e-06
3.64029974628809e-06
4.32678568181633e-06
4.82109136809721e-06
5.1563185613041e-06
5.37049425425824e-06
5.49949328050542e-06
5.57282474318122e-06
5.6122316278853e-06
5.63228879953512e-06
5.64197866123806e-06
5.64643209296719e-06
5.64838363002665e-06
5.64920074883278e-06
5.6495282497247e-06
5.64965404379481e-06
5.64970032708126e-06
5.6497165614609e-06
5.64972189740188e-06
5.64972344035028e-06
5.64972372586704e-06
5.64972362643167e-06
5.64972340452719e-06
5.64972305380144e-06
5.64972231008956e-06
5.64972030616924e-06
5.6497145055919e-06
5.64969781229299e-06
5.64965114772422e-06
5.64952530044359e-06
5.64919880596721e-06
5.64838564093721e-06
5.64644538137288e-06
5.64201969682489e-06
5.63239120494252e-06
5.61245753164164e-06
5.57327718383528e-06
5.5003232107805e-06
5.37189116717561e-06
5.15847254293804e-06
4.82412131917977e-06
4.33064585900937e-06
3.64470014635337e-06
2.74666696000572e-06
1.63906461376002e-06
4.8981306137725e-09
1.86299571036385e-11
1.86362083291504e-11
4.9199983904783e-09
1.64992242532131e-06
2.7660792721936e-06
3.67140797058038e-06
4.36339108223884e-06
4.86164009751177e-06
5.19955680230103e-06
5.41547397573736e-06
5.54554276357873e-06
5.61949768529395e-06
5.65924957233012e-06
5.67948826622306e-06
5.68926910572162e-06
5.69376606986458e-06
5.69573754716291e-06
5.69656343984149e-06
5.69689466812906e-06
5.69702200433467e-06
5.69706891899256e-06
5.69708541681115e-06
5.69709086983783e-06
5.69709247227153e-06
5.6970927913452e-06
5.69709271021046e-06
5.69709249659049e-06
5.69709214544159e-06
5.69709139123529e-06
5.69708936116218e-06
5.69708350188799e-06
5.69706666907472e-06
5.6970196513764e-06
5.69689288682617e-06
5.69656402691812e-06
5.69574492639494e-06
5.69379033243202e-06
5.68933153711704e-06
5.67963018799031e-06
5.65954425413058e-06
5.62006242111866e-06
5.54654393567252e-06
5.41711369087499e-06
5.20202930732963e-06
4.86505427550462e-06
4.36767351974463e-06
3.67622405113741e-06
2.77082517011812e-06
1.65382697675615e-06
4.94248239897481e-09
1.87927569061827e-11
1.87542657478013e-11
4.95217349458073e-09
1.66065828356885e-06
2.78367724005953e-06
3.69442033703989e-06
4.39048731960391e-06
4.89167230730089e-06
5.23159635261252e-06
5.44881678087377e-06
5.57968847881459e-06
5.6541128222046e-06
5.6941253588008e-06
5.714501693892e-06
5.72435178709802e-06
5.72888202654401e-06
5.73086881383452e-06
5.73170147602742e-06
5.73203559632917e-06
5.73216413734594e-06
5.73221154996304e-06
5.73222825849108e-06
5.73223380724091e-06
5.73223545952525e-06
5.73223580772581e-06
5.73223574349192e-06
5.73223553831309e-06
5.73223518841053e-06
5.73223442736917e-06
5.73223237837492e-06
5.73222647590202e-06
5.73220954063542e-06
5.73216226465258e-06
5.73203483016043e-06
5.73170424141769e-06
5.73088079537702e-06
5.72891568597686e-06
5.72443255466842e-06
5.71467756521082e-06
5.69447936915806e-06
5.65477498518293e-06
5.58083938537812e-06
5.45067100747771e-06
5.23435408620861e-06
4.8954365969857e-06
4.39516320520916e-06
3.69963481973668e-06
2.78877310593242e-06
1.66479910863822e-06
4.97537199160031e-09
1.89130339211698e-11
1.88389896631933e-11
4.97534864328655e-09
1.6684174313363e-06
2.79640945513841e-06
3.71108500627549e-06
4.41012510659284e-06
4.91345301246281e-06
5.25484626997728e-06
5.47302346710448e-06
5.60448654723753e-06
5.6792578663529e-06
5.71946379376377e-06
5.73994266532628e-06
5.74984457090336e-06
5.75439981892735e-06
5.75639816882817e-06
5.7572359708068e-06
5.75757230021941e-06
5.75770176844319e-06
5.75774956821511e-06
5.75776644305446e-06
5.75777206905953e-06
5.7577737626891e-06
5.75777413608292e-06
5.75777408734712e-06
5.75777389063691e-06
5.75777354338478e-06
5.75777277866193e-06
5.7577707169048e-06
5.75776478412271e-06
5.75774777654765e-06
5.75770031829743e-06
5.7575724105163e-06
5.75724059703718e-06
5.75641406181294e-06
5.75444145076672e-06
5.74994090233828e-06
5.74014741487365e-06
5.71986845524544e-06
5.68000364492521e-06
5.60576687245924e-06
5.47506481099349e-06
5.25785573658349e-06
4.91753086743841e-06
4.4151598012097e-06
3.71667083679727e-06
2.80184005357303e-06
1.67279127309891e-06
4.99927749775572e-09
1.90001520380615e-11
1.88980095384713e-11
4.99155061164442e-09
1.67386136490426e-06
2.80535511335958e-06
3.72280746907635e-06
4.4239531712347e-06
4.92880349452027e-06
5.27124407165131e-06
5.49010578837249e-06
5.62199364215926e-06
5.69701524243609e-06
5.7373612979453e-06
5.75791482292739e-06
5.76785464325696e-06
5.77242829024645e-06
5.774435195514e-06
5.77527682413623e-06
5.77561480987481e-06
5.77574497934056e-06
5.7757930754136e-06
5.77581007979523e-06
5.77581576756175e-06
5.7758174953138e-06
5.77581789039986e-06
5.77581785575276e-06
5.77581766742989e-06
5.77581732396245e-06
5.77581655818813e-06
5.77581448880574e-06
5.77580853633856e-06
5.77579148093708e-06
5.77574390147631e-06
5.7756156772029e-06
5.77528303900761e-06
5.77445440826933e-06
5.77247667338083e-06
5.76796415574466e-06
5.75814407308439e-06
5.73780907282789e-06
5.69783253201319e-06
5.62338535713532e-06
5.49230950079898e-06
5.27447421309715e-06
4.93315967374328e-06
4.42931112567874e-06
3.72873370991281e-06
2.81109867813203e-06
1.67845810075527e-06
5.01619804740622e-09
1.90616315502946e-11
1.89371633865474e-11
5.00233621952917e-09
1.6774993526541e-06
2.81134502208582e-06
3.73066987779958e-06
4.43324129075662e-06
4.93912690165365e-06
5.28228298465506e-06
5.50161468954691e-06
5.63379576710399e-06
5.70899114282357e-06
5.74943509121102e-06
5.77004110844063e-06
5.78000777114787e-06
5.78459453771274e-06
5.78660758978236e-06
5.78745199022153e-06
5.78779118679127e-06
5.78792187470469e-06
5.7879701932424e-06
5.78798729711681e-06
5.78799303390322e-06
5.78799478978861e-06
5.78799520354066e-06
5.78799518166359e-06
5.78799500156647e-06
5.7879946627483e-06
5.78799389803455e-06
5.78799182522409e-06
5.78798586179398e-06
5.78796877863895e-06
5.78792112777689e-06
5.78779271420121e-06
5.78745957404338e-06
5.78662964567703e-06
5.78464868815739e-06
5.78012854101643e-06
5.77029131350105e-06
5.74991984467931e-06
5.70987002536205e-06
5.63528396343086e-06
5.5039600400463e-06
5.28570731401035e-06
4.94373057589526e-06
4.43889023271612e-06
3.73690682889379e-06
2.81737870010032e-06
1.6823064398815e-06
5.02767915744707e-09
1.91032644524874e-11
1.89606445546083e-11
5.00882755100776e-09
1.67969934048328e-06
2.81497966229269e-06
3.73545473824767e-06
4.43890812177179e-06
4.94543892850186e-06
5.28904446442198e-06
5.50867393574876e-06
5.6410425121081e-06
5.71635011538485e-06
5.75685794253928e-06
5.77749858695913e-06
5.78748315767754e-06
5.79207877977949e-06
5.79409603140677e-06
5.79494235002671e-06
5.7952823965635e-06
5.79541345474511e-06
5.79546193587804e-06
5.79547911488433e-06
5.79548489035537e-06
5.79548666950362e-06
5.79548709943008e-06
5.79548708918584e-06
5.79548691710205e-06
5.79548658353545e-06
5.79548582150087e-06
5.79548374862317e-06
5.79547778143498e-06
5.79546068739867e-06
5.79541300721584e-06
5.79528451153677e-06
5.79495113993804e-06
5.79412057838918e-06
5.79213797132164e-06
5.78761376385665e-06
5.77776712165445e-06
5.75737511623129e-06
5.71728318558246e-06
5.64261598867831e-06
5.5111452077043e-06
5.29264265685643e-06
4.95026605334219e-06
4.4448223203187e-06
3.74197799718512e-06
2.8212838902899e-06
1.68470543723924e-06
5.03484520151974e-09
1.91292526993793e-11
1.89711434671187e-11
5.0117467419371e-09
1.680698694097e-06
2.81664668869616e-06
3.73766754940231e-06
4.44154758012747e-06
4.94839679016774e-06
5.29222886222844e-06
5.51201181804944e-06
5.64447935735653e-06
5.71984769593792e-06
5.76039097028186e-06
5.78105132988769e-06
5.79104636456381e-06
5.79564729768432e-06
5.79766713540496e-06
5.79851466840383e-06
5.79885526995792e-06
5.79898657929111e-06
5.79903517646635e-06
5.79905241285948e-06
5.79905822029916e-06
5.79906002001015e-06
5.79906046492108e-06
5.7990604658114e-06
5.79906030154328e-06
5.79905997326409e-06
5.79905921438212e-06
5.79905714302269e-06
5.79905117670957e-06
5.79903408478476e-06
5.7989864106773e-06
5.79885792638489e-06
5.79852456181207e-06
5.7976939524915e-06
5.7957110748314e-06
5.79118591506375e-06
5.78133654342679e-06
5.76093769014658e-06
5.72083026883597e-06
5.64613100770381e-06
5.51459897983649e-06
5.29598785225806e-06
4.95343177500395e-06
4.44771017132223e-06
3.74446091161404e-06
2.82320831318475e-06
1.68589627402893e-06
5.03843062844387e-09
1.9142337532124e-11
1.89699543326408e-11
5.01144231506325e-09
1.68061250467281e-06
2.81653458121277e-06
3.73755460705208e-06
4.4414496037178e-06
4.94832193718065e-06
5.29217935329623e-06
5.51198579318741e-06
5.6444727012726e-06
5.71985557853244e-06
5.76040890085176e-06
5.78107571494352e-06
5.79107462627894e-06
5.7956777514847e-06
5.79769876514215e-06
5.79854690279738e-06
5.79888780713366e-06
5.79901926796271e-06
5.79906794383144e-06
5.79908522456425e-06
5.79909105987347e-06
5.79909287901322e-06
5.79909333864594e-06
5.79909335057651e-06
5.7990931938668e-06
5.79909287043483e-06
5.7990921142986e-06
5.79909004476499e-06
5.79908408229625e-06
5.79906700340965e-06
5.79901936811993e-06
5.79889098457579e-06
5.79855785677361e-06
5.79772776233878e-06
5.79574593083491e-06
5.79122276317991e-06
5.78137694442679e-06
5.76098400853938e-06
5.72088574817293e-06
5.64619958384614e-06
5.51468468132706e-06
5.29609371050019e-06
4.95355830714052e-06
4.44785363376418e-06
3.74461154892147e-06
2.8233486973154e-06
1.68599957721559e-06
5.03880358332857e-09
1.91438962904922e-11
1.89570438128635e-11
5.00790666154295e-09
1.67943877152336e-06
2.8146405216744e-06
3.73511285075899e-06
4.43861139137022e-06
4.94521222738336e-06
5.28889470660256e-06
5.50859561756763e-06
5.64102321265521e-06
5.7163751721914e-06
5.75691369888252e-06
5.7775740751956e-06
5.78757050373127e-06
5.79217283294646e-06
5.794193682466e-06
5.79504185015007e-06
5.79538282145115e-06
5.79551434123585e-06
5.79556306123125e-06
5.79558037414639e-06
5.79558623336262e-06
5.79558807068004e-06
5.79558854457922e-06
5.79558856725497e-06
5.79558841771496e-06
5.79558809865283e-06
5.79558734494126e-06
5.79558527782836e-06
5.79557932286354e-06
5.79556226951026e-06
5.7955147093248e-06
5.79538652379793e-06
5.79505387962252e-06
5.79422489819312e-06
5.79224549931919e-06
5.78772739719769e-06
5.77789163660226e-06
5.75751774037662e-06
5.71745381709718e-06
5.64282660824141e-06
5.51140802577714e-06
5.2929667709077e-06
4.95065282520297e-06
4.44526009801596e-06
3.74243687833627e-06
2.82171079728244e-06
1.68501900076037e-06
5.03597620550964e-09
1.91339785775253e-11
1.89310685536294e-11
5.00077988427366e-09
1.67705911780466e-06
2.81077105930326e-06
3.73009033361129e-06
4.43273768742027e-06
4.93874207758282e-06
5.28202934297818e-06
5.50148334316003e-06
5.63376579007549e-06
5.70903755785397e-06
5.74953449378523e-06
5.77017462481701e-06
5.78016181343879e-06
5.78476019930348e-06
5.78677948622848e-06
5.78762708993031e-06
5.78796788656503e-06
5.78809937107663e-06
5.78814809997476e-06
5.78816543245612e-06
5.78817131120813e-06
5.78817316509992e-06
5.78817365250585e-06
5.78817368540398e-06
5.78817354255265e-06
5.78817322744821e-06
5.78817247610858e-06
5.78817041262908e-06
5.78816447015196e-06
5.78814745780857e-06
5.78810001599065e-06
5.78797214229003e-06
5.78764026737718e-06
5.78681308558448e-06
5.78483770077947e-06
5.78032815001992e-06
5.77050978809004e-06
5.75016967010572e-06
5.71016824441232e-06
5.63565110192383e-06
5.50441683945322e-06
5.28626891922171e-06
4.94439860211468e-06
4.43964385504255e-06
3.73769413256894e-06
2.81810871560329e-06
1.68284091495924e-06
5.02960478487957e-09
1.91113186732149e-11
1.88893118689261e-11
4.9893344663277e-09
1.67323464365786e-06
2.80453567435077e-06