/*--------------------------------*- C++ -*----------------------------------*\
  =========                 |
  \\      /  F ield         | OpenFOAM: The Open Source CFD Toolbox
   \\    /   O peration     | Website:  https://openfoam.org
    \\  /    A nd           | Version:  10
     \\/     M anipulation  |
\*---------------------------------------------------------------------------*/
FoamFile
{
    format      ascii;
    class       volScalarField;
    location    "6.6";
    object      omega;
}
// * * * * * * * * * * * * * * * * * * * * * * * * * * * * * * * * * * * * * //

dimensions      [0 0 -1 0 0 0 0];

internalField   nonuniform List<scalar> 
2500
(
127981.098309921
127991.713074645
127988.273002611
127985.789367186
127984.283893468
127983.426496387
127982.954806876
127982.703094195
127982.573633625
127982.510257035
127982.479927465
127982.466162828
127982.460156914
127982.457348547
127982.455973394
127982.45510522
127982.454715287
127982.454340571
127982.453954146
127982.453696876
127982.453480283
127982.453296568
127982.453146686
127982.453057641
127982.452962868
127982.45288514
127982.452860845
127982.452855754
127982.452878487
127982.452932639
127982.453022169
127982.453189995
127982.453381986
127982.453645963
127982.454036624
127982.454712314
127982.456053528
127982.458852102
127982.465456392
127982.479840388
127982.510909516
127982.575763207
127982.705970524
127982.957171584
127983.426895389
127984.278365042
127985.780423093
127988.276608852
127991.743270338
127981.062037035
31888.9428835906
14171.4547935328
14169.7999232661
14168.6289339858
14167.902909071
14167.4765457964
14167.2339369535
14167.1002091252
14167.0292642553
14166.9932409181
14166.9757428519
14166.9676312816
14166.9640380742
14166.9625010296
14166.9618612933
14166.9615936868
14166.9614857421
14166.9614323549
14166.9613976047
14166.9613752167
14166.9613575463
14166.9613422135
14166.9613294788
14166.9613208236
14166.9613131008
14166.9613066506
14166.961303449
14166.9613017124
14166.9613014239
14166.9613036818
14166.9613094187
14166.9613224664
14166.9613488283
14166.9614029478
14166.9615221917
14166.961809345
14166.9625078945
14166.9641680457
14166.9680023207
14166.9764800567
14166.9944775142
14167.0310806764
14167.1024029772
14167.2358731496
14167.4771160584
14167.9011108663
14168.626536422
14169.8050491494
14171.476027046
31888.9024523175
31790.5648781266
3531.68204050886
50.8478103723843
50.842052713016
50.8385172201461
50.8364497228988
50.8352753503982
50.8346279558561
50.8342839059075
50.8341086332402
50.8340232348831
50.8339835006165
50.8339658406251
50.8339583111327
50.8339552182411
50.8339539803045
50.8339535015993
50.8339533028665
50.8339532029451
50.8339531460386
50.8339531037527
50.8339530660882
50.833953033713
50.8339530109561
50.8339529923425
50.8339529765585
50.8339529672274
50.8339529604254
50.8339529553365
50.8339529552066
50.8339529646691
50.8339529984625
50.8339530948203
50.8339533222466
50.8339538628127
50.8339552227779
50.8339585975495
50.8339666870267
50.8339853584895
50.8340266497065
50.8341141670352
50.8342918126183
50.8346374002643
50.8352836703165
50.8364524431271
50.8385117435359
50.8420516392992
50.8478608939201
3531.69337349411
31790.6044577824
31703.5093276761
3521.89845953888
50.7066724051007
50.7009717578555
50.6975728821702
50.6956375315979
50.6945641460547
50.6939842703749
50.6936811657041
50.693528806575
50.6934553982726
50.693421559125
50.6934066408509
50.69340033647
50.6933977762983
50.6933967729951
50.6933963957958
50.6933962511168
50.693396187933
50.6933961555478
50.6933961321114
50.693396109663
50.6933960890144
50.6933960742593
50.6933960631547
50.6933960536061
50.6933960472136
50.6933960414257
50.6933960353146
50.6933960319887
50.6933960316908
50.6933960452625
50.6933961148246
50.6933962906769
50.6933967137444
50.6933978044964
50.6934005592491
50.6934072515548
50.6934228710317
50.6934578181663
50.69353278861
50.6936869890221
50.6939915039007
50.6945710735837
50.6956413417304
50.6975737206668
50.7009868005975
50.7067582992901
3521.9152938211
31703.6800694763
31634.7242432287
3514.28943208292
50.5983056179455
50.5935855123782
50.590857666055
50.5893477305365
50.5885309113422
50.5880985725278
50.5878761552823
50.5877656931426
50.5877129540296
50.5876888087048
50.5876782209212
50.5876737697778
50.5876719746214
50.5876712808535
50.5876710264982
50.5876709351821
50.5876709003817
50.5876708852818
50.5876708749711
50.587670863638
50.5876708518636
50.587670843349
50.5876708376128
50.5876708326072
50.5876708288046
50.5876708246118
50.5876708192705
50.5876708149453
50.5876708112073
50.5876708115049
50.5876708530207
50.5876709702618
50.5876712520209
50.5876719935426
50.5876738913356
50.5876785471044
50.5876895073724
50.5877142529531
50.5877678667212
50.5878794131288
50.5881027624201
50.5885351916639
50.5893509089446
50.5908619370027
50.593609306687
50.5984063280798
3514.30872856279
31634.9950853636
31585.4823918618
3508.94370658233
50.5231721356786
50.5197489078686
50.51783045672
50.5167977931756
50.5162526597585
50.5159697371833
50.5158263072102
50.5157558103668
50.5157223906795
50.5157071615911
50.515700504321
50.5156977131554
50.515696592253
50.5156961636096
50.5156960102187
50.5156959586794
50.515695941992
50.5156959367949
50.5156959340232
50.515695929688
50.5156959237868
50.5156959194605
50.5156959170678
50.5156959148916
50.5156959129043
50.5156959102227
50.5156959063022
50.5156959023075
50.515695897563
50.5156958927863
50.5156959147087
50.5156959835368
50.5156961509325
50.5156966008367
50.5156977644156
50.5157006391043
50.5157074493015
50.5157229280381
50.5157567230598
50.5158277056293
50.5159715731623
50.5162545753249
50.5167994887383
50.5178347231108
50.5197721404115
50.5232650037908
3508.96191162281
31585.7855713513
31553.1893299622
3505.51023865605
50.4755569217107
50.4733260614496
50.472112205457
50.4714761559882
50.4711482170432
50.4709811745218
50.4708976270478
50.4708569294093
50.4708377413133
50.4708290230637
50.4708252172176
50.4708236231293
50.4708229846337
50.4708227425257
50.4708226578131
50.4708226316014
50.4708226251432
50.4708226240538
50.4708226243833
50.4708226239463
50.4708226214965
50.4708226196496
50.4708226190684
50.4708226183693
50.4708226174539
50.4708226159178
50.4708226133687
50.4708226103087
50.4708226061516
50.4708226008999
50.470822610878
50.4708226471393
50.4708227380747
50.4708229879739
50.4708236396088
50.4708252571987
50.4708291059387
50.4708378941601
50.4708571912056
50.4708980331308
50.4709816895099
50.4711486678885
50.4714765265948
50.4721148287135
50.4733434360611
50.4756286862041
3505.52496261922
31553.4642520863
31533.6144460224
3503.4747268353
50.4477041992645
50.4463757039768
50.4456728088721
50.4453138249283
50.4451328769954
50.4450423407264
50.4449976231744
50.4449760098904
50.4449658618055
50.4449612581741
50.4449592486468
50.4449584067637
50.4449580700931
50.4449579433557
50.4449578999575
50.4449578880861
50.4449578867782
50.444957887454
50.4449578880317
50.4449578883586
50.4449578877829
50.4449578872219
50.4449578874743
50.4449578874187
50.4449578870517
50.4449578862492
50.4449578847345
50.4449578826792
50.4449578797135
50.4449578758328
50.4449578793456
50.4449578965341
50.4449579426273
50.4449580716978
50.4449584103345
50.444959253381
50.4449612645045
50.4449658696548
50.4449760211479
50.4449976350163
50.4450423101102
50.4451326822865
50.4453134508865
50.4456737696945
50.4463863596271
50.4477523844267
3503.48522036413
31533.828554714
31522.5643212479
3502.3519334106
50.4325437416284
50.431811899869
50.4314347922718
50.4312468274076
50.4311541144959
50.4311085157927
50.4310862581657
50.4310755745436
50.4310705738365
50.431068306417
50.4310673157378
50.4310669002533
50.4310667342583
50.4310666721828
50.4310666516649
50.4310666470176
50.4310666471837
50.4310666479854
50.431066648618
50.4310666490652
50.4310666491248
50.4310666491742
50.4310666494698
50.4310666495596
50.4310666494424
50.431066649036
50.4310666481959
50.4310666469493
50.4310666451086
50.4310666428005
50.4310666434464
50.4310666507867
50.4310666728434
50.4310667354699
50.4310669005566
50.431067312113
50.4310682949873
50.4310705483201
50.4310755268814
50.4310861738939
50.4311083515063
50.4311537676467
50.431246228105
50.4314347387915
50.4318173839429
50.4325725073175
3502.35865429829
31522.7122283991
31516.7175910756
3501.77174862952
50.4248124674603
50.424435966676
50.424246733604
50.4241545637501
50.4241100368828
50.4240884976076
50.4240781015722
50.424073142507
50.424070826652
50.424069776243
50.4240693165176
50.4240691233944
50.4240690462843
50.4240690176396
50.4240690086077
50.424069006991
50.4240690073816
50.4240690080252
50.4240690085386
50.424069008903
50.4240690090819
50.4240690092493
50.4240690094702
50.4240690095816
50.4240690095527
50.4240690093424
50.4240690089047
50.4240690082095
50.4240690071758
50.4240690059635
50.4240690058519
50.4240690087144
50.4240690185765
50.424069047333
50.4240691234466
50.4240693132413
50.424069766401
50.424070805052
50.4240731017138
50.4240780280971
50.4240883563935
50.4241097461774
50.4241540285549
50.4242462923417
50.4244383143849
50.4248279756026
3501.77567451844
31516.8101135843
31513.8017526803
3501.48925183357
50.4210969350325
50.4209146603377
50.4208251703891
50.4207825246713
50.4207623298681
50.4207527169658
50.4207481273792
50.4207459505949
50.4207449357657
50.4207444750145
50.4207442729025
50.4207441878268
50.420744153874
50.4207441413517
50.420744137597
50.4207441371175
50.4207441374445
50.4207441378633
50.4207441382015
50.420744138444
50.4207441385943
50.4207441387331
50.4207441388711
50.420744138953
50.4207441389471
50.4207441388424
50.4207441386288
50.4207441382685
50.4207441377318
50.4207441371158
50.4207441369208
50.4207441379685
50.4207441421346
50.4207441547059
50.4207441881066
50.420744271347
50.4207444698113
50.4207449239864
50.4207459277
50.4207480843381
50.4207526298773
50.4207621409378
50.4207821475015
50.4208247086492
50.4209154419326
50.4211045668501
3501.4913673569
31513.8549288612
31512.4244684419
3501.35898748863
50.4194057693594
50.4193222012692
50.4192820679161
50.4192633344233
50.4192546316389
50.4192505535299
50.4192486269738
50.4192477181325
50.4192472949454
50.4192471025281
50.4192470178962
50.4192469821921
50.4192469679497
50.4192469627435
50.4192469612779
50.4192469611711
50.4192469613652
50.419246961604
50.419246961799
50.4192469619411
50.4192469620383
50.4192469621266
50.4192469622039
50.4192469622528
50.4192469622535
50.4192469622052
50.4192469621061
50.4192469619317
50.419246961672
50.4192469613756
50.4192469612453
50.4192469616019
50.4192469632792
50.41924696854
50.4192469825643
50.419247017476
50.4192471005083
50.4192472900059
50.4192477080393
50.4192486066703
50.4192505086979
50.4192545259176
50.4192631049419
50.4192817237111
50.4193223431477
50.4194092219963
3501.36004874351
31512.4528554883
31511.805751574
3501.30186040542
50.4186737096709
50.4186372334596
50.418620075572
50.4186122219489
50.4186086399862
50.4186069869863
50.4186062141512
50.4186058514373
50.4186056826959
50.4186056058316
50.4186055719242
50.4186055575863
50.4186055518708
50.4186055498053
50.4186055492585
50.4186055492515
50.4186055493602
50.4186055494849
50.4186055495878
50.4186055496643
50.4186055497199
50.4186055497696
50.4186055498103
50.4186055498368
50.4186055498398
50.41860554982
50.418605549777
50.4186055496982
50.4186055495809
50.418605549447
50.4186055493798
50.4186055494924
50.4186055501411
50.4186055522584
50.418605557918
50.4186055719849
50.4186056053282
50.4186056811402
50.4186058478963
50.4186062061228
50.4186069667265
50.4186085868093
50.4186120964869
50.4186198605547
50.4186371792638
50.4186751510538
3501.30235970412
31511.8199470347
31511.5405294634
3501.27795566625
50.4183714037333
50.4183561776759
50.4183491537259
50.4183459976674
50.4183445833587
50.418343940357
50.4183436427896
50.4183435038253
50.4183434392195
50.4183434097303
50.4183433966816
50.4183433911519
50.4183433889503
50.4183433881662
50.4183433879723
50.4183433879845
50.418343388041
50.4183433881025
50.418343388154
50.4183433881933
50.4183433882233
50.4183433882499
50.418343388271
50.4183433882854
50.4183433882893
50.4183433882831
50.4183433882664
50.4183433882341
50.4183433881851
50.4183433881288
50.4183433880978
50.4183433881315
50.4183433883762
50.4183433891993
50.4183433914031
50.4183433968696
50.4183434097733
50.4183434389773
50.4183435029649
50.4183436401852
50.4183439321555
50.4183445587552
50.4183459346258
50.4183490344999
50.4183560983015
50.4183719591316
3501.27817733366
31511.5472250207
31511.4318248763
3501.26839564134
50.4182521648027
50.4182460631968
50.418243299351
50.418242078991
50.4182415412438
50.4182413002883
50.4182411898988
50.4182411385982
50.4182411147613
50.4182411038581
50.4182410990194
50.4182410969655
50.41824109615
50.4182410958652
50.4182410958011
50.418241095813
50.4182410958414
50.4182410958713
50.4182410958968
50.418241095917
50.4182410959333
50.4182410959478
50.4182410959595
50.4182410959681
50.4182410959724
50.4182410959722
50.4182410959676
50.4182410959564
50.4182410959384
50.4182410959172
50.4182410959057
50.4182410959167
50.418241096007
50.4182410963172
50.4182410971482
50.4182410992039
50.4182411040327
50.4182411149033
50.4182411386094
50.4182411893104
50.4182412973117
50.4182415306319
50.41824204946
50.4182432389593
50.4182460056332
50.4182523613993
3501.26848898387
31511.4348205771
31511.3892616983
3501.26474961794
50.4182073908693
50.4182050357321
50.4182039869468
50.4182035314181
50.4182033338818
50.4182032466084
50.4182032070227
50.4182031887163
50.4182031802157
50.4182031763203
50.4182031745877
50.4182031738523
50.4182031735625
50.4182031734644
50.4182031734462
50.418203173455
50.4182031734698
50.418203173485
50.4182031734984
50.4182031735097
50.4182031735193
50.418203173528
50.4182031735355
50.4182031735417
50.418203173546
50.4182031735486
50.4182031735492
50.4182031735472
50.4182031735425
50.4182031735363
50.4182031735335
50.4182031735385
50.4182031735724
50.4182031736866
50.4182031739914
50.4182031747415
50.4182031764937
50.4182031804151
50.4182031889209
50.4182032070491
50.418203245674
50.4182033295936
50.418203518408
50.4182039585322
50.4182050025389
50.4182074539613
3501.26478706372
31511.3905392106
31511.3734769088
3501.26344071664
50.4181916498367
50.4181907717376
50.4181903868537
50.4181902222473
50.4181901519453
50.4181901213074
50.4181901075482
50.418190101218
50.418190098282
50.4181900969356
50.4181900963369
50.4181900960841
50.4181900959865
50.418190095956
50.4181900959533
50.41819009596
50.4181900959688
50.4181900959776
50.4181900959857
50.418190095993
50.4181900959996
50.4181900960059
50.4181900960116
50.4181900960167
50.4181900960212
50.4181900960249
50.4181900960278
50.4181900960296
50.4181900960303
50.4181900960303
50.4181900960313
50.4181900960348
50.4181900960485
50.4181900960904
50.4181900961996
50.4181900964661
50.4181900970838
50.4181900984576
50.4181901014203
50.418190107709
50.418190121101
50.4181901503387
50.4181902168414
50.418190374315
50.4181907549528
50.4181916676295
3501.26345508327
31511.3739983147
31511.3681140958
3501.26302010359
50.4181867944658
50.4181864774374
50.4181863405069
50.4181862827885
50.418186258492
50.4181862480446
50.4181862434006
50.4181862412771
50.4181862402951
50.4181862398461
50.4181862396479
50.4181862395661
50.4181862395366
50.4181862395297
50.4181862395322
50.4181862395378
50.4181862395441
50.4181862395503
50.4181862395563
50.4181862395619
50.4181862395673
50.4181862395726
50.4181862395776
50.4181862395824
50.4181862395869
50.4181862395911
50.4181862395949
50.4181862395982
50.418186239601
50.4181862396035
50.418186239606
50.4181862396093
50.4181862396158
50.4181862396318
50.4181862396706
50.418186239763
50.418186239975
50.4181862404428
50.4181862414458
50.418186243566
50.4181862480765
50.4181862579656
50.4181862806881
50.4181863353031
50.4181864697197
50.4181867985275
3501.26302539453
31511.368318511
31511.3666619238
3501.26292516315
50.4181858755179
50.4181857644469
50.4181857171221
50.4181856974454
50.4181856892779
50.4181856858136
50.4181856842915
50.4181856836019
50.4181856832858
50.4181856831433
50.4181856830824
50.4181856830594
50.4181856830534
50.4181856830546
50.4181856830588
50.4181856830639
50.4181856830692
50.4181856830744
50.4181856830796
50.4181856830846
50.4181856830895
50.4181856830944
50.4181856830992
50.4181856831039
50.4181856831084
50.4181856831128
50.418185683117
50.4181856831209
50.4181856831246
50.418185683128
50.4181856831312
50.4181856831344
50.4181856831385
50.4181856831454
50.4181856831595
50.4181856831911
50.4181856832618
50.4181856834165
50.4181856837463
50.4181856844408
50.4181856859176
50.4181856891692
50.4181856967139
50.4181857151108
50.4181857611827
50.418185876058
3501.26292704152
31511.3667391616
31511.3666281853
3501.26294570002
50.4181863329712
50.4181862951429
50.4181862792284
50.4181862726987
50.4181862700269
50.4181862689113
50.4181862684292
50.418186268215
50.4181862681195
50.4181862680788
50.4181862680636
50.4181862680603
50.4181862680621
50.418186268066
50.4181862680707
50.4181862680756
50.4181862680806
50.4181862680855
50.4181862680904
50.4181862680952
50.4181862681
50.4181862681048
50.4181862681095
50.4181862681141
50.4181862681187
50.4181862681232
50.4181862681276
50.4181862681317
50.4181862681357
50.4181862681395
50.4181862681429
50.4181862681463
50.4181862681495
50.4181862681533
50.4181862681591
50.41818626817
50.418186268193
50.4181862682422
50.4181862683468
50.418186268567
50.418186269036
50.4181862700748
50.418186272511
50.418186278538
50.418186293891
50.4181863328814
3501.2629463475
31511.3666564154
31511.3670929188
3501.26300592941
50.418187256847
50.4181872443071
50.4181872390952
50.4181872369862
50.4181872361378
50.4181872357917
50.4181872356471
50.4181872355862
50.4181872355618
50.418187235554
50.4181872355536
50.4181872355566
50.4181872355609
50.4181872355657
50.4181872355706
50.4181872355755
50.4181872355803
50.4181872355852
50.4181872355899
50.4181872355947
50.4181872355995
50.4181872356042
50.4181872356089
50.4181872356136
50.4181872356183
50.4181872356228
50.4181872356273
50.4181872356316
50.4181872356356
50.4181872356395
50.4181872356432
50.4181872356465
50.4181872356495
50.4181872356523
50.4181872356554
50.4181872356595
50.4181872356669
50.4181872356817
50.418187235713
50.4181872357794
50.4181872359225
50.4181872362434
50.4181872370072
50.4181872389279
50.4181872439073
50.4181872567817
3501.2630061497
31511.3671029481
31511.3677277295
3501.26307941197
50.4181883342197
50.4181883301726
50.4181883285117
50.4181883278512
50.4181883275926
50.4181883274921
50.418188327454
50.4181883274412
50.418188327439
50.4181883274414
50.4181883274455
50.4181883274505
50.4181883274555
50.4181883274606
50.4181883274656
50.4181883274704
50.4181883274752
50.41818832748
50.4181883274848
50.4181883274896
50.4181883274943
50.4181883274991
50.4181883275039
50.4181883275086
50.4181883275133
50.4181883275179
50.4181883275224
50.4181883275267
50.4181883275309
50.4181883275349
50.4181883275386
50.418188327542
50.418188327545
50.4181883275476
50.4181883275499
50.4181883275519
50.4181883275544
50.4181883275584
50.4181883275667
50.4181883275847
50.4181883276253
50.4181883277194
50.4181883279502
50.4181883285441
50.4181883301153
50.4181883342529
3501.26307948941
31511.36773123
31511.3684189867
3501.26315720122
50.4181894607414
50.4181894594729
50.4181894589607
50.4181894587629
50.4181894586901
50.4181894586659
50.4181894586603
50.4181894586619
50.4181894586662
50.4181894586715
50.4181894586769
50.4181894586824
50.4181894586876
50.4181894586927
50.4181894586976
50.4181894587025
50.4181894587073
50.4181894587121
50.4181894587169
50.4181894587217
50.4181894587265
50.4181894587313
50.4181894587361
50.4181894587408
50.4181894587456
50.4181894587502
50.4181894587547
50.4181894587592
50.4181894587635
50.4181894587675
50.4181894587713
50.4181894587748
50.4181894587778
50.4181894587804
50.4181894587825
50.4181894587841
50.4181894587852
50.4181894587861
50.4181894587875
50.4181894587911
50.4181894588005
50.4181894588253
50.4181894588908
50.4181894590672
50.4181894595477
50.4181894608397
3501.26315723246
31511.368420216
31511.3691284975
3501.26323635477
50.4181906026009
50.418190602219
50.4181906020691
50.4181906020152
50.4181906019992
50.4181906019976
50.4181906020013
50.4181906020068
50.4181906020127
50.4181906020186
50.4181906020243
50.4181906020297
50.4181906020349
50.41819060204
50.4181906020449
50.4181906020498
50.4181906020545
50.4181906020594
50.4181906020642
50.418190602069
50.4181906020738
50.4181906020787
50.4181906020835
50.4181906020883
50.418190602093
50.4181906020978
50.4181906021024
50.4181906021069
50.4181906021112
50.4181906021153
50.4181906021192
50.4181906021227
50.4181906021259
50.4181906021286
50.4181906021308
50.4181906021324
50.4181906021333
50.4181906021335
50.4181906021333
50.4181906021329
50.4181906021336
50.418190602138
50.4181906021541
50.4181906022028
50.4181906023433
50.4181906027318
3501.26323637163
31511.3691289612
31511.3698437688
3501.26331593031
50.4181917491326
50.4181917490266
50.4181917489879
50.4181917489772
50.4181917489775
50.4181917489821
50.4181917489879
50.4181917489941
50.4181917490002
50.4181917490061
50.4181917490116
50.4181917490168
50.418191749022
50.4181917490269
50.4181917490318
50.4181917490366
50.4181917490414
50.4181917490462
50.418191749051
50.4181917490559
50.4181917490607
50.4181917490656
50.4181917490705
50.4181917490753
50.4181917490802
50.4181917490849
50.4181917490896
50.4181917490941
50.4181917490985
50.4181917491027
50.4181917491067
50.4181917491104
50.4181917491136
50.4181917491165
50.4181917491189
50.4181917491207
50.4181917491217
50.4181917491221
50.4181917491217
50.4181917491207
50.4181917491194
50.4181917491186
50.4181917491207
50.4181917491319
50.4181917491693
50.4181917492783
3501.26331594287
31511.3698439827
31511.3705608165
3501.26339563346
50.4181928970556
50.4181928970329
50.4181928970272
50.4181928970286
50.418192897033
50.4181928970387
50.4181928970446
50.4181928970505
50.4181928970563
50.4181928970618
50.4181928970671
50.4181928970722
50.4181928970772
50.418192897082
50.4181928970868
50.4181928970916
50.4181928970964
50.4181928971012
50.418192897106
50.4181928971109
50.4181928971158
50.4181928971206
50.4181928971256
50.4181928971305
50.4181928971353
50.4181928971401
50.4181928971449
50.4181928971495
50.4181928971539
50.4181928971583
50.4181928971623
50.4181928971661
50.4181928971695
50.4181928971726
50.4181928971752
50.4181928971771
50.4181928971786
50.4181928971793
50.4181928971793
50.4181928971786
50.4181928971773
50.4181928971757
50.4181928971746
50.4181928971756
50.418192897183
50.4181928972078
3501.26339564482
31511.3705609485
31511.3712784004
3501.26347537441
50.4181940453841
50.4181940453857
50.4181940453889
50.4181940453931
50.418194045398
50.4181940454033
50.4181940454087
50.4181940454141
50.4181940454194
50.4181940454245
50.4181940454295
50.4181940454344
50.4181940454392
50.4181940454439
50.4181940454486
50.4181940454534
50.4181940454581
50.4181940454629
50.4181940454678
50.4181940454726
50.4181940454775
50.4181940454824
50.4181940454874
50.4181940454923
50.4181940454973
50.4181940455021
50.4181940455069
50.4181940455116
50.4181940455161
50.4181940455205
50.4181940455247
50.4181940455286
50.4181940455322
50.4181940455355
50.4181940455383
50.4181940455406
50.4181940455423
50.4181940455435
50.418194045544
50.4181940455439
50.4181940455432
50.4181940455421
50.4181940455408
50.4181940455397
50.4181940455391
50.4181940455397
3501.26347538545
31511.3712785091
31511.3719961427
3501.26355512632
50.4181951938286
50.4181951938366
50.4181951938416
50.4181951938459
50.4181951938502
50.4181951938548
50.4181951938595
50.4181951938643
50.418195193869
50.4181951938738
50.4181951938784
50.4181951938831
50.4181951938877
50.4181951938923
50.4181951938969
50.4181951939016
50.4181951939063
50.4181951939111
50.4181951939159
50.4181951939208
50.4181951939257
50.4181951939306
50.4181951939357
50.4181951939406
50.4181951939456
50.4181951939505
50.4181951939554
50.4181951939601
50.4181951939648
50.4181951939693
50.4181951939736
50.4181951939776
50.4181951939814
50.4181951939848
50.4181951939878
50.4181951939905
50.4181951939926
50.4181951939942
50.4181951939953
50.4181951939959
50.4181951939959
50.4181951939956
50.4181951939951
50.4181951939941
50.418195193992
50.4181951939863
3501.2635551374
31511.3719962446
31511.3727139311
3501.26363488137
50.4181963423056
50.4181963423148
50.4181963423197
50.4181963423232
50.4181963423267
50.4181963423304
50.4181963423344
50.4181963423386
50.4181963423428
50.4181963423471
50.4181963423515
50.4181963423559
50.4181963423603
50.4181963423648
50.4181963423693
50.4181963423739
50.4181963423786
50.4181963423833
50.4181963423881
50.418196342393
50.4181963423979
50.4181963424029
50.4181963424079
50.418196342413
50.418196342418
50.418196342423
50.4181963424279
50.4181963424327
50.4181963424375
50.4181963424421
50.4181963424465
50.4181963424507
50.4181963424546
50.4181963424582
50.4181963424616
50.4181963424645
50.418196342467
50.4181963424691
50.4181963424707
50.418196342472
50.4181963424728
50.4181963424734
50.4181963424737
50.4181963424736
50.4181963424718
50.4181963424649
3501.26363489251
31511.3727140326
31511.3734317327
3501.26371463731
50.4181974907919
50.4181974908006
50.4181974908048
50.4181974908074
50.41819749081
50.4181974908129
50.4181974908161
50.4181974908197
50.4181974908234
50.4181974908273
50.4181974908313
50.4181974908354
50.4181974908396
50.418197490844
50.4181974908484
50.4181974908529
50.4181974908575
50.4181974908622
50.418197490867
50.4181974908719
50.4181974908769
50.4181974908819
50.418197490887
50.418197490892
50.4181974908971
50.4181974909021
50.4181974909071
50.418197490912
50.4181974909169
50.4181974909216
50.4181974909261
50.4181974909305
50.4181974909346
50.4181974909385
50.418197490942
50.4181974909453
50.4181974909482
50.4181974909507
50.418197490953
50.4181974909549
50.4181974909565
50.418197490958
50.4181974909592
50.4181974909601
50.418197490959
50.4181974909526
3501.26371464857
31511.3734318343
31511.3741495382
3501.2637943935
50.4181986392807
50.4181986392886
50.4181986392919
50.4181986392935
50.4181986392952
50.4181986392973
50.4181986392998
50.4181986393028
50.418198639306
50.4181986393095
50.4181986393131
50.418198639317
50.418198639321
50.4181986393252
50.4181986393295
50.4181986393339
50.4181986393385
50.4181986393432
50.418198639348
50.4181986393529
50.4181986393578
50.4181986393629
50.418198639368
50.4181986393731
50.4181986393782
50.4181986393833
50.4181986393884
50.4181986393933
50.4181986393983
50.4181986394031
50.4181986394078
50.4181986394123
50.4181986394166
50.4181986394207
50.4181986394245
50.4181986394281
50.4181986394314
50.4181986394344
50.4181986394372
50.4181986394397
50.4181986394421
50.4181986394444
50.4181986394466
50.4181986394484
50.4181986394483
50.4181986394427
3501.26379440481
31511.3741496403
31511.3748673448
3501.26387414978
50.4181997877704
50.4181997877773
50.4181997877796
50.4181997877803
50.4181997877811
50.4181997877824
50.4181997877843
50.4181997877867
50.4181997877894
50.4181997877925
50.4181997877958
50.4181997877994
50.4181997878032
50.4181997878072
50.4181997878114
50.4181997878157
50.4181997878203
50.4181997878249
50.4181997878296
50.4181997878345
50.4181997878395
50.4181997878446
50.4181997878497
50.4181997878548
50.41819978786
50.4181997878652
50.4181997878703
50.4181997878754
50.4181997878804
50.4181997878853
50.4181997878902
50.4181997878948
50.4181997878993
50.4181997879036
50.4181997879077
50.4181997879117
50.4181997879153
50.4181997879188
50.4181997879221
50.4181997879253
50.4181997879284
50.4181997879315
50.4181997879346
50.4181997879374
50.4181997879382
50.4181997879336
3501.26387416113
31511.3748674454
31511.375585152
3501.2639539061
50.4182009362605
50.4182009362664
50.4182009362677
50.4182009362674
50.4182009362674
50.4182009362679
50.4182009362691
50.4182009362709
50.4182009362732
50.4182009362758
50.4182009362788
50.4182009362822
50.4182009362858
50.4182009362896
50.4182009362937
50.4182009362979
50.4182009363024
50.418200936307
50.4182009363117
50.4182009363166
50.4182009363216
50.4182009363266
50.4182009363318
50.418200936337
50.4182009363422
50.4182009363474
50.4182009363527
50.4182009363578
50.4182009363629
50.418200936368
50.4182009363729
50.4182009363778
50.4182009363825
50.418200936387
50.4182009363914
50.4182009363956
50.4182009363997
50.4182009364036
50.4182009364074
50.4182009364112
50.418200936415
50.4182009364189
50.4182009364228
50.4182009364266
50.4182009364285
50.4182009364249
3501.26395391756
31511.3755852543
31511.3763029594
3501.26403366244
50.4182020847509
50.4182020847556
50.4182020847559
50.4182020847547
50.4182020847538
50.4182020847537
50.4182020847542
50.4182020847554
50.4182020847572
50.4182020847595
50.4182020847622
50.4182020847652
50.4182020847686
50.4182020847723
50.4182020847763
50.4182020847804
50.4182020847848
50.4182020847894
50.4182020847941
50.418202084799
50.4182020848039
50.418202084809
50.4182020848142
50.4182020848194
50.4182020848247
50.41820208483
50.4182020848353
50.4182020848405
50.4182020848457
50.4182020848509
50.418202084856
50.418202084861
50.4182020848658
50.4182020848706
50.4182020848753
50.4182020848798
50.4182020848842
50.4182020848886
50.418202084893
50.4182020848973
50.4182020849018
50.4182020849065
50.4182020849112
50.418202084916
50.4182020849188
50.4182020849164
3501.26403367402
31511.3763030635
31511.3770207672
3501.26411341881
50.4182032332416
50.418203233245
50.4182032332443
50.4182032332421
50.4182032332404
50.4182032332395
50.4182032332395
50.4182032332401
50.4182032332415
50.4182032332434
50.4182032332458
50.4182032332486
50.4182032332518
50.4182032332553
50.4182032332591
50.4182032332632
50.4182032332675
50.418203233272
50.4182032332767
50.4182032332815
50.4182032332866
50.4182032332917
50.4182032332969
50.4182032333021
50.4182032333074
50.4182032333128
50.4182032333181
50.4182032333235
50.4182032333288
50.418203233334
50.4182032333392
50.4182032333444
50.4182032333495
50.4182032333544
50.4182032333594