/*--------------------------------*- C++ -*----------------------------------*\
  =========                 |
  \\      /  F ield         | OpenFOAM: The Open Source CFD Toolbox
   \\    /   O peration     | Website:  https://openfoam.org
    \\  /    A nd           | Version:  10
     \\/     M anipulation  |
\*---------------------------------------------------------------------------*/
FoamFile
{
    format      ascii;
    class       volScalarField;
    location    "6.6";
    object      p;
}
// * * * * * * * * * * * * * * * * * * * * * * * * * * * * * * * * * * * * * //

dimensions      [1 -1 -2 0 0 0 0];

internalField   nonuniform List<scalar> 
2500
(
100094.978466721
100094.978467657
100094.97846862
100094.97846946
100094.978470027
100094.978470409
100094.978470646
100094.978470793
100094.978470881
100094.978470931
100094.978470959
100094.978470972
100094.978470976
100094.978470975
100094.978470971
100094.978470965
100094.978470958
100094.97847095
100094.978470942
100094.978470933
100094.978470925
100094.978470917
100094.978470909
100094.978470901
100094.978470894
100094.978470887
100094.97847088
100094.978470874
100094.978470868
100094.978470862
100094.978470857
100094.978470851
100094.978470846
100094.978470841
100094.978470835
100094.978470829
100094.97847082
100094.978470809
100094.978470793
100094.978470769
100094.978470731
100094.97847067
100094.978470573
100094.978470418
100094.978470175
100094.978469788
100094.978469216
100094.978468368
100094.978467391
100094.978466456
100094.976217851
100094.976218566
100094.976219339
100094.976220059
100094.976220558
100094.976220904
100094.976221122
100094.976221259
100094.976221342
100094.976221389
100094.976221415
100094.976221428
100094.976221432
100094.976221431
100094.976221427
100094.976221421
100094.976221414
100094.976221406
100094.976221398
100094.97622139
100094.976221381
100094.976221373
100094.976221365
100094.976221358
100094.97622135
100094.976221343
100094.976221337
100094.97622133
100094.976221324
100094.976221319
100094.976221313
100094.976221308
100094.976221303
100094.976221297
100094.976221291
100094.976221285
100094.976221276
100094.976221265
100094.97622125
100094.976221226
100094.976221189
100094.976221131
100094.97622104
100094.976220895
100094.97622067
100094.976220319
100094.976219814
100094.976219086
100094.9762183
100094.976217586
100094.973961228
100094.973961735
100094.973962216
100094.973962725
100094.973963086
100094.973963349
100094.973963518
100094.973963627
100094.973963693
100094.973963732
100094.973963754
100094.973963764
100094.973963767
100094.973963766
100094.973963762
100094.973963756
100094.973963749
100094.973963741
100094.973963733
100094.973963724
100094.973963716
100094.973963708
100094.9739637
100094.973963693
100094.973963685
100094.973963678
100094.973963672
100094.973963665
100094.973963659
100094.973963654
100094.973963648
100094.973963643
100094.973963637
100094.973963632
100094.973963626
100094.97396362
100094.973963612
100094.973963601
100094.973963586
100094.973963565
100094.973963533
100094.973963484
100094.973963409
100094.973963291
100094.973963115
100094.973962846
100094.973962479
100094.973961962
100094.973961468
100094.973960956
100094.971697771
100094.971698037
100094.971698234
100094.971698505
100094.971698702
100094.971698859
100094.971698964
100094.971699035
100094.97169908
100094.971699107
100094.971699122
100094.971699129
100094.971699131
100094.971699128
100094.971699124
100094.971699118
100094.97169911
100094.971699103
100094.971699095
100094.971699086
100094.971699078
100094.97169907
100094.971699062
100094.971699055
100094.971699047
100094.97169904
100094.971699034
100094.971699027
100094.971699021
100094.971699016
100094.97169901
100094.971699005
100094.971699
100094.971698994
100094.971698988
100094.971698982
100094.971698974
100094.971698965
100094.971698952
100094.971698934
100094.971698909
100094.971698872
100094.971698818
100094.971698738
100094.971698626
100094.971698463
100094.971698258
100094.971697979
100094.971697772
100094.971697495
100094.969428663
100094.969428713
100094.969428698
100094.969428771
100094.96942883
100094.969428894
100094.969428942
100094.969428978
100094.969429003
100094.969429018
100094.969429026
100094.96942903
100094.969429029
100094.969429026
100094.96942902
100094.969429014
100094.969429007
100094.969428999
100094.969428991
100094.969428983
100094.969428974
100094.969428966
100094.969428959
100094.969428951
100094.969428944
100094.969428937
100094.96942893
100094.969428924
100094.969428918
100094.969428912
100094.969428906
100094.969428901
100094.969428896
100094.969428891
100094.969428885
100094.969428879
100094.969428872
100094.969428864
100094.969428853
100094.969428839
100094.969428821
100094.969428796
100094.969428762
100094.969428718
100094.969428662
100094.969428591
100094.969428525
100094.969428444
100094.96942845
100094.969428387
100094.967155274
100094.967155168
100094.967155024
100094.967154958
100094.967154918
100094.967154912
100094.967154915
100094.967154923
100094.967154931
100094.967154936
100094.967154938
100094.967154938
100094.967154935
100094.967154931
100094.967154925
100094.967154918
100094.96715491
100094.967154902
100094.967154894
100094.967154886
100094.967154878
100094.96715487
100094.967154862
100094.967154854
100094.967154847
100094.96715484
100094.967154833
100094.967154827
100094.967154821
100094.967154815
100094.96715481
100094.967154805
100094.9671548
100094.967154794
100094.967154789
100094.967154784
100094.967154777
100094.96715477
100094.967154762
100094.967154752
100094.967154739
100094.967154725
100094.967154708
100094.967154692
100094.967154681
100094.96715468
100094.967154713
100094.967154772
100094.96715491
100094.967155003
100094.964878953
100094.964878765
100094.964878562
100094.964878415
100094.964878316
100094.964878264
100094.964878236
100094.964878223
100094.964878217
100094.964878214
100094.964878211
100094.964878207
100094.964878202
100094.964878197
100094.96487819
100094.964878183
100094.964878175
100094.964878167
100094.964878158
100094.96487815
100094.964878142
100094.964878134
100094.964878126
100094.964878118
100094.964878111
100094.964878104
100094.964878098
100094.964878091
100094.964878085
100094.96487808
100094.964878074
100094.964878069
100094.964878064
100094.964878059
100094.964878054
100094.964878049
100094.964878044
100094.964878038
100094.964878032
100094.964878025
100094.964878018
100094.964878012
100094.964878009
100094.964878014
100094.964878034
100094.964878079
100094.964878172
100094.964878313
100094.96487851
100094.964878689
100094.962600798
100094.962600587
100094.962600375
100094.962600193
100094.962600066
100094.962599987
100094.96259994
100094.962599913
100094.962599897
100094.962599887
100094.962599879
100094.962599873
100094.962599866
100094.962599859
100094.962599851
100094.962599843
100094.962599835
100094.962599827
100094.962599818
100094.96259981
100094.962599802
100094.962599794
100094.962599786
100094.962599778
100094.962599771
100094.962599764
100094.962599758
100094.962599751
100094.962599745
100094.96259974
100094.962599734
100094.962599729
100094.962599725
100094.96259972
100094.962599715
100094.962599711
100094.962599706
100094.962599702
100094.962599698
100094.962599694
100094.962599692
100094.962599693
100094.9625997
100094.962599719
100094.962599759
100094.962599831
100094.962599952
100094.962600128
100094.962600335
100094.96260054
100094.960321589
100094.960321392
100094.960321198
100094.960321012
100094.960320877
100094.960320787
100094.960320728
100094.960320692
100094.960320669
100094.960320653
100094.960320642
100094.960320633
100094.960320624
100094.960320616
100094.960320607
100094.960320599
100094.96032059
100094.960320582
100094.960320573
100094.960320565
100094.960320557
100094.960320548
100094.960320541
100094.960320533
100094.960320526
100094.960320519
100094.960320512
100094.960320506
100094.9603205
100094.960320495
100094.960320489
100094.960320484
100094.96032048
100094.960320475
100094.960320471
100094.960320467
100094.960320464
100094.960320461
100094.960320458
100094.960320457
100094.960320459
100094.960320465
100094.96032048
100094.960320508
100094.960320559
100094.960320643
100094.960320773
100094.960320953
100094.960321143
100094.960321336
100094.958041822
100094.958041657
100094.958041491
100094.958041319
100094.958041189
100094.958041095
100094.958041032
100094.95804099
100094.958040962
100094.958040942
100094.958040928
100094.958040916
100094.958040906
100094.958040896
100094.958040887
100094.958040878
100094.958040869
100094.95804086
100094.958040851
100094.958040843
100094.958040835
100094.958040826
100094.958040819
100094.958040811
100094.958040804
100094.958040797
100094.95804079
100094.958040784
100094.958040778
100094.958040773
100094.958040767
100094.958040763
100094.958040758
100094.958040754
100094.95804075
100094.958040747
100094.958040744
100094.958040742
100094.958040742
100094.958040743
100094.958040748
100094.958040759
100094.958040778
100094.958040813
100094.958040869
100094.958040956
100094.958041081
100094.958041249
100094.958041411
100094.958041573
100094.955761786
100094.955761656
100094.95576152
100094.955761368
100094.955761249
100094.955761158
100094.955761094
100094.955761049
100094.955761017
100094.955760995
100094.955760978
100094.955760964
100094.955760952
100094.955760941
100094.955760932
100094.955760922
100094.955760913
100094.955760904
100094.955760895
100094.955760886
100094.955760878
100094.95576087
100094.955760862
100094.955760854
100094.955760847
100094.95576084
100094.955760834
100094.955760827
100094.955760821
100094.955760816
100094.955760811
100094.955760806
100094.955760802
100094.955760798
100094.955760795
100094.955760792
100094.95576079
100094.955760789
100094.95576079
100094.955760794
100094.955760801
100094.955760815
100094.955760838
100094.955760876
100094.955760933
100094.955761018
100094.955761133
100094.955761281
100094.955761414
100094.955761542
100094.953481636
100094.953481537
100094.953481427
100094.953481298
100094.953481191
100094.953481106
100094.953481043
100094.953480997
100094.953480963
100094.953480938
100094.953480919
100094.953480904
100094.953480891
100094.95348088
100094.953480869
100094.953480859
100094.953480849
100094.95348084
100094.953480831
100094.953480822
100094.953480814
100094.953480806
100094.953480798
100094.95348079
100094.953480783
100094.953480776
100094.95348077
100094.953480763
100094.953480758
100094.953480752
100094.953480747
100094.953480743
100094.953480738
100094.953480735
100094.953480732
100094.95348073
100094.953480729
100094.953480729
100094.953480731
100094.953480736
100094.953480745
100094.953480761
100094.953480787
100094.953480826
100094.953480882
100094.953480962
100094.953481064
100094.953481191
100094.953481298
100094.953481396
100094.951201446
100094.951201372
100094.951201284
100094.951201175
100094.951201081
100094.951201003
100094.951200943
100094.951200897
100094.951200863
100094.951200837
100094.951200816
100094.9512008
100094.951200786
100094.951200773
100094.951200762
100094.951200752
100094.951200742
100094.951200732
100094.951200723
100094.951200714
100094.951200706
100094.951200697
100094.951200689
100094.951200682
100094.951200675
100094.951200668
100094.951200661
100094.951200655
100094.951200649
100094.951200644
100094.951200639
100094.951200635
100094.951200631
100094.951200627
100094.951200625
100094.951200623
100094.951200622
100094.951200623
100094.951200627
100094.951200633
100094.951200644
100094.951200661
100094.951200688
100094.951200727
100094.95120078
100094.951200854
100094.951200943
100094.95120105
100094.951201136
100094.951201209
100094.948921249
100094.948921194
100094.948921124
100094.948921033
100094.948920952
100094.948920881
100094.948920824
100094.94892078
100094.948920745
100094.948920719
100094.948920697
100094.94892068
100094.948920665
100094.948920652
100094.94892064
100094.948920629
100094.948920619
100094.948920609
100094.9489206
100094.948920591
100094.948920583
100094.948920574
100094.948920566
100094.948920559
100094.948920552
100094.948920545
100094.948920538
100094.948920532
100094.948920526
100094.948920521
100094.948920516
100094.948920512
100094.948920508
100094.948920505
100094.948920503
100094.948920501
100094.948920501
100094.948920503
100094.948920507
100094.948920514
100094.948920526
100094.948920545
100094.948920571
100094.948920609
100094.948920659
100094.948920725
100094.948920803
100094.948920892
100094.948920961
100094.948921017
100094.946641061
100094.946641019
100094.946640963
100094.946640887
100094.946640817
100094.946640753
100094.946640701
100094.946640658
100094.946640624
100094.946640597
100094.946640575
100094.946640557
100094.946640542
100094.946640528
100094.946640516
100094.946640505
100094.946640495
100094.946640485
100094.946640475
100094.946640466
100094.946640458
100094.94664045
100094.946640442
100094.946640434
100094.946640427
100094.94664042
100094.946640414
100094.946640407
100094.946640402
100094.946640396
100094.946640392
100094.946640387
100094.946640384
100094.946640381
100094.946640379
100094.946640378
100094.946640378
100094.94664038
100094.946640385
100094.946640393
100094.946640405
100094.946640424
100094.94664045
100094.946640486
100094.946640532
100094.946640591
100094.946640658
100094.946640732
100094.946640789
100094.946640831
100094.944360884
100094.944360852
100094.944360807
100094.944360744
100094.944360683
100094.944360627
100094.944360578
100094.944360538
100094.944360505
100094.944360478
100094.944360456
100094.944360438
100094.944360422
100094.944360408
100094.944360396
100094.944360384
100094.944360374
100094.944360364
100094.944360354
100094.944360345
100094.944360337
100094.944360328
100094.944360321
100094.944360313
100094.944360306
100094.944360299
100094.944360292
100094.944360286
100094.944360281
100094.944360275
100094.944360271
100094.944360266
100094.944360263
100094.94436026
100094.944360258
100094.944360258
100094.944360258
100094.944360261
100094.944360266
100094.944360274
100094.944360287
100094.944360305
100094.94436033
100094.944360364
100094.944360406
100094.944360459
100094.944360516
100094.944360578
100094.944360624
100094.944360657
100094.942080719
100094.942080695
100094.942080658
100094.942080605
100094.942080553
100094.942080503
100094.942080459
100094.942080421
100094.94208039
100094.942080364
100094.942080342
100094.942080323
100094.942080307
100094.942080293
100094.942080281
100094.942080269
100094.942080258
100094.942080248
100094.942080239
100094.94208023
100094.942080221
100094.942080213
100094.942080205
100094.942080197
100094.94208019
100094.942080183
100094.942080177
100094.942080171
100094.942080165
100094.94208016
100094.942080155
100094.942080151
100094.942080147
100094.942080145
100094.942080143
100094.942080142
100094.942080143
100094.942080146
100094.942080152
100094.94208016
100094.942080173
100094.94208019
100094.942080214
100094.942080245
100094.942080283
100094.942080329
100094.942080378
100094.94208043
100094.942080468
100094.942080494
100094.939800565
100094.939800547
100094.939800516
100094.939800473
100094.939800428
100094.939800384
100094.939800344
100094.939800308
100094.939800279
100094.939800253
100094.939800232
100094.939800213
100094.939800197
100094.939800183
100094.939800171
100094.939800159
100094.939800148
100094.939800138
100094.939800129
100094.939800119
100094.939800111
100094.939800102
100094.939800095
100094.939800087
100094.93980008
100094.939800073
100094.939800066
100094.93980006
100094.939800055
100094.939800049
100094.939800045
100094.939800041
100094.939800037
100094.939800035
100094.939800033
100094.939800033
100094.939800034
100094.939800037
100094.939800042
100094.93980005
100094.939800063
100094.939800079
100094.939800102
100094.93980013
100094.939800164
100094.939800204
100094.939800246
100094.939800289
100094.939800321
100094.939800341
100094.937520422
100094.937520407
100094.937520382
100094.937520346
100094.937520307
100094.937520268
100094.937520232
100094.937520199
100094.937520171
100094.937520147
100094.937520126
100094.937520108
100094.937520092
100094.937520078
100094.937520066
100094.937520054
100094.937520043
100094.937520033
100094.937520023
100094.937520014
100094.937520006
100094.937519997
100094.93751999
100094.937519982
100094.937519975
100094.937519968
100094.937519961
100094.937519955
100094.93751995
100094.937519944
100094.93751994
100094.937519936
100094.937519932
100094.93751993
100094.937519928
100094.937519928
100094.937519929
100094.937519932
100094.937519937
100094.937519945
100094.937519957
100094.937519973
100094.937519993
100094.937520019
100094.937520049
100094.937520084
100094.93752012
100094.937520155
100094.937520181
100094.937520198
100094.935240286
100094.935240275
100094.935240254
100094.935240224
100094.93524019
100094.935240156
100094.935240124
100094.935240094
100094.935240068
100094.935240044
100094.935240024
100094.935240007
100094.935239991
100094.935239977
100094.935239965
100094.935239953
100094.935239942
100094.935239932
100094.935239923
100094.935239914
100094.935239905
100094.935239897
100094.935239889
100094.935239881
100094.935239874
100094.935239867
100094.935239861
100094.935239855
100094.935239849
100094.935239844
100094.935239839
100094.935239835
100094.935239832
100094.935239829
100094.935239827
100094.935239827
100094.935239828
100094.935239831
100094.935239836
100094.935239844
100094.935239854
100094.935239869
100094.935239888
100094.935239911
100094.935239938
100094.935239968
100094.935239998
100094.935240028
100094.935240049
100094.935240062
100094.932960157
100094.932960148
100094.932960131
100094.932960106
100094.932960077
100094.932960047
100094.932960018
100094.932959991
100094.932959966
100094.932959945
100094.932959925
100094.932959908
100094.932959893
100094.93295988
100094.932959867
100094.932959856
100094.932959845
100094.932959835
100094.932959826
100094.932959817
100094.932959808
100094.9329598
100094.932959792
100094.932959784
100094.932959777
100094.93295977
100094.932959764
100094.932959758
100094.932959752
100094.932959747
100094.932959742
100094.932959738
100094.932959734
100094.932959732
100094.93295973
100094.93295973
100094.932959731
100094.932959733
100094.932959738
100094.932959745
100094.932959755
100094.932959768
100094.932959785
100094.932959806
100094.932959829
100094.932959855
100094.932959881
100094.932959905
100094.932959923
100094.932959933
100094.930680034
100094.930680027
100094.930680013
100094.930679992
100094.930679967
100094.930679941
100094.930679915
100094.93067989
100094.930679868
100094.930679847
100094.930679829
100094.930679813
100094.930679798
100094.930679785
100094.930679772
100094.930679761
100094.930679751
100094.930679741
100094.930679731
100094.930679722
100094.930679714
100094.930679706
100094.930679698
100094.93067969
100094.930679683
100094.930679676
100094.93067967
100094.930679664
100094.930679658
100094.930679653
100094.930679648
100094.930679644
100094.93067964
100094.930679637
100094.930679636
100094.930679635
100094.930679636
100094.930679638
100094.930679642
100094.930679649
100094.930679658
100094.93067967
100094.930679685
100094.930679703
100094.930679723
100094.930679745
100094.930679767
100094.930679787
100094.930679801
100094.93067981
100094.928399915
100094.92839991
100094.928399898
100094.92839988
100094.928399859
100094.928399836
100094.928399813
100094.928399791
100094.92839977
100094.928399751
100094.928399734
100094.928399719
100094.928399705
100094.928399692
100094.92839968
100094.928399669
100094.928399658
100094.928399649
100094.928399639
100094.92839963
100094.928399622
100094.928399614
100094.928399606
100094.928399599
100094.928399591
100094.928399585
100094.928399578
100094.928399572
100094.928399566
100094.928399561
100094.928399556
100094.928399552
100094.928399548
100094.928399545
100094.928399543
100094.928399542
100094.928399543
100094.928399545
100094.928399548
100094.928399554
100094.928399562
100094.928399573
100094.928399586
100094.928399602
100094.92839962
100094.928399638
100094.928399656
100094.928399672
100094.928399684
100094.928399691
100094.9261198
100094.926119796
100094.926119787
100094.926119772
100094.926119754
100094.926119734
100094.926119713
100094.926119693
100094.926119675
100094.926119657
100094.926119641
100094.926119626
100094.926119613
100094.9261196
100094.926119589
100094.926119578
100094.926119568
100094.926119558
100094.926119549
100094.92611954
100094.926119532
100094.926119524
100094.926119516
100094.926119509
100094.926119502
100094.926119495
100094.926119488
100094.926119482
100094.926119476
100094.926119471
100094.926119466
100094.926119461
100094.926119458
100094.926119455
100094.926119453
100094.926119451
100094.926119451
100094.926119453
100094.926119456
100094.926119461
100094.926119468
100094.926119477
100094.926119489
100094.926119502
100094.926119517
100094.926119533
100094.926119548
100094.926119561
100094.92611957
100094.926119575
100094.923839688
100094.923839685
100094.923839677
100094.923839665
100094.92383965
100094.923839633
100094.923839615
100094.923839597
100094.92383958
100094.923839564
100094.923839549
100094.923839535
100094.923839522
100094.92383951
100094.923839499
100094.923839489
100094.923839479
100094.923839469
100094.92383946
100094.923839452
100094.923839443
100094.923839435
100094.923839428
100094.92383942
100094.923839413
100094.923839406
100094.9238394
100094.923839393
100094.923839388
100094.923839382
100094.923839377
100094.923839373
100094.923839369
100094.923839366
100094.923839363
100094.923839362
100094.923839361
100094.923839362
100094.923839365
100094.923839369
100094.923839375
100094.923839383
100094.923839393
100094.923839404
100094.923839417
100094.92383943
100094.923839441
100094.923839452
100094.923839459
100094.923839463
100094.921559578
100094.921559576
100094.92155957
100094.92155956
100094.921559548
100094.921559533
100094.921559517
100094.921559501
100094.921559486
100094.921559471
100094.921559457
100094.921559444
100094.921559432
100094.921559421
100094.92155941
100094.9215594
100094.921559391
100094.921559381
100094.921559373
100094.921559364
100094.921559356
100094.921559348
100094.92155934
100094.921559333
100094.921559326
100094.921559319
100094.921559312
100094.921559306
100094.9215593
100094.921559295
100094.92155929
100094.921559285
100094.921559281
100094.921559277
100094.921559275
100094.921559273
100094.921559272
100094.921559273
100094.921559274
100094.921559278
100094.921559283
100094.921559289
100094.921559297
100094.921559307
100094.921559317
100094.921559327
100094.921559337
100094.921559345
100094.92155935
100094.921559353
100094.91927947
100094.919279469
100094.919279465
100094.919279457
100094.919279446
100094.919279434
100094.91927942
100094.919279406
100094.919279393
100094.919279379
100094.919279367
100094.919279355
100094.919279343
100094.919279332
100094.919279322
100094.919279313
100094.919279303
100094.919279294
100094.919279286
100094.919279277
100094.919279269
100094.919279261
100094.919279254
100094.919279247
100094.919279239
100094.919279233
100094.919279226
100094.91927922
100094.919279214
100094.919279208
100094.919279203
100094.919279198
100094.919279194
100094.91927919
100094.919279187
100094.919279185
100094.919279184
100094.919279184
100094.919279185
100094.919279187
100094.919279191
100094.919279196
100094.919279203
100094.91927921
100094.919279218
100094.919279226
100094.919279234
100094.91927924
100094.919279243
100094.919279245
100094.916999364
100094.916999363
100094.91699936
100094.916999355
100094.916999346
100094.916999336
100094.916999324
100094.916999312
100094.9169993
100094.916999288
100094.916999277
100094.916999265
100094.916999255
100094.916999245
100094.916999235
100094.916999226
100094.916999217
100094.916999208
100094.9169992
100094.916999191
100094.916999183
100094.916999176
100094.916999168
100094.916999161
100094.916999154
100094.916999147
100094.91699914
100094.916999134
100094.916999128
100094.916999122
100094.916999117
100094.916999112
100094.916999107
100094.916999104
100094.9169991
100094.916999098
100094.916999096
100094.916999095
100094.916999096
100094.916999097
100094.9169991
100094.916999104
100094.916999109
100094.916999114
100094.916999121
100094.916999127
100094.916999132
100094.916999136
100094.916999138
100094.916999138
100094.914719259
100094.914719259
100094.914719258
100094.914719253
100094.914719247
100094.914719239
100094.914719229
100094.914719219
100094.914719208
100094.914719197
100094.914719187
100094.914719177
100094.914719167
100094.914719157
100094.914719148
100094.914719139
100094.914719131
100094.914719122
100094.914719114
100094.914719106
100094.914719098
100094.914719091
100094.914719083
100094.914719076
100094.914719069
100094.914719062
100094.914719055
100094.914719049
100094.914719043
100094.914719037
100094.914719031
100094.914719026
100094.914719022
100094.914719017
100094.914719014
100094.914719011
100094.914719009
100094.914719007
100094.914719007
100094.914719008
100094.914719009
100094.914719012
100094.914719015
100094.914719019
100094.914719024
100094.914719028
100094.914719031
100094.914719033
100094.914719034
100094.914719033
100094.912439155
100094.912439156
100094.912439156
100094.912439153
100094.912439149
100094.912439142
100094.912439134
100094.912439126
100094.912439116
100094.912439107
100094.912439098
100094.912439089
100094.912439079
100094.912439071
100094.912439062
100094.912439053
100094.912439045
100094.912439037
100094.912439029
100094.912439021
100094.912439014
100094.912439006
100094.912438999
100094.912438991
100094.912438984
100094.912438978
100094.912438971
100094.912438964
100094.912438958
100094.912438952
100094.912438947
100094.912438941
100094.912438936
100094.912438932
100094.912438928
100094.912438925
100094.912438922
100094.91243892
100094.912438919
100094.912438918
100094.912438919
100094.91243892
100094.912438922
100094.912438925
100094.912438927
100094.912438929
100094.912438931
100094.912438931
100094.912438931
100094.91243893
100094.910159051
100094.910159054
100094.910159055
100094.910159054
100094.910159051
100094.910159046
100094.91015904
100094.910159033
100094.910159025
100094.910159017
100094.910159009
100094.910159001
100094.910158992
100094.910158984
100094.910158976
100094.910158968
100094.91015896
100094.910158952
100094.910158945
100094.910158937
100094.910158929
100094.910158922
100094.910158915
100094.910158908
100094.910158901
100094.910158894
100094.910158887
100094.91015888
100094.910158874
100094.910158868
100094.910158862
100094.910158857
100094.910158852
100094.910158847
100094.910158843
100094.910158839
100094.910158836
100094.910158833
100094.910158831
100094.91015883
100094.910158829
100094.910158829
100094.91015883
100094.910158831
100094.910158832
100094.910158832
100094.910158832
100094.910158831
100094.910158829
100094.910158827
100094.907878949
100094.907878953
100094.907878955
100094.907878956
100094.907878954
100094.907878951
100094.907878947
100094.907878941
100094.907878935
100094.907878928
100094.907878921
100094.907878913
100094.907878906
100094.907878898
100094.907878891
100094.907878883
100094.907878876
100094.907878868
100094.907878861
100094.907878853
100094.907878846
100094.907878839
100094.907878831
100094.907878824
100094.907878817
100094.90787881
100094.907878804
100094.907878797
100094.907878791
100094.907878784
100094.907878778
100094.907878773
100094.907878767
100094.907878762
100094.907878758
100094.907878753
100094.90787875
100094.907878746
100094.907878744
100094.907878742
100094.90787874
100094.907878739
100094.907878738
100094.907878737
100094.907878737
100094.907878736
100094.907878734
100094.907878731
100094.907878728
100094.907878724
100094.905598847
100094.905598852
100094.905598855
100094.905598858
100094.905598858
100094.905598857
100094.905598854
100094.90559885
100094.905598845
100094.905598839
100094.905598833
100094.905598826
100094.90559882
100094.905598813
100094.905598806
100094.905598799
100094.905598791
100094.905598784
100094.905598777
100094.90559877
100094.905598763
100094.905598755
100094.905598748
100094.905598741
100094.905598734
100094.905598727
100094.905598721
100094.905598714
100094.905598707
100094.905598701
100094.905598695
100094.905598689
100094.905598683
100094.905598678
100094.905598673
100094.905598668
100094.905598664
100094.90559866
100094.905598657
100094.905598654
100094.905598651
100094.905598649
100094.905598647
100094.905598645
100094.905598642
100094.90559864
100094.905598636
100094.905598632
100094.905598628
100094.905598623
100094.903318746
100094.903318752
100094.903318757
100094.903318761
100094.903318763
100094.903318763
100094.903318762
100094.903318759
100094.903318755
100094.903318751
100094.903318746
100094.90331874
100094.903318734
100094.903318728
100094.903318721
100094.903318714
100094.903318708
100094.903318701
100094.903318694
100094.903318687
100094.90331868
100094.903318673
100094.903318666
100094.903318659
100094.903318652
100094.903318645
100094.903318638
100094.903318631
100094.903318625
100094.903318618
100094.903318612
100094.903318606
100094.9033186
100094.903318594
100094.903318589
100094.903318584
100094.903318579
100094.903318574
100094.90331857
100094.903318566
100094.903318563
100094.903318559
100094.903318556
100094.903318552
100094.903318549
100094.903318544
100094.90331854
100094.903318533
100094.903318528
100094.903318522
100094.901038645
100094.901038653
100094.901038659
100094.901038665
100094.901038669
100094.90103867
100094.90103867
100094.901038669
100094.901038666
100094.901038663
100094.901038659
100094.901038654
100094.901038649
100094.901038643
100094.901038637
100094.901038631
100094.901038624
100094.901038618
100094.901038611
100094.901038604
100094.901038597
100094.90103859
100094.901038583
100094.901038576
100094.901038569
100094.901038563
100094.901038556
100094.901038549
100094.901038542
100094.901038536
100094.901038529
100094.901038523
100094.901038517
100094.901038511
100094.901038505
100094.901038499