/*--------------------------------*- C++ -*----------------------------------*\
  =========                 |
  \\      /  F ield         | OpenFOAM: The Open Source CFD Toolbox
   \\    /   O peration     | Website:  https://openfoam.org
    \\  /    A nd           | Version:  10
     \\/     M anipulation  |
\*---------------------------------------------------------------------------*/
FoamFile
{
    format      ascii;
    class       volScalarField;
    location    "6.6";
    object      p_rgh;
}
// * * * * * * * * * * * * * * * * * * * * * * * * * * * * * * * * * * * * * //

dimensions      [1 -1 -2 0 0 0 0];

internalField   nonuniform List<scalar> 
2500
(
95.0919018177228
95.091904907109
95.0919104450149
95.0919145869266
95.0919171555142
95.0919186767278
95.0919195406896
95.0919200222706
95.0919202814548
95.0919204160164
95.0919204832171
95.0919205142854
95.0919205264654
95.0919205290265
95.09192052648
95.0919205212995
95.0919205144455
95.0919205068785
95.0919204989623
95.0919204908278
95.0919204826932
95.0919204746751
95.0919204668608
95.0919204592501
95.0919204519887
95.0919204450329
95.0919204383681
95.0919204320671
95.0919204260572
95.0919204203237
95.0919204148231
95.0919204094243
95.0919204040692
95.0919203984959
95.091920392355
95.0919203850208
95.0919203751546
95.0919203604426
95.0919203358935
95.0919202926598
95.0919202135119
95.0919200669305
95.0919197973708
95.0919193083246
95.0919184410304
95.0919169223489
95.0919143525971
95.0919101859326
95.0919045992341
95.0919015941472
95.0922516337596
95.0922638822958
95.0922782087437
95.0922885203618
95.0922949673695
95.0922988064267
95.0923010124097
95.092302245379
95.0923029088735
95.0923032517167
95.0923034210427
95.0923034999869
95.0923035336309
95.0923035453307
95.092303546553
95.0923035427841
95.0923035365413
95.092303529178
95.0923035213345
95.0923035132291
95.0923035051092
95.0923034971202
95.0923034893058
95.0923034817242
95.0923034744483
95.0923034674925
95.0923034608568
95.0923034545413
95.0923034485313
95.0923034427979
95.0923034372681
95.0923034318548
95.0923034263687
95.0923034205189
95.0923034137377
95.0923034046718
95.0923033906583
95.0923033659637
95.0923033187282
95.092303225596
95.092303041456
95.0923026838136
95.0923020080663
95.0923007692618
95.0922985678917
95.0922947428335
95.0922882948071
95.0922779135435
95.0922634425224
95.0922515158454
95.0926141401433
95.0926349040674
95.0926550158765
95.0926689658227
95.09267758223
95.0926826728391
95.0926855846337
95.0926872057462
95.0926880756742
95.0926885241061
95.0926887449896
95.092688847988
95.0926888923714
95.0926889085822
95.0926889116236
95.092688908524
95.0926889025577
95.0926888952963
95.0926888874383
95.0926888793474
95.0926888712565
95.0926888632675
95.0926888554532
95.0926888479007
95.0926888406248
95.0926888336544
95.0926888270187
95.0926888207032
95.0926888146932
95.0926888089452
95.0926888034301
95.0926887980022
95.0926887924725
95.0926887865207
95.092688779434
95.0926887696405
95.0926887536771
95.0926887242531
95.0926886660018
95.0926885483059
95.09268831191
95.0926878479804
95.0926869653194
95.0926853387646
95.0926824330527
95.0926773553947
95.0926687220344
95.0926546434494
95.0926342567254
95.0926137203787
95.0929427567025
95.0929675926163
95.0929885135265
95.0930024218833
95.0930107516469
95.093015539489
95.0930182130978
95.0930196721456
95.0930204424367
95.0930208342616
95.0930210250081
95.0930211128289
95.0930211499508
95.0930211628292
95.0930211643426
95.0930211605883
95.0930211543309
95.0930211469386
95.0930211390223
95.0930211309023
95.0930211227969
95.0930211148079
95.0930211069935
95.0930210994557
95.0930210921651
95.0930210852093
95.0930210785737
95.0930210722436
95.0930210662336
95.0930210605147
95.0930210549996
95.0930210496153
95.0930210441729
95.0930210383813
95.0930210316437
95.0930210226506
95.093021008448
95.0930209828366
95.0930209326471
95.0930208312348
95.0930206263438
95.0930202203454
95.0930194376269
95.0930179711286
95.0930152975634
95.0930105099687
95.0930021390377
95.0929880530166
95.0929667474411
95.0929418273881
95.0932084673841
95.0932324657624
95.0932507093676
95.0932623342524
95.0932690706832
95.0932728308835
95.0932748780033
95.0932759727875
95.0932765417383
95.093276827567
95.0932769650972
95.0932770273357
95.0932770526269
95.0932770601939
95.093277059379
95.093277054606
95.0932770478976
95.0932770403015
95.0932770322979
95.0932770241488
95.0932770160143
95.0932770080108
95.0932770002109
95.0932769926585
95.0932769853825
95.0932769784267
95.0932769717911
95.093276965461
95.0932769594656
95.0932769537467
95.0932769482752
95.0932769429492
95.0932769376377
95.0932769320789
95.0932769258652
95.0932769180363
95.0932769064384
95.0932768866478
95.0932768491475
95.0932767746272
95.0932766247133
95.0932763266028
95.0932757464179
95.093274643179
95.0932725911989
95.0932688211615
95.0932620297535
95.0932502088835
95.0932315233367
95.0932071321877
95.0934027812327
95.0934226201789
95.0934365145949
95.0934450048371
95.0934497613489
95.0934523370961
95.0934537029389
95.0934544185147
95.09345478451
95.0934549658996
95.093455051785
95.0934550894162
95.0934551033424
95.093455105758
95.0934551026439
95.0934550968086
95.0934550896636
95.0934550818347
95.0934550737002
95.0934550655074
95.0934550573584
95.0934550493403
95.0934550415404
95.093455033988
95.0934550267411
95.0934550197708
95.0934550131351
95.0934550068341
95.0934550008533
95.0934549951344
95.093454989692
95.0934549844533
95.0934549792582
95.0934549739904
95.0934549683298
95.0934549616504
95.09345495257
95.0934549382655
95.093454912756
95.0934548638179
95.0934547668585
95.0934545747878
95.0934541988536
95.0934534749249
95.0934521019808
95.0934495126276
95.0934447017935
95.0934360304382
95.0934217062313
95.0934012989019
95.0935327264597
95.0935472064011
95.0935566667467
95.0935622066609
95.0935652024345
95.0935667720041
95.0935675801884
95.093567993521
95.093568200653
95.0935683010757
95.0935683470307
95.0935683655116
95.0935683704447
95.0935683686694
95.0935683636053
95.0935683568241
95.0935683491989
95.0935683411517
95.0935683329008
95.0935683246353
95.0935683164571
95.0935683084244
95.0935683006246
95.0935682930867
95.0935682858253
95.0935682788695
95.0935682722484
95.0935682659474
95.0935682599811
95.0935682542913
95.0935682489071
95.0935682437412
95.0935682387208
95.093568233744
95.0935682286072
95.0935682229174
95.0935682159325
95.0935682060372
95.09356818987
95.0935681606206
95.0935681044066
95.0935679942777
95.0935677781672
95.0935673569184
95.0935665413854
95.093564958981
95.0935619190132
95.0935562341183
95.0935464108625
95.0935313413938
95.0936129063048
95.0936224251054
95.0936282701296
95.0936315388099
95.0936332369747
95.0936340909102
95.0936345135269
95.0936347217212
95.0936348220421
95.0936348680552
95.0936348869
95.0936348921095
95.0936348905961
95.0936348856631
95.0936348789983
95.0936348714313
95.0936348633695
95.0936348550604
95.0936348466785
95.0936348383402
95.0936348301038
95.0936348220712
95.0936348142568
95.0936348067044
95.0936347994575
95.0936347925162
95.0936347859097
95.0936347796232
95.0936347736715
95.0936347680545
95.0936347627139
95.0936347576499
95.0936347527895
95.0936347481038
95.0936347434472
95.0936347386451
95.093634733319
95.0936347266834
95.0936347171519
95.0936347014504
95.0936346727103
95.0936346175004
95.0936345087102
95.0936342930218
95.0936338634638
95.0936329991819
95.0936312695558
95.093627897746
95.0936217808194
95.0936117587844
95.0936588925542
95.0936646046612
95.093667911904
95.0936696613207
95.0936705233762
95.0936709296948
95.0936711166141
95.093671200797
95.0936712366383
95.0936712493858
95.0936712512921
95.0936712478724
95.0936712419061
95.0936712346593
95.0936712267285
95.0936712184193
95.0936712099356
95.0936712013936
95.0936711928516
95.0936711844261
95.0936711761315
95.0936711680697
95.0936711602408
95.0936711527029
95.093671145456
95.0936711385293
95.0936711319373
95.09367112568
95.0936711197573
95.093671114184
95.0936711089162
95.0936711039685
95.0936710992974
95.0936710948881
95.0936710906972
95.0936710866517
95.09367108265
95.0936710784154
95.0936710734095
95.0936710664682
95.0936710548558
95.0936710331007
95.093670989052
95.0936708975933
95.0936707041401
95.0936702897743
95.0936694071715
95.0936675910925
95.0936640998989
95.0936580141279
95.0936835543835
95.0936867112614
95.0936884307739
95.0936892712052
95.0936896499479
95.0936898043146
95.093689860907
95.0936898767686
95.0936898767104
95.093689870424
95.0936898621731
95.0936898532527
95.0936898442451
95.0936898352229
95.0936898262589
95.0936898173095
95.0936898084328
95.0936897996289
95.0936897909414
95.093689782414
95.0936897740758
95.0936897659703
95.0936897581269
95.0936897505744
95.0936897433421
95.0936897364154
95.0936897298379
95.0936897236097
95.0936897177453
95.093689712201
95.0936897070205
95.0936897021893
95.0936896977073
95.0936896935891
95.0936896898347
95.0936896864587
95.0936896835337
95.0936896811036
95.0936896792118
95.0936896778294
95.093689676447
95.0936896738276
95.093689665795
95.0936896427738
95.0936895798513
95.0936894189799
95.0936890272424
95.0936881469243
95.0936863132956
95.0936829078564
95.0936959732062
95.0936975873192
95.0936984041473
95.0936987509485
95.0936988762696
95.0936989019683
95.0936988929461
95.0936988741305
95.0936988553294
95.0936988386238
95.0936988243775
95.0936988119211
95.0936988007452
95.0936987903697
95.0936987805035
95.0936987710011
95.0936987617315
95.0936987526802
95.0936987438326
95.0936987352034
95.0936987268069
95.0936987186724
95.0936987108289
95.0936987032619
95.0936986960296
95.093698689132
95.0936986825691
95.0936986763554
95.0936986705055
95.093698665034
95.0936986599409
95.093698655226
95.0936986509332
95.0936986470915
95.0936986437446
95.0936986409943
95.0936986389861
95.0936986379529
95.0936986382731
95.0936986404704
95.093698645127
95.0936986529996
95.093698663768
95.0936986754677
95.0936986782908
95.093698646946
95.0936985132139
95.0936981438281
95.093697261269
95.0936954962526
95.0937018549012
95.0937026173633
95.0937029628549
95.0937030655041
95.0937030706555
95.0937030373461
95.0937029986526
95.0937029637862
95.0937029358174
95.0937029135239
95.0937028957269
95.0937028809276
95.0937028681656
95.0937028567132
95.0937028461049
95.0937028360786
95.0937028264743
95.0937028171902
95.0937028081826
95.0937027994369
95.0937027909822
95.0937027828186
95.093702774946
95.093702767379
95.0937027601467
95.0937027532491
95.0937027467007
95.0937027405307
95.09370273471
95.0937027292966
95.0937027242908
95.0937027197215
95.0937027156178
95.093702712009
95.0937027090695
95.0937027068576
95.0937027056207
95.0937027057225
95.0937027076434
95.0937027122272
95.0937027204636
95.0937027339824
95.0937027539767
95.0937027817563
95.0937028143526
95.0937028425105
95.0937028314947
95.0937027164618
95.0937023354927
95.0937014884548
95.0937044661259
95.0937047945918
95.093704913379
95.0937049073982
95.0937048626074
95.0937048063643
95.0937047564075
95.0937047151529
95.093704683095
95.0937046579202
95.0937046380132
95.0937046216277
95.0937046077015
95.0937045953906
95.0937045841565
95.0937045736791
95.0937045637402
95.0937045542378
95.0937045450992
95.0937045362662
95.0937045277533
95.093704519546
95.0937045116589
95.0937045040919
95.0937044968596
95.0937044899765
95.0937044834427
95.0937044772872
95.0937044715101
95.0937044661405
95.0937044612219
95.0937044567545
95.0937044528255
95.0937044494785
95.0937044468737
95.0937044451421
95.0937044445891
95.0937044455641
95.0937044487073
95.0937044548918
95.0937044652965
95.0937044817401
95.0937045058527
95.0937045400933
95.0937045840546
95.0937046354375
95.0937046757754
95.0937046750041
95.0937045382598
95.0937041657307
95.0937055367831
95.0937056604016
95.0937056795956
95.0937056323746
95.0937055715331
95.0937055095565
95.0937054571987
95.0937054143869
95.093705380903
95.0937053543894
95.0937053332163
95.0937053157977
95.093705301013
95.0937052880181
95.0937052762602
95.093705265419
95.0937052552035
95.093705245512
95.0937052362278
95.0937052273221
95.0937052187655
95.0937052105292
95.0937052026129
95.0937051950459
95.0937051878136
95.0937051809306
95.0937051744258
95.0937051682849
95.0937051625369
95.0937051572255
95.0937051523651
95.0937051480141
95.0937051442306
95.0937051411165
95.0937051388028
95.0937051374931
95.0937051374785
95.0937051391811
95.093705143212
95.0937051504879
95.0937051621586
95.0937051799847
95.0937052055815
95.0937052414665
95.0937052879453
95.0937053452508
95.0937054024107
95.0937054458918
95.0937054182577
95.0937052734807
95.0937059228308
95.0937059573043
95.0937059379066
95.093705880121
95.0937058181735
95.0937057580159
95.0937057072588
95.0937056652037
95.0937056317198
95.0937056047551
95.0937055829854
95.0937055648828
95.0937055494869
95.0937055359973
95.0937055238464
95.0937055126851
95.0937055022659
95.0937054923997
95.0937054830138
95.0937054740352
95.0937054654351
95.0937054571696
95.0937054492533
95.0937054416718
95.0937054344395
95.093705427571
95.0937054210663
95.0937054149399
95.0937054092356
95.0937054039678
95.0937053991656
95.0937053949165
95.0937053912639
95.093705388339
95.0937053862726
95.0937053852977
95.0937053857197
95.0937053879461
95.0937053926318
95.0937054005917
95.0937054129317
95.0937054312235
95.093705456864
95.0937054920796
95.0937055370596
95.0937055927061
95.0937056514231
95.0937057070405
95.0937057229748
95.093705679421
95.0937060229626
95.0937060224678
95.0937059915741
95.0937059357093
95.0937058784766
95.0937058230338
95.0937057755218
95.093705735344
95.0937057026749
95.0937056758703
95.0937056538969
95.0937056354596
95.0937056196854
95.0937056058319
95.09370559339
95.0937055819959
95.0937055714021
95.0937055614195
95.0937055519462
95.0937055429094
95.0937055342656
95.0937055259856
95.0937055180693
95.0937055104878
95.0937055032555
95.093705496387
95.0937054898968
95.093705483785
95.0937054781098
95.0937054728711
95.0937054681272
95.0937054639362
95.0937054604001
95.0937054576207
95.093705455758
95.093705455045
95.0937054557871
95.093705458421
95.0937054635142
95.0937054718524
95.0937054844399
95.0937055025861
95.093705527499
95.093705560852
95.0937056026887
95.0937056537223
95.0937057079864
95.0937057624687
95.0937057924311
95.0937057898991
95.0937060126598
95.0937060007127
95.0937059692224
95.0937059195421
95.0937058687414
95.093705818872
95.0937057751726
95.0937057374103
95.0937057060073
95.0937056797993
95.0937056579423
95.0937056394323
95.0937056234543
95.0937056094117
95.0937055967806
95.093705585241
95.0937055745162
95.0937055644463
95.0937055549148
95.0937055458489
95.093705537176
95.093705528896
95.0937055209652
95.0937055133836
95.0937055061659
95.0937054992974
95.0937054928072
95.0937054867245
95.0937054810493
95.0937054758397
95.0937054711248
95.0937054669921
95.0937054635433
95.0937054608657
95.0937054591632
95.0937054586248
95.0937054595852
95.0937054624519
95.0937054677634
95.0937054762326
95.0937054887181
95.0937055063405
95.0937055300165
95.0937055610411
95.0937055990944
95.0937056446273
95.0937056925904
95.0937057412521
95.0937057730189
95.0937057848205
95.0937059649877
95.0937059509306
95.0937059226562
95.0937058799609
95.0937058356503
95.0937057913106
95.0937057515257
95.0937057163974
95.093705686566
95.093705661202
95.0937056397379
95.0937056213588
95.0937056053808
95.0937055912655
95.0937055785471
95.0937055669201
95.0937055561371
95.0937055460236
95.0937055364629
95.0937055273826
95.0937055187096
95.093705510415
95.0937055024842
95.0937054949172
95.0937054876995
95.0937054808455
95.0937054743554
95.0937054682727
95.0937054625974
95.0937054574024
95.0937054527167
95.093705448613
95.0937054452079
95.0937054426031
95.0937054409878
95.0937054405658
95.0937054416427
95.0937054446113
95.0937054499664
95.0937054583483
95.0937054704846
95.0937054873066
95.09370550944
95.0937055379036
95.0937055720715
95.0937056121038
95.0937056535913
95.0937056953844
95.0937057244882
95.0937057396368
95.093705908439
95.0937058955606
95.0937058713607
95.0937058352138
95.0937057968404
95.0937057576521
95.0937057216943
95.0937056892435
95.0937056611438
95.0937056368566
95.0937056160037
95.0937055979302
95.0937055820978
95.0937055680261
95.0937055553222
95.0937055436807
95.0937055328832
95.0937055227696
95.093705513209
95.0937055041286
95.0937054954702
95.0937054871902
95.0937054792739
95.0937054717069
95.0937054644892
95.0937054576352
95.0937054511596
95.0937054450624
95.0937054394017
95.0937054341921
95.0937054295209
95.0937054254318
95.0937054220412
95.0937054194656
95.0937054178794
95.0937054174865
95.093705418607
95.0937054215465
95.0937054267997
95.0937054349051
95.0937054464739
95.0937054622627
95.0937054827227
95.0937055085233
95.0937055389368
95.0937055738177
95.0937056093098
95.0937056445255
95.0937056696857
95.0937056841358
95.0937058531708
95.0937058423297
95.0937058220443
95.0937057916017
95.0937057584815
95.0937057239935
95.0937056916155
95.0937056618568
95.093705635576
95.0937056125113
95.0937055924151
95.0937055748072
95.0937055592512
95.0937055453396
95.0937055327231
95.0937055211543
95.0937055104005
95.093705500316
95.0937054907845
95.0937054817186
95.0937054730894
95.0937054648239
95.0937054569222
95.0937054493697
95.0937054421665
95.0937054353126
95.093705428837
95.0937054227397
95.0937054170645
95.0937054118403
95.0937054071546
95.093705403051
95.0937053996458
95.0937053970556
95.0937053954549
95.0937053950474
95.0937053960806
95.0937053989037
95.0937054039096
95.093705411593
95.0937054224487
95.0937054370734
95.093705455758
95.0937054789247
95.0937055057584
95.0937055359391
95.0937055661052
95.0937055955001
95.0937056166731
95.0937056291441
95.0937058021227
95.0937057933334
95.0937057764822
95.0937057508854
95.0937057223782
95.0937056921102
95.0937056630937
95.0937056359253
95.0937056115217
95.0937055897666
95.0937055705581
95.0937055535469
95.0937055383692
95.0937055247196
95.0937055122777
95.0937055008253
95.0937054901588
95.093705480147
95.0937054706737
95.0937054616661
95.0937054530659
95.0937054448295
95.093705436957
95.0937054294191
95.0937054222304
95.0937054153765
95.0937054088863
95.0937054027745
95.0937053970847
95.093705391846
95.0937053871166
95.0937053829839
95.0937053795351
95.0937053769012
95.0937053752277
95.0937053747184
95.0937053756061
95.0937053782109
95.0937053828675
95.0937053899979
95.0937054000096
95.0937054133683
95.093705430234
95.0937054508395
95.0937054743554
95.0937055002723
95.0937055257673
95.0937055501272
95.0937055676623
95.0937055779796
95.0937057556876
95.0937057486735
95.0937057347473
95.0937057132833
95.0937056887778
95.0937056622934
95.093705636391
95.0937056117255
95.0937055891845
95.0937055688119
95.0937055505783
95.0937055342511
95.0937055195682
95.0937055062532
95.0937054940587
95.0937054827809
95.0937054722599
95.09370546235
95.0937054529495
95.0937054440146
95.0937054354727
95.0937054272799
95.0937054194364
95.0937054119277
95.093705404739
95.0937053978851
95.0937053913949
95.093705385254
95.0937053795351
95.0937053742673
95.0937053694943
95.0937053653033
95.0937053617818
95.0937053590606
95.0937053572707
95.0937053566013
95.0937053572707
95.0937053595699
95.0937053637754
95.093705370251
95.0937053793314
95.0937053913658
95.0937054064125
95.0937054245587
95.0937054449896
95.0937054671231
95.0937054885144
95.0937055085669
95.0937055229297
95.0937055312243
95.0937057132833
95.0937057078409
95.093705696403
95.0937056784314
95.093705657433
95.0937056343391
95.0937056113034
95.093705589039
95.0937055683462
95.093705549385
95.0937055321992
95.0937055166432
95.0937055025279
95.0937054896058
95.0937054777314
95.093705466672
95.0937054563256
95.0937054465612
95.0937054372771
95.093705428415
95.0937054199458
95.0937054118112
95.0937054040114
95.0937053965172
95.0937053893431
95.0937053824891
95.0937053759699
95.093705369829
95.0937053640664
95.0937053587404
95.0937053539092
95.0937053496455
95.093705346022
95.0937053431699
95.0937053412199
95.0937053403468
95.0937053407397
95.093705342646
95.0937053463276
95.0937053520756
95.0937053601665
95.0937053708185
95.0937053840753
95.0937053998787
95.0937054174574
95.0937054361857
95.0937054540263
95.0937054704118
95.0937054820097
95.0937054885289
95.0937056743423
95.0937056701659
95.0937056608527
95.0937056459225
95.0937056279945
95.0937056079565
95.0937055875984
95.0937055675895
95.0937055487157
95.0937055311661
95.0937055150862
95.0937055003451
95.0937054868555
95.0937054744136
95.0937054628739
95.0937054521055
95.0937054419774
95.0937054323731
95.0937054232199
95.0937054144742
95.0937054060923
95.093705398016
95.0937053902453
95.0937053827947
95.0937053756352
95.0937053687812
95.0937053622474
95.0937053560629
95.0937053502566
95.0937053448724
95.0937053399684
95.0937053356029
95.093705331863
95.0937053288508
95.0937053266971
95.093705325562
95.0937053256202
95.09370532709
95.093705330175
95.0937053351372
95.0937053421803
95.0937053514499
95.0937053629459
95.0937053765228
95.0937053914822
95.0937054071546
95.0937054218812
95.0937054350798
95.0937054443202
95.093705449297
95.0937056381372
95.0937056351104
95.0937056276452
95.0937056153634
95.0937056001712
95.0937055828836
95.0937055649847
95.0937055471295
95.0937055300165
95.0937055139075
95.0937054989336
95.0937054850656
95.0937054722453
95.0937054603273
95.0937054491951
95.0937054387468
95.0937054288515
95.093705419451
95.0937054104579
95.0937054018286
95.093705393534
95.093705385545
95.0937053778325
95.093705370411
95.0937053632515
95.0937053563975
95.0937053498492
95.0937053436355
95.0937053377711
95.0937053323141
95.0937053273083
95.0937053228263
95.0937053189409
95.0937053157395
95.0937053133675
95.0937053119269
95.0937053116068
95.0937053125817
95.0937053150265
95.0937053191446
95.0937053251109
95.0937053329981
95.093705342777
95.0937053542439
95.0937053667731
95.0937053797097
95.0937053916714
95.0937054021197
95.0937054092792
95.0937054129317
95.0937056041876
95.0937056021648
95.0937055963295
95.0937055864051
95.0937055736431
95.0937055588875
95.0937055432732
95.0937055274553
95.0937055120594
95.0937054973474
95.0937054835085
95.0937054705428
95.093705458421
95.0937054470705
95.0937054363894
95.0937054262758
95.0937054166716
95.0937054074893
95.0937053986709
95.0937053901871
95.0937053819944
95.0937053740781
95.0937053664238
95.0937053590314
95.093705351901
95.0937053450471
95.0937053384841
95.0937053322123
95.0937053263042
95.0937053207599
95.0937053156522
95.0937053110247
95.0937053069647
95.0937053035595
95.0937053009111
95.0937052991503
95.0937052984082
95.0937052988302
95.0937053006055
95.0937053038506
95.0937053087109
95.0937053152447
95.0937053233502
95.0937053328234
95.0937053430971
95.0937053535454
95.0937053630478
95.0937053710804
95.0937053764355
95.0937053788948
95.0937055720278
95.093705570951
95.0937055666145
95.0937055587856
95.09370554825
95.0937055358081
95.0937055223185
95.093705508436
95.0937054946844
95.0937054813548
95.093705468651
95.0937054566166
95.093705445237
95.0937054344686
95.0937054242531
95.0937054145325
95.0937054052192
95.0937053962843
95.0937053876551
95.0937053793314
95.0937053712551
95.0937053634261
95.0937053558446
95.0937053484959
95.09370534138
95.0937053345115
95.0937053279195
95.0937053216185
95.0937053156231
95.0937053099915
95.0937053047674
95.0937052999943
95.0937052957452
95.0937052921072
95.0937052891677
95.0937052870431
95.0937052858353
95.0937052856898
95.0937052867521
95.0937052891095
95.0937052928639
95.0937052980298
95.0937053045345
95.0937053121161
95.0937053202942
95.0937053284579
95.0937053357629
95.0937053416274
95.0937053453817
95.0937053467496
95.0937055413524
95.0937055411778
95.0937055382092
95.0937055323157
95.0937055238319
95.0937055135146
95.0937055020331
95.0937054899841
95.0937054778187
95.0937054658571
95.0937054542737
95.0937054431561
95.0937054325332
95.0937054223905
95.0937054126844
95.093705403342
95.0937053943635
95.0937053856906
95.0937053772795
95.0937053691014
95.093705361156
95.093705353429
95.0937053459202
95.0937053386006
95.0937053315138
95.0937053246453
95.0937053180241
95.093705311665
95.0937053056114
95.0937052998779
95.0937052945083
95.0937052895752
95.0937052851223
95.0937052812369
95.0937052779773
95.0937052754598
95.0937052737863
95.0937052730442
95.0937052733643
95.0937052748195
95.093705277468
95.0937052813097
95.0937052862428
95.0937052920199
95.0937052982481
95.0937053043162
95.0937053095986
95.0937053134985
95.0937053157832
95.0937053161615
95.0937055118702
95.0937055125833
95.0937055108952
95.0937055068352
95.0937055002432
95.0937054919341
95.0937054823153
95.0937054720125
95.0937054613751
95.0937054507376
95.0937054402748
95.093705430103
95.0937054202514
95.0937054107344
95.0937054015376
95.0937053926318
95.093705383988
95.093705375577
95.0937053673988
95.0937053593952
95.0937053515954
95.0937053439702
95.0937053365196
95.0937053292582
95.093705322186
95.0937053153029
95.0937053086527
95.0937053022499
95.093705296109
95.0937052902736
95.093705284773
95.0937052796507
95.0937052749796
95.0937052708177
95.093705267238
95.093705264313
95.0937052621302
95.0937052607769
95.0937052603404
95.0937052608933
95.0937052624358
95.0937052649824
95.0937052684167
95.0937052724912
95.0937052768568
95.0937052809604
95.0937052843947
95.093705286461
95.0937052873924
95.0937052868103
95.0937054833921
95.0937054849928
95.0937054845708
95.0937054822571
95.0937054774549
95.093705471023
95.0937054631795
95.0937054545357
95.093705445368
95.0937054360256
95.0937054266687
95.0937054174137
95.0937054083479
95.0937053994712
95.0937053907983
95.0937053823291
95.0937053740345
95.0937053659291
95.0937053579692
95.0937053501548
95.0937053425005
95.0937053349771
95.0937053276139
95.0937053203816
95.0937053133384
95.0937053064554
95.093705299776
95.0937052933004
95.0937052870868
95.093705281135
95.0937052754743
95.0937052701775
95.093705265288
95.0937052608351
95.0937052569061
95.0937052535592
95.0937052508525
95.093705248888
95.0937052476802
95.0937052473164
95.0937052477966
95.0937052490626
95.0937052510562
95.0937052534864
95.0937052561057
95.0937052583758
95.0937052600348
95.0937052603695
95.0937052600202
95.0937052584923
95.0937054556998
95.0937054582464
95.0937054590759
95.0937054584647
95.0937054553651
95.0937054507231
95.0937054445676
95.0937054374954
95.0937054297538
95.0937054216629
95.0937054133828
95.0937054050592
95.0937053967646
95.0937053885282
95.0937053804082
95.0937053723756
95.0937053644593
95.0937053566304
95.0937053489179
95.0937053412927
95.0937053337839
95.0937053263769
95.0937053190864
95.0937053119269
95.0937053048838
95.0937052980007
95.0937052912923
95.0937052847585
95.0937052784429
95.0937052723748
95.0937052665686
95.0937052610825
95.0937052559457
95.0937052512018
95.0937052469089
95.0937052431254
95.0937052399095
95.0937052372901
95.0937052353402
95.0937052340742
95.0937052334775
95.0937052335212
95.0937052341033
95.0937052349618
95.0937052359368
95.0937052364461
95.0937052364316
95.0937052350928
95.093705233463
95.0937052309891
95.0937054286769
95.0937054322421
95.0937054343376
95.0937054354144
95.0937054339593
95.0937054310198
95.0937054264796
95.0937054209207
95.093705414547
95.0937054076639
95.0937054004316
95.0937053930102
95.0937053854868
95.0937053779053
95.0937053703237
95.0937053627422
95.0937053551897
95.093705347681
95.0937053402158
95.0937053327943
95.0937053254311
95.0937053181406
95.0937053109374
95.0937053038069
95.0937052968075
95.0937052899098
95.0937052831578
95.0937052765657
95.0937052701629
95.0937052639638
95.0937052580121
95.0937052523223
95.093705246938
95.0937052418885
95.0937052372319
95.0937052330119
95.0937052292575
95.0937052260124
95.0937052233057
95.0937052211375
95.0937052195222
95.0937052183581
95.0937052175868
95.0937052169465
95.0937052163354
95.0937052151567
95.0937052135268
95.0937052105146
95.0937052076333
95.0937052041263
95.0937054021924
95.0937054068636
95.0937054102687
95.0937054130482
95.0937054132228
95.0937054119277
95.0937054089154
95.0937054047972
95.0937053997332
95.0937053940143
95.0937053878297
95.0937053812959
95.0937053745292
95.093705367588
95.0937053605448
95.093705353429
95.0937053462549
95.0937053390371
95.0937053318194
95.0937053246016
95.0937053173984
95.0937053102389
95.0937053031084
95.0937052960362
95.0937052890513
95.0937052821537
95.0937052753725
95.0937052687077
95.0937052622176
95.0937052558875
95.0937052497611
95.0937052438676
95.093705238236
95.0937052328809
95.0937052278605
95.0937052231893
95.0937052188965
95.0937052150257
95.0937052115769
95.0937052085355
95.0937052058871
95.0937052035733
95.093705201507
95.093705199426
95.0937051973015
95.0937051944784
95.0937051912915
95.0937051865913
95.0937051824149
95.0937051778019
95.0937053761154
95.0937053820671
95.0937053868402
95.0937053913658
95.093705393112
95.0937053934031
95.0937053918606
95.0937053891248
95.0937053853122
95.0937053807429
95.0937053755333
95.0937053698726
95.0937053638627
95.0937053575617
95.093705351057
95.0937053443922
95.0937053375965
95.0937053306989
95.0937053237285
95.0937053167145
95.0937053096713
95.0937053026137
95.0937052955705
95.0937052885565
95.0937052815862
95.0937052746885
95.0937052678637
95.0937052611407
95.0937052545487
95.0937052480876
95.0937052418012
95.093705235704
95.0937052298104
95.0937052241643
95.0937052187655
95.0937052136433
95.0937052088411
95.09370520433
95.0937052001391
95.0937051962537
95.0937051926157
95.0937051891815
95.0937051858637
95.0937051824149
95.0937051788205
95.0937051744258
95.0937051696819
95.09370516325
95.0937051577203
95.0937051518704
95.0937053503731
95.0937053577654
95.0937053640082
95.0937053703383
95.0937053736416
95.0937053754751
95.0937053753441
95.0937053739181
95.0937053713133
95.0937053678208
95.0937053635862
95.0937053587695
95.0937053534872
95.0937053478119
95.0937053418456
95.0937053356174
95.0937053292
95.093705322608
95.0937053158996
95.0937053090893
95.0937053021917
95.093705295265
95.0937052883091
95.0937052813388
95.0937052743975
95.0937052674853
95.0937052606314
95.0937052538502
95.0937052471563
95.0937052405643
95.0937052341178
95.0937052278023
95.0937052216614
95.0937052156951
95.0937052099325
95.0937052043737