/*--------------------------------*- C++ -*----------------------------------*\
  =========                 |
  \\      /  F ield         | OpenFOAM: The Open Source CFD Toolbox
   \\    /   O peration     | Website:  https://openfoam.org
    \\  /    A nd           | Version:  10
     \\/     M anipulation  |
\*---------------------------------------------------------------------------*/
FoamFile
{
    format      ascii;
    class       surfaceScalarField;
    location    "6.6";
    object      phi;
}
// * * * * * * * * * * * * * * * * * * * * * * * * * * * * * * * * * * * * * //

dimensions      [1 0 -1 0 0 0 0];

internalField   nonuniform List<scalar> 
4900
(
-5.80135595589143e-12
5.85872329963267e-12
-8.03391280607322e-12
2.32554926925992e-12
-7.27185250792594e-12
-6.58085004290922e-13
-5.4235269569782e-12
-1.74526681378149e-12
-3.70661688120716e-12
-1.61513293108789e-12
-2.44421207356737e-12
-1.16118227733649e-12
-1.59764025700484e-12
-7.46002907158098e-13
-1.0482792400803e-12
-4.49847547979708e-13
-6.94110429370192e-13
-2.55983651604983e-13
-4.63874410378519e-13
-1.3343870953879e-13
-3.11219570902799e-13
-5.7146716212102e-14
-2.07264384219147e-13
-9.56900773877724e-15
-1.341925754015e-13
2.03726490669635e-14
-8.11208515774476e-14
3.95857036503325e-14
-4.14073605370677e-14
5.22793630817207e-14
-1.09150750248757e-14
6.09238110238048e-14
1.29533775164133e-14
6.70352534821644e-14
3.19307507578959e-14
7.14597895655322e-14
4.72024884552612e-14
7.4736803445311e-14
5.96145105493713e-14
7.71992107855305e-14
6.98079946279779e-14
7.90519117963452e-14
7.8285566905291e-14
8.04318686836353e-14
8.54634060127414e-14
8.14262202505355e-14
9.16916057494743e-14
8.21002300531054e-14
9.72980531783331e-14
8.24760834496726e-14
1.02580376118388e-13
8.25820461885947e-14
1.07841303917856e-13
8.24123713055937e-14
1.1339648109945e-13
8.19513892672767e-14
1.19587216199152e-13
8.11727086545158e-14
1.26811271212522e-13
8.00174738375068e-14
1.35559294817998e-13
7.83927860496935e-14
1.46444829958794e-13
7.61761156684172e-14
1.60293403206303e-13
7.31590939220683e-14
1.78267650784455e-13
6.90097489874063e-14
2.02103861111394e-13
6.31658055291947e-14
2.34426459836833e-13
5.4753273844048e-14
2.79383102354123e-13
4.22674734979096e-14
3.43637619177178e-13
2.32090976665087e-14
4.38039722043892e-13
-6.5979418812005e-15
5.80370422107677e-13
-5.40928832009278e-14
7.99387168874172e-13
-1.30280917454229e-13
1.14129156107538e-12
-2.52647026546147e-13
1.67753819109061e-12
-4.46448917665228e-13
2.51175533361e-12
-7.43723316993601e-13
3.7675483600541e-12
-1.16402240915003e-12
5.4938234823306e-12
-1.63185052646271e-12
7.37359986312943e-12
-1.78044808449714e-12
8.15609658830733e-12
-6.75613007940273e-13
5.8696924112491e-12
2.39834716551116e-12
5.95031644260012e-12
-8.62798274618568e-12
1.45724927022568e-11
-1.36630415270916e-11
7.49097533782412e-12
-1.29931170567074e-11
-1.18561194043767e-12
-1.00978280832494e-11
-4.49958170141242e-12
-7.15287653818333e-12
-4.42145895559076e-12
-4.89697790035061e-12
-3.28004480908434e-12
-3.33100822281859e-12
-2.17643606546739e-12
-2.28452266626842e-12
-1.36251942657125e-12
-1.58791121838462e-12
-8.20631430354219e-13
-1.1184467970079e-12
-4.72733185099544e-13
-7.94434146503575e-13
-2.52593762479854e-13
-5.64078466665539e-13
-1.12727964915119e-13
-3.95001850191666e-13
-2.26487173549062e-14
-2.67061453964003e-13
3.67463640524784e-14
-1.67625070464125e-13
7.71344150484976e-14
-8.86266891386014e-14
1.05510712882004e-13
-2.4763076581175e-14
1.26126100409209e-13
2.75896762191787e-14
1.41485798198954e-13
7.1014526475327e-14
1.53160547810968e-13
1.07427606055086e-13
1.62144509124626e-13
1.38320432190173e-13
1.69065498347246e-13
1.64895591827302e-13
1.74348939126545e-13
1.88173178488258e-13
1.78265362534153e-13
2.09033418781257e-13
1.81018215164979e-13
2.28293659203085e-13
1.82692190752369e-13
2.467276755169e-13
1.83357236012347e-13
2.65106358970958e-13
1.83008480734183e-13
2.8422987362231e-13
1.81599520920964e-13
3.04967518081705e-13
1.790318570634e-13
3.28303925380247e-13
1.75129570437159e-13
3.55416526523829e-13
1.69607279255035e-13
3.87753490207841e-13
1.62072269299747e-13
4.27190879176113e-13
1.51892378462506e-13
4.76278576089873e-13
1.38071185922068e-13
5.38649399235817e-13
1.1897751977731e-13
6.19632731419422e-13
9.20592684909128e-14
7.27328424978533e-13
5.30653967420018e-14
8.74394651427664e-13
-5.04170249705058e-15
1.08097391203768e-12
-9.39108338778723e-14
1.37942829871564e-12
-2.32710629982392e-13
1.82146749556034e-12
-4.51827689374788e-13
2.48877301075446e-12
-7.98753092121331e-13
3.5047962203949e-12
-1.34048117191474e-12
5.04242460610409e-12
-2.15823911530173e-12
7.28170623238243e-12
-3.27810891450502e-12
1.02403604075262e-11
-4.46121429070869e-12
1.31917233632523e-11
-4.59550268868935e-12
1.39023305075152e-11
-1.24083062077595e-12
8.77852983610212e-12
7.66818230700217e-12
1.48267195042371e-11
-6.67575635152678e-12
2.13500854085373e-11
-1.23502980285777e-11
1.33138147979611e-11
-1.24712914044644e-11
-9.07094049555553e-13
-1.02034407523081e-11
-6.61274547949092e-12
-7.59077042723113e-12
-6.88330538909048e-12
-5.46474252444623e-12
-5.25818800222114e-12
-3.91251140904671e-12
-3.5832016285051e-12
-2.82548471485746e-12
-2.30631237792678e-12
-2.0666745423507e-12
-1.43828368737196e-12
-1.52989596098894e-12
-8.70209367038627e-13
-1.14132111764664e-12
-5.03452946462229e-13
-8.52381879405303e-13
-2.65274573189056e-13
-6.31634786541513e-13
-1.0809559710943e-13
-4.5875215504134e-13
-1.74811523975365e-15
-3.2041926034946e-13
7.24120526794651e-14
-2.07762993178676e-13
1.25783250041945e-13
-1.14665894181322e-13
1.6534528304079e-13
-3.67864784920508e-14
1.95362014929325e-13
2.90884688572114e-14
2.18524046038832e-13
8.5422388003775e-14
2.36570681443397e-13
1.34177122521256e-13
2.50630736506923e-13
1.76979605150872e-13
2.61462641569695e-13
2.15219551387093e-13
2.69575788717447e-13
2.50132159768638e-13
2.75326469323902e-13
2.82856726787177e-13
2.7889537982279e-13
3.14489819994308e-13
2.80392225962677e-13
3.46122407828241e-13
2.79817054549785e-13
3.78881679383616e-13
2.7708380012413e-13
4.13983120624205e-13
2.72004618161826e-13
4.52789707622406e-13
2.64253461694271e-13
4.96892884068005e-13
2.53317359858251e-13
5.48223023734206e-13
2.38465064282974e-13
6.09198432084114e-13
2.18581088981526e-13
6.83002023303059e-13
1.91913049028482e-13
7.73982764560607e-13
1.5567864744029e-13
8.88267584014494e-13
1.05566367877255e-13
1.03475957434635e-12
3.45729647726222e-14
1.22678958209936e-12
-6.87441938875472e-14
1.48470978013836e-12
-2.23040419929738e-13
1.83997406618231e-12
-4.58587827847019e-13
2.34117825944929e-12
-8.22931519037399e-13
3.0623538302758e-12
-1.38900621585722e-12
4.11071178537914e-12
-2.25691519069115e-12
5.62678292797975e-12
-3.54091805713693e-12
7.72908106108286e-12
-5.24441632048197e-12
1.03498841618873e-11
-6.94125713331605e-12
1.2673723727446e-11
-6.77089604849808e-12
1.26087249682578e-11
-1.01881035917416e-12
6.86191266213416e-12
1.35691726353488e-11
2.17886634320307e-11
-3.56701060620597e-12
2.50336165248592e-11
-8.0775900800525e-12
1.79877421659446e-11
-8.994144567927e-12
1.78832562805149e-13
-7.99372023177433e-12
-7.44836626024985e-12
-6.42122929718435e-12
-8.2964178744726e-12
-4.96806069615993e-12
-6.5561975663253e-12
-3.8016713424819e-12
-4.59767619651598e-12
-2.91566296345642e-12
-3.0430581403098e-12
-2.25024946746121e-12
-1.95666050709446e-12
-1.7476050214519e-12
-1.22767601534465e-12
-1.36244220668082e-12
-7.44965212847872e-13
-1.06211277699973e-12
-4.23199196042143e-13
-8.23714294788992e-13
-2.05110042472907e-13
-6.31275979253736e-13
-5.36553637033141e-14
-4.73574009967651e-13
5.45103487395998e-14
-3.4262012405509e-13
1.33983549380336e-13
-2.32586150315896e-13
1.93882534994138e-13
-1.39137699950701e-13
2.39949059686904e-13
-5.89434279488666e-14
2.75870928058318e-13
1.06356601743169e-14
3.04074267365661e-13
7.1746748456769e-14
3.26180470565142e-13
1.26205074283641e-13
3.4327896011584e-13
1.75579781020363e-13
3.56125918336528e-13
2.21291956933328e-13
3.65224194254116e-13
2.64651975512242e-13
3.70865360775337e-13
3.06929926979245e-13
3.73196399594699e-13
3.49385449814697e-13
3.72226754426666e-13
3.93324182171798e-13
3.67821989481123e-13
4.40137897848771e-13
3.59706395308953e-13
4.9138019441113e-13
3.4738965087132e-13
5.48827192053588e-13
3.30137143892522e-13
6.14604027587519e-13
3.068686969464e-13
6.91306909265643e-13
2.7600264572901e-13
7.82243731607915e-13
2.35082687457692e-13
8.91739029378924e-13
1.80324227530554e-13
1.02561093936874e-12
1.05940276863163e-13
1.19185461612701e-12
2.77454838984184e-15
1.40168058791176e-12
-1.43806639957379e-13
1.67106485481371e-12
-3.57204112653625e-13
2.02290635271526e-12
-6.74601999663198e-13
2.4899215867546e-12
-1.15335969780757e-12
3.1176483361417e-12
-1.87921523908861e-12
3.96482070561324e-12
-2.96537483944757e-12
5.09403458232776e-12
-4.52967598115417e-12
6.51961050796573e-12
-6.52663005554772e-12
8.09071028899593e-12
-8.36397803922265e-12
9.13342659839409e-12
-7.65750596446809e-12
8.27835562923522e-12
3.29277209189637e-17
3.7328002254043e-12
1.82726521169589e-11
2.56215445251885e-11
-9.2058583149393e-13
2.60804201325292e-11
-3.65116072961859e-12
2.08881138793424e-11
-5.07524287524587e-12
1.77397122470665e-12
-5.26317368356326e-12
-7.09554547661094e-12
-4.77828765760979e-12
-8.62297170590276e-12
-4.07940643428347e-12
-7.1018539632478e-12
-3.38044244182892e-12
-5.14717779144222e-12
-2.76446892128591e-12
-3.51241920004846e-12
-2.24793387046707e-12
-2.32880885221556e-12
-1.8233726371377e-12
-1.50961690263118e-12
-1.47644633036679e-12
-9.50679064571649e-13
-1.19249720532492e-12
-5.67070190786216e-13
-9.58806300880756e-13
-2.99651658940477e-13
-7.65008173455373e-13
-1.0908615271348e-13
-6.029065886585e-13
3.00986072314173e-14
-4.66101382734831e-13
1.34264229893354e-13
-3.49592350411543e-13
2.13909551733649e-13
-2.49442573418735e-13
2.75827543329578e-13
-1.62506951572301e-13
3.24493404959951e-13
-8.62166375442821e-14
3.62906159160455e-13
-1.8428550770049e-14
3.9311308728789e-13
4.26929824407585e-14
4.16511555551449e-13
9.87669055209741e-14
4.34073397622138e-13
1.5126201364804e-13
4.4645134132717e-13
2.01546291127005e-13
4.54037300815506e-13
2.50947271330767e-13
4.57016361965551e-13
3.00777858225094e-13
4.55411524304901e-13
3.52401886737151e-13
4.49034599783835e-13
4.07262895231093e-13
4.375284732955e-13
4.66957461974893e-13
4.20248815733749e-13
5.33289986443146e-13
3.96251811512475e-13
6.08375226832457e-13
3.64148028291208e-13
6.94746230442789e-13
3.21942287070242e-13
7.95523735628358e-13
2.66597005628508e-13
9.14610650324092e-13
1.93557962520679e-13
1.05697684637718e-12
9.59884831655686e-14
1.2289967304132e-12
-3.66487615570766e-14
1.43881557292673e-12
-2.2073414720811e-13
1.69676083063024e-12
-4.81825578188852e-13
2.01548662842191e-12
-8.59412675736128e-13
2.40964898943488e-12
-1.41283490999904e-12
2.8936710923395e-12
-2.22755811011025e-12
3.47547602911795e-12
-3.41018683715924e-12
4.14020831267135e-12
-5.05553201285729e-12
4.81005268248727e-12
-7.05463552213332e-12
5.2838123276008e-12
-8.69105697344195e-12
5.11963545265403e-12
-7.33946820076824e-12
3.75131173450339e-12
1.52841203754855e-12
1.02457817133276e-12
2.11511091149054e-11
2.67389443569208e-11
7.49191723624904e-13
2.54602395777464e-11
-4.14173109183957e-13
2.22176946796137e-11
-2.01044697765822e-12
3.53367927381477e-12
-2.97845555997994e-12
-5.97151152611508e-12
-3.29241883130208e-12
-8.16021112647121e-12
-3.18696807786944e-12
-7.06408115935407e-12
-2.88117079194076e-12
-5.313740155141e-12
-2.50931047244118e-12
-3.74791347687566e-12
-2.13979753076905e-12
-2.56408085341963e-12
-1.80213378030779e-12
-1.71465975016205e-12
-1.50603879174854e-12
-1.11541706803191e-12
-1.25157364481573e-12
-6.91190692779946e-13
-1.03479649676321e-12
-3.86917815928923e-13
-8.50482355424648e-13
-1.64600029574339e-13
-6.93425339550865e-13
1.21795050437368e-15
-5.58951887999677e-13
1.27403166712162e-13
-4.43067230206609e-13
2.25120348879537e-13
-3.42415863399739e-13
3.01791422739488e-13
-2.54201195945276e-13
3.62448163537281e-13
-1.76056556733719e-13
4.105174043596e-13
-1.05958928408055e-13
4.48390651310948e-13
-4.2154075723349e-14
4.77733211375806e-13
1.69331232154146e-14
4.99697451136058e-13
7.27390422497178e-14
5.15073043577537e-13
1.26615031344096e-13
5.24336742117634e-13
1.79868044931141e-13
5.27716216722041e-13
2.33797452618818e-13
5.25240319997291e-13
2.897432270042e-13
5.16677708167394e-13
3.49123648401724e-13
5.01592184462297e-13
4.13480782975994e-13
4.79212804103481e-13
4.84547237442501e-13
4.48405828135036e-13
5.64308237835646e-13
4.07529055631118e-13
6.55090537459272e-13
3.5424938464981e-13
7.59664254650778e-13
2.85091900685843e-13
8.81330062327129e-13
1.94982846244252e-13
1.02403474368388e-12
7.64551763740257e-14
1.1923924737342e-12
-8.16752916036861e-14
1.39152532738514e-12
-2.96272003625024e-13
1.62656602280709e-12
-5.92876645855411e-13
1.90131860336893e-12
-1.00962000443549e-12
2.21559464424198e-12
-1.6018114136291e-12
2.55950662344919e-12
-2.44516248111674e-12
2.90346760085407e-12
-3.62647984611851e-12
3.17945447311074e-12
-5.20194386841467e-12
3.25607570864768e-12
-6.99884679598178e-12
2.92336931165104e-12
-8.22152882928682e-12
1.96207939126021e-12
-6.2349833638789e-12
4.08967641128677e-13
3.22956167127128e-12
-7.19182353525179e-13
2.24171463641809e-11
2.61018671466321e-11
1.53448036707043e-12
2.4046727223656e-11
1.38422024654133e-12
2.25162669264565e-11
-1.3155793024357e-13
5.19094297426242e-12
-1.44103510079604e-12
-4.52828295743495e-12
-2.19304310838264e-12
-7.28150813162632e-12
-2.45494974744124e-12
-6.68090057517063e-12
-2.41845600794733e-12
-5.23276223764286e-12
-2.22990574119651e-12
-3.82162540555378e-12
-1.98127628973637e-12
-2.69974718887123e-12
-1.72214456592465e-12
-1.86222279647188e-12
-1.47695193453456e-12
-1.25012004825636e-12
-1.25563939657158e-12
-8.02884905536974e-13
-1.06066768815362e-12
-4.73001773352991e-13
-8.90865637117617e-13
-2.26150812687189e-13
-7.43575267732664e-13
-3.83915394941126e-14
-6.15717211536754e-13
1.06703041320699e-13
-5.0430188987938e-13
2.20377854111989e-13
-4.06608521996341e-13
3.10318171006214e-13
-3.20250301044006e-13
3.81888286073081e-13
-2.43129625503588e-13
4.38802822971937e-13
-1.7341222778087e-13
4.83718540091679e-13
-1.09465552674626e-13
5.18501777166218e-13
-4.98098941911992e-14
5.44458375308291e-13
6.91869264863488e-15
5.62492819071257e-13
6.20118654694119e-14
5.73153532445079e-13
1.16715552487528e-13
5.76711867503788e-13
1.72280090341293e-13
5.73191228225714e-13
2.29973882416033e-13
5.62339597213735e-13
2.91149667894849e-13
5.43635156191129e-13
3.57253190049934e-13
5.16212050908959e-13
4.29883273325547e-13
4.78783124724887e-13
5.10842369844635e-13
4.29502689085913e-13
6.02183711061396e-13
3.65789481547989e-13
7.06258674242499e-13
2.83875073932853e-13
8.25717141203897e-13
1.78397045817604e-13
9.63489841964514e-13
4.16199038733527e-14
1.12256850512664e-12
-1.37683829999902e-13
1.30550857976774e-12
-3.75919479433656e-13
1.51333740444078e-12
-6.97073772617884e-13
1.74340401699832e-12
-1.13556691927063e-12
1.98551366875088e-12
-1.73911898868003e-12
2.21484864239461e-12
-2.56875589811115e-12
2.38131128053601e-12
-3.68591668142638e-12
2.39246129026148e-12
-5.10430553456093e-12
2.10322686072698e-12
-6.59832790971931e-12
1.32834805336719e-12
-7.33161304577145e-12
1.41267441388609e-14
-4.80034478611933e-12
-1.47111512113475e-12
4.83860617149774e-12
-1.56511548945374e-12
2.26244069733253e-11
2.46010025612159e-11
1.73178417404247e-12
2.24191866402778e-11
2.06082318937127e-12
2.23079571435384e-11
7.63118803842153e-13
6.60044725604591e-12
-5.69098208002667e-13
-3.09162040286055e-12
-1.47196689667479e-12
-6.28052669119541e-12
-1.90978575823003e-12
-6.14980778176248e-12
-2.02990369110684e-12
-5.02271604400957e-12
-1.96396778460708e-12
-3.79988619688918e-12
-1.80576549600732e-12
-2.77183446125529e-12
-1.61122965471738e-12
-1.97178733427788e-12
-1.41153366079571e-12
-1.36573549447672e-12
-1.22215477918824e-12
-9.08918289110774e-13
-1.04968366173637e-12
-5.62761406748857e-13
-8.95871357709695e-13
-2.97820154650692e-13
-7.60070985189411e-13
-9.25699944923927e-14
-6.40570959382839e-13
6.83389676972888e-14
-5.35293165264442e-13
1.95781175285049e-13
-4.4214420482299e-13
2.97422685196443e-13
-3.59149824946118e-13
3.78747978372979e-13
-2.84506339087023e-13
4.43642487358502e-13
-2.16584970479934e-13
4.94938318485329e-13
-1.53898221665865e-13
5.34643390791886e-13
-9.50881242784421e-14
5.64194159062567e-13
-3.88779155453907e-14
5.84574631260535e-13
1.59412135616538e-14
5.96401238468713e-13
7.05445812267888e-14
5.99976502019651e-13
1.26110317131931e-13
5.95319932722599e-13
1.83826539585243e-13
5.82166990532042e-13
2.44950918940857e-13
5.59925635174697e-13
3.10818205896149e-13
5.27650299731348e-13
3.82872640989725e-13
4.83944246529481e-13
4.62708375328377e-13
4.26811423142168e-13
5.52085480997299e-13
3.53506974161636e-13
6.52926120952591e-13
2.60104071630005e-13
7.67261011535543e-13
1.41138472766584e-13
8.97086017809591e-13
-1.10803176218827e-14
1.04401943433142e-12
-2.07388021605166e-13
1.20858722567042e-12
-4.63080512476839e-13
1.38886763099574e-12
-7.99674048494231e-13
1.57804304878337e-12
-1.24666150466793e-12
1.76031319521079e-12
-1.84273376386e-12
1.90400602997815e-12
-2.63298272011113e-12
1.95244865428517e-12
-3.65377462845417e-12
1.81098583604045e-12
-4.88075187376669e-12
1.34842571141334e-12
-6.05163382401908e-12
4.22216061021346e-13
-6.31825587220182e-12
-9.19666715813914e-13
-3.366938400748e-12
-2.19514044189401e-12
6.20809633444774e-12
-1.79887495583123e-12
2.23120709739799e-11
2.28474039273989e-11
1.61364560037097e-12
2.08842094140735e-11
2.0688448329014e-12
2.19364285276899e-11
1.03296324465908e-12
7.71008188969996e-12
-1.50210467454689e-13
-1.84067019954386e-12
-1.02958274782315e-12
-5.33830037175439e-12
-1.51745801339445e-12
-5.60287872724061e-12
-1.71397924678699e-12
-4.769750193654e-12
-1.72380585965607e-12
-3.73533338944589e-12
-1.63010674785244e-12
-2.81197562488819e-12
-1.4865508832032e-12
-2.06264594529122e-12
-1.32559876579654e-12
-1.47468215836501e-12
-1.16509321506568e-12
-1.01801590828982e-12
-1.01397542506442e-12
-6.63011610393842e-13
-8.75970115211429e-13
-3.85460894958345e-13
-7.51940217318815e-13
-1.66709158998478e-13
-6.41297031767812e-13
7.13616030971875e-15
-5.42752944015156e-13
1.46251496281776e-13
-4.54790862620875e-13
2.58072482021323e-13
-3.75828310004039e-13
3.48020113810124e-13
-3.04358124910781e-13
4.20055548495409e-13
-2.38955587224219e-13
4.7709592247477e-13
-1.78291539547611e-13
5.21244055489378e-13
-1.2112876222909e-13
5.54029123030017e-13
-6.62889868555253e-14
5.76493323577492e-13
-1.2649918364546e-14
5.89308398803816e-13
4.08855393636624e-14
5.92799503397785e-13
9.54105229833011e-14
5.86990288362479e-13
1.52034698196951e-13
5.71596636898151e-13
2.11911233896048e-13
5.45981623875943e-13
2.76253895156357e-13
5.09137254734825e-13
3.46352948917332e-13
4.59590200007193e-13
4.23586742252848e-13
3.95255544035992e-13
5.09431144557325e-13
3.13291738863343e-13
6.05396686384223e-13
2.09740813860378e-13
7.12948564179998e-13
7.91882032432245e-14
8.33274638220007e-13
-8.57725293885468e-14
9.66877412279444e-13
-2.95282118581257e-13
1.11275410610475e-12
-5.63120282442307e-13
1.26700846488748e-12
-9.07893442538557e-13
1.42045545497041e-12
-1.35378194435605e-12
1.55491347985008e-12
-1.9304412183901e-12
1.6374005154354e-12
-2.66811009708448e-12
1.61349147912137e-12
-3.58166004203253e-12
1.39910740069453e-12
-4.61704826475846e-12
8.89826429939012e-13
-5.49157657710078e-12
-1.05632999206252e-14
-5.36491801331433e-12
-1.20314518583066e-12
-2.11807542581416e-12
-2.22005480295521e-12
7.28279560792335e-12
-1.6947077408186e-12
2.18362115335871e-11
2.11757842075928e-11
1.36354412187954e-12
1.95704508259821e-11
1.77435165667314e-12
2.15706275543531e-11
9.8651647979542e-13
8.53385135300954e-12
1.2517925937319e-14
-8.34946033558411e-13
-7.62495310499895e-13
-4.5348746895707e-12
-1.23240168117181e-12
-5.10717736587418e-12
-1.4562779043667e-12
-4.52187757885454e-12
-1.51006875625071e-12
-3.65871019990466e-12
-1.46145856325353e-12
-2.83854094528512e-12
-1.35759252666267e-12
-2.14506682018313e-12
-1.22907518260812e-12
-1.58226885400472e-12
-1.09407224527316e-12
-1.13256654995959e-12
-9.62618116160347e-13
-7.74472807968009e-13
-8.39666818178706e-13
-4.88866152262645e-13
-7.2717446265201e-13
-2.60088357428168e-13
-6.25431408462113e-13
-7.59122371717199e-14
-5.33827034788448e-13
7.29419959862529e-14
-4.51343730852497e-13
1.93504320719806e-13
-3.76768279934604e-13
2.91003814524565e-13
-3.08869036461918e-13
3.6938358992306e-13
-2.46418699455331e-13
4.31567669978018e-13
-1.88249427303251e-13
4.79717855381984e-13
-1.33242164299515e-13
5.15413354629289e-13
-8.03242477866641e-14
5.39741382137272e-13
-2.84589277098292e-14
5.53409115923628e-13
2.3364543310228e-14
5.56765974762471e-13
7.61586625255906e-14
5.49832435478617e-13
1.30948242779231e-13
5.32310466238135e-13
1.88781402425869e-13
5.03538158896606e-13
2.50748979692225e-13
4.62463417451557e-13
3.17990301767134e-13
4.07563232192846e-13
3.91672592400757e-13
3.36724268140875e-13
4.730005912502e-13
2.47068465957883e-13
5.63117601911501e-13
1.34700219224133e-13
6.62983161837114e-13
-5.60738073599683e-15
7.73111199965277e-13
-1.80812666928001e-13
8.931210499291e-13
-4.0015641894703e-13
1.0209242505569e-12
-6.75705574070027e-13
1.15139317306866e-12
-1.02302017140102e-12
1.27426036825608e-12
-1.46112714073265e-12
1.37104001594409e-12
-2.01143669692982e-12
1.41065719363344e-12
-2.69156143226586e-12
1.34532512707383e-12
-3.49962966160612e-12
1.10663107631575e-12
-4.36097377724599e-12
6.18970593144022e-13
-4.98567744438495e-12
-1.7320595557913e-13
-4.55314864057949e-12
-1.15352871862919e-12
-1.11586469491147e-12
-1.92223410589201e-12
8.07440953785829e-12
-1.44387993491345e-12
2.13744444516452e-11
1.9735272131301e-11
1.08566940126131e-12
1.85041545062753e-11
1.40065019926791e-12
2.12620912631734e-11
8.20362504908401e-13
9.11319196506196e-12
5.20599465421229e-14
-6.95978287830225e-14
-5.95847522018942e-13
-3.89142876017985e-12
-1.01803680815357e-12
-4.69078607644735e-12
-1.24235157966538e-12
-4.30430461662085e-12
-1.31984712011069e-12
-3.58855876091075e-12
-1.30246225334693e-12
-2.8636867992607e-12
-1.22941355967068e-12
-2.22623164914143e-12
-1.12793021850378e-12
-1.69222253685843e-12
-1.01529523182093e-12
-1.25404346188665e-12
-9.0178191917946e-13
-8.9721551123445e-13
-7.93016657910422e-13
-6.07257046674272e-13
-6.91701406400988e-13
-3.71424737422245e-13
-5.98789492000948e-13
-1.7923309862043e-13
-5.14230081442148e-13
-2.24006803605512e-14
-4.37425489115797e-13
1.05559482637698e-13
-3.67501694410287e-13
2.0960434477926e-13
-3.03473536892716e-13
2.93567200558322e-13
-2.4430975834168e-13
3.60328197920266e-13
-1.88993987267149e-13
4.12063859485169e-13
-1.36527437760448e-13
4.5037211057596e-13
-8.59425813164004e-14
4.76370148560277e-13
-3.62909351753318e-14
4.90783661922175e-13
1.33562870633233e-14
4.93980229081951e-13
6.39244368031729e-14
4.8598227444326e-13
1.16349816039305e-13
4.66478671039928e-13
1.71578405152784e-13
4.34797337501179e-13
2.30580248915954e-13
3.8985948778528e-13
2.94341506982214e-13
3.30125960704144e-13
3.63840430641552e-13
2.53489936372341e-13
4.40026846998287e-13
1.57102597192333e-13
5.23713328322205e-13
3.7205822328306e-14
6.1542925928386e-13
-1.1114290256692e-13
7.15143916829003e-13
-2.94341073525356e-13
8.21806991306213e-13
-5.20608963126506e-13
9.32598342110152e-13
-8.00246924525802e-13
1.04172898445834e-12
-1.14584648702881e-12
1.1387122640257e-12
-1.57173711606816e-12
1.20598471049502e-12
-2.0922419760893e-12
1.21594293817873e-12
-2.71491674264055e-12
1.12889752885305e-12
-3.42579572313153e-12
8.92443881109644e-13
-4.13752102867007e-12
4.56078422702357e-13
-4.56208327953739e-12
-2.04741690482764e-13
-3.90458689333627e-12
-9.75463895342345e-13
-3.56174969233432e-13
-1.53518931024506e-12
8.62331384984195e-12
-1.15819185952726e-12
2.09828015575782e-11
1.85616120955388e-11
8.30896975206754e-13
1.76656718067811e-11
1.05469046176487e-12
2.10124057993521e-11
6.35215114587712e-13
9.50185625383348e-12
4.24109782532157e-14
4.92413863778909e-13
-4.84366529908702e-13
-3.39536283187275e-12
-8.50129724891098e-13
-4.35594243563731e-12
-1.06138469110812e-12
-4.12417165826613e-12
-1.14994476063044e-12
-3.53125081826794e-12
-1.15392745219467e-12
-2.89107281569212e-12
-1.10476599393476e-12
-2.30692494319444e-12
-1.02577237354873e-12
-1.80297654912003e-12
-9.32697688345276e-13
-1.37916803889745e-12
-8.35499399047092e-13
-1.02679440799322e-12
-7.40055984042843e-13
-7.3543611538304e-13
-6.49532324228799e-13
-4.95047217572897e-13
-5.65356055210965e-13
-2.96869663574487e-13
-4.87913827827965e-13
-1.33653729820562e-13
-4.16963354239425e-13
4.62718071497766e-16
-3.51926281760875e-13
1.10105407668536e-13
-2.92038579628322e-13
1.98923312226885e-13
-2.36452694319066e-13
2.69716289701347e-13
-1.84298318692443e-13
3.24637500730095e-13
-1.34695400481017e-13
3.6527547633463e-13
-8.67771295014957e-14
3.9275985212062e-13
-3.96865677401338e-14
4.07825799972051e-13
7.41822549298394e-15
4.10854196540405e-13
5.53784669076149e-14
4.01866932355102e-13
1.05038961026406e-13
3.80547368595722e-13
1.57245991112296e-13
3.46221080500184e-13
2.12850471005566e-13
2.97802678589504e-13
2.72692024537446e-13
2.33763337661977e-13
3.37571781259606e-13
1.52034282463599e-13
4.0820953346155e-13
4.98479845432274e-14
4.85131473613245e-13
-7.63612356800393e-14
5.68511570619555e-13
-2.31182810698604e-13
6.57888552776759e-13
-4.2038057239957e-13
7.51737299741735e-13
-6.51114920442694e-13
8.46791274625939e-13
-9.31951511057843e-13
9.37026181417948e-13
-1.27273492860058e-12
1.01229876847659e-12
-1.6836876645105e-12
1.05663532271319e-12
-2.17330894802899e-12
1.04644511556058e-12
-2.74154192074087e-12
9.49990668583311e-13
-3.36628587779604e-12
7.28958510922464e-13
-3.95364665735297e-12
3.5226348079567e-13
-4.22286893717459e-12
-1.83497011643832e-13
-3.40655603647918e-12
-7.75270388243495e-13
1.98019287994005e-13
-1.17297597308219e-12
8.98313563024352e-12
-8.93802042848025e-13
2.06638925624534e-11
1.76381705883514e-11
6.18966110021347e-13
1.70164835531973e-11
7.73181228344308e-13
2.08063792218083e-11
4.72210565120433e-13
9.74857450404496e-12
1.90861508371692e-14
8.93184639318882e-13
-4.0321678118059e-13
-3.02393890749558e-12
-7.13760009901378e-13
-4.09551832378394e-12
-9.05897331954012e-13
-3.98173073958748e-12
-9.97638369025275e-13
-3.48894607931928e-12
-1.0158820045491e-12
-2.92214073817326e-12
-9.85130390584183e-13
-2.38699941750572e-12
-9.24791576737629e-13
-1.91276912819424e-12
-8.48774360249098e-13
-1.5048620743604e-12
-7.66367263563954e-13
-1.15916185166297e-12
-6.83395932755268e-13
-8.6868699474085e-13
-6.03251182343408e-13
-6.25805381124624e-13
-5.27681840355494e-13
-4.23388253228667e-13
-4.57398686306973e-13
-2.55213844560036e-13
-3.92448848080475e-13
-1.16078171786815e-13
-3.32500009221137e-13
-1.73014240543459e-15
-2.76989553291618e-13
9.12509292533657e-14
-2.25240449585445e-13
1.65552728495259e-13
-1.76516265710245e-13
2.23268580814113e-13
-1.30050788919154e-13
2.65959021640861e-13
-8.50826915820902e-14
2.94756063555521e-13
-4.08446317967795e-14
3.10389268539336e-13
3.42017080075179e-15
3.13247741998877e-13
4.84682776739369e-14
3.03353290603659e-13
9.50491096251664e-14
2.80394314865547e-13
1.43914833561861e-13
2.43691684774238e-13
1.95796974057238e-13
1.92180151886634e-13
2.51399335824619e-13
1.24357805594463e-13
3.11359764348655e-13
3.82200136402542e-14
3.76196115723621e-13
-6.88806323892678e-14
4.46190591523213e-13
-2.00274446061415e-13
5.21228190510387e-13
-3.60155044534436e-13
6.00531582108977e-13
-5.53627731625069e-13
6.82262296327033e-13
-7.86797061927658e-13
7.62940592543929e-13
-1.06659996105427e-12
8.36620460483767e-13
-1.40043235829102e-12
8.93853717279019e-13
-1.79503730096465e-12
9.20561332353317e-13
-2.25430737843711e-12
8.97154651215489e-13
-2.77269988718196e-12
7.98968024084928e-13
-3.32306870697205e-12
5.99131936356358e-13
-3.8093684836049e-12
2.80454456198508e-13
-3.96056908629399e-12
-1.47547192407681e-13
-3.03589769526675e-12
-5.9710658437299e-13
5.89326649471739e-13
-8.76031588604253e-13
9.20259701036352e-12
-6.72978739981188e-13
2.04013634667987e-11
1.69243138779657e-11
4.5289661038996e-13
1.65173479136935e-11
5.58763674963191e-13
2.06316686362685e-11
3.4260330601617e-13
9.89578884385742e-12
-2.95532103121059e-15
1.17307064116523e-12
-3.39188866104414e-13
-2.7509181541792e-12
-5.99654370808171e-13
-3.89681779694182e-12
-7.70564276359012e-13
-3.87172367047356e-12
-8.60573755862079e-13
-3.45931422010329e-12
-8.87907275122831e-13
-2.95490162092542e-12
-8.71211615278885e-13
-2.46370273277514e-12
-8.2627488352624e-13
-2.01778017975049e-12
-7.65077548340641e-13
-1.62631179108881e-12
-6.96029846317049e-13
-1.28871120595556e-12
-6.24688847294451e-13
-1.00082033603246e-12
-5.54482955857773e-13
-7.57112287064298e-13
-4.87349202200359e-13
-5.519360336524e-13
-4.24219133514346e-13
-3.80063858726225e-13
-3.65371377370603e-13
-2.36939628755916e-13
-3.10674407092182e-13
-1.18717072086497e-13
-2.59741804997379e-13
-2.22281756056834e-14
-2.12047490616136e-13
5.50761655051441e-14
-1.66981015303144e-13
1.15206079005496e-13
-1.23891691345262e-13
1.59681335554832e-13
-8.21119851952236e-14
1.89616929813896e-13
-4.09682356006318e-14
2.05735184156776e-13
2.12199674750763e-16
2.084251994229e-13
4.20973779680312e-14
1.97711450116907e-13
8.53497765154842e-14
1.73286821806912e-13
1.30621893290908e-13
1.34481058585341e-13
1.78535341790653e-13
8.02578408892028e-14
2.29667471362242e-13
9.15929478793671e-15
2.84507664592952e-13
-8.0732389521262e-14
3.43396793848428e-13
-1.91916757287089e-13
4.06418194813512e-13
-3.27467658331861e-13
4.7323397516607e-13
-4.91158390681535e-13
5.42846827094867e-13
-6.87439805280186e-13
6.13244043906012e-13
-9.21408565917238e-13
6.80916704211692e-13
-1.19852101364906e-12
7.40212162618248e-13
-1.52405132388612e-12
7.82593112198719e-13
-1.90188992197052e-12
7.95960124314329e-13
-2.33240327509374e-12
7.64418624537545e-13
-2.80629482443731e-12
6.69272460909143e-13
-3.29366283997124e-12