/*--------------------------------*- C++ -*----------------------------------*\
  =========                 |
  \\      /  F ield         | OpenFOAM: The Open Source CFD Toolbox
   \\    /   O peration     | Website:  https://openfoam.org
    \\  /    A nd           | Version:  10
     \\/     M anipulation  |
\*---------------------------------------------------------------------------*/
FoamFile
{
    format      ascii;
    class       volScalarField;
    location    "6.6";
    object      rho;
}
// * * * * * * * * * * * * * * * * * * * * * * * * * * * * * * * * * * * * * //

dimensions      [1 -3 0 0 0 0 0];

internalField   nonuniform List<scalar> 
2500
(
1.14487234420705
1.14489407853449
1.14494024805717
1.14497357861913
1.14499377888618
1.14500528023588
1.14501160734363
1.14501497959935
1.14501671034504
1.14501755814274
1.14501796001449
1.14501814142583
1.14501822003882
1.14501825502296
1.14501827108843
1.14501827997595
1.14501828398806
1.14501828736809
1.14501829066879
1.14501829292389
1.14501829480653
1.14501829641298
1.14501829772418
1.14501829853831
1.14501829936481
1.14501830004648
1.14501830029083
1.14501830036042
1.14501830020681
1.14501829978466
1.14501829904521
1.14501829766462
1.14501829594496
1.14501829344563
1.14501828944735
1.14501828184437
1.14501826555568
1.14501822928414
1.14501814364667
1.14501795324642
1.14501753928742
1.14501667238508
1.14501492897416
1.14501156010158
1.14500526220976
1.14499383546175
1.14497367780604
1.14494018012749
1.14489365144048
1.14487276379394
1.14836042491844
1.1484745774289
1.14860870609977
1.14870363472616
1.14876249929236
1.14879707073766
1.14881674347897
1.14882758753074
1.14883334056633
1.14883626177977
1.14883768074265
1.14883833853181
1.14883862991496
1.14883875455817
1.14883880643623
1.14883882813718
1.14883883689072
1.14883884122005
1.14883884403803
1.14883884585355
1.14883884728649
1.14883884852987
1.14883884956253
1.14883885026444
1.1488388508907
1.14883885141374
1.14883885167339
1.14883885181423
1.14883885183758
1.14883885165453
1.1488388511893
1.14883885013122
1.14883884799346
1.14883884360477
1.14883883393495
1.14883881064885
1.14883875400152
1.14883861937522
1.14883830844326
1.1488376209608
1.14883616150119
1.14883319326907
1.14882740962864
1.14881658647345
1.14879702449688
1.14876264509447
1.14870382910566
1.14860829059413
1.14847285663782
1.14836188090064
1.15191410219943
1.15211076258231
1.15230133944611
1.15243183296964
1.15251197721363
1.15255884939596
1.15258547526567
1.15260015379438
1.15260795467193
1.15261192878844
1.15261386511295
1.15261476605093
1.15261516647546
1.15261533720006
1.15261540732866
1.15261543539779
1.15261544625202
1.15261545075811
1.15261545302374
1.15261545431404
1.15261545527284
1.15261545612685
1.15261545686093
1.15261545737692
1.15261545779897
1.15261545815685
1.15261545836843
1.15261545852266
1.15261545863804
1.15261545864099
1.15261545842644
1.1526154576602
1.15261545547537
1.15261545031868
1.15261543806182
1.1526154072258
1.15261533070581
1.15261514728405
1.15261472392534
1.15261378768503
1.15261180331526
1.15260777539653
1.15259993965641
1.15258528662864
1.15255878772323
1.1525121013687
1.15243185730747
1.15230019453986
1.15210706553024
1.15191266805359
1.1550771752587
1.15531124353359
1.15550867806711
1.15563859958802
1.15571607611626
1.15576019659444
1.15578466817847
1.15579788890732
1.15580479958594
1.15580827335107
1.15580994705673
1.15581071858925
1.15581105872621
1.15581120246628
1.15581126083828
1.15581128371363
1.15581129231379
1.15581129561248
1.15581129705307
1.15581129779145
1.15581129832581
1.15581129883763
1.15581129930842
1.15581129964484
1.15581129989802
1.15581130011573
1.15581130026148
1.15581130039344
1.15581130053278
1.15581130060861
1.1558113006154
1.15581130030596
1.15581129871994
1.15581129471051
1.15581128506455
1.15581126019537
1.15581119738691
1.15581104480214
1.15581068867776
1.15580989188319
1.155808182561
1.15580466681558
1.15579772398651
1.15578451023785
1.15576010973097
1.15571605700166
1.15563825671554
1.15550672070512
1.15530572130097
1.15507095453112
1.15758872176161
1.15781268661109
1.15798344004664
1.15809147358542
1.15815391758645
1.15818848489784
1.15820718539315
1.15821708372765
1.15822217600416
1.15822470506821
1.15822591255003
1.15822646536716
1.15822670777898
1.15822680968984
1.15822685079073
1.15822686667485
1.15822687249842
1.15822687458914
1.15822687538591
1.15822687573163
1.1582268759677
1.15822687622718
1.15822687649676
1.1582268766917
1.15822687682304
1.15822687693764
1.1582268770247
1.1582268771207
1.15822687724299
1.15822687734202
1.1582268774276
1.15822687742079
1.15822687647027
1.15822687378598
1.15822686733498
1.15822685035752
1.15822680690672
1.15822670031088
1.15822644937087
1.15822588281066
1.15822465530337
1.15822210141495
1.15821698779986
1.15820708739665
1.15818841213162
1.15815381981356
1.15809092893192
1.15798113521777
1.1578063292558
1.15757881109782
1.15939340566904
1.15957656466708
1.15970548806106
1.15978406992585
1.15982811356472
1.15985182275182
1.15986433900064
1.15987083500195
1.15987412823211
1.15987574688481
1.15987651422383
1.15987686389452
1.15987701675023
1.15987708083742
1.15987710657415
1.15987711641611
1.15987711993808
1.15987712112146
1.15987712150461
1.15987712162394
1.15987712168758
1.15987712178712
1.15987712192262
1.15987712202195
1.15987712207689
1.15987712212686
1.15987712217249
1.15987712223406
1.15987712232408
1.1598771224158
1.15987712252474
1.15987712263441
1.15987712213106
1.15987712055072
1.15987711670719
1.15987710637706
1.15987707966044
1.15987701365551
1.15987685728848
1.1598765018857
1.15987572592877
1.15987409612355
1.15987079284699
1.15986429501881
1.15985178382217
1.15982801561357
1.1597835365756
1.15970335637659
1.1595705486034
1.15938227710929
1.16057998502314
1.16071231058473
1.16079947549421
1.16085078143386
1.16087869993412
1.16089332950981
1.16090087247539
1.16090471467945
1.16090663639396
1.16090757250168
1.16090801385765
1.16090821439103
1.16090830193147
1.16090833859801
1.16090835328441
1.16090835885327
1.1609083608018
1.16090836140471
1.16090836155325
1.16090836157831
1.16090836157073
1.16090836158079
1.16090836163714
1.16090836167962
1.16090836169299
1.16090836170907
1.16090836173012
1.16090836176546
1.16090836182409
1.16090836189447
1.16090836199009
1.16090836211089
1.16090836188138
1.16090836104731
1.16090835895565
1.16090835320758
1.16090833821895
1.16090830101184
1.16090821248478
1.16090801034194
1.16090756647996
1.16090662705344
1.16090470283399
1.16090086210537
1.16089332098549
1.16087863959818
1.16085038183023
1.16079782510989
1.16070743534194
1.16056987300777
1.16130042950465
1.16138668211953
1.16144036542409
1.1614709517255
1.16148713531867
1.16149540080859
1.16149956712117
1.16150165172319
1.16150268134977
1.16150317899868
1.16150341265992
1.16150351865927
1.16150356492897
1.16150358431347
1.16150359206537
1.16150359498352
1.16150359598277
1.16150359625611
1.16150359628622
1.16150359627066
1.16150359625736
1.16150359624983
1.16150359626309
1.16150359627601
1.1615035962702
1.16150359627148
1.16150359627993
1.1615035962984
1.16150359633328
1.1615035963806
1.16150359644889
1.16150359653824
1.16150359645736
1.16150359606159
1.16150359500029
1.16150359202842
1.16150358423125
1.16150356481997
1.16150351851352
1.16150341247918
1.16150317873948
1.16150268107711
1.16150165242813
1.16149957160434
1.16149540942084
1.16148711319621
1.16147070639121
1.16143925607452
1.16138320357064
1.16129254449587
1.16170751931232
1.16175900259303
1.16178950441551
1.16180636373591
1.16181505129374
1.16181938155369
1.16182151744884
1.1618225679424
1.16182308070973
1.16182332683731
1.16182344204284
1.16182349427931
1.16182351710243
1.1618235266743
1.16182353049847
1.16182353192856
1.16182353240125
1.16182353250831
1.16182353250448
1.16182353248601
1.16182353247144
1.16182353246114
1.16182353245976
1.16182353245863
1.16182353245182
1.16182353244975
1.16182353245245
1.16182353246181
1.16182353248117
1.16182353250988
1.16182353255229
1.16182353260546
1.16182353259058
1.16182353242148
1.16182353191334
1.16182353047056
1.16182352666732
1.16182351718594
1.16182349454263
1.16182344263068
1.16182332793534
1.16182308265117
1.1618225717272
1.16182152543948
1.16181939536023
1.16181505252579
1.16180623739836
1.16178884175497
1.16175677322346
1.16170206848533
1.16192303002929
1.16195148655286
1.16196763325218
1.16197630923867
1.16198066992546
1.16198279389937
1.16198381998498
1.16198431634079
1.16198455590947
1.16198467018737
1.1619847235545
1.16198474776039
1.16198475835441
1.16198476280479
1.16198476458174
1.16198476524183
1.16198476544997
1.16198476548722
1.16198476547822
1.16198476546339
1.16198476545156
1.16198476544316
1.16198476543904
1.16198476543518
1.16198476543009
1.16198476542753
1.16198476542819
1.16198476543304
1.16198476544312
1.16198476545914
1.16198476548297
1.1619847655109
1.16198476551347
1.16198476544751
1.16198476522024
1.16198476455757
1.16198476280359
1.16198475842992
1.16198474798719
1.16198472405226
1.16198467112742
1.16198455760265
1.16198431959496
1.16198382668405
1.1619828062325
1.16198068009395
1.16197625513828
1.16196727588935
1.16195018387305
1.1619196190231
1.16203053783841
1.16204523168483
1.16205325868844
1.16205745958214
1.16205952207243
1.16206050493823
1.16206097037314
1.16206119192435
1.16206129770184
1.16206134787081
1.16206137125987
1.16206138187893
1.16206138653707
1.16206138849783
1.16206138928035
1.16206138956896
1.16206138965549
1.16206138966654
1.16206138965901
1.16206138964935
1.16206138964156
1.16206138963597
1.16206138963251
1.16206138962931
1.16206138962613
1.16206138962424
1.16206138962438
1.16206138962679
1.16206138963171
1.16206138964002
1.16206138965239
1.16206138966658
1.16206138967108
1.16206138964693
1.16206138955091
1.16206138926118
1.16206138849138
1.16206138657292
1.16206138199885
1.16206137153135
1.16206134839848
1.16206129869382
1.1620611939315
1.16206097472747
1.16206051363095
1.16205953271425
1.16205744156862
1.16205308279823
1.16204452960291
1.16202857703903
1.16208132562676
1.16208846434433
1.16209223623193
1.16209416235518
1.16209508737302
1.16209551915442
1.16209571974181
1.16209581373672
1.16209585814125
1.16209587908882
1.16209588884271
1.16209589327767
1.16209589522832
1.16209589605125
1.16209589637952
1.16209589649952
1.1620958965333
1.16209589653576
1.16209589653129
1.16209589652578
1.16209589652129
1.16209589651801
1.16209589651577
1.16209589651374
1.16209589651195
1.16209589651083
1.16209589651081
1.16209589651193
1.16209589651421
1.16209589651823
1.16209589652422
1.16209589653105
1.16209589653405
1.16209589652583
1.16209589648717
1.16209589636592
1.16209589604267
1.16209589523801
1.16209589332422
1.16209588895656
1.16209587932145
1.16209585860922
1.16209581477004
1.16209572217854
1.16209552444365
1.16209509530647
1.16209415908508
1.1620921566538
1.16208811211776
1.16208027880068
1.16210414245051
1.1621074249273
1.16210910936281
1.1621099501102
1.16211034558615
1.16211052660615
1.16211060916766
1.16211064726805
1.16211066508131
1.16211067344159
1.16211067733095
1.16211067910262
1.16211067988416
1.16211068021464
1.16211068034637
1.16211068039398
1.16211068040658
1.16211068040675
1.16211068040424
1.16211068040137
1.162110680399
1.16211068039723
1.16211068039595
1.1621106803948
1.16211068039387
1.16211068039326
1.16211068039319
1.16211068039364
1.16211068039463
1.16211068039645
1.16211068039915
1.16211068040224
1.16211068040379
1.16211068040119
1.16211068038624
1.16211068033744
1.16211068020699
1.16211067988276
1.16211067911422
1.16211067736681
1.16211067352321
1.16211066526636
1.16211064773502
1.16211061039334
1.16211052949795
1.16211035054214
1.16210995135937
1.16210907614012
1.16210725920647
1.16210361894522
1.16211392349289
1.16211535913738
1.16211607730871
1.16211642826117
1.16211659015952
1.16211666290502
1.1621166955041
1.16211671032496
1.16211671718373
1.16211672038679
1.16211672187592
1.16211672255563
1.16211672285639
1.16211672298385
1.1621167230346
1.16211672305267
1.16211672305714
1.16211672305686
1.16211672305556
1.16211672305414
1.16211672305295
1.16211672305205
1.16211672305135
1.16211672305074
1.16211672305025
1.16211672304992
1.16211672304983
1.16211672304998
1.16211672305036
1.16211672305111
1.16211672305224
1.16211672305353
1.16211672305425
1.16211672305347
1.16211672304783
1.16211672302886
1.16211672297806
1.16211672285206
1.16211672255464
1.1621167218815
1.16211672040662
1.16211671724376
1.162116710514
1.1621166960712
1.1621166643581
1.16211659290761
1.1621164300907
1.16211606450708
1.16211528556337
1.1621136765675
1.16211793242257
1.16211853223082
1.16211882570779
1.16211896634718
1.16211903005264
1.16211905818142
1.16211907057627
1.16211907613019
1.16211907867462
1.16211907985708
1.16211908040651
1.16211908065782
1.16211908076935
1.16211908081669
1.16211908083549
1.16211908084205
1.16211908084353
1.16211908084326
1.1621190808426
1.16211908084192
1.16211908084133
1.16211908084086
1.16211908084049
1.16211908084015
1.16211908083988
1.16211908083968
1.16211908083959
1.16211908083959
1.16211908083969
1.16211908083995
1.16211908084037
1.16211908084086
1.16211908084112
1.16211908084087
1.16211908083879
1.16211908083164
1.16211908081248
1.1621190807651
1.1621190806538
1.16211908040323
1.16211907985682
1.16211907868818
1.1621190761988
1.16211907082087
1.1621190588621
1.16211903144465
1.162118967674
1.16211882117633
1.16211850124917
1.16211782194336
1.16211950212272
1.16211974239677
1.16211985772844
1.16211991201343
1.16211993618752
1.16211994668728
1.16211995124041
1.16211995325203
1.16211995416447
1.16211995458642
1.16211995478236
1.16211995487215
1.16211995491208
1.16211995492903
1.16211995493571
1.16211995493797
1.16211995493839
1.16211995493819
1.16211995493785
1.1621199549375
1.16211995493719
1.16211995493693
1.16211995493671
1.16211995493651
1.16211995493633
1.16211995493619
1.16211995493609
1.16211995493603
1.16211995493602
1.16211995493606
1.16211995493617
1.16211995493632
1.16211995493638
1.16211995493626
1.16211995493548
1.16211995493285
1.16211995492583
1.16211995490854
1.16211995486815
1.16211995477776
1.16211995458171
1.16211995416386
1.16211995327357
1.16211995133926
1.16211994698716
1.16211993684247
1.16211991277852
1.16211985627419
1.16211972996797
1.16211945500883
1.16212008425576
1.16212017683995
1.16212022055316
1.16212024079302
1.16212024966445
1.16212025345856
1.162120255079
1.16212025578519
1.16212025610233
1.16212025624824
1.16212025631591
1.16212025634695
1.16212025636075
1.16212025636658
1.16212025636882
1.16212025636953
1.16212025636959
1.16212025636944
1.16212025636923
1.16212025636903
1.16212025636884
1.16212025636868
1.16212025636852
1.16212025636838
1.16212025636825
1.16212025636813
1.16212025636803
1.16212025636794
1.16212025636787
1.16212025636783
1.16212025636782
1.16212025636782
1.16212025636779
1.16212025636771
1.1621202563674
1.16212025636643
1.16212025636391
1.16212025635777
1.16212025634353
1.16212025631187
1.16212025624358
1.16212025609863
1.16212025578995
1.16212025511603
1.16212025358317
1.16212024995346
1.1621202411799
1.16212022014305
1.16212017207146
1.16212006502656
1.16212028203304
1.16212031644755
1.16212033246764
1.16212033977502
1.16212034293122
1.16212034426161
1.16212034482163
1.16212034506244
1.16212034516948
1.16212034521843
1.16212034524106
1.16212034525141
1.16212034525598
1.16212034525787
1.16212034525855
1.16212034525871
1.16212034525865
1.16212034525852
1.16212034525837
1.16212034525823
1.16212034525809
1.16212034525796
1.16212034525784
1.16212034525772
1.1621203452576
1.16212034525749
1.16212034525739
1.16212034525729
1.1621203452572
1.16212034525713
1.16212034525706
1.16212034525701
1.16212034525695
1.16212034525687
1.16212034525672
1.16212034525635
1.16212034525546
1.16212034525333
1.16212034524844
1.16212034523766
1.16212034521454
1.16212034516567
1.16212034506171
1.16212034483377
1.16212034431002
1.16212034305117
1.16212033995291
1.16212033237402
1.16212031469141
1.16212027449435
1.16212033558827
1.16212034795967
1.16212035364904
1.16212035620919
1.16212035730001
1.16212035775355
1.16212035794181
1.16212035802166
1.16212035805674
1.16212035807263
1.16212035807992
1.1621203580832
1.16212035808461
1.16212035808514
1.16212035808528
1.16212035808525
1.16212035808515
1.16212035808504
1.16212035808491
1.16212035808479
1.16212035808467
1.16212035808456
1.16212035808444
1.16212035808433
1.16212035808422
1.16212035808411
1.16212035808401
1.16212035808391
1.16212035808381
1.16212035808372
1.16212035808364
1.16212035808356
1.16212035808348
1.16212035808341
1.16212035808332
1.16212035808316
1.16212035808283
1.1621203580821
1.16212035808047
1.16212035807691
1.16212035806931
1.1621203580533
1.16212035801926
1.16212035794431
1.16212035777041
1.16212035734636
1.16212035628443
1.16212035363659
1.1621203473362
1.16212033273972
1.16212033683253
1.16212034114318
1.16212034310491
1.16212034397684
1.16212034434367
1.16212034449417
1.16212034455576
1.16212034458147
1.16212034459258
1.16212034459752
1.16212034459972
1.16212034460066
1.16212034460101
1.16212034460109
1.16212034460105
1.16212034460095
1.16212034460085
1.16212034460073
1.16212034460062
1.16212034460051
1.16212034460039
1.16212034460028
1.16212034460017
1.16212034460006
1.16212034459995
1.16212034459985
1.16212034459974
1.16212034459964
1.16212034459954
1.16212034459944
1.16212034459935
1.16212034459926
1.16212034459918
1.16212034459911
1.16212034459903
1.16212034459894
1.16212034459881
1.16212034459856
1.16212034459803
1.16212034459689
1.16212034459448
1.16212034458941
1.1621203445786
1.16212034455465
1.1621203444985
1.16212034435958
1.1621203440057
1.16212034310699
1.16212034092829
1.16212033579139
1.16212031969343
1.16212032115217
1.16212032180992
1.16212032209896
1.1621203222191
1.16212032226771
1.16212032228726
1.16212032229524
1.16212032229857
1.16212032229998
1.16212032230054
1.16212032230072
1.16212032230073
1.16212032230066
1.16212032230056
1.16212032230045
1.16212032230034
1.16212032230022
1.16212032230011
1.1621203223
1.16212032229989
1.16212032229978
1.16212032229967
1.16212032229956
1.16212032229945
1.16212032229934
1.16212032229924
1.16212032229913
1.16212032229903
1.16212032229893
1.16212032229884
1.16212032229875
1.16212032229866
1.16212032229859
1.16212032229852
1.16212032229845
1.16212032229838
1.16212032229829
1.16212032229812
1.16212032229777
1.16212032229705
1.16212032229552
1.16212032229223
1.16212032228483
1.16212032226722
1.16212032222295
1.16212032210818
1.16212032181143
1.16212032107905
1.16212031932349
1.162120296282
1.16212029676223
1.16212029697689
1.16212029707017
1.16212029710845
1.16212029712368
1.16212029712964
1.16212029713195
1.16212029713283
1.16212029713313
1.16212029713318
1.16212029713312
1.16212029713303
1.16212029713291
1.1621202971328
1.16212029713268
1.16212029713257
1.16212029713246
1.16212029713234
1.16212029713223
1.16212029713212
1.16212029713201
1.1621202971319
1.16212029713179
1.16212029713168
1.16212029713158
1.16212029713147
1.16212029713136
1.16212029713126
1.16212029713116
1.16212029713106
1.16212029713097
1.16212029713088
1.16212029713081
1.16212029713074
1.16212029713068
1.16212029713062
1.16212029713058
1.16212029713052
1.16212029713043
1.16212029713024
1.16212029712982
1.16212029712889
1.16212029712672
1.1621202971214
1.16212029710771
1.16212029707149
1.16212029697612
1.16212029673655
1.16212029615292
1.16212027078885
1.16212027094285
1.16212027101098
1.16212027104022
1.16212027105203
1.16212027105659
1.16212027105827
1.16212027105883
1.16212027105895
1.16212027105892
1.16212027105882
1.1621202710587
1.16212027105857
1.16212027105845
1.16212027105832
1.16212027105821
1.16212027105809
1.16212027105798
1.16212027105787
1.16212027105776
1.16212027105765
1.16212027105754
1.16212027105743
1.16212027105732
1.16212027105721
1.1621202710571
1.16212027105699
1.16212027105688
1.16212027105678
1.16212027105667
1.16212027105658
1.16212027105648
1.1621202710564
1.16212027105632
1.16212027105624
1.16212027105618
1.16212027105614
1.1621202710561
1.16212027105608
1.16212027105605
1.16212027105602
1.16212027105594
1.16212027105572
1.16212027105515
1.16212027105364
1.16212027104958
1.1621202710385
1.16212027100872
1.16212027093248
1.16212027074349
1.16212024462252
1.16212024467063
1.16212024469155
1.16212024470036
1.16212024470381
1.16212024470505
1.16212024470543
1.16212024470546
1.16212024470538
1.16212024470525
1.16212024470511
1.16212024470498
1.16212024470484
1.16212024470472
1.1621202447046
1.16212024470448
1.16212024470437
1.16212024470426
1.16212024470415
1.16212024470404
1.16212024470393
1.16212024470381
1.1621202447037
1.16212024470359
1.16212024470348
1.16212024470337
1.16212024470326
1.16212024470315
1.16212024470305
1.16212024470294
1.16212024470284
1.16212024470275
1.16212024470266
1.16212024470258
1.1621202447025
1.16212024470244
1.16212024470239
1.16212024470235
1.16212024470233
1.16212024470233
1.16212024470233
1.16212024470234
1.16212024470233
1.16212024470222
1.16212024470185
1.16212024470073
1.16212024469749
1.16212024468854
1.16212024466504
1.16212024460539
1.16212021824375
1.16212021825835
1.16212021826443
1.16212021826688
1.16212021826777
1.16212021826802
1.16212021826801
1.1621202182679
1.16212021826777
1.16212021826762
1.16212021826748
1.16212021826735
1.16212021826722
1.1621202182671
1.16212021826698
1.16212021826687
1.16212021826676
1.16212021826665
1.16212021826653
1.16212021826642
1.16212021826631
1.1621202182662
1.16212021826609
1.16212021826598
1.16212021826586
1.16212021826575
1.16212021826564
1.16212021826553
1.16212021826542
1.16212021826532
1.16212021826522
1.16212021826512
1.16212021826503
1.16212021826495
1.16212021826487
1.1621202182648
1.16212021826475
1.16212021826471
1.16212021826468
1.16212021826468
1.16212021826468
1.16212021826471
1.16212021826474
1.16212021826476
1.16212021826471
1.16212021826445
1.16212021826359
1.16212021826108
1.16212021825418
1.16212021823587
1.16212019179946
1.16212019180372
1.16212019180524
1.16212019180577
1.1621201918059
1.16212019180587
1.16212019180576
1.16212019180563
1.1621201918055
1.16212019180536
1.16212019180523
1.1621201918051
1.16212019180498
1.16212019180486
1.16212019180475
1.16212019180463
1.16212019180452
1.16212019180441
1.1621201918043
1.16212019180419
1.16212019180408
1.16212019180397
1.16212019180386
1.16212019180374
1.16212019180363
1.16212019180352
1.16212019180341
1.1621201918033
1.16212019180319
1.16212019180308
1.16212019180298
1.16212019180288
1.16212019180278
1.1621201918027
1.16212019180262
1.16212019180255
1.16212019180249
1.16212019180244
1.16212019180241
1.16212019180239
1.16212019180239
1.16212019180241
1.16212019180244
1.16212019180248
1.1621201918025
1.16212019180248
1.16212019180231
1.16212019180173
1.16212019179995
1.16212019179453
1.16212016533541
1.16212016533654
1.16212016533671
1.16212016533667
1.1621201653366
1.1621201653365
1.16212016533639
1.16212016533627
1.16212016533614
1.16212016533602
1.16212016533589
1.16212016533578
1.16212016533566
1.16212016533555
1.16212016533544
1.16212016533533
1.16212016533522
1.16212016533511
1.162120165335
1.16212016533489
1.16212016533478
1.16212016533467
1.16212016533456
1.16212016533444
1.16212016533433
1.16212016533421
1.1621201653341
1.16212016533399
1.16212016533388
1.16212016533377
1.16212016533366
1.16212016533356
1.16212016533347
1.16212016533338
1.16212016533329
1.16212016533322
1.16212016533315
1.1621201653331
1.16212016533306
1.16212016533303
1.16212016533302
1.16212016533303
1.16212016533304
1.16212016533307
1.1621201653331
1.16212016533312
1.16212016533314
1.16212016533312
1.16212016533286
1.16212016533137
1.16212013886551
1.16212013886572
1.1621201388655
1.16212013886532
1.1621201388652
1.1621201388651
1.162120138865
1.1621201388649
1.16212013886479
1.16212013886468
1.16212013886457
1.16212013886446
1.16212013886435
1.16212013886425
1.16212013886414
1.16212013886403
1.16212013886393
1.16212013886382
1.16212013886371
1.1621201388636
1.16212013886349
1.16212013886338
1.16212013886326
1.16212013886315
1.16212013886303
1.16212013886292
1.1621201388628
1.16212013886269
1.16212013886258
1.16212013886247
1.16212013886236
1.16212013886226
1.16212013886216
1.16212013886207
1.16212013886198
1.1621201388619
1.16212013886183
1.16212013886177
1.16212013886172
1.16212013886168
1.16212013886166
1.16212013886165
1.16212013886164
1.16212013886165
1.16212013886166
1.16212013886169
1.16212013886173
1.16212013886187
1.16212013886205
1.16212013886172
1.16212011239391
1.16212011239386
1.16212011239354
1.16212011239333
1.16212011239322
1.16212011239314
1.16212011239306
1.16212011239297
1.16212011239288
1.16212011239279
1.16212011239269
1.16212011239259
1.16212011239249
1.16212011239239
1.16212011239228
1.16212011239218
1.16212011239208
1.16212011239197
1.16212011239186
1.16212011239175
1.16212011239164
1.16212011239153
1.16212011239142
1.1621201123913
1.16212011239119
1.16212011239107
1.16212011239095
1.16212011239084
1.16212011239073
1.16212011239061
1.16212011239051
1.1621201123904
1.1621201123903
1.1621201123902
1.16212011239011
1.16212011239003
1.16212011238995
1.16212011238988
1.16212011238982
1.16212011238978
1.16212011238974
1.16212011238971
1.16212011238969
1.16212011238968
1.16212011238967
1.16212011238967
1.16212011238971
1.16212011238987
1.16212011239017
1.16212011239018
1.16212008592183
1.16212008592171
1.16212008592138
1.16212008592118
1.16212008592108
1.16212008592102
1.16212008592096
1.16212008592089
1.16212008592082
1.16212008592074
1.16212008592065
1.16212008592056
1.16212008592047
1.16212008592037
1.16212008592028
1.16212008592018
1.16212008592007
1.16212008591997
1.16212008591986
1.16212008591976
1.16212008591964
1.16212008591953
1.16212008591942
1.1621200859193
1.16212008591919
1.16212008591907
1.16212008591895
1.16212008591884
1.16212008591872
1.16212008591861
1.1621200859185
1.16212008591839
1.16212008591828
1.16212008591818
1.16212008591809
1.162120085918
1.16212008591792
1.16212008591784
1.16212008591777
1.16212008591771
1.16212008591766
1.16212008591762
1.16212008591758
1.16212008591755
1.16212008591752
1.1621200859175
1.16212008591753
1.16212008591767
1.16212008591799
1.16212008591809
1.1621200594496
1.16212005944948
1.16212005944915
1.16212005944897
1.16212005944889
1.16212005944886
1.16212005944882
1.16212005944877
1.16212005944871
1.16212005944864
1.16212005944857
1.16212005944849
1.1621200594484
1.16212005944831
1.16212005944822
1.16212005944813
1.16212005944803
1.16212005944792
1.16212005944782
1.16212005944771
1.1621200594476
1.16212005944749
1.16212005944737
1.16212005944726
1.16212005944714
1.16212005944702
1.1621200594469
1.16212005944679
1.16212005944667
1.16212005944655
1.16212005944644
1.16212005944633
1.16212005944622
1.16212005944612
1.16212005944602
1.16212005944592
1.16212005944584
1.16212005944575
1.16212005944568
1.16212005944561
1.16212005944554
1.16212005944549
1.16212005944543
1.16212005944538
1.16212005944533
1.16212005944529
1.16212005944529
1.16212005944542
1.16212005944573
1.16212005944585
1.16212003297734
1.16212003297722
1.16212003297691
1.16212003297675
1.16212003297669
1.16212003297668
1.16212003297666
1.16212003297663
1.16212003297659
1.16212003297653
1.16212003297647
1.1621200329764
1.16212003297632
1.16212003297624
1.16212003297615
1.16212003297606
1.16212003297596
1.16212003297586
1.16212003297576
1.16212003297565
1.16212003297554
1.16212003297543
1.16212003297531
1.1621200329752
1.16212003297508
1.16212003297496
1.16212003297484
1.16212003297472
1.1621200329746
1.16212003297449
1.16212003297437
1.16212003297426
1.16212003297415
1.16212003297404
1.16212003297393
1.16212003297384
1.16212003297374
1.16212003297365
1.16212003297357
1.16212003297349
1.16212003297341
1.16212003297334
1.16212003297327
1.16212003297319
1.16212003297312
1.16212003297306
1.16212003297304
1.16212003297314
1.16212003297344
1.16212003297356
1.16212000650505
1.16212000650495
1.16212000650465
1.16212000650452
1.16212000650449
1.16212000650449
1.16212000650449
1.16212000650448
1.16212000650446
1.16212000650441
1.16212000650436
1.1621200065043
1.16212000650423
1.16212000650415
1.16212000650407
1.16212000650398
1.16212000650389
1.16212000650379
1.16212000650369
1.16212000650358
1.16212000650347
1.16212000650336
1.16212000650325
1.16212000650313
1.16212000650301
1.16212000650289
1.16212000650277
1.16212000650265
1.16212000650253
1.16212000650241
1.16212000650229
1.16212000650218
1.16212000650206
1.16212000650195
1.16212000650184
1.16212000650174
1.16212000650164
1.16212000650154
1.16212000650145
1.16212000650136
1.16212000650127
1.16212000650118
1.16212000650109
1.162120006501
1.16212000650091
1.16212000650083
1.16212000650078
1.16212000650086
1.16212000650114
1.16212000650125
1.16211998003276
1.16211998003267
1.1621199800324
1.16211998003229
1.16211998003228
1.16211998003231
1.16211998003233
1.16211998003233
1.16211998003232
1.16211998003229
1.16211998003225
1.1621199800322
1.16211998003214
1.16211998003206
1.16211998003199
1.1621199800319
1.16211998003181
1.16211998003172
1.16211998003161
1.16211998003151
1.1621199800314
1.16211998003129
1.16211998003117
1.16211998003106
1.16211998003094
1.16211998003082
1.16211998003069
1.16211998003057
1.16211998003045
1.16211998003033
1.16211998003021
1.16211998003009
1.16211998002997
1.16211998002986
1.16211998002975
1.16211998002964
1.16211998002953
1.16211998002942
1.16211998002932
1.16211998002922
1.16211998002912
1.16211998002902
1.16211998002892
1.16211998002881
1.1621199800287
1.16211998002859
1.16211998002853
1.16211998002858
1.16211998002884
1.16211998002894
1.16211995356046
1.16211995356038
1.16211995356013
1.16211995356005
1.16211995356007
1.16211995356012
1.16211995356016
1.16211995356018
1.16211995356018
1.16211995356017
1.16211995356013
1.16211995356009
1.16211995356004
1.16211995355997
1.1621199535599
1.16211995355982
1.16211995355973
1.16211995355963
1.16211995355954
1.16211995355943
1.16211995355932
1.16211995355921
1.1621199535591
1.16211995355898
1.16211995355886
1.16211995355874
1.16211995355861
1.16211995355849
1.16211995355837
1.16211995355824
1.16211995355812
1.162119953558
1.16211995355788