/*--------------------------------*- C++ -*----------------------------------*\
  =========                 |
  \\      /  F ield         | OpenFOAM: The Open Source CFD Toolbox
   \\    /   O peration     | Website:  https://openfoam.org
    \\  /    A nd           | Version:  10
     \\/     M anipulation  |
\*---------------------------------------------------------------------------*/
FoamFile
{
    format      ascii;
    class       volScalarField;
    location    "6.6";
    object      T;
}
// * * * * * * * * * * * * * * * * * * * * * * * * * * * * * * * * * * * * * //

dimensions      [0 0 0 1 0 0 0];

internalField   nonuniform List<scalar> 
2500
(
304.519763724508
304.513982815118
304.501703342958
304.492839199553
304.4874672623
304.484408747543
304.482726227606
304.481829476793
304.481369238695
304.481143793747
304.481036928815
304.480988688307
304.480967783718
304.480958480812
304.48095420871
304.480951845348
304.480950778437
304.480949879607
304.48094900187
304.480948402176
304.480947901524
304.480947474313
304.480947125618
304.480946909099
304.480946689293
304.480946507998
304.480946442996
304.480946424466
304.480946465287
304.48094657752
304.480946774128
304.480947141227
304.480947598491
304.480948263082
304.480949326269
304.480951348007
304.480955679429
304.48096532464
304.480988097128
304.481038727917
304.481148807043
304.481379332251
304.481842938284
304.482738789504
304.484413540343
304.487452216394
304.492812821086
304.50172140828
304.514096410861
304.519652119476
303.594795114173
303.564619343482
303.529170616655
303.504087032091
303.488534962157
303.479401899076
303.474205011876
303.471340448423
303.469820749197
303.469049098808
303.468674275432
303.468500518737
303.468423549195
303.468390624408
303.468376920697
303.468371188332
303.468368876048
303.468367732427
303.46836698803
303.468366508432
303.468366129893
303.468365801428
303.468365528622
303.468365343185
303.468365177731
303.468365039544
303.468364970931
303.468364933702
303.468364927509
303.468364975838
303.468365098706
303.468365378175
303.468365942844
303.468367102101
303.468369656378
303.468375807423
303.468390770909
303.468426332714
303.468508466088
303.468690066328
303.469075587063
303.469859657772
303.471387441859
303.474246486085
303.479414113795
303.488496442287
303.504035673405
303.529280416573
303.565074182482
303.594410192254
302.65819247685
302.606530018539
302.556482518055
302.522223086289
302.501186069643
302.488883973423
302.481896180137
302.478044030011
302.475996851748
302.474953938099
302.474445797774
302.474209369541
302.47410428844
302.474059486186
302.474041082746
302.474033716719
302.474030868294
302.474029685768
302.474029091191
302.474028752561
302.474028500926
302.474028276789
302.474028084123
302.474027948689
302.474027837908
302.474027743964
302.474027688416
302.474027647917
302.474027617612
302.474027616814
302.474027673093
302.474027874147
302.474028447474
302.474029800688
302.474033017157
302.474041109241
302.474061189894
302.474109324153
302.474220423713
302.474466116136
302.474986864812
302.476043897843
302.478100225744
302.481945684865
302.48890015865
302.501153481724
302.5222166966
302.556783132276
302.607501066374
302.658569289224
301.829383909274
301.768232697677
301.716671449556
301.682751253426
301.662527141257
301.651011348908
301.644624451826
301.641174054845
301.639370510633
301.638463937934
301.638027141258
301.63782579037
301.637737023131
301.637699510578
301.637684276946
301.637678307043
301.637676062602
301.637675201708
301.637674825729
301.637674633006
301.63767449353
301.637674359932
301.637674237043
301.637674149221
301.637674083121
301.637674026279
301.637673988217
301.637673953752
301.637673917365
301.63767389755
301.637673895753
301.637673976483
301.637674390368
301.637675436705
301.63767795403
301.637684444233
301.637700835628
301.637740656388
301.637833595915
301.638041539554
301.63848763131
301.639405160051
301.641217095306
301.644665671511
301.651034019326
301.662532129719
301.682840760478
301.717182539424
301.769675115343
301.831009434825
301.174517095636
301.116258530963
301.071856656113
301.043770914488
301.027539585396
301.018555112975
301.013694846179
301.011122328333
301.009798893321
301.009141617579
301.008827807447
301.008684137086
301.008621137283
301.008594651928
301.008583970315
301.008579842219
301.008578328728
301.008577785357
301.008577578265
301.008577488394
301.008577427018
301.00857735956
301.008577289474
301.008577238784
301.008577204627
301.008577174817
301.008577152166
301.008577127192
301.008577095385
301.008577069624
301.008577047358
301.008577049104
301.008577296108
301.008577993695
301.008579670202
301.008584082402
301.008595374688
301.008623077575
301.008688293714
301.008835535707
301.009154550214
301.009818277578
301.011147258458
301.013720314358
301.018574024487
301.027564997757
301.043912495437
301.072455904356
301.117911918091
301.17709561415
300.705709251296
300.658211778057
300.6247878803
300.60441886737
300.593003630507
300.586859038877
300.583615366502
300.581931910488
300.581078468353
300.580658995534
300.580460140528
300.580369523869
300.580329911542
300.580313303443
300.580306633799
300.580304083255
300.580303170525
300.580302863834
300.580302764519
300.580302733572
300.580302717056
300.580302691235
300.580302656096
300.580302630329
300.580302616066
300.580302603091
300.580302591241
300.58030257526
300.580302551907
300.580302528113
300.580302499857
300.58030247141
300.580302601829
300.580303011348
300.580304007366
300.580306684376
300.580313607916
300.58033071296
300.580371235204
300.580463337297
300.5806644256
300.581086788578
300.581942834273
300.583626763828
300.58686912711
300.593029015758
300.604557105686
300.625340466668
300.659771646948
300.708595633622
300.398260286305
300.3640137561
300.341459298269
300.328185153495
300.320962423953
300.317177779551
300.315226465456
300.314232523051
300.313735395879
300.313493235335
300.313379061641
300.313327185999
300.313304540311
300.3132950551
300.313291255888
300.313289815272
300.313289311192
300.313289155206
300.313289116756
300.313289110251
300.313289112187
300.313289109562
300.31328909496
300.313289083945
300.313289080461
300.313289076275
300.313289070803
300.313289061637
300.313289046445
300.313289028212
300.313289003452
300.313288972179
300.313289031527
300.313289247266
300.313289788329
300.313291275263
300.313295152618
300.313304777632
300.313327678514
300.313379970473
300.313494792412
300.313737811468
300.314235586627
300.315229147347
300.317179983984
300.320978032171
300.328288535743
300.341886313134
300.365275354462
300.400877647828
300.211893177111
300.189597363002
300.175722203486
300.167817343055
300.163634951233
300.161498911975
300.160422229014
300.159883516811
300.159617436803
300.159488832649
300.159428449139
300.159401056436
300.159389099263
300.159384089846
300.15938208656
300.159381332424
300.159381074175
300.159381003515
300.15938099571
300.159380999708
300.159381003121
300.159381005041
300.15938100159
300.159380998226
300.159380999702
300.159380999345
300.159380997136
300.159380992336
300.159380983298
300.159380971044
300.159380953373
300.159380930258
300.159380951136
300.159381053389
300.159381327631
300.159382095608
300.159384110553
300.159389126855
300.15940109349
300.159428495199
300.159488898959
300.159617506563
300.159883333912
300.160421069703
300.161496685575
300.163640667577
300.167880745903
300.176008915776
300.190496483386
300.213931571793
300.106684991437
300.093385781043
300.085507076833
300.081152445527
300.078908566145
300.077790130685
300.077238466864
300.076967143741
300.076834705558
300.076771135453
300.076741380042
300.076727888341
300.076721993548
300.076719521299
300.076718533571
300.076718164187
300.076718042079
300.076718014404
300.076718015368
300.076718020115
300.076718023854
300.076718026489
300.076718026818
300.076718027086
300.076718028819
300.076718029328
300.076718028605
300.076718026161
300.076718021137
300.076718013695
300.076718002719
300.076717988961
300.076717992782
300.076718036436
300.076718167656
300.076718540277
300.076719522562
300.0767219714
300.076727819717
300.076741227565
300.076770851174
300.076834203417
300.07696616547
300.077236402281
300.077786563928
300.078908247148
300.081185076277
300.085678238681
300.09396164873
300.108093122493
300.051015084306
300.043666748811
300.039497342279
300.03725707352
300.036131091834
300.035582659242
300.035317713721
300.035189549845
300.03512769091
300.035098183253
300.035084403335
300.035078153126
300.035075417627
300.035074268476
300.035073809631
300.035073639166
300.035073585401
300.035073575758
300.035073578058
300.035073581862
300.035073584892
300.035073587035
300.035073588073
300.035073589043
300.035073590332
300.035073590968
300.035073590771
300.035073589494
300.035073586865
300.035073582704
300.035073576529
300.035073569292
300.035073568606
300.035073585617
300.035073644278
300.035073815366
300.035074268242
300.03507539755
300.035078093946
300.035084274159
300.035097939843
300.035127253008
300.035188708856
300.035315983203
300.035579473936
300.03612846544
300.037271042158
300.039589618597
300.044003131512
300.051895932679
300.02324837132
300.019454632615
300.017382216669
300.016297638929
300.01576515234
300.015511400024
300.015391236009
300.01533403685
300.015306727643
300.015293775203
300.015287736686
300.015284995073
300.015283792429
300.015283286183
300.015283084132
300.015283009597
300.015282987231
300.015282984352
300.015282986274
300.01528298874
300.015282990727
300.015282992144
300.015282993011
300.015282993811
300.015282994606
300.015282995067
300.015282995006
300.015282994358
300.015282993062
300.015282990894
300.015282987676
300.015282983988
300.015282982806
300.01528298902
300.015283013789
300.015283088573
300.0152832873
300.015283782588
300.015284963491
300.015287665942
300.015293638288
300.015306470826
300.015333517918
300.015390111073
300.015509155003
300.015762404096
300.016302288814
300.017427626994
300.019635897043
300.023754627815
300.010129273343
300.008286308739
300.007312549632
300.006815299478
300.006576496284
300.00646502735
300.006413243554
300.006388977715
300.006377514159
300.00637210627
300.006369588157
300.006368443188
300.006367939576
300.006367727098
300.006367642325
300.006367611321
300.006367602574
300.006367601913
300.006367603042
300.006367604437
300.006367605571
300.00636760639
300.006367606942
300.006367607441
300.006367607875
300.006367608139
300.006367608118
300.006367607805
300.00636760719
300.006367606128
300.006367604559
300.006367602773
300.006367601976
300.006367604078
300.00636761404
300.006367645327
300.006367728762
300.006367936486
300.006368430546
300.006369558108
300.006372045525
300.006377392632
300.006388710213
300.006412613727
300.006463661104
300.006574447395
300.006816142894
300.007333092839
300.00837723986
300.010399527927
300.004232022265
300.003384633167
300.002949788764
300.002732746424
300.002630652692
300.002583921561
300.002562607867
300.002552771997
300.00254817335
300.002546015043
300.002545010937
300.002544553532
300.002544351737
300.002544266391
300.002544232353
300.002544220035
300.002544216754
300.002544216686
300.002544217306
300.002544218021
300.002544218607
300.002544219035
300.002544219339
300.002544219608
300.002544219824
300.002544219955
300.002544219947
300.002544219804
300.002544219522
300.00254421903
300.002544218308
300.002544217489
300.002544217068
300.002544217719
300.002544221562
300.002544234145
300.00254426781
300.002544351506
300.002544549908
300.002545001018
300.002545993281
300.002548124858
300.002552650702
300.002562290687
300.00258317425
300.002629372494
300.002732423144
300.002958364526
300.003427413966
300.004367167594
300.001700174269
300.001329560496
300.001144163718
300.001053564842
300.001011770456
300.000992990961
300.000984575329
300.000980749188
300.000978978495
300.000978151549
300.00097776707
300.000977591554
300.000977513872
300.000977480934
300.000977467803
300.000977463108
300.000977461925
300.00097746197
300.000977462279
300.000977462618
300.000977462897
300.000977463103
300.000977463255
300.000977463386
300.000977463485
300.000977463544
300.000977463541
300.000977463478
300.000977463354
300.000977463137
300.000977462823
300.000977462465
300.000977462261
300.000977462442
300.000977463882
300.000977468766
300.00097748187
300.000977514393
300.000977591177
300.000977764962
300.000978145732
300.000978962273
300.000980699638
300.000984428161
300.00099261506
300.001011060232
300.001053091735
300.001147467653
300.001348552891
300.00176391768
300.000658431958
300.000503591475
300.00042783036
300.000391524158
300.000375078426
300.000367816813
300.000364616939
300.000363183074
300.000362526134
300.000362220807
300.000362078911
300.000362013984
300.000361985151
300.000361972893
300.000361968008
300.000361966282
300.000361965871
300.000361965913
300.000361966054
300.000361966204
300.000361966328
300.00036196642
300.00036196649
300.000361966548
300.000361966591
300.000361966616
300.000361966615
300.000361966588
300.000361966536
300.000361966445
300.000361966314
300.000361966166
300.000361966078
300.000361966125
300.000361966647
300.00036196848
300.000361973418
300.000361985647
300.000362014385
300.000362079084
300.000362220171
300.000362521902
300.000363164607
300.000364553019
300.000367640301
300.000374718272
300.000391180822
300.00042899933
300.000511588546
300.000686951326
300.000246380724
300.000184354099
300.00015458121
300.000140567415
300.000134326723
300.000131616056
300.00013044053
300.000129921116
300.000129685478
300.000129576474
300.000129525832
300.000129502602
300.000129492249
300.000129487835
300.000129486076
300.00012948546
300.000129485321
300.000129485344
300.000129485404
300.000129485466
300.000129485517
300.000129485556
300.000129485585
300.00012948561
300.000129485627
300.000129485636
300.000129485636
300.000129485625
300.000129485604
300.000129485568
300.000129485516
300.000129485458
300.000129485421
300.000129485433
300.00012948562
300.000129486289
300.000129488095
300.000129492558
300.000129502991
300.000129526341
300.000129576983
300.000129684898
300.000129914794
300.00013041423
300.000131537841
300.000134156833
300.000140369079
300.000154955786
300.000187561739
300.000258542288
300.000089269813
300.000065369243
300.000054084626
300.000048859584
300.000046569286
300.000045589693
300.000045171254
300.000044988842
300.000044906881
300.00004486914
300.000044851609
300.000044843545
300.000044839938
300.000044838394
300.000044837778
300.000044837564
300.000044837516
300.000044837526
300.000044837549
300.000044837572
300.000044837592
300.000044837607
300.000044837618
300.000044837628
300.000044837634
300.000044837637
300.000044837637
300.000044837633
300.000044837625
300.000044837611
300.000044837592
300.000044837571
300.000044837557
300.000044837561
300.000044837627
300.000044837866
300.00004483851
300.000044840095
300.000044843778
300.00004485197
300.000044869629
300.000044907095
300.000044986845
300.000045160903
300.000045556718
300.000046493853
300.000048758873
300.000054189651
300.000066599368
300.000094232947
300.000031380033
300.000022495923
300.000018360275
300.00001647376
300.000015658864
300.000015315297
300.000015170613
300.000015108347
300.000015080628
300.000015067921
300.000015062017
300.000015059293
300.000015058068
300.000015057542
300.00001505733
300.000015057255
300.000015057238
300.000015057241
300.000015057248
300.000015057256
300.000015057262
300.000015057267
300.000015057271
300.000015057274
300.000015057276
300.000015057277
300.000015057277
300.000015057275
300.000015057273
300.000015057268
300.000015057262
300.000015057255
300.00001505725
300.000015057252
300.000015057277
300.000015057361
300.000015057586
300.000015058136
300.000015059405
300.000015062206
300.000015068204
300.000015080863
300.000015107761
300.000015166683
300.000015301983
300.000015627068
300.000016426992
300.000018383588
300.000022948402
300.000033325266
300.000010721025
300.000007527329
300.000006058559
300.000005397559
300.000005115855
300.000004998662
300.000004949959
300.000004929252
300.000004920115
300.000004915942
300.000004914002
300.000004913103
300.000004912695
300.000004912518
300.000004912445
300.000004912419
300.000004912411
300.00000491241
300.000004912411
300.000004912413
300.000004912414
300.000004912415
300.000004912415
300.000004912416
300.000004912416
300.000004912417
300.000004912416
300.000004912416
300.000004912415
300.000004912414
300.000004912413
300.000004912411
300.00000491241
300.000004912413
300.000004912423
300.000004912453
300.000004912531
300.000004912719
300.000004913148
300.000004914084
300.000004916074
300.000004920247
300.000004929089
300.000004948507
300.000004993484
300.000005103048
300.000005377282
300.000006060908
300.000007687403
300.000011455493
300.000003566038
300.00000245322
300.000001946748
300.000001721576
300.000001626787
300.000001587834
300.000001571843
300.00000156512
300.000001562176
300.000001560835
300.000001560209
300.000001559916
300.000001559782
300.000001559721
300.000001559695
300.000001559684
300.000001559679
300.000001559677
300.000001559676
300.000001559675
300.000001559674
300.000001559674
300.000001559673
300.000001559673
300.000001559672
300.000001559672
300.000001559672
300.000001559672
300.000001559672
300.000001559672
300.000001559673
300.000001559673
300.000001559674
300.000001559676
300.000001559681
300.000001559693
300.000001559722
300.000001559786
300.00000155993
300.000001560238
300.000001560885
300.000001562231
300.000001565071
300.000001571315
300.000001585885
300.00000162183
300.000001713264
300.00000194534
300.000002507812
300.000003833914
300.000001156691
300.000000780099
300.000000610257
300.00000053557
300.000000504478
300.000000491842
300.00000048671
300.000000484573
300.000000483642
300.000000483217
300.000000483017
300.000000482921
300.000000482875
300.000000482853
300.000000482842
300.000000482836
300.000000482832
300.000000482829
300.000000482827
300.000000482825
300.000000482824
300.000000482823
300.000000482822
300.000000482821
300.000000482821
300.00000048282
300.00000048282
300.00000048282
300.000000482821
300.000000482821
300.000000482822
300.000000482823
300.000000482825
300.000000482827
300.000000482831
300.000000482837
300.000000482848
300.000000482872
300.000000482921
300.000000483022
300.000000483231
300.000000483659
300.000000484553
300.000000486517
300.000000491126
300.000000502625
300.00000053232
300.000000608986
300.000000798083
300.000001251292
300.000000366543
300.000000242554
300.000000187106
300.000000162965
300.000000153013
300.000000149007
300.000000147394
300.000000146726
300.000000146434
300.000000146299
300.000000146234
300.0000001462
300.000000146182
300.000000146172
300.000000146166
300.000000146161
300.000000146158
300.000000146155
300.000000146152
300.00000014615
300.000000146149
300.000000146147
300.000000146146
300.000000146145
300.000000146145
300.000000146144
300.000000146144
300.000000146144
300.000000146145
300.000000146146
300.000000146147
300.000000146148
300.00000014615
300.000000146152
300.000000146155
300.000000146159
300.000000146165
300.000000146175
300.000000146194
300.000000146229
300.000000146298
300.000000146434
300.000000146713
300.00000014732
300.000000148747
300.00000015234
300.000000161745
300.000000186413
300.000000248286
300.000000398958
300.000000113786
300.00000007402
300.000000056401
300.000000048804
300.000000045697
300.000000044454
300.000000043955
300.000000043747
300.000000043654
300.000000043609
300.000000043585
300.000000043571
300.000000043562
300.000000043555
300.00000004355
300.000000043546
300.000000043543
300.00000004354
300.000000043537
300.000000043535
300.000000043533
300.000000043532
300.000000043531
300.00000004353
300.000000043529
300.000000043529
300.000000043529
300.000000043529
300.00000004353
300.00000004353
300.000000043532
300.000000043533
300.000000043535
300.000000043537
300.00000004354
300.000000043543
300.000000043548
300.000000043554
300.000000043563
300.000000043577
300.000000043602
300.000000043647
300.000000043735
300.000000043922
300.000000044357
300.000000045456
300.00000004836
300.000000056086
300.000000075788
300.000000124583
300.000000034812
300.000000022383
300.000000016958
300.000000014645
300.000000013703
300.000000013325
300.000000013171
300.000000013105
300.000000013072
300.000000013054
300.000000013043
300.000000013035
300.000000013028
300.000000013023
300.000000013019
300.000000013015
300.000000013011
300.000000013008
300.000000013006
300.000000013004
300.000000013002
300.000000013
300.000000012999
300.000000012998
300.000000012998
300.000000012997
300.000000012997
300.000000012998
300.000000012998
300.000000012999
300.000000013
300.000000013002
300.000000013003
300.000000013006
300.000000013008
300.000000013012
300.000000013015
300.00000001302
300.000000013026
300.000000013034
300.000000013045
300.000000013063
300.000000013093
300.000000013153
300.000000013285
300.000000013615
300.000000014487
300.000000016829
300.000000022911
300.000000038312
300.000000010679
300.000000006903
300.000000005315
300.00000000465
300.000000004378
300.000000004266
300.000000004217
300.000000004193
300.000000004178
300.000000004168
300.000000004161
300.000000004154
300.000000004149
300.000000004144
300.000000004139
300.000000004136
300.000000004132
300.000000004129
300.000000004127
300.000000004125
300.000000004123
300.000000004121
300.00000000412
300.000000004119
300.000000004119
300.000000004118
300.000000004118
300.000000004118
300.000000004119
300.00000000412
300.000000004121
300.000000004123
300.000000004124
300.000000004127
300.000000004129
300.000000004133
300.000000004136
300.00000000414
300.000000004145
300.000000004151
300.000000004159
300.000000004168
300.000000004181
300.000000004203
300.000000004245
300.000000004343
300.000000004594
300.000000005264
300.000000007054
300.000000011783
300.000000003458
300.000000002357
300.000000001948
300.000000001788
300.000000001718
300.000000001686
300.000000001668
300.000000001656
300.000000001647
300.000000001639
300.000000001633
300.000000001627
300.000000001622
300.000000001617
300.000000001613
300.000000001609
300.000000001605
300.000000001602
300.0000000016
300.000000001598
300.000000001596
300.000000001594
300.000000001593
300.000000001592
300.000000001592
300.000000001591
300.000000001591
300.000000001592
300.000000001592
300.000000001593
300.000000001594
300.000000001596
300.000000001598
300.0000000016
300.000000001603
300.000000001606
300.000000001609
300.000000001613
300.000000001618
300.000000001623
300.000000001629
300.000000001636
300.000000001645
300.000000001655
300.000000001671
300.000000001701
300.000000001766
300.00000000193
300.000000002398
300.000000003796
300.000000001341
300.000000001048
300.000000000995
300.000000000984
300.000000000975
300.000000000966
300.000000000957
300.000000000949
300.000000000941
300.000000000934
300.000000000928
300.000000000922
300.000000000917
300.000000000912
300.000000000908
300.000000000904
300.000000000901
300.000000000898
300.000000000895
300.000000000893
300.000000000891
300.00000000089
300.000000000889
300.000000000888
300.000000000887
300.000000000887
300.000000000887
300.000000000887
300.000000000888
300.000000000889
300.00000000089
300.000000000891
300.000000000893
300.000000000895
300.000000000898
300.000000000901
300.000000000905
300.000000000909
300.000000000913
300.000000000919
300.000000000924
300.000000000931
300.000000000937
300.000000000945
300.000000000954
300.000000000964
300.000000000974
300.000000000988
300.000000001058
300.000000001439
300.000000000733
300.00000000068
300.00000000073
300.000000000764
300.000000000772
300.000000000769
300.000000000762
300.000000000755
300.000000000748
300.000000000741
300.000000000735
300.000000000729
300.000000000724
300.000000000719
300.000000000715
300.000000000711
300.000000000708
300.000000000705
300.000000000703
300.0000000007
300.000000000699
300.000000000697
300.000000000696
300.000000000695
300.000000000695
300.000000000694
300.000000000694
300.000000000694
300.000000000695
300.000000000696
300.000000000697
300.000000000698
300.0000000007
300.000000000703
300.000000000705
300.000000000708
300.000000000712
300.000000000716
300.000000000721
300.000000000726
300.000000000731
300.000000000737
300.000000000744
300.000000000751
300.000000000758
300.000000000762
300.000000000758
300.000000000728
300.00000000068
300.000000000758
300.000000000562
300.000000000579
300.000000000659
300.000000000705
300.000000000717
300.000000000716
300.00000000071
300.000000000703
300.000000000696
300.000000000689
300.000000000683
300.000000000677
300.000000000672
300.000000000667
300.000000000663
300.000000000659
300.000000000656
300.000000000653
300.000000000651
300.000000000648
300.000000000647
300.000000000645
300.000000000644
300.000000000643
300.000000000643
300.000000000642
300.000000000642
300.000000000643
300.000000000643
300.000000000644
300.000000000645
300.000000000647
300.000000000648
300.000000000651
300.000000000653
300.000000000656
300.00000000066
300.000000000664
300.000000000668
300.000000000673
300.000000000679
300.000000000685
300.000000000692
300.000000000699
300.000000000705
300.000000000709
300.0000000007
300.000000000658
300.000000000577
300.000000000566
300.000000000517
300.000000000553
300.000000000642
300.00000000069
300.000000000703
300.000000000702
300.000000000696
300.000000000688
300.000000000681
300.000000000674
300.000000000668
300.000000000662
300.000000000657
300.000000000653
300.000000000648
300.000000000645
300.000000000642
300.000000000639
300.000000000636
300.000000000634
300.000000000633
300.000000000631
300.00000000063
300.000000000629
300.000000000629
300.000000000628
300.000000000628
300.000000000629
300.000000000629
300.00000000063
300.000000000631
300.000000000632
300.000000000634
300.000000000636
300.000000000639
300.000000000642
300.000000000646
300.00000000065
300.000000000654
300.000000000659
300.000000000665
300.000000000671
300.000000000678
300.000000000685
300.000000000692
300.000000000695
300.000000000686
300.000000000641
300.000000000551
300.000000000514
300.000000000506
300.000000000548
300.000000000639
300.000000000687
300.0000000007
300.000000000698
300.000000000692
300.000000000684
300.000000000677
300.00000000067
300.000000000663
300.000000000658
300.000000000653
300.000000000648
300.000000000644
300.00000000064
300.000000000637
300.000000000634
300.000000000632
300.00000000063
300.000000000628
300.000000000627
300.000000000626
300.000000000625
300.000000000625
300.000000000624
300.000000000624
300.000000000624
300.000000000625
300.000000000626
300.000000000627
300.000000000628
300.00000000063
300.000000000632
300.000000000635
300.000000000638
300.000000000641
300.000000000645
300.00000000065
300.000000000655
300.000000000661
300.000000000667
300.000000000674
300.000000000681
300.000000000688
300.000000000692
300.000000000683
300.000000000638
300.000000000547
300.000000000502
300.000000000506
300.00000000055
300.00000000064
300.000000000688
300.0000000007
300.000000000697
300.00000000069
300.000000000682
300.000000000675
300.000000000668
300.000000000661
300.000000000656
300.00000000065
300.000000000646
300.000000000642
300.000000000638
300.000000000635
300.000000000633
300.00000000063
300.000000000628
300.000000000627
300.000000000625
300.000000000624
300.000000000623
300.000000000623
300.000000000623
300.000000000623
300.000000000623
300.000000000623
300.000000000624
300.000000000625
300.000000000627
300.000000000628
300.000000000631
300.000000000633
300.000000000636
300.000000000639
300.000000000643
300.000000000648
300.000000000653
300.000000000659
300.000000000665
300.000000000672
300.00000000068
300.000000000688
300.000000000692
300.000000000684
300.00000000064
300.000000000548
300.000000000502
300.00000000051
300.000000000553
300.000000000643
300.000000000689
300.0000000007
300.000000000697
300.000000000689
300.000000000681
300.000000000673
300.000000000666
300.000000000659
300.000000000654
300.000000000649
300.000000000644
300.00000000064
300.000000000637
300.000000000634
300.000000000631
300.000000000629
300.000000000627
300.000000000626
300.000000000624
300.000000000623
300.000000000622
300.000000000622
300.000000000622
300.000000000622
300.000000000622
300.000000000622
300.000000000623
300.000000000624
300.000000000626
300.000000000627
300.000000000629
300.000000000632
300.000000000635
300.000000000638
300.000000000642
300.000000000646
300.000000000652
300.000000000657
300.000000000664
300.000000000671
300.00000000068
300.000000000688
300.000000000693
300.000000000686
300.000000000643
300.000000000552
300.000000000505
300.000000000514
300.000000000558
300.000000000646
300.000000000691
300.000000000701
300.000000000696
300.000000000688
300.00000000068
300.000000000671
300.000000000664
300.000000000658
300.000000000652
300.000000000647
300.000000000643
300.000000000639
300.000000000635
300.000000000632
300.00000000063
300.000000000628
300.000000000626
300.000000000624
300.000000000623
300.000000000622
300.000000000621
300.000000000621
300.000000000621
300.000000000621
300.000000000621
300.000000000621
300.000000000622
300.000000000623
300.000000000624
300.000000000626
300.000000000628
300.00000000063
300.000000000633
300.000000000637
300.00000000064
300.000000000645
300.00000000065
300.000000000656
300.000000000663
300.00000000067
300.000000000679
300.000000000688
300.000000000694
300.000000000688
300.000000000647
300.000000000558
300.00000000051
300.00000000052
300.000000000564
300.00000000065
300.000000000693
300.000000000701
300.000000000696
300.000000000687
300.000000000678
300.00000000067
300.000000000662
300.000000000656
300.00000000065
300.000000000645
300.000000000641
300.000000000637
300.000000000634
300.000000000631
300.000000000628
300.000000000626
300.000000000625
300.000000000623
300.000000000622
300.000000000621
300.00000000062
300.00000000062
300.000000000619
300.000000000619
300.00000000062
300.00000000062
300.000000000621
300.000000000622
300.000000000623
300.000000000625
300.000000000627
300.000000000629
300.000000000632