/*--------------------------------*- C++ -*----------------------------------*\
  =========                 |
  \\      /  F ield         | OpenFOAM: The Open Source CFD Toolbox
   \\    /   O peration     | Website:  https://openfoam.org
    \\  /    A nd           | Version:  10
     \\/     M anipulation  |
\*---------------------------------------------------------------------------*/
FoamFile
{
    format      ascii;
    class       volVectorField;
    location    "6.6";
    object      U;
}
// * * * * * * * * * * * * * * * * * * * * * * * * * * * * * * * * * * * * * //

dimensions      [0 1 -1 0 0 0 0];

internalField   nonuniform List<vector> 
2500
(
(-1.43603746902436e-06 -2.43798939300709e-06 4.25440205953514e-25)
(-3.52243937858948e-06 -3.29783443363279e-06 4.15365637693342e-24)
(-3.52673965764481e-06 -3.55961939195093e-06 6.00027574703721e-25)
(-2.81320181915089e-06 -3.66056748577245e-06 2.42256731260272e-25)
(-1.94320126964709e-06 -3.65917928039312e-06 -1.54335096147005e-25)
(-1.2957913680384e-06 -3.6336103890368e-06 -7.25174910428135e-25)
(-8.43444652078531e-07 -3.60568036073764e-06 -1.44266852573294e-25)
(-5.5251519567091e-07 -3.58431400543123e-06 -1.33396193603713e-25)
(-3.64407429302679e-07 -3.56920080161007e-06 -3.60413717131375e-25)
(-2.43185837165725e-07 -3.55932889399271e-06 5.03561411811916e-24)
(-1.63594527798622e-07 -3.55320991484283e-06 2.39612311767751e-24)
(-1.09950724662065e-07 -3.54956306051577e-06 4.99004126821845e-24)
(-7.27138986522197e-08 -3.54746177171722e-06 5.64257552035217e-24)
(-4.59713498637699e-08 -3.54627333538288e-06 1.87727644548995e-24)
(-2.61586244416938e-08 -3.54559939757174e-06 4.43230703380624e-24)
(-1.10719489501105e-08 -3.54521399638895e-06 1.38015126355822e-24)
(6.71805140388468e-10 -3.54498389464101e-06 5.14655212372982e-24)
(9.96815979863639e-09 -3.54484432669312e-06 4.63213301701845e-24)
(1.74305305997941e-08 -3.54476247393122e-06 1.21472249673674e-24)
(2.34828741333705e-08 -3.54470990621914e-06 4.0751261830189e-24)
(2.84367561587616e-08 -3.54467851510736e-06 3.90526490716358e-25)
(3.25405334563953e-08 -3.5446602501945e-06 -1.8461236575283e-25)
(3.59943808569441e-08 -3.54465038755886e-06 5.1124670183674e-24)
(3.89580693394958e-08 -3.54465197917958e-06 6.22222974632906e-25)
(4.15741808993173e-08 -3.5446606159158e-06 -5.05519344977517e-26)
(4.39823637856669e-08 -3.54467210388439e-06 4.77012285972724e-24)
(4.63095089991199e-08 -3.54469281267464e-06 1.37911644689826e-25)
(4.86860495424312e-08 -3.54471686367473e-06 1.31694378815838e-24)
(5.12595940069831e-08 -3.54475018433104e-06 4.07467896851973e-24)
(5.41879057716495e-08 -3.54479588907426e-06 -1.76079902288834e-25)
(5.76554402025461e-08 -3.54485542842699e-06 4.35501837002626e-25)
(6.19039618449345e-08 -3.54493121389663e-06 -6.49744354324232e-25)
(6.7239870792744e-08 -3.54504123215809e-06 9.48776659431914e-25)
(7.40778791715297e-08 -3.5452032204514e-06 9.95048749532027e-25)
(8.30209248759201e-08 -3.54546314729663e-06 -1.14242701001011e-25)
(9.49756099388313e-08 -3.54587943329991e-06 4.42142719814264e-24)
(1.11330947113312e-07 -3.54659598139058e-06 -3.46006893638052e-24)
(1.34297659960275e-07 -3.54782722023094e-06 -4.81891578479655e-25)
(1.67441341990178e-07 -3.5499647460998e-06 -3.37967401549861e-26)
(2.16681631602517e-07 -3.55363686741048e-06 -2.74292636480172e-24)
(2.91525341696814e-07 -3.55974956576267e-06 -6.56841864806467e-24)
(4.07644209683246e-07 -3.56955044886873e-06 -6.41387094565564e-24)
(5.90212873273737e-07 -3.58451346324841e-06 -3.54611585687456e-24)
(8.75550043280619e-07 -3.60576768789379e-06 -5.67241933663673e-24)
(1.32317083302189e-06 -3.63386025439726e-06 -7.19723957871513e-24)
(1.97027977034304e-06 -3.66034812690879e-06 -3.8014526214281e-24)
(2.84904863722423e-06 -3.6631533459249e-06 -5.93933695950673e-24)
(3.58193954187385e-06 -3.56114738554424e-06 -6.55759297563457e-24)
(3.57280876107857e-06 -3.29109096530704e-06 -3.23155606143059e-24)
(1.44777354058737e-06 -2.43221108693168e-06 -3.8172230990108e-24)
(-1.78484997084007e-06 -3.08218081814257e-06 1.9314141538277e-25)
(-5.91227770498664e-06 -5.09191561112535e-06 6.29776556423113e-27)
(-6.21320058963621e-06 -6.44148361213705e-06 5.08458385110386e-25)
(-5.14918226762433e-06 -6.92615475050092e-06 2.10044121498069e-25)
(-3.68198255642781e-06 -6.88253712962732e-06 -1.67343269556448e-24)
(-2.53965833824299e-06 -6.68522997535299e-06 -2.7354832994371e-24)
(-1.71675221188912e-06 -6.49949896375892e-06 -5.96959948012715e-25)
(-1.1715014479794e-06 -6.36293435887738e-06 -6.12265169697868e-25)
(-8.0928469695977e-07 -6.27180743105208e-06 -2.69062649983406e-24)
(-5.67989798616124e-07 -6.21356407746938e-06 4.44716371829746e-25)
(-4.03496101297577e-07 -6.17728440410894e-06 4.91470390212294e-24)
(-2.87879711193203e-07 -6.15487807254137e-06 4.51780380102588e-24)
(-2.04016476832017e-07 -6.14100114676428e-06 1.99005736390818e-24)
(-1.41169187422603e-07 -6.13226137428746e-06 3.21560329006919e-24)
(-9.27285036157344e-08 -6.1265963698135e-06 8.64800000127731e-25)
(-5.45033180993607e-08 -6.12278515627996e-06 1.51803032810753e-24)
(-2.37666536114099e-08 -6.12010876495716e-06 3.68928707802888e-24)
(1.31315167552325e-09 -6.11817455026723e-06 1.82115848381273e-24)
(2.2039300219391e-08 -6.11673967829436e-06 9.61554183813777e-25)
(3.9351994552146e-08 -6.11565092731474e-06 3.45271647114704e-25)
(5.39642828966984e-08 -6.11482826387843e-06 -3.14680812889167e-25)
(6.64590354405752e-08 -6.11420554122261e-06 -2.26137610990341e-24)
(7.73106384783184e-08 -6.11374295890785e-06 2.45993995983971e-24)
(8.69221878027796e-08 -6.11342721179578e-06 4.28481419529329e-25)
(9.56597810883223e-08 -6.11323712044098e-06 -1.64170714351522e-24)
(1.03866302841535e-07 -6.1131673472559e-06 1.85516295158675e-24)
(1.11873481599192e-07 -6.11322164826953e-06 -9.95436003266651e-25)
(1.20015018515099e-07 -6.11340089602123e-06 3.16162398710198e-24)
(1.28654653780013e-07 -6.11371687439721e-06 2.4830124583194e-24)
(1.3819306424136e-07 -6.11419324971292e-06 -1.71883370296686e-24)
(1.49087090829027e-07 -6.11487830831981e-06 1.33574078708307e-24)
(1.61900615741979e-07 -6.11581184012284e-06 -2.03917046584466e-24)
(1.7733680249589e-07 -6.1170900982218e-06 3.12448386602352e-24)
(1.96318789512533e-07 -6.11885990815647e-06 3.01866998393284e-24)
(2.20136176594158e-07 -6.12137607465195e-06 -1.61673972982147e-24)
(2.50633349149231e-07 -6.1250440902125e-06 1.55116165978509e-24)
(2.90549340023336e-07 -6.13058586546639e-06 -2.05687246621924e-24)
(3.44096659922924e-07 -6.13921663442166e-06 -3.91396020703011e-25)
(4.17887543721947e-07 -6.15299132395649e-06 7.14233371592021e-25)
(5.22693100772148e-07 -6.17529941261977e-06 -6.21028199475846e-24)
(6.75607749342111e-07 -6.21144148534798e-06 -6.25143956466246e-24)
(9.0462452066892e-07 -6.269459685638e-06 -6.30649842863065e-24)
(1.25378358816057e-06 -6.36036007105818e-06 -7.74999565252442e-24)
(1.78599630900568e-06 -6.49722255701015e-06 -5.8961294058143e-24)
(2.59767007831515e-06 -6.68513248866326e-06 -6.44907195179727e-24)
(3.73712261465775e-06 -6.88864266546931e-06 -8.21687745141772e-24)
(5.21885084218765e-06 -6.94082520340037e-06 -6.31174443841445e-24)
(6.31928943668581e-06 -6.44943187634391e-06 -6.34678845214471e-24)
(6.01674244586134e-06 -5.06188311997147e-06 -6.72821771274216e-24)
(1.81311198061087e-06 -3.04136670260941e-06 -3.28234758392948e-24)
(-8.86434465144026e-07 4.38115628720574e-07 -2.93541090481335e-25)
(-5.24140348625954e-06 -1.69931645565424e-06 -3.99901542509364e-24)
(-5.79730595262438e-06 -4.13798783683221e-06 1.34842279264107e-26)
(-5.06930828937876e-06 -5.02940885558294e-06 -1.83164240196063e-25)
(-3.80202158032397e-06 -4.95957494952636e-06 -4.69229514476578e-24)
(-2.75601951322223e-06 -4.58875770429395e-06 -4.96594698035454e-24)
(-1.96117168446455e-06 -4.2397416614703e-06 -8.9373878177804e-25)
(-1.40960013811578e-06 -3.98356730026017e-06 -9.602707980683e-25)
(-1.02571262646941e-06 -3.81362607931959e-06 -6.25291067101421e-24)
(-7.57177186881623e-07 -3.70495414011402e-06 -4.29253127540412e-24)
(-5.64942633406397e-07 -3.63648389862e-06 6.617545617593e-24)
(-4.23316722061077e-07 -3.59316796974811e-06 2.67193114108353e-24)
(-3.16092703160241e-07 -3.56534639434188e-06 -2.52924139178695e-24)
(-2.32717840880797e-07 -3.54700859978861e-06 3.74921467002186e-24)
(-1.66424772289807e-07 -3.53451548748605e-06 -4.18199773857107e-24)
(-1.12721109915575e-07 -3.5257048631886e-06 6.05856952725247e-25)
(-6.85514034159283e-08 -3.51927133272819e-06 1.10363887318853e-24)
(-3.17627059397205e-08 -3.51445120836553e-06 -2.61788838148958e-24)
(-7.6854144711505e-10 -3.51076104777217e-06 -1.40695774537841e-25)
(2.56137873143245e-08 -3.50790601341333e-06 -4.70007579890599e-24)
(4.83196194236249e-08 -3.50569932093683e-06 -1.23918029444361e-24)
(6.8122511097668e-08 -3.50400039690133e-06 -5.5881059696077e-24)
(8.56607931976392e-08 -3.5027289959417e-06 -3.99934788196382e-26)
(1.01494290017703e-07 -3.50183106983082e-06 -1.13062495302511e-25)
(1.16132766071265e-07 -3.50126843701353e-06 -4.00927988393256e-24)
(1.30055831420896e-07 -3.50103703770079e-06 -4.57381514802618e-25)
(1.43734589933124e-07 -3.5011263053806e-06 -2.80127250210096e-24)
(1.57643737250949e-07 -3.50155010820388e-06 5.05947737178252e-24)
(1.72290950005149e-07 -3.50234037485352e-06 6.22376820837384e-25)
(1.88221371810764e-07 -3.5035479717688e-06 -4.68770129065439e-24)
(2.06066199808315e-07 -3.50526815462721e-06 2.23603457183107e-24)
(2.26584775934083e-07 -3.50762028206385e-06 -4.05396180254415e-24)
(2.50691567264867e-07 -3.51078601665523e-06 6.0377311448791e-24)
(2.79561170750418e-07 -3.51507657692426e-06 5.35801507122266e-24)
(3.14763414376201e-07 -3.52098000217736e-06 -3.89477547111742e-24)
(3.58459504580424e-07 -3.52928089660521e-06 -5.1862427003955e-25)
(4.1371625562636e-07 -3.54127409604497e-06 -5.21661517135735e-25)
(4.85037882424894e-07 -3.55915224716995e-06 1.71065557356215e-25)
(5.79198894384068e-07 -3.58654684034744e-06 3.33339710654018e-24)
(7.0680100950644e-07 -3.62949638274928e-06 -7.96965265507336e-24)
(8.84035459393866e-07 -3.69763737093796e-06 -4.23565053702632e-24)
(1.13674299223214e-06 -3.80604390819056e-06 -4.1943733113163e-24)
(1.50397048914814e-06 -3.97601809844763e-06 -9.50908735162614e-24)
(2.03900795335056e-06 -4.23343207958279e-06 -4.21627901321069e-24)
(2.81922956230612e-06 -4.5873838187351e-06 -4.51271912908046e-24)
(3.85920440046693e-06 -4.97071416545518e-06 -1.05805897269487e-23)
(5.13894456003788e-06 -5.05781603925782e-06 -4.42500510066602e-24)
(5.90571172986489e-06 -4.15646361149744e-06 -4.32937653949462e-24)
(5.36469117484643e-06 -1.65096670521513e-06 -8.38326506284141e-24)
(9.3121560852958e-07 5.24577398331347e-07 -2.02418031336312e-24)
(-1.31227645696469e-07 3.74985967072049e-06 -2.29682840736195e-25)
(-3.26308065042621e-06 2.09928643766081e-06 -4.81177177851627e-24)
(-3.95545875201557e-06 -1.27641670636684e-06 1.2177911236169e-25)
(-3.79545381942438e-06 -2.62310306967198e-06 6.58518281170858e-26)
(-3.08228637739836e-06 -2.66094562177627e-06 -2.11503906936107e-24)
(-2.41244942916331e-06 -2.23705582062225e-06 -2.73591279157943e-24)
(-1.84340101585224e-06 -1.80770907121984e-06 -4.19573564908465e-25)
(-1.4132711024439e-06 -1.4815005693601e-06 -4.44138317581691e-25)
(-1.08933357124683e-06 -1.26003483133844e-06 -3.13805485496348e-24)
(-8.45880535474002e-07 -1.11493843262721e-06 -4.14076327515743e-24)
(-6.60349935764866e-07 -1.02087577501307e-06 3.6522271018479e-24)
(-5.16259625082591e-07 -9.59347724172902e-07 -3.41240728384704e-25)
(-4.02442063611697e-07 -9.18341626190221e-07 -2.95177704548319e-24)
(-3.10942056005144e-07 -8.90280067181661e-07 1.83510724825623e-24)
(-2.36276155578389e-07 -8.70491018395587e-07 -3.9798615097372e-24)
(-1.74528261891627e-07 -8.56103211017388e-07 3.02796158289913e-25)
(-1.22854440541748e-07 -8.45344158340805e-07 -1.18844649583451e-24)
(-7.91499751071082e-08 -8.37121578211208e-07 -2.51242593178297e-24)
(-4.17997205962046e-08 -8.30739465141629e-07 -2.3841990560173e-26)
(-9.55561805260685e-09 -8.2574854637276e-07 -4.1267197663494e-24)
(1.86007365202362e-08 -8.21835424940636e-07 -6.99886540590283e-25)
(4.35190723936777e-08 -8.18814846000004e-07 -2.62510043288759e-24)
(6.59126903343968e-08 -8.16546215998991e-07 -1.71427421494821e-24)
(8.64241087919967e-08 -8.14931428818139e-07 5.7458687334249e-27)
(1.05634851987506e-07 -8.13921429512285e-07 -1.9626571596823e-24)
(1.24099197164554e-07 -8.13493055413511e-07 -1.80468098326345e-24)
(1.42364927842263e-07 -8.13640275958701e-07 -1.48640856684558e-24)
(1.60972975283215e-07 -8.14378683038354e-07 2.45540004791662e-24)
(1.8050603360848e-07 -8.15775983436668e-07 -1.47447756203334e-24)
(2.01592299071953e-07 -8.17913699938527e-07 -2.27454358626385e-24)
(2.2493985115571e-07 -8.20923704149869e-07 1.1140944612959e-24)
(2.51389406585311e-07 -8.24999126911532e-07 -2.21333088130338e-24)
(2.81935986786858e-07 -8.30447887944252e-07 2.89249428676362e-24)
(3.17821434879774e-07 -8.37715102543442e-07 2.80055431402154e-24)
(3.6064846863781e-07 -8.47518069643575e-07 -2.12486216613967e-24)
(4.12522104265227e-07 -8.60967174949388e-07 -2.33250727704566e-24)
(4.76278935220658e-07 -8.7982642569771e-07 1.87307672352079e-24)
(5.55839530313652e-07 -9.06986502260791e-07 2.80468235027053e-25)
(6.56682895319794e-07 -9.47127986926827e-07 1.18397354246809e-24)
(7.86798449153653e-07 -1.00787102298232e-06 -4.49889687391634e-24)
(9.57331267647796e-07 -1.10125192289428e-06 -2.98976224854161e-25)
(1.18493972300396e-06 -1.24587446204692e-06 8.64330193412554e-26)
(1.49220218701446e-06 -1.46748786873543e-06 -5.20669148483599e-24)
(1.90568225425547e-06 -1.7958148207462e-06 -5.67329328050213e-25)
(2.45934307961533e-06 -2.2328611417299e-06 -5.69145237627861e-25)
(3.1204494560477e-06 -2.67566970816803e-06 -5.82979843766388e-24)
(3.84033336250538e-06 -2.66491863709758e-06 -5.155343236231e-25)
(4.03194584374208e-06 -1.31085365262137e-06 -7.29923549964842e-25)
(3.369362830637e-06 2.15355974593102e-06 -5.20442105082703e-24)
(1.81076397866974e-07 3.86493083030588e-06 6.32895127031803e-25)
(2.8092039512988e-07 5.96517748707853e-06 3.45584839661834e-25)
(-1.24670668207224e-06 4.90723789511631e-06 -8.64057598501396e-25)
(-1.97169086030505e-06 9.54298415523973e-07 7.86514264698527e-25)
(-2.30446517993519e-06 -8.03984106879163e-07 4.83566660029815e-25)
(-2.15596735923097e-06 -1.04505938426611e-06 6.92332863284999e-25)
(-1.89069489371622e-06 -6.83293254653896e-07 -6.94215655403842e-25)
(-1.58186878865367e-06 -2.57656631955308e-07 1.7051432671664e-25)
(-1.30332644049403e-06 8.64437694364389e-08 1.88791663771517e-25)
(-1.06431741752569e-06 3.30094998668856e-07 -7.87299080587662e-25)
(-8.66038577117955e-07 4.95885644416293e-07 -1.06457471746659e-24)
(-7.03338503112084e-07 6.07449284706371e-07 2.18056397046977e-24)
(-5.69750145561656e-07 6.83149115030613e-07 1.01874019375273e-24)
(-4.59826663870946e-07 7.35401048736683e-07 -3.43430542469366e-25)
(-3.68760173037938e-07 7.72313952256473e-07 1.20946852472848e-24)
(-2.92759417119198e-07 7.99068633190759e-07 -7.23287352361103e-25)
(-2.28800936715744e-07 8.18964525538238e-07 8.46413893226128e-25)
(-1.74515626187883e-07 8.34090226529494e-07 5.22572125054231e-25)
(-1.28034761649355e-07 8.45803961477976e-07 1.59225742230226e-25)
(-8.7856954460002e-08 8.54980418070526e-07 8.6523660008465e-25)
(-5.27737089000088e-08 8.62206797330468e-07 -5.88968624992521e-25)
(-2.17906319155028e-08 8.67892084660077e-07 3.6134461620452e-25)
(5.94204242635344e-09 8.72294162085079e-07 -4.52849506979406e-25)
(3.11658147611766e-08 8.75604041895182e-07 5.88648311866353e-26)
(5.45354065076059e-08 8.77954928127767e-07 5.8406372107112e-25)
(7.66549922440216e-08 8.7940673821695e-07 -1.61919709194951e-25)
(9.810301817904e-08 8.80012787228116e-07 1.13894767852505e-26)
(1.19451387061906e-07 8.7975855746475e-07 -2.00202542526313e-25)
(1.41263041677228e-07 8.78619102115355e-07 1.09385307254671e-24)
(1.6414024933126e-07 8.76524085538941e-07 -2.75400346147045e-25)
(1.88736380991531e-07 8.73350082057858e-07 -8.29255556492266e-25)
(2.15778458828782e-07 8.68915620906352e-07 2.85153430139564e-25)
(2.46097776940048e-07 8.62956366383114e-07 -1.18804233156232e-24)
(2.80681727194363e-07 8.55074605302674e-07 9.46462701565685e-25)
(3.20735907889367e-07 8.44682549441335e-07 1.07246329689812e-24)
(3.67730711343386e-07 8.30876314248608e-07 -8.05016389340141e-25)
(4.23532058061315e-07 8.12306224453997e-07 -4.74313676431513e-25)
(4.90498160375902e-07 7.86866534012138e-07 4.04322700840527e-25)
(5.71632250582183e-07 7.51262298392556e-07 -1.45172069574891e-26)
(6.70700989484672e-07 7.002943881095e-07 2.80842395535743e-25)
(7.9252237397219e-07 6.25809987093441e-07 -2.85819589199606e-24)
(9.42485362871149e-07 5.1534510081421e-07 -7.66365713439337e-25)
(1.12718595626956e-06 3.50375392797079e-07 -6.10256977696899e-25)
(1.35169149107161e-06 1.06716498725838e-07 -2.86973591670301e-24)
(1.61536228046893e-06 -2.39955884026453e-07 -6.2571632982101e-25)
(1.90947144503841e-06 -6.75255725211852e-07 -7.85447216749641e-25)
(2.16393290824305e-06 -1.06106767599989e-06 -3.47582182300506e-24)
(2.31252508745867e-06 -8.55901309332434e-07 -6.96087151617443e-25)
(2.00023455623739e-06 9.0320505457914e-07 -7.26743657068008e-25)
(1.31086346171855e-06 4.95789144877874e-06 -3.67255885639514e-24)
(-2.41538839685724e-07 6.09268280475543e-06 2.16322239631055e-26)
(4.23589935666354e-07 6.95340141945424e-06 7.29386038205119e-25)
(1.99498077119774e-07 6.37309938980241e-06 8.92544150569828e-25)
(-4.85713530552624e-07 2.25022581784617e-06 1.196614947023e-24)
(-1.10712960727836e-06 2.16494842353629e-07 6.08879999947827e-25)
(-1.36090655596076e-06 -2.296566524904e-07 3.80654920031871e-25)
(-1.40038500032575e-06 1.98209299132506e-08 2.39102732875844e-25)
(-1.30176433345138e-06 3.96173872133373e-07 4.87852918761234e-25)
(-1.15382361960935e-06 7.25873721257727e-07 5.41029022969873e-25)
(-9.94155623729558e-07 9.71455487791319e-07 3.66852289026007e-25)
(-8.42730222150132e-07 1.14574276189269e-06 5.76836523196832e-25)
(-7.07530214525536e-07 1.2676274671278e-06 1.55134693103925e-24)
(-5.8997962410951e-07 1.35331311738648e-06 1.4702136639153e-24)
(-4.89368124141891e-07 1.41437829322979e-06 9.22494282356437e-25)
(-4.0364010359461e-07 1.45873579337495e-06 1.15668619885343e-24)
(-3.30610235030962e-07 1.49163980067013e-06 7.24165772757104e-25)
(-2.68191823712501e-07 1.51655964656137e-06 1.23850600320953e-24)
(-2.14543879855819e-07 1.53576952830795e-06 1.48186119338042e-24)
(-1.68110850598844e-07 1.55079676975764e-06 1.41289757714318e-24)
(-1.27584278349311e-07 1.56265467160671e-06 1.45513930230335e-24)
(-9.18651662599767e-08 1.57204028376936e-06 1.00674648860645e-24)
(-6.00224365277795e-08 1.57942754403257e-06 1.02683864443821e-24)
(-3.12489662687571e-08 1.58516188289465e-06 6.21255089704387e-25)
(-4.83275836243511e-09 1.58946287249683e-06 1.06218858604181e-24)
(1.9863735506029e-08 1.59249089974193e-06 9.39963397233286e-25)
(4.34397283634054e-08 1.59433977089048e-06 7.407305222422e-25)
(6.64618492758757e-08 1.59505834307199e-06 1.01685875886035e-24)
(8.94878976929259e-08 1.5946465167186e-06 4.23085169385562e-25)
(1.13084258658274e-07 1.59305321687803e-06 6.63091271093966e-25)
(1.37838013322055e-07 1.59020621725014e-06 4.33032623204139e-25)
(1.64381845656768e-07 1.58594284965146e-06 -1.01614378310322e-25)
(1.93416844788435e-07 1.58004208778223e-06 6.21486701802925e-27)
(2.25736006448661e-07 1.57216577555825e-06 -7.69341287234537e-25)
(2.62255906625066e-07 1.56185906060918e-06 8.64527840711599e-26)
(3.04064002013317e-07 1.54841224559968e-06 1.99398271930697e-25)
(3.5245176237254e-07 1.53079081849992e-06 -1.98367149444084e-25)
(4.08955635235472e-07 1.50748329504098e-06 2.19467606314838e-25)
(4.75384850939663e-07 1.47618570833283e-06 -1.60565389519533e-25)
(5.5380518353818e-07 1.43345007572503e-06 -2.648268218125e-25)
(6.46353166667797e-07 1.37400049803269e-06 3.09484115964878e-26)
(7.55066780251068e-07 1.28989545905086e-06 -8.13759028011156e-25)
(8.80551432940618e-07 1.16947561102143e-06 -6.95596194816915e-25)
(1.02143172477878e-06 9.96388725549203e-07 -6.34103448006315e-25)
(1.16948544988512e-06 7.51113937336841e-07 -8.77004715866572e-25)
(1.30495893205416e-06 4.18932730106449e-07 -6.00287832426565e-25)
(1.39011810282742e-06 3.21374329345264e-08 -6.89928835229173e-25)
(1.33854447840741e-06 -2.44443386586855e-07 -1.20637306772819e-24)
(1.07922115696863e-06 1.59443296545326e-07 -6.74271711770903e-25)
(4.67497367772785e-07 2.18625487067014e-06 -6.14809674652211e-25)
(-1.85011087049687e-07 6.41459092615184e-06 -1.12147042325776e-24)
(-4.03290977645286e-07 7.08076033322931e-06 -8.83296407145961e-26)
(4.27487730485364e-07 6.95123480166859e-06 8.21606452361266e-25)
(9.67348739612813e-07 6.69726761554347e-06 2.06177064576343e-24)
(3.64513689625306e-07 2.71589584059903e-06 1.22930318537896e-24)
(-3.44849840162011e-07 5.51370219268821e-07 5.44105128199808e-25)
(-8.05643777575907e-07 -5.54606609596793e-08 3.93577586075012e-25)
(-1.02061784301883e-06 7.58117963795492e-08 6.75510906358582e-25)
(-1.05852874026034e-06 3.86668783605347e-07 5.24531957940785e-25)
(-1.00366263130599e-06 6.86498499305158e-07 5.88418489975186e-25)
(-9.06182601666124e-07 9.22576567287727e-07 9.71617863331299e-25)
(-7.95146763862111e-07 1.09748962284412e-06 1.37369148605181e-24)
(-6.8619144640192e-07 1.22448491263657e-06 9.65365503481588e-25)
(-5.85741224555147e-07 1.31673960490186e-06 1.57804583994689e-24)
(-4.96385069492883e-07 1.38441664949529e-06 1.60056577211277e-24)
(-4.18158360098664e-07 1.43478897801551e-06 9.14364206114722e-25)
(-3.50190796370125e-07 1.4729031742677e-06 1.46400329788051e-24)
(-2.91216233232542e-07 1.50221604840244e-06 1.24411966775797e-24)
(-2.39921001253113e-07 1.52509521349695e-06 1.75586627082057e-24)
(-1.9507999268908e-07 1.543136551038e-06 1.99002263439924e-24)
(-1.55596451738081e-07 1.55746328662263e-06 1.51564994625026e-24)
(-1.20511890928625e-07 1.56884580240631e-06 1.78156041980402e-24)
(-8.89872393805319e-08 1.5778225366517e-06 1.15448644296449e-24)
(-6.02827847823557e-08 1.58478237976485e-06 1.08009471595262e-24)
(-3.37341939522851e-08 1.58999073389866e-06 1.43662667899177e-24)
(-8.73266420230753e-09 1.59362488076857e-06 9.54390986429358e-25)
(1.52867919527559e-08 1.59580444947278e-06 1.11955737330785e-24)
(3.88668163191435e-08 1.59657855740793e-06 1.39643612319692e-24)
(6.25400663000704e-08 1.59595912154905e-06 7.33762604537127e-25)
(8.68474481105742e-08 1.59388355239642e-06 2.45082884051894e-25)
(1.12348988208899e-07 1.59025791540476e-06 7.87178515423512e-25)
(1.39639835524035e-07 1.58489846281443e-06 3.61406508860385e-25)
(1.69374950837591e-07 1.57754230922203e-06 -1.83377514354185e-25)
(2.02279404172371e-07 1.56781942430706e-06 -2.73805764726573e-25)
(2.39178304283497e-07 1.55518953259723e-06 -4.44255984024501e-25)
(2.81016682621115e-07 1.53887291736297e-06 -2.98281335742901e-25)
(3.28865423263263e-07 1.5177626796473e-06 2.92287791807184e-25)
(3.83921928299522e-07 1.49023064212e-06 5.69110299356106e-25)
(4.47471396204811e-07 1.45392349053703e-06 -4.95772547084177e-25)
(5.20744440308583e-07 1.40539267134405e-06 -3.52443542806177e-25)
(6.04549533217217e-07 1.33957895208638e-06 -1.56397126298765e-25)
(6.98803536236726e-07 1.24918630430884e-06 1.81561095217235e-25)
(8.00781183451186e-07 1.12398550541964e-06 -7.01658680013964e-25)
(9.040290920649e-07 9.50665400018453e-07 -7.34081318161945e-25)
(9.92541068231215e-07 7.15364744921313e-07 1.0707442374319e-25)
(1.03721503475309e-06 4.13555719202613e-07 -6.42438718001679e-25)
(9.87285804177447e-07 9.23572133037996e-08 -6.66859008196637e-25)
(7.59932643039332e-07 -6.74618447468523e-08 4.61654041744127e-26)
(2.90085464940356e-07 4.9284587103029e-07 -7.57073113998117e-25)
(-4.17146610734767e-07 2.64293310613925e-06 -6.12608132166907e-25)
(-9.94286223852357e-07 6.72566349685856e-06 4.71431169321837e-25)
(-4.25488792658297e-07 7.06880307842771e-06 -8.15441007957619e-26)
(3.85801555991281e-07 6.3909197907022e-06 6.63485301366086e-25)
(1.2107674919973e-06 6.36897752078399e-06 1.945274983283e-24)
(7.10286276679133e-07 2.69805312978206e-06 9.63997216703598e-25)
(4.78528558798109e-08 5.11187254962962e-07 3.85116472374576e-25)
(-4.68559194604681e-07 -2.02593829662015e-07 1.24934443936594e-25)
(-7.54494034969888e-07 -1.74103614495388e-07 7.28935815795333e-25)
(-8.65160970008481e-07 7.12946679632852e-08 4.25216267445064e-25)
(-8.68482172654693e-07 3.35748728765892e-07 4.76657936835015e-25)
(-8.15282533823344e-07 5.56278352010623e-07 9.79426329875466e-25)
(-7.36179027903261e-07 7.2668488093379e-07 1.15495379101711e-24)
(-6.4992034870959e-07 8.54897872820742e-07 4.39107902150369e-25)
(-5.65469354944175e-07 9.50915503399357e-07 1.0414446925801e-24)
(-4.87404405387056e-07 1.02322486384952e-06 1.33995438581289e-24)
(-4.1720453549539e-07 1.07823055716861e-06 5.36515682942502e-25)
(-3.55000025111907e-07 1.12061025344667e-06 1.20989037621025e-24)
(-3.00208780382793e-07 1.15366478227171e-06 9.28216334868274e-25)
(-2.51984445390989e-07 1.17974057088356e-06 1.2666823262807e-24)
(-2.09417361300837e-07 1.20046515817768e-06 1.60412014537325e-24)
(-1.71620718922635e-07 1.21701696016411e-06 1.17409004710117e-24)
(-1.37790635126912e-07 1.23020264132776e-06 1.49868352704598e-24)
(-1.07188244756175e-07 1.24062492834562e-06 9.23141069650585e-25)
(-7.91446654508385e-08 1.24869786983206e-06 1.02023305798773e-24)
(-5.30556550924511e-08 1.25472022117335e-06 1.02064326206522e-24)
(-2.83574616921578e-08 1.25889453082775e-06 7.20658992886871e-25)
(-4.51590651589266e-09 1.26134646833053e-06 1.01381637273708e-24)
(1.89779647067602e-08 1.2621402812024e-06 1.05230465081775e-24)
(4.26221838191927e-08 1.26128124333939e-06 6.68766602253588e-25)
(6.69280477341835e-08 1.25871277088684e-06 5.57220454223915e-27)
(9.24200062819448e-08 1.25431224611272e-06 5.32428113534978e-25)
(1.19645043473668e-07 1.24788595605663e-06 4.61923545393119e-25)
(1.49207553811593e-07 1.23914361119538e-06 -2.58329493604157e-25)
(1.81754827703481e-07 1.22766262686771e-06 -2.92918048978899e-26)
(2.17999850475227e-07 1.21288154632452e-06 -5.60967171601299e-25)
(2.5874946419154e-07 1.19395635300842e-06 -4.65647404300171e-25)
(3.04854612921683e-07 1.16973355067e-06 4.2229663709948e-25)
(3.5719074880502e-07 1.13856147566388e-06 4.32781508933255e-25)
(4.16576683789313e-07 1.09812017230692e-06 -3.02328689694261e-25)
(4.83547390372321e-07 1.04510393586468e-06 -2.89517757113487e-25)
(5.57906016360435e-07 9.74849071448741e-07 -2.22465667649469e-25)
(6.38114029181922e-07 8.8092006602705e-07 6.20946855559079e-25)
(7.19431872605196e-07 7.5480269156658e-07 -3.21312604365758e-25)
(7.9281683373327e-07 5.86385166539198e-07 -3.28036149490667e-25)
(8.39084933443673e-07 3.67198835645252e-07 7.73611886917386e-25)
(8.27440798964989e-07 1.014882369071e-07 -2.73410992736493e-25)
(7.06258501876009e-07 -1.5369785286828e-07 -2.65205410790218e-25)
(4.08655726266376e-07 -2.11293463015183e-07 8.70455189778132e-25)
(-1.17941388038449e-07 4.52889536748872e-07 -3.26881926553307e-25)
(-7.81739873994921e-07 2.61832331161757e-06 -1.91417378718758e-25)
(-1.26324939884499e-06 6.3808529925876e-06 1.46525331044177e-24)
(-3.95954715510065e-07 6.49119856714265e-06 8.19044904471363e-26)
(3.36003606506318e-07 5.65281974196255e-06 4.78671323707279e-25)
(1.1475632033059e-06 5.82459492312667e-06 1.85585200616837e-24)
(7.52811142813543e-07 2.50700270258144e-06 6.80440593701349e-25)
(2.00332725847236e-07 3.5810300493241e-07 3.01171218518461e-25)
(-2.83325786928705e-07 -4.19506320233221e-07 6.71038194189974e-25)
(-5.75245303679455e-07 -4.72921547351149e-07 9.6230020395647e-25)
(-7.15351211844004e-07 -2.86233169347773e-07 3.30483943596424e-25)
(-7.51341420908351e-07 -5.76134348728647e-08 3.58090848469363e-25)
(-7.28047079692907e-07 1.44409348838162e-07 1.07525970273682e-24)
(-6.73243528534893e-07 3.0696561389204e-07 1.07768595932069e-24)
(-6.05803159624832e-07 4.3345596423206e-07 -1.52392556435108e-25)
(-5.35519911970339e-07 5.30933085812357e-07 5.69961165508598e-25)
(-4.67986340426439e-07 6.06144044459682e-07 1.16159497980396e-24)
(-4.05592396048619e-07 6.64536682563146e-07 1.14550285161808e-26)
(-3.49193597477354e-07 7.10279109191332e-07 1.07693382809976e-24)
(-2.98757609760415e-07 7.46439164008452e-07 5.98631878127426e-25)
(-2.53834968495504e-07 7.75246601727851e-07 7.90822384737239e-25)
(-2.13797195416454e-07 7.98328985881879e-07 1.27849005742105e-24)
(-1.7796529933684e-07 8.16853675890229e-07 8.10437186015244e-25)
(-1.45674175840297e-07 8.31664021162921e-07 1.3417663923875e-24)
(-1.16286425312955e-07 8.43387837907913e-07 6.6589961171922e-25)
(-8.92190466165829e-08 8.5246579814452e-07 1.05169833291722e-24)
(-6.39186944512898e-08 8.59220585007556e-07 6.30824435294618e-25)
(-3.98681637601865e-08 8.63867627852821e-07 4.78571358145257e-25)
(-1.65764233479306e-08 8.66555302493678e-07 9.97448315335666e-25)
(6.4323802405623e-09 8.67341149655053e-07 6.9784729939728e-25)
(2.96242717051819e-08 8.66235005053386e-07 5.69787943870857e-25)
(5.34712058436398e-08 8.63178287953533e-07 -3.20833923391267e-25)
(7.84596127802746e-08 8.58033397624029e-07 2.8713346229864e-25)
(1.05095856439548e-07 8.50590192302427e-07 6.38723210808744e-25)
(1.33913383536705e-07 8.40547615859278e-07 -4.02387008249875e-25)
(1.65493093855622e-07 8.27445116427044e-07 2.87665340953354e-25)
(2.0044674414688e-07 8.10697161660746e-07 -7.79322268441061e-25)
(2.39421371209841e-07 7.89446491819875e-07 -7.32672378361421e-25)
(2.83071971428786e-07 7.62515960623461e-07 6.41707286874476e-25)
(3.31991202501528e-07 7.28302286320842e-07 3.00702884831897e-25)
(3.86596877976314e-07 6.84574093553896e-07 -1.50340837472954e-25)
(4.46872831106716e-07 6.28279590569047e-07 -2.16201649641545e-25)
(5.11894734637322e-07 5.55266023797908e-07 -5.03312255133697e-25)
(5.79201433322007e-07 4.60083466451111e-07 7.23752989624587e-25)
(6.43040693218736e-07 3.35964698694741e-07 -7.63110081701633e-26)
(6.93521867487463e-07 1.75800765996729e-07 -6.52720051243394e-26)
(7.11331643844774e-07 -2.43101357881655e-08 8.76915333441525e-25)
(6.68490890379683e-07 -2.53423538711546e-07 -4.10431066198223e-26)