/*--------------------------------*- C++ -*----------------------------------*\
  =========                 |
  \\      /  F ield         | OpenFOAM: The Open Source CFD Toolbox
   \\    /   O peration     | Website:  https://openfoam.org
    \\  /    A nd           | Version:  10
     \\/     M anipulation  |
\*---------------------------------------------------------------------------*/
FoamFile
{
    format      ascii;
    class       volScalarField;
    location    "6.6";
    object      wallHeatFlux;
}
// * * * * * * * * * * * * * * * * * * * * * * * * * * * * * * * * * * * * * //

dimensions      [1 0 -3 0 0 0 0];

internalField   uniform 0;

boundaryField
{
    back
    {
        type            calculated;
        value           uniform 0;
    }
    bottom
    {
        type            calculated;
        value           nonuniform List<scalar> 
50
(
91.1514842616435
92.6589890230204
95.8611213272605
98.1719612061908
99.5718111000114
100.368341454293
100.806471204408
101.039406297084
101.158444087175
101.216826551444
101.243964605751
101.256078437058
101.261251230373
101.263300608109
101.26408246848
101.264314920869
101.264423547857
101.26442898803
101.264396116705
101.264386204314
101.264374547946
101.264366673279
101.264360371194
101.26436392109
101.264359407434
101.264356487884
101.264362077651
101.264367076132
101.264377453434
101.264390467278
101.264403346068
101.264428645911
101.264428376813
101.264399948645
101.264295549933
101.263971913403
101.263080360461
101.260744850015
101.255224777197
101.242393953607
101.214118050785
101.154511128524
101.034228530019
100.801044470881
100.36533329998
99.5732877583941
98.1759443928862
95.8537001685898
92.6263335881296
91.1778531448836
)
;
    }
    left
    {
        type            calculated;
        value           uniform 0;
    }
    front
    {
        type            calculated;
        value           uniform 0;
    }
    right
    {
        type            calculated;
        value           uniform 0;
    }
    top
    {
        type            calculated;
        value           uniform 0;
    }
}


// ************************************************************************* //
