/*--------------------------------*- C++ -*----------------------------------*\
  =========                 |
  \\      /  F ield         | OpenFOAM: The Open Source CFD Toolbox
   \\    /   O peration     | Website:  https://openfoam.org
    \\  /    A nd           | Version:  10
     \\/     M anipulation  |
\*---------------------------------------------------------------------------*/
FoamFile
{
    format      ascii;
    class       volScalarField;
    location    "2.4";
    object      alphat;
}
// * * * * * * * * * * * * * * * * * * * * * * * * * * * * * * * * * * * * * //

dimensions      [1 -1 -1 0 0 0 0];

internalField   nonuniform List<scalar> 
2500
(
4.1205505393686e-14
7.30895350492815e-13
2.87896924866014e-12
4.4413376732808e-12
5.30291461414794e-12
5.69307801099107e-12
5.84352550339569e-12
5.89425833073098e-12
5.9095357685683e-12
5.91371193198807e-12
5.91476061047659e-12
5.91500339201551e-12
5.91505347352412e-12
5.91506030500051e-12
5.91505881866858e-12
5.9150562993065e-12
5.9150538493341e-12
5.91505167779828e-12
5.91504976862152e-12
5.91504806532361e-12
5.91504654928078e-12
5.9150452026657e-12
5.91504401163243e-12
5.91504295872989e-12
5.915042056224e-12
5.91504130630187e-12
5.91504069697933e-12
5.91504024837831e-12
5.91503998739528e-12
5.91503999673898e-12
5.91504017708966e-12
5.91504033448923e-12
5.91504079849132e-12
5.91504145427351e-12
5.91504224474576e-12
5.91504273621175e-12
5.91503991552656e-12
5.915019935336e-12
5.91492713346577e-12
5.91454240449089e-12
5.9130553306276e-12
5.90768071241261e-12
5.88963411945697e-12
5.83394429516643e-12
5.67824407030503e-12
5.29104991608754e-12
4.45483620228975e-12
2.9364607695193e-12
7.72960780867499e-13
4.62063646990835e-14
3.77563847356459e-12
1.83286178300553e-10
7.45158057390504e-10
1.1597498464426e-09
1.39432147947105e-09
1.50345901591401e-09
1.54665204306886e-09
1.56157321364989e-09
1.56616643314164e-09
1.56744730585112e-09
1.56777486226116e-09
1.56785207381995e-09
1.56786844319104e-09
1.56787094063735e-09
1.56787064578821e-09
1.56786998462799e-09
1.56786932833e-09
1.56786874132628e-09
1.56786822355265e-09
1.56786776427426e-09
1.56786735744916e-09
1.56786699824334e-09
1.56786668204059e-09
1.56786640252882e-09
1.56786616287311e-09
1.56786596559417e-09
1.56786580656793e-09
1.56786569145699e-09
1.56786562878679e-09
1.56786564230866e-09
1.56786570108551e-09
1.56786574262157e-09
1.56786587025011e-09
1.56786605236474e-09
1.5678662681244e-09
1.567866375053e-09
1.56786537751677e-09
1.56785889303412e-09
1.56782963805212e-09
1.56771013884819e-09
1.56725462007529e-09
1.56563269813246e-09
1.56027626550805e-09
1.54404923587771e-09
1.49960200037612e-09
1.3915353200515e-09
1.16371828078339e-09
7.59934777979899e-10
1.93449825902358e-10
4.20858649623799e-12
1.29100127245109e-11
3.19669616936544e-09
1.01042452144566e-06
1.56451952187551e-06
1.87825525320554e-06
2.02614082216457e-06
2.08574994311632e-06
2.10675940322623e-06
2.11335812605649e-06
2.11523442461801e-06
2.11572338090702e-06
2.11584090716058e-06
2.1158665519925e-06
2.11587090661508e-06
2.11587077426786e-06
2.11587000660638e-06
2.11586920954742e-06
2.11586848843346e-06
2.1158678503e-06
2.11586728375581e-06
2.11586678097941e-06
2.11586633587064e-06
2.11586594385589e-06
2.1158655987823e-06
2.1158653009033e-06
2.11586505356219e-06
2.11586485518189e-06
2.11586470932901e-06
2.11586462703225e-06
2.11586464396986e-06
2.11586470884961e-06
2.11586475436204e-06
2.11586489813144e-06
2.11586511179964e-06
2.11586535578806e-06
2.11586541096708e-06
2.11586375261368e-06
2.11585397841042e-06
2.11581093994154e-06
2.11563706308261e-06
2.1149807417947e-06
2.11266797648059e-06
2.10511741725443e-06
2.08253224560505e-06
2.02150031794951e-06
1.87503982902026e-06
1.56931715173043e-06
1.02783948821253e-06
3.34811564397159e-09
1.40502146590464e-11
2.21331467304108e-11
5.5355304288804e-09
1.73437728009124e-06
2.6578284957675e-06
3.17589624470156e-06
3.42001305695869e-06
3.51888139629716e-06
3.5539925308737e-06
3.56512105388621e-06
3.56831717397943e-06
3.56915906122922e-06
3.56936386309953e-06
3.56940936025334e-06
3.56941751946876e-06
3.56941764158473e-06
3.56941654811623e-06
3.56941535779922e-06
3.56941426913977e-06
3.56941330083867e-06
3.56941243798389e-06
3.56941166834757e-06
3.56941098438996e-06
3.56941037989482e-06
3.56940984763282e-06
3.56940938572469e-06
3.56940899799883e-06
3.56940868441683e-06
3.56940844807137e-06
3.56940830367959e-06
3.5694083035839e-06
3.56940837361015e-06
3.56940845497776e-06
3.56940862947987e-06
3.56940892608353e-06
3.56940925896663e-06
3.56940928563172e-06
3.56940650641647e-06
3.56939073771191e-06
3.56932128866742e-06
3.56903951241219e-06
3.56797071076035e-06
3.56418710927424e-06
3.55178591467034e-06
3.51457442197531e-06
3.4137659481574e-06
3.17124202859007e-06
2.66290291665876e-06
1.7549793012698e-06
5.71889615658105e-09
2.35030010625213e-11
3.01344855282149e-11
7.5660857474417e-09
2.34789747862366e-06
3.57059537659159e-06
4.25258245917689e-06
4.57411684463455e-06
4.70490356326503e-06
4.75165527013947e-06
4.76659139700404e-06
4.77091941147593e-06
4.77207062344047e-06
4.77235380197191e-06
4.77241776571291e-06
4.77242981276676e-06
4.77243049445744e-06
4.77242931221043e-06
4.77242793167509e-06
4.77242664961195e-06
4.77242550161574e-06
4.77242447506055e-06
4.7724235550164e-06
4.7724227317996e-06
4.77242200028347e-06
4.77242135355993e-06
4.77242078969828e-06
4.77242031062051e-06
4.77241991715663e-06
4.77241961296675e-06
4.77241941094048e-06
4.77241934867441e-06
4.7724193969091e-06
4.7724195030084e-06
4.77241966122709e-06
4.77241996649354e-06
4.77242029865555e-06
4.77242019887097e-06
4.77241645671588e-06
4.77239613304457e-06
4.7723066870503e-06
4.77194240500637e-06
4.77055426463431e-06
4.76561821943371e-06
4.74937635957061e-06
4.70048510911877e-06
4.5677083101e-06
4.24759613983599e-06
3.57476335365979e-06
2.36677915145147e-06
7.74164233581818e-09
3.14912768582078e-11
3.65337208815105e-11
9.20945568846626e-09
2.8391458234924e-06
4.2945401989869e-06
5.10359499836618e-06
5.48551729413234e-06
5.64149886380906e-06
5.69758209006155e-06
5.71562526596225e-06
5.72089502394939e-06
5.72230902660284e-06
5.72266036106049e-06
5.72274091642732e-06
5.72275676110804e-06
5.72275821793e-06
5.72275712546728e-06
5.72275571937887e-06
5.7227543863866e-06
5.72275318210722e-06
5.7227520986329e-06
5.72275112204947e-06
5.72275024292047e-06
5.72274945551648e-06
5.72274875484105e-06
5.72274813990131e-06
5.72274761040406e-06
5.72274716762151e-06
5.72274681532569e-06
5.72274656358072e-06
5.72274643286089e-06
5.72274644471505e-06
5.72274651329191e-06
5.72274664595369e-06
5.72274689954766e-06
5.72274716470783e-06
5.7227468544018e-06
5.72274227562214e-06
5.72271852178e-06
5.72261419746861e-06
5.72218818402318e-06
5.72055876118535e-06
5.71474345489371e-06
5.69554691766876e-06
5.63761325160252e-06
5.47998392929541e-06
5.09941807933207e-06
4.29822242498188e-06
2.85523141226769e-06
9.36483761706007e-09
3.77947156177834e-11
4.13369061382068e-11
1.04622558412672e-08
3.21313080338737e-06
4.84284220107228e-06
5.74725946182177e-06
6.17489616256646e-06
6.35019759461583e-06
6.41354905174104e-06
6.43405496933889e-06
6.44008538184739e-06
6.441715956335e-06
6.44212472925941e-06
6.44221968434926e-06
6.44223907492836e-06
6.44224142585159e-06
6.44224051000733e-06
6.44223919002274e-06
6.44223790479077e-06
6.44223673026841e-06
6.44223566499457e-06
6.44223469808828e-06
6.4422338212253e-06
6.44223302939207e-06
6.44223231896451e-06
6.44223168909619e-06
6.44223113920639e-06
6.44223067054431e-06
6.44223028620987e-06
6.44222999380301e-06
6.44222980547861e-06
6.4422297408669e-06
6.44222976098173e-06
6.44222986843045e-06
6.44223002526807e-06
6.44223019763619e-06
6.4422296296023e-06
6.44222431176221e-06
6.44219803635984e-06
6.44208291537925e-06
6.44161197741401e-06
6.43980550017755e-06
6.43333951116113e-06
6.4119408673541e-06
6.34723332891815e-06
6.17093213293197e-06
5.74490786106992e-06
4.84721633030343e-06
3.22737562335896e-06
1.0600184510493e-08
4.25049877283944e-11
4.47486908353556e-11
1.13674958608504e-08
3.48482752582481e-06
5.24047961051847e-06
6.21418047371183e-06
6.67538232539475e-06
6.86506516398718e-06
6.93391359669846e-06
6.95631475419731e-06
6.96294147019456e-06
6.96474517953809e-06
6.96520086798051e-06
6.96530788273164e-06
6.96533039329558e-06
6.96533363263388e-06
6.965333008295e-06
6.96533183894137e-06
6.96533065865841e-06
6.96532956449427e-06
6.96532856229551e-06
6.96532764492922e-06
6.96532680586839e-06
6.9653260413833e-06
6.96532534888112e-06
6.96532472776764e-06
6.96532417759703e-06
6.96532369949049e-06
6.96532329573911e-06
6.96532297182012e-06
6.96532273523884e-06
6.96532259552767e-06
6.96532255173063e-06
6.96532259007184e-06
6.96532267741201e-06
6.96532270729638e-06
6.96532183551936e-06
6.96531596683801e-06
6.96528788700059e-06
6.9651651558251e-06
6.96466252743687e-06
6.96273026440613e-06
6.95579852986637e-06
6.93281384144199e-06
6.86320637160677e-06
6.6733690770918e-06
6.21438348684078e-06
5.24679665799837e-06
3.4988788611737e-06
1.14966122577205e-08
4.58609247649473e-11
4.70549578572041e-11
1.19903607882101e-08
3.67370712681398e-06
5.51715279446251e-06
6.53956454922272e-06
7.0246518956183e-06
7.22471830867083e-06
7.2976005009984e-06
7.32141685982619e-06
7.32849708273032e-06
7.33043502126817e-06
7.33092784503086e-06
7.33104463340746e-06
7.33106977755645e-06
7.33107384557979e-06
7.33107353574649e-06
7.33107254110303e-06
7.33107148960077e-06
7.33107049798819e-06
7.33106957934991e-06
7.33106873035011e-06
7.33106794650399e-06
7.33106722546426e-06
7.33106656556287e-06
7.33106596657124e-06
7.33106542826449e-06
7.33106495165009e-06
7.33106453831362e-06
7.33106419206511e-06
7.33106391767095e-06
7.3310637203804e-06
7.33106360146569e-06
7.3310635641853e-06
7.33106354332263e-06
7.33106343379419e-06
7.33106230836427e-06
7.33105606609439e-06
7.33102670239948e-06
7.33089877228176e-06
7.33037452309855e-06
7.32835592557365e-06
7.32110237225547e-06
7.29701567376494e-06
7.22399077128553e-06
7.02469564522542e-06
6.54267969675725e-06
5.5263121030902e-06
3.68905256650649e-06
1.211937065994e-08
4.81513224296007e-11
4.8545312866388e-11
1.24001087420637e-08
3.79967866409365e-06
5.70221141982157e-06
6.75776358030094e-06
7.25931997043118e-06
7.46665558307368e-06
7.54240885855321e-06
7.56725034090192e-06
7.57466512992631e-06
7.57670399120444e-06
7.57722530444272e-06
7.57734977090764e-06
7.57737705636334e-06
7.57738183239462e-06
7.5773818130176e-06
7.57738098963145e-06
7.57738006733434e-06
7.57737918044262e-06
7.57737834857698e-06
7.57737757183128e-06
7.57737684771469e-06
7.5773761751332e-06
7.57737555320117e-06
7.57737498213269e-06
7.57737446191671e-06
7.57737399348898e-06
7.57737357789914e-06
7.57737321774028e-06
7.57737291597512e-06
7.57737267594022e-06
7.57737249867506e-06
7.5773723823356e-06
7.57737228215853e-06
7.57737203953637e-06
7.57737074313267e-06
7.57736420299535e-06
7.57733395716778e-06
7.57720258941622e-06
7.57666409101769e-06
7.57458830636218e-06
7.56712028823281e-06
7.54229547555846e-06
7.46697372460267e-06
7.2613112600537e-06
6.76378870483442e-06
5.71460368349774e-06
3.81725546570026e-06
1.25350396663805e-08
4.96544573584217e-11
4.94697501355465e-11
1.26587794695399e-08
3.88049134353784e-06
5.82145548858315e-06
6.89883736870786e-06
7.41139950149679e-06
7.62367041210128e-06
7.70140622206535e-06
7.72696821965816e-06
7.734622501857e-06
7.73673498000188e-06
7.7372774872714e-06
7.7374077939951e-06
7.7374367478187e-06
7.73744209693596e-06
7.73744233322102e-06
7.73744166219317e-06
7.7374408558056e-06
7.7374400639019e-06
7.73743931166883e-06
7.73743860206582e-06
7.73743793430231e-06
7.73743730834027e-06
7.73743672395284e-06
7.73743618174866e-06
7.73743568190589e-06
7.73743522532869e-06
7.73743481269868e-06
7.73743444577557e-06
7.73743412631852e-06
7.7374338565206e-06
7.73743363682128e-06
7.73743346302689e-06
7.73743329584571e-06
7.73743295669586e-06
7.73743153009325e-06
7.73742477210927e-06
7.73739394012708e-06
7.73726037379304e-06
7.73671280623844e-06
7.73460046838993e-06
7.72699460251985e-06
7.70169312284632e-06
7.62488321746305e-06
7.41508803294019e-06
6.90749642647732e-06
5.83700737012703e-06
3.90063928085466e-06
1.28024795112675e-08
5.0606256876063e-11
5.00221715002735e-11
1.2816031382168e-08
3.93048966922689e-06
5.895643714708e-06
6.98696108460556e-06
7.50665718408691e-06
7.72217995957275e-06
7.80124477046922e-06
7.82729847810388e-06
7.83511922299744e-06
7.83728383634872e-06
7.83784164552889e-06
7.83797625681262e-06
7.83800646467345e-06
7.8380122611162e-06
7.83801270778824e-06
7.83801216259451e-06
7.83801145279272e-06
7.83801074085802e-06
7.83801005640608e-06
7.83800940464042e-06
7.83800878610347e-06
7.83800820158405e-06
7.83800765137409e-06
7.83800713639457e-06
7.83800665697845e-06
7.83800621402044e-06
7.83800580796409e-06
7.8380054400285e-06
7.83800511117201e-06
7.8380048227875e-06
7.8380045746633e-06
7.83800436131838e-06
7.83800414458969e-06
7.83800373779059e-06
7.83800221887743e-06
7.83799531072764e-06
7.8379641027821e-06
7.83782917663751e-06
7.83727603233439e-06
7.83514113413084e-06
7.82744974366798e-06
7.80185118521759e-06
7.72411077184128e-06
7.51172642508361e-06
6.99782076152634e-06
5.91396649685404e-06
3.953092144369e-06
1.29688511638792e-08
5.1189548296684e-11
5.03412674075219e-11
1.29083869432961e-08
3.96040118613335e-06
5.94031384571623e-06
7.04026408902944e-06
7.56445082401219e-06
7.78205525259947e-06
7.86198583187107e-06
7.88836568076609e-06
7.89629888199612e-06
7.89849937866059e-06
7.89906792244399e-06
7.89920561492578e-06
7.89923673772371e-06
7.89924287037562e-06
7.89924347988505e-06
7.89924303259546e-06
7.89924239939859e-06
7.89924175167872e-06
7.89924112233236e-06
7.89924051822044e-06
7.89923994087117e-06
7.89923939167778e-06
7.89923887131003e-06
7.89923838091934e-06
7.89923792095298e-06
7.89923749230607e-06
7.89923709527178e-06
7.89923673072973e-06
7.8992363991171e-06
7.89923610125804e-06
7.89923583638561e-06
7.89923559824411e-06
7.89923534861843e-06
7.89923489724376e-06
7.8992333170839e-06
7.8992263110547e-06
7.89919487084089e-06
7.89905913136925e-06
7.89850267102423e-06
7.89635431186203e-06
7.88861163326096e-06
7.86283412298519e-06
7.78453131499626e-06
7.57057854683079e-06
7.0528424678318e-06
5.96087028806566e-06
3.9850815349109e-06
1.30692028291103e-08
5.15364646487295e-11
5.05199718813183e-11
1.29609435489044e-08
3.97774819942872e-06
5.96640463056237e-06
7.07155266703736e-06
7.59848830749024e-06
7.81738905778027e-06
7.89786841484598e-06
7.92445876924176e-06
7.9324658998232e-06
7.93469042852682e-06
7.9352662989345e-06
7.93540613706167e-06
7.93543790963519e-06
7.93544428835718e-06
7.9354450196682e-06
7.93544464441465e-06
7.9354440702917e-06
7.93544347289848e-06
7.93544288738994e-06
7.93544232180171e-06
7.93544177835908e-06
7.93544125886485e-06
7.93544076424866e-06
7.9354402958137e-06
7.93543985408639e-06
7.93543943996165e-06
7.93543905364121e-06
7.93543869579032e-06
7.93543836651734e-06
7.93543806625173e-06
7.93543779381418e-06
7.93543754245479e-06
7.93543727367655e-06
7.93543679552721e-06
7.93543517782964e-06
7.93542811192341e-06
7.93539653418187e-06
7.93526032456656e-06
7.93470195557945e-06
7.93254582018393e-06
7.92477336212659e-06
7.89889147591596e-06
7.82025948166037e-06
7.60538625419606e-06
7.08539762704957e-06
5.9886419391708e-06
4.00403950363709e-06
1.31280419264224e-08
5.17372100316037e-11
5.06172620417388e-11
1.29899997175167e-08
3.9875238258002e-06
5.98121988223419e-06
7.08941465538289e-06
7.61798921916367e-06
7.83767644062499e-06
7.91849473651007e-06
7.94521748709413e-06
7.95327197637327e-06
7.95551218767424e-06
7.95609293037514e-06
7.95623422428053e-06
7.95626644649805e-06
7.9562730060972e-06
7.95627383063426e-06
7.9562735020685e-06
7.95627297309117e-06
7.95627241506098e-06
7.95627186445583e-06
7.95627133012255e-06
7.95627081476865e-06
7.95627032046039e-06
7.95626984828031e-06
7.95626939962329e-06
7.95626897506532e-06
7.95626857549741e-06
7.95626820106394e-06
7.95626785229607e-06
7.95626752909391e-06
7.95626723162283e-06
7.95626695841635e-06
7.95626670240768e-06
7.95626642484476e-06
7.95626593294747e-06
7.95626429476334e-06
7.95625719518293e-06
7.95622554014778e-06
7.956089068374e-06
7.95552963501208e-06
7.95336914293863e-06
7.94557991128413e-06
7.91963895766537e-06
7.84081996737006e-06
7.62542228475677e-06
7.10414684403837e-06
6.00465090738373e-06
4.01498064494555e-06
1.31616538832989e-08
5.18504786422836e-11
5.06688700574161e-11
1.30056421940497e-08
3.99288845463928e-06
5.98941550602279e-06
7.0993518492056e-06
7.62887965832278e-06
7.8490324554274e-06
7.93005503057264e-06
7.95685904012379e-06
7.96494313356903e-06
7.96719333131891e-06
7.96777723620743e-06
7.96791949437991e-06
7.96795201993699e-06
7.96795870672471e-06
7.96795959770274e-06
7.96795931182578e-06
7.96795881835186e-06
7.96795829176034e-06
7.96795776954773e-06
7.96795726117091e-06
7.96795676968401e-06
7.96795629730011e-06
7.96795584517411e-06
7.96795541474345e-06
7.96795500660745e-06
7.96795462165208e-06
7.96795425998383e-06
7.96795392204287e-06
7.9679536075964e-06
7.96795331663712e-06
7.96795304750487e-06
7.9679527929249e-06
7.96795251396535e-06
7.96795201744461e-06
7.967950370484e-06
7.96794325452875e-06
7.96791155923816e-06
7.96777494724735e-06
7.96721493871988e-06
7.96505207554599e-06
7.95725365983035e-06
7.93128020342057e-06
7.85235789653205e-06
7.63666945873389e-06
7.11467836050157e-06
6.01365317850509e-06
4.0211419788038e-06
1.31803986952132e-08
5.19129173784412e-11
5.06955935878584e-11
1.30138586337452e-08
3.99576085685064e-06
5.99384059547268e-06
7.10474939761714e-06
7.63481897240686e-06
7.85524112666186e-06
7.93638403302238e-06
7.96323678486773e-06
7.97133896362863e-06
7.97359537662123e-06
7.97418128839499e-06
7.97432417220252e-06
7.97435689948245e-06
7.97436367410671e-06
7.97436461849716e-06
7.97436436872128e-06
7.97436390430856e-06
7.97436340378577e-06
7.97436290550431e-06
7.97436241945495e-06
7.97436194897112e-06
7.9743614963263e-06
7.97436106267985e-06
7.97436064947096e-06
7.97436025730597e-06
7.97435988706223e-06
7.9743595388236e-06
7.97435921296014e-06
7.97435890914952e-06
7.97435862726499e-06
7.97435836551489e-06
7.97435811648677e-06
7.9743578411296e-06
7.97435734606427e-06
7.97435569796411e-06
7.97434857651243e-06
7.97431686289987e-06
7.97418017987013e-06
7.97361987051515e-06
7.97145575180208e-06
7.9636524371851e-06
7.93766154942209e-06
7.85868359294081e-06
7.64283795937675e-06
7.1204585510724e-06
6.01860028770225e-06
4.02453350657908e-06
1.31906217781089e-08
5.1946598577384e-11
5.07091195324052e-11
1.30180758153381e-08
3.99726382774694e-06
5.99617636990402e-06
7.10761648729454e-06
7.63798743786076e-06
7.85856214389022e-06
7.93977443834978e-06
7.96665580968931e-06
7.97476880277366e-06
7.97702900280878e-06
7.9776161629427e-06
7.97775944610522e-06
7.97779230728972e-06
7.97779914469639e-06
7.97780013215779e-06
7.9777999132032e-06
7.97779947365837e-06
7.97779899571617e-06
7.97779851842479e-06
7.97779805232197e-06
7.97779760100329e-06
7.97779716673272e-06
7.97779675061735e-06
7.97779635406392e-06
7.97779597767543e-06
7.97779562232313e-06
7.97779528807323e-06
7.97779497523866e-06
7.97779468342092e-06
7.97779441240496e-06
7.97779416030758e-06
7.9777939196206e-06
7.9777936512051e-06
7.97779316157227e-06
7.97779151718182e-06
7.97778439685158e-06
7.9777526775157e-06
7.97761596157597e-06
7.97705550072557e-06
7.974890734522e-06
7.96708486807777e-06
7.94108484529312e-06
7.86207759285159e-06
7.64614888241629e-06
7.12356346636249e-06
6.02126131429899e-06
4.02636110217749e-06
1.3196081951163e-08
5.19643998982832e-11
5.07158139476266e-11
1.30201925380433e-08
3.99803320486146e-06
5.99738323424486e-06
7.10910787947692e-06
7.63964321988888e-06
7.86030265640026e-06
7.94155418914947e-06
7.96845203762862e-06
7.97657137111409e-06
7.97883383467278e-06
7.97942175811236e-06
7.97956529349396e-06
7.97959824427636e-06
7.9796051283027e-06
7.97960615149899e-06
7.97960595963324e-06
7.97960554223896e-06
7.97960508462378e-06
7.97960462638269e-06
7.9796041786686e-06
7.97960374534144e-06
7.97960332859949e-06
7.97960292944934e-06
7.97960254924176e-06
7.97960218856888e-06
7.97960184830546e-06
7.97960152850991e-06
7.97960122943168e-06
7.97960095059736e-06
7.9796006917192e-06
7.97960045084195e-06
7.97960022038665e-06
7.97959996113579e-06
7.97959947951439e-06
7.97959784185528e-06
7.97959072656011e-06
7.97955900853136e-06
7.97942228013377e-06
7.97886174685285e-06
7.97669665542088e-06
7.96888948724708e-06
7.94288477144988e-06
7.86386240001963e-06
7.64789065475282e-06
7.12519812658519e-06
6.0226641868701e-06
4.02732637060956e-06
1.31989407482785e-08
5.19736248253127e-11
5.07190487969553e-11
1.30212308444801e-08
3.99841858749115e-06
5.99799399939892e-06
7.10986826769668e-06
7.64049171657155e-06
7.86119740406641e-06
7.94247074180286e-06
7.96937791054097e-06
7.97750089600289e-06
7.97976468967047e-06
7.98035307347309e-06
7.98049676758181e-06
7.98052977960586e-06
7.98053669975024e-06
7.98053775351823e-06
7.98053758607015e-06
7.98053718895309e-06
7.98053675013886e-06
7.98053630964563e-06
7.98053587930227e-06
7.98053546321875e-06
7.98053506348097e-06
7.98053468096187e-06
7.98053431694875e-06
7.98053397202187e-06
7.9805336470704e-06
7.98053334216232e-06
7.98053305746857e-06
7.98053279242689e-06
7.98053254668122e-06
7.98053231822107e-06
7.98053209941383e-06
7.98053185096382e-06
7.98053137919403e-06
7.98052975032742e-06
7.98052264257065e-06
7.98049092994116e-06
7.98035420006825e-06
7.97979363545704e-06
7.9776283855948e-06
7.96982056516007e-06
7.94381347595452e-06
7.86478342527743e-06
7.64878975567594e-06
7.12604249677449e-06
6.02338969855128e-06
4.02782638725618e-06
1.32004083865018e-08
5.1978311095173e-11
5.07205662018161e-11
1.30217267630919e-08
3.9986071609737e-06
5.99829656039245e-06
7.1102482678008e-06
7.64091824656925e-06
7.86164881738538e-06
7.94293409593825e-06
7.96984645790151e-06
7.97797151505579e-06
7.98023607934341e-06
7.98082473825654e-06
7.98096853284276e-06
7.98100158835075e-06
7.98100853775156e-06
7.9810096183446e-06
7.98100947326585e-06
7.98100909499447e-06
7.98100867388838e-06
7.98100825030319e-06
7.98100783672319e-06
7.98100743743335e-06
7.98100705437134e-06
7.98100668828045e-06
7.98100634038802e-06
7.9810060112684e-06
7.98100570184305e-06
7.98100541220673e-06
7.98100514242951e-06
7.98100489184715e-06
7.98100466003127e-06
7.98100444493431e-06
7.98100423890708e-06
7.98100400256041e-06
7.98100354209318e-06
7.98100192361748e-06
7.98099482527682e-06
7.98096312074911e-06
7.98082639556665e-06
7.98026582092815e-06
7.9781004975259e-06
7.970292355394e-06
7.94428407815437e-06
7.86525016774905e-06
7.64924546223821e-06
7.1264706214529e-06
6.02375782603482e-06
4.02808034890654e-06
1.32011463677298e-08
5.19806403391037e-11
5.07212474631461e-11
1.30219548339725e-08
3.99869669584861e-06
5.99844268409367e-06
7.11043395056961e-06
7.64112823919511e-06
7.86187206295006e-06
7.94316381259062e-06
7.97007903586243e-06
7.97820525444403e-06
7.98047026046806e-06
7.98105908309325e-06
7.98120294225059e-06
7.98123603017947e-06
7.98124300427347e-06
7.98124410889357e-06
7.98124398457049e-06
7.98124362404995e-06
7.98124321996112e-06
7.98124281295879e-06
7.98124241602312e-06
7.98124203345378e-06
7.98124166701751e-06
7.98124131736803e-06
7.98124098568601e-06
7.98124067255256e-06
7.98124037893214e-06
7.98124010495511e-06
7.98123985057416e-06
7.98123961501667e-06
7.98123939779041e-06
7.98123919683512e-06
7.98123900456662e-06
7.98123878148105e-06
7.9812383336235e-06
7.98123672701366e-06
7.98122963993543e-06
7.98119794588095e-06
7.98106122952477e-06
7.98050065657133e-06
7.97833530320215e-06
7.97052700628344e-06
7.94451813830325e-06
7.86548229647748e-06
7.6494720700335e-06
7.12668345587451e-06
6.02394076658014e-06
4.02820648097715e-06
1.32015082893801e-08
5.19817666848158e-11
5.07215303838843e-11
1.30220527257495e-08
3.99873707639977e-06
5.99851049249594e-06
7.11052176146979e-06
7.6412286980836e-06
7.86197956053043e-06
7.94327480405741e-06
7.97019159539768e-06
7.97831846067206e-06
7.98058371837496e-06
7.9811726385161e-06
7.98131653994709e-06
7.98134965288876e-06
7.98135664860516e-06
7.981357775438e-06
7.98135767095654e-06
7.98135732770276e-06
7.9813569405924e-06
7.98135655056303e-06
7.98135617081598e-06
7.98135580545452e-06
7.98135545605395e-06
7.98135512322174e-06
7.98135480812407e-06
7.98135451134909e-06
7.98135423389427e-06
7.98135397591251e-06
7.98135373725074e-06
7.98135351705686e-06
7.981353314784e-06
7.98135312840205e-06
7.98135295054185e-06
7.98135274154848e-06
7.98135230726259e-06
7.98135071369149e-06
7.98134363982649e-06
7.98131195873272e-06
7.98117525471003e-06
7.98061469097327e-06
7.97844933161751e-06
7.97064096649055e-06
7.94463181086461e-06
7.86559500786681e-06
7.6495820279916e-06
7.12678657490975e-06
6.02402915885411e-06
4.0282671837459e-06
1.32016794191953e-08
5.19822887964862e-11
5.07216066763859e-11
1.30220879908327e-08
3.99875304803984e-06
5.99853899692346e-06
7.11056026696103e-06
7.64127379850515e-06
7.86202841686429e-06
7.94332555514936e-06
7.97024320786132e-06
7.97837043295957e-06
7.98063583368708e-06
7.98122481185004e-06
7.98136874073547e-06
7.98140187205768e-06
7.98140888762401e-06
7.98141003649824e-06
7.98140995241306e-06
7.98140962726474e-06
7.98140925828866e-06
7.98140888667082e-06
7.98140852552279e-06
7.98140817857738e-06
7.98140784721248e-06
7.98140753204716e-06
7.98140723425892e-06
7.98140695444264e-06
7.98140669358966e-06
7.98140645182853e-06
7.98140622896034e-06
7.98140602409816e-06
7.9814058366516e-06
7.98140566463921e-06
7.98140550108018e-06
7.98140530607825e-06
7.98140488524652e-06
7.98140330471738e-06
7.98139624607363e-06
7.98136458089305e-06
7.98122789303371e-06
7.98066734507219e-06
7.97850199622031e-06
7.97069361430554e-06
7.94468433743598e-06
7.86564708378052e-06
7.64963277389004e-06
7.12683400668692e-06
6.02406951601859e-06
4.02829460721699e-06
1.32017548511113e-08
5.19825130692914e-11
5.07215483998381e-11
1.30220850159034e-08
3.99875572536864e-06
5.99854645990198e-06
7.11057242878097e-06
7.64128938288469e-06
7.86204606572313e-06
7.94334427923546e-06
7.97026243217463e-06
7.9783898735333e-06
7.98065536729813e-06
7.98124438981279e-06
7.98138834441418e-06
7.98142149472189e-06
7.98142853223286e-06
7.9814297061401e-06
7.98142964560747e-06
7.98142934167737e-06
7.98142899386963e-06
7.98142864348175e-06
7.98142830313411e-06
7.98142797627614e-06
7.98142766424745e-06
7.98142736775845e-06
7.98142708803388e-06
7.98142682566981e-06
7.98142658161228e-06
7.98142635592191e-06
7.98142614842623e-06
7.98142595822282e-06
7.98142578464675e-06
7.98142562570815e-06
7.98142547462977e-06
7.98142529122686e-06
7.98142488100679e-06
7.9814233101842e-06
7.98141626279466e-06
7.98138460875117e-06
7.9812479322178e-06
7.98068739698633e-06
7.97852206293357e-06
7.97071369201721e-06
7.9447043907184e-06
7.86566697369133e-06
7.64965210885017e-06
7.1268519291608e-06
6.02408453341506e-06
4.02830472981757e-06
1.32017825170182e-08
5.19825816855048e-11
5.07214328608146e-11
1.30220527753974e-08
3.99874908887203e-06
5.99853984112004e-06
7.1105672249339e-06
7.64128574971463e-06
7.86204354069651e-06
7.94334237507589e-06
7.97026083102698e-06
7.97838841187206e-06
7.98065397333953e-06
7.98124303454819e-06
7.9813870150023e-06
7.9814201848093e-06
7.98142724223287e-06
7.98142843974085e-06
7.98142840150923e-06
7.98142811818074e-06
7.9814277913773e-06
7.98142746215142e-06
7.98142714222999e-06
7.98142683498272e-06
7.98142654196364e-06
7.98142626403833e-06
7.98142600248277e-06
7.98142575788852e-06
7.98142553113494e-06
7.98142532221697e-06
7.98142513100673e-06
7.98142495657622e-06
7.98142479814845e-06
7.98142465358288e-06
7.98142451577604e-06
7.98142434455079e-06
7.98142394554221e-06
7.98142238485672e-06
7.98141534543108e-06
7.9813836981313e-06
7.9812470290675e-06
7.98068650601889e-06
7.97852119686899e-06
7.97071287586304e-06
7.94470366076646e-06
7.86566636015e-06
7.64965160045176e-06
7.12685146449522e-06
6.02408409523327e-06
4.0283044051555e-06
1.32017774180541e-08
5.1982536573678e-11
5.07212408709961e-11
1.30219963773225e-08
3.99873231857914e-06
5.99851817444485e-06
7.1105441508625e-06
7.64126271831102e-06
7.86202087308828e-06
7.94331999564168e-06
7.97023861494291e-06
7.97836627873482e-06
7.98063188482697e-06
7.98122097431718e-06
7.98136497453104e-06
7.9813981594043e-06
7.98140523338995e-06
7.98140645137732e-06
7.98140643129628e-06
7.9814061653827e-06
7.98140585718662e-06
7.98140554691899e-06
7.9814052454291e-06
7.98140495603687e-06
7.98140468062054e-06
7.98140442019555e-06
7.98140417609635e-06
7.98140394892813e-06
7.98140373953298e-06
7.98140354787116e-06
7.98140337383998e-06
7.98140321646452e-06
7.98140307482324e-06
7.98140294653778e-06
7.98140282400207e-06
7.98140266735785e-06
7.9814022824762e-06
7.98140073542344e-06
7.98139370662749e-06
7.98136206976383e-06
7.98122541451457e-06
7.98066491769286e-06
7.97849966853804e-06
7.97069148578733e-06
7.94468256999466e-06
7.86564586729337e-06
7.64963221575384e-06
7.12683401598926e-06
6.02406985459322e-06
4.02829503974564e-06
1.32017469938995e-08
5.1982450077858e-11
5.07208920630821e-11
1.30218908534666e-08
3.99869848575134e-06
5.99847183814237e-06
7.11049240273014e-06
7.64120908790209e-06
7.86196677377581e-06
7.94326585637299e-06
7.97018451809661e-06
7.97831222159795e-06
7.98057785644255e-06
7.98116696774993e-06
7.98131098472469e-06
7.98134418330137e-06
7.98135127519425e-06
7.98135251404458e-06
7.98135251094754e-06
7.98135226156482e-06
7.981351971467e-06
7.98135167948183e-06
7.98135139584255e-06
7.98135112380116e-06
7.98135086544647e-06
7.98135062191947e-06
7.9813503946247e-06
7.9813501842139e-06
7.98134999153387e-06
7.98134981652515e-06
7.98134965906135e-06
7.98134951805626e-06
7.98134939239582e-06
7.9813492794602e-06
7.98134917134832e-06
7.98134902846484e-06
7.98134865697614e-06
7.98134712319735e-06
7.98134010649056e-06
7.98130848334801e-06
7.98117184972159e-06
7.98061140050018e-06
7.97844627022055e-06
7.97063837992165e-06
7.94463013961883e-06
7.86559487937325e-06
7.64958406063351e-06
7.12679096683296e-06
6.02403522836552e-06
4.02827305489997e-06
1.32016887650613e-08
5.19822866650266e-11
5.07202287468378e-11
1.30216882606277e-08
3.99863171648142e-06
5.99837832621585e-06
7.11038610107251e-06