/*--------------------------------*- C++ -*----------------------------------*\
  =========                 |
  \\      /  F ield         | OpenFOAM: The Open Source CFD Toolbox
   \\    /   O peration     | Website:  https://openfoam.org
    \\  /    A nd           | Version:  10
     \\/     M anipulation  |
\*---------------------------------------------------------------------------*/
FoamFile
{
    format      ascii;
    class       volScalarField;
    location    "2.4";
    object      h;
}
// * * * * * * * * * * * * * * * * * * * * * * * * * * * * * * * * * * * * * //

dimensions      [0 2 -2 0 0 0 0];

internalField   nonuniform List<scalar> 
2500
(
7125.1664053797
7075.63957666356
7048.41714259216
7039.51797437227
7036.92307423549
7036.18329450832
7035.97915168308
7035.92417961044
7035.90869087265
7035.90439968179
7035.90167541372
7035.90011008179
7035.89919530605
7035.89805332629
7035.8969884921
7035.89580760942
7035.89519329526
7035.89443258448
7035.89356890094
7035.89295126228
7035.89234159103
7035.89168103775
7035.8910879791
7035.89089922634
7035.89068934109
7035.89031817297
7035.89023551612
7035.89012984089
7035.88997799699
7035.89011329159
7035.89026646294
7035.8903768763
7035.89072721456
7035.89121505036
7035.89166481049
7035.89210580973
7035.89260193675
7035.89302981084
7035.89394264637
7035.89496923322
7035.89688719211
7035.90212242881
7035.91986005345
7035.98322709031
7036.20873046061
7036.97723290102
7039.58171285928
7048.4563250305
7076.07562486796
7125.08042571435
4975.86256581426
4858.44359689556
4781.90723347982
4752.83683343714
4742.86915614476
4739.62336653909
4738.63341574141
4738.35371508973
4738.28019685306
4738.26218480025
4738.25737675345
4738.25596873853
4738.25556776073
4738.25515337363
4738.25476969612
4738.25436227593
4738.25413453877
4738.25385536763
4738.25353024351
4738.25325958767
4738.2528862267
4738.25236878355
4738.25185795146
4738.25177462604
4738.25173921275
4738.25149860241
4738.25152251511
4738.25150424471
4738.25135244438
4738.25154730899
4738.2516134803
4738.25144940216
4738.25188322452
4738.2525228264
4738.25280571579
4738.25296020886
4738.2531248684
4738.2532960244
4738.25385878799
4738.2554036753
4738.26145570727
4738.28521713635
4738.37449922742
4738.69195260184
4739.74998484238
4743.05853934647
4752.95817669308
4781.86372720476
4859.86123333316
4977.83424388284
3421.32043367518
3305.9792113975
3230.65245468663
3201.31487133853
3191.1928801292
3187.87539117498
3186.85255219287
3186.55982309709
3186.48224693093
3186.46321498479
3186.45841353222
3186.45723704529
3186.45727682774
3186.45722860899
3186.45718906618
3186.45719797377
3186.45721070897
3186.4572047884
3186.45713029756
3186.45706176524
3186.45690133992
3186.45663071834
3186.45631159583
3186.45621893772
3186.45626589687
3186.45619907112
3186.45620197144
3186.45624395182
3186.45622901973
3186.45632451465
3186.45631862929
3186.45615666624
3186.45645142923
3186.45693591202
3186.45700982274
3186.45698368677
3186.45701972314
3186.45699250303
3186.45730228452
3186.45858298533
3186.46443521707
3186.48840220419
3186.57879975288
3186.90030304783
3187.97040482275
3191.31923698169
3201.36658507115
3230.68033715696
3307.80195734324
3426.99784522688
2541.30481718696
2464.39867940616
2420.43889334309
2403.50140742248
2397.89665560036
2396.12420533066
2395.58773943349
2395.43481037503
2395.3941440272
2395.38414605934
2395.38160643383
2395.3810799943
2395.38123919357
2395.3812822147
2395.38131849104
2395.38135007049
2395.38137581238
2395.38139386304
2395.38137784278
2395.38138793885
2395.38137864427
2395.3812739093
2395.38110733203
2395.38104306901
2395.38109914148
2395.3810938834
2395.38108903975
2395.38113864228
2395.38116691407
2395.38120549806
2395.38119365972
2395.38110022305
2395.38124550051
2395.3814974273
2395.38150705274
2395.38146890317
2395.38146813132
2395.38141274545
2395.38149200144
2395.38196756407
2395.38467374439
2395.39632837043
2395.44090714424
2395.60200427248
2396.15024496459
2397.92402474175
2403.49977468193
2420.5529792654
2465.83914294336
2547.36311799091
2124.7045418907
2084.3764506282
2064.39126647851
2056.70727751735
2054.23155002239
2053.46910996885
2053.24135112789
2053.17638117574
2053.15896205616
2053.15465191773
2053.15354526509
2053.15333971279
2053.15344753323
2053.15349631842
2053.15352837798
2053.15354913875
2053.15357345876
2053.15359873442
2053.15360709008
2053.15360549107
2053.15360712995
2053.15358662926
2053.15351386867
2053.15348766605
2053.1535179007
2053.15352367704
2053.15352690906
2053.15355462299
2053.15357580632
2053.1535908761
2053.15358528742
2053.15354522035
2053.15360438859
2053.1537059581
2053.1537014372
2053.1536791992
2053.15367156722
2053.15364230451
2053.15363703411
2053.15376997075
2053.15481369279
2053.15948564221
2053.17751908299
2053.24321667752
2053.47013051719
2054.22343963502
2056.67932891661
2064.44464963725
2085.19173092469
2128.95405301968
1952.78917633116
1934.94370367622
1927.23440093395
1924.25892785822
1923.31344165095
1923.02748322942
1922.94286749223
1922.91867502263
1922.91212834984
1922.91049533175
1922.91007351466
1922.91000259121
1922.91005449271
1922.91008287532
1922.9101007786
1922.9101116403
1922.91012513006
1922.91013940418
1922.91014669698
1922.91014459717
1922.91014845841
1922.91014091232
1922.91011934435
1922.91011837974
1922.91012438358
1922.91012751093
1922.91013237895
1922.91014465214
1922.91015455475
1922.91016101188
1922.91015887653
1922.91014435903
1922.91016510861
1922.91019686544
1922.91019494288
1922.91018743396
1922.91017901948
1922.91016352157
1922.91015462221
1922.91018804729
1922.91054272986
1922.9122101764
1922.91867848822
1922.94229177215
1923.0245250481
1923.30260560084
1924.23346030228
1927.2412854104
1935.31010329756
1955.10268535228
1889.1844790937
1882.23945163616
1879.59141976115
1878.5641039297
1878.23916489445
1878.14197730209
1878.11341979459
1878.10523644595
1878.10300280366
1878.10243705269
1878.10229484609
1878.10227762126
1878.10229608476
1878.10230864547
1878.10231683554
1878.10232217775
1878.10232787547
1878.10233336468
1878.10233692967
1878.10233618717
1878.10233839775
1878.1023359063
1878.10233082121
1878.10233323815
1878.10233512706
1878.10233646947
1878.10233823826
1878.10234203934
1878.10234566378
1878.10234856206
1878.10234785914
1878.10234316098
1878.10234958161
1878.10235817579
1878.10235727651
1878.10235449247
1878.10235012324
1878.10234293662
1878.10233734592
1878.10234486172
1878.10245822642
1878.10300622655
1878.10513766185
1878.11290273342
1878.14002738388
1878.23287185791
1878.54928592189
1879.58550376699
1882.37801718785
1890.24043075902
1867.65826948651
1865.21607385704
1864.38084432936
1864.0559174726
1863.95299837331
1863.92238819703
1863.91343985219
1863.91087192777
1863.91016600429
1863.90998473627
1863.90994183644
1863.90993846666
1863.90994374981
1863.9099485032
1863.90995187699
1863.90995409862
1863.90995602563
1863.90995785635
1863.90995926089
1863.90995907906
1863.90995998744
1863.9099593685
1863.9099584235
1863.90995991315
1863.90996062624
1863.9099611116
1863.90996158328
1863.90996253746
1863.90996374035
1863.90996493103
1863.90996476979
1863.90996340512
1863.90996514794
1863.90996714039
1863.90996665052
1863.90996564191
1863.90996387237
1863.90996100224
1863.90995842824
1863.90995993416
1863.90999451654
1863.91016359715
1863.91082136758
1863.91320702883
1863.92153445493
1863.95023641276
1864.0491447406
1864.37561167124
1865.26167417166
1868.08052968933
1860.89393627084
1860.10316225336
1859.85619524964
1859.76030084481
1859.7297789244
1859.72071319332
1859.71807249274
1859.71731438433
1859.71710488964
1859.71705069945
1859.71703852194
1859.7170378924
1859.71703948358
1859.71704110366
1859.71704233175
1859.71704312485
1859.71704372889
1859.71704430047
1859.71704481511
1859.71704479221
1859.71704489977
1859.71704493118
1859.71704502794
1859.7170454742
1859.71704569972
1859.71704586567
1859.71704602173
1859.71704625079
1859.717046592
1859.71704700679
1859.71704698386
1859.71704661631
1859.71704702489
1859.71704739818
1859.71704716852
1859.71704681614
1859.71704620125
1859.71704520678
1859.71704425687
1859.71704454762
1859.71705465313
1859.71710411195
1859.71729645828
1859.71799014405
1859.72040363315
1859.72874553793
1859.75765883904
1859.85350784645
1860.11646158952
1861.04610997825
1858.8977020656
1858.65864681503
1858.58922343781
1858.56246533344
1858.55389412874
1858.55134346082
1858.55060210432
1858.55038938676
1858.55033041592
1858.55031512393
1858.55031182279
1858.5503117229
1858.55031219704
1858.55031270478
1858.55031310534
1858.55031336015
1858.55031354316
1858.5503137128
1858.55031387032
1858.55031389839
1858.55031391309
1858.55031396214
1858.55031405609
1858.55031418649
1858.55031424851
1858.55031429913
1858.5503143572
1858.55031441515
1858.55031450003
1858.55031462296
1858.55031462032
1858.55031452325
1858.5503146057
1858.55031465429
1858.55031456235
1858.55031444713
1858.55031425471
1858.55031394734
1858.55031364894
1858.55031370948
1858.55031653886
1858.5503303512
1858.55038405457
1858.55057657047
1858.55124318546
1858.55354655081
1858.5615444101
1858.58811909953
1858.66210606616
1858.94809707284
1858.33948584175
1858.27130352862
1858.25257566051
1858.24544715949
1858.24314877963
1858.24246192896
1858.24226245574
1858.24220528834
1858.24218941781
1858.24218530336
1858.24218444198
1858.24218443021
1858.24218456572
1858.24218471351
1858.24218483277
1858.24218490813
1858.24218496159
1858.24218500974
1858.24218505936
1858.24218508744
1858.2421851001
1858.24218511405
1858.24218513774
1858.24218517042
1858.24218518532
1858.24218519922
1858.24218521953
1858.24218523539
1858.24218525401
1858.24218528538
1858.24218528444
1858.24218525868
1858.24218527245
1858.24218527298
1858.24218524095
1858.2421852062
1858.24218515082
1858.24218506423
1858.2421849808
1858.24218499591
1858.24218575737
1858.24218945994
1858.24220385037
1858.24225513522
1858.24243174261
1858.24304044819
1858.24515184038
1858.2521770716
1858.27210007083
1858.35504112097
1858.1905180224
1858.17202033369
1858.16714169558
1858.16531530741
1858.16472301939
1858.16454499735
1858.16449327106
1858.16447846763
1858.16447435775
1858.16447329275
1858.16447307338
1858.16447307232
1858.16447310851
1858.16447314822
1858.16447318067
1858.16447320105
1858.16447321567
1858.16447322817
1858.16447324224
1858.16447325331
1858.16447325854
1858.16447326259
1858.16447326793
1858.16447327466
1858.16447327736
1858.16447328114
1858.16447328813
1858.16447329253
1858.16447329608
1858.16447330314
1858.16447330259
1858.16447329554
1858.16447329723
1858.16447329565
1858.16447328584
1858.164473276
1858.16447326144
1858.16447323922
1858.16447321835
1858.16447322346
1858.16447342186
1858.16447437918
1858.16447809469
1858.16449126174
1858.16453634582
1858.16469112355
1858.1652264585
1858.16700985635
1858.17217746051
1858.19504134834
1858.15235926937
1858.1475546946
1858.1463222623
1858.14586971502
1858.14572229297
1858.1456776871
1858.14566470371
1858.14566099195
1858.14565996151
1858.14565969382
1858.14565963774
1858.14565963627
1858.1456596446
1858.14565965374
1858.14565966131
1858.14565966573
1858.14565966871
1858.14565967137
1858.14565967479
1858.14565967779
1858.145659679
1858.1456596798
1858.14565968039
1858.14565968147
1858.14565968216
1858.1456596831
1858.14565968505
1858.14565968615
1858.1456596867
1858.14565968815
1858.14565968794
1858.14565968615
1858.14565968642
1858.1456596859
1858.14565968331
1858.14565968115
1858.14565967807
1858.14565967334
1858.14565966913
1858.14565967186
1858.1456597231
1858.1456599635
1858.14566089148
1858.14566416048
1858.14567528836
1858.14571330758
1858.14584429699
1858.14628138289
1858.14757842924
1858.15360878283
1858.14293219035
1858.14173113366
1858.14142828741
1858.14131935204
1858.14128376241
1858.14127291817
1858.14126975183
1858.141268846
1858.1412685935
1858.14126852695
1858.14126851143
1858.14126850897
1858.1412685096
1858.14126851082
1858.14126851181
1858.141268512
1858.14126851193
1858.14126851179
1858.14126851194
1858.14126851217
1858.14126851205
1858.14126851187
1858.14126851166
1858.14126851161
1858.14126851135
1858.14126851124
1858.14126851158
1858.14126851174
1858.1412685118
1858.14126851208
1858.14126851207
1858.1412685118
1858.14126851205
1858.14126851217
1858.14126851187
1858.14126851192
1858.1412685119
1858.14126851162
1858.14126851166
1858.14126851383
1858.14126852779
1858.14126858743
1858.14126881337
1858.14126960144
1858.14127226558
1858.14128131737
1858.14131237143
1858.14141624791
1858.1417323921
1858.14326225401
1858.14067708278
1858.14038688548
1858.14031427508
1858.14028868473
1858.14028031722
1858.14027774984
1858.14027699595
1858.14027677867
1858.14027671664
1858.14027669892
1858.14027669338
1858.14027669112
1858.1402766898
1858.14027668877
1858.14027668783
1858.14027668685
1858.14027668592
1858.14027668504
1858.14027668432
1858.14027668373
1858.14027668315
1858.14027668262
1858.14027668214
1858.14027668175
1858.14027668137
1858.14027668108
1858.14027668095
1858.14027668085
1858.14027668082
1858.14027668092
1858.140276681
1858.14027668112
1858.14027668144
1858.14027668183
1858.14027668223
1858.14027668286
1858.14027668359
1858.14027668443
1858.14027668553
1858.14027668738
1858.14027669217
1858.14027670791
1858.14027676284
1858.14027694908
1858.14027757066
1858.14027966705
1858.14028682925
1858.14031087778
1858.14038596507
1858.1407608996
1858.14015297607
1858.140084982
1858.14006789883
1858.14006198448
1858.14006005613
1858.14005946064
1858.14005928341
1858.14005923058
1858.14005921394
1858.14005920776
1858.1400592046
1858.14005920238
1858.14005920056
1858.14005919897
1858.14005919753
1858.14005919622
1858.14005919503
1858.14005919395
1858.140059193
1858.14005919217
1858.14005919143
1858.14005919077
1858.1400591902
1858.14005918971
1858.14005918929
1858.14005918896
1858.14005918874
1858.14005918859
1858.14005918853
1858.14005918859
1858.14005918871
1858.14005918894
1858.1400591893
1858.14005918978
1858.14005919038
1858.14005919116
1858.14005919211
1858.14005919323
1858.14005919459
1858.14005919633
1858.14005919895
1858.14005920429
1858.14005921882
1858.14005926338
1858.1400594065
1858.14005988205
1858.14006150097
1858.14006697221
1858.14008445237
1858.14017352181
1858.14003429696
1858.14001882423
1858.14001480564
1858.14001342528
1858.14001298148
1858.1400128438
1858.14001280103
1858.14001278658
1858.14001278052
1858.14001277703
1858.14001277442
1858.1400127722
1858.14001277025
1858.14001276849
1858.14001276692
1858.1400127655
1858.14001276422
1858.14001276306
1858.14001276204
1858.14001276113
1858.14001276032
1858.14001275962
1858.140012759
1858.14001275848
1858.14001275804
1858.1400127577
1858.14001275745
1858.14001275729
1858.14001275723
1858.14001275727
1858.14001275742
1858.14001275767
1858.14001275806
1858.14001275858
1858.14001275924
1858.14001276007
1858.14001276108
1858.14001276228
1858.14001276371
1858.14001276542
1858.14001276752
1858.14001277046
1858.14001277565
1858.14001278772
1858.14001282175
1858.14001292976
1858.14001329701
1858.14001455674
1858.14001861902
1858.1400391692
1858.14000804875
1858.14000464421
1858.14000362931
1858.14000327122
1858.14000316195
1858.14000312818
1858.14000311613
1858.1400031105
1858.14000310688
1858.14000310403
1858.14000310155
1858.14000309932
1858.14000309732
1858.14000309551
1858.14000309388
1858.14000309241
1858.14000309108
1858.1400030899
1858.14000308883
1858.14000308788
1858.14000308705
1858.14000308631
1858.14000308567
1858.14000308513
1858.14000308469
1858.14000308433
1858.14000308407
1858.14000308391
1858.14000308385
1858.14000308389
1858.14000308404
1858.14000308431
1858.14000308471
1858.14000308525
1858.14000308594
1858.14000308679
1858.14000308783
1858.14000308906
1858.14000309051
1858.1400030922
1858.14000309418
1858.14000309654
1858.1400030996
1858.14000310434
1858.14000311402
1858.14000314066
1858.1400032321
1858.1400035594
1858.1400045695
1858.14000916236
1858.14000236627
1858.140001665
1858.14000132606
1858.14000119406
1858.14000115873
1858.14000114816
1858.14000114307
1858.14000113947
1858.14000113645
1858.14000113376
1858.14000113131
1858.14000112908
1858.14000112706
1858.14000112522
1858.14000112356
1858.14000112206
1858.1400011207
1858.14000111949
1858.1400011184
1858.14000111743
1858.14000111656
1858.14000111581
1858.14000111516
1858.1400011146
1858.14000111415
1858.14000111379
1858.14000111352
1858.14000111336
1858.14000111329
1858.14000111334
1858.14000111349
1858.14000111377
1858.14000111418
1858.14000111473
1858.14000111544
1858.14000111631
1858.14000111736
1858.1400011186
1858.14000112006
1858.14000112175
1858.14000112368
1858.14000112588
1858.14000112842
1858.14000113148
1858.14000113577
1858.14000114469
1858.14000117658
1858.14000130172
1858.14000163241
1858.14000260421
1858.14000115963
1858.14000105012
1858.14000086043
1858.14000077767
1858.1400007585
1858.1400007531
1858.14000074962
1858.14000074654
1858.1400007437
1858.14000074106
1858.14000073863
1858.1400007364
1858.14000073436
1858.14000073251
1858.14000073082
1858.1400007293
1858.14000072792
1858.14000072668
1858.14000072557
1858.14000072458
1858.14000072371
1858.14000072294
1858.14000072227
1858.14000072171
1858.14000072124
1858.14000072087
1858.14000072061
1858.14000072044
1858.14000072037
1858.14000072042
1858.14000072058
1858.14000072087
1858.14000072129
1858.14000072185
1858.14000072256
1858.14000072344
1858.1400007245
1858.14000072575
1858.14000072722
1858.14000072889
1858.1400007308
1858.14000073294
1858.14000073532
1858.14000073795
1858.14000074099
1858.14000074603
1858.1400007652
1858.14000084722
1858.14000102952
1858.1400011987
1858.14000090771
1858.14000092509
1858.1400007679
1858.1400006958
1858.14000068019
1858.140000676
1858.14000067296
1858.14000067005
1858.14000066728
1858.14000066468
1858.14000066226
1858.14000066003
1858.14000065798
1858.14000065611
1858.14000065441
1858.14000065287
1858.14000065147
1858.14000065022
1858.14000064909
1858.14000064809
1858.1400006472
1858.14000064642
1858.14000064574
1858.14000064517
1858.1400006447
1858.14000064432
1858.14000064405
1858.14000064388
1858.14000064382
1858.14000064387
1858.14000064404
1858.14000064433
1858.14000064475
1858.14000064532
1858.14000064604
1858.14000064693
1858.140000648
1858.14000064926
1858.14000065072
1858.14000065239
1858.14000065427
1858.14000065637
1858.14000065867
1858.14000066115
1858.14000066384
1858.14000066797
1858.14000068438
1858.14000075723
1858.14000090755
1858.14000090257
1858.14000085577
1858.14000089987
1858.14000074975
1858.14000068002
1858.14000066526
1858.14000066141
1858.14000065852
1858.14000065569
1858.14000065297
1858.1400006504
1858.14000064799
1858.14000064576
1858.14000064371
1858.14000064183
1858.14000064011
1858.14000063856
1858.14000063715
1858.14000063588
1858.14000063475
1858.14000063373
1858.14000063283
1858.14000063204
1858.14000063136
1858.14000063078
1858.1400006303
1858.14000062993
1858.14000062966
1858.14000062949
1858.14000062942
1858.14000062947
1858.14000062964
1858.14000062994
1858.14000063037
1858.14000063094
1858.14000063167
1858.14000063257
1858.14000063364
1858.1400006349
1858.14000063637
1858.14000063803
1858.1400006399
1858.14000064197
1858.14000064421
1858.14000064661
1858.14000064916
1858.14000065302
1858.14000066875
1858.14000073959
1858.14000088299
1858.14000084093
1858.14000084506
1858.1400008947
1858.14000074619
1858.14000067704
1858.14000066253
1858.14000065882
1858.14000065601
1858.14000065324
1858.14000065055
1858.140000648
1858.1400006456
1858.14000064337
1858.14000064131
1858.14000063942
1858.1400006377
1858.14000063614
1858.14000063472
1858.14000063345
1858.1400006323
1858.14000063128
1858.14000063037
1858.14000062958
1858.14000062889
1858.14000062831
1858.14000062783
1858.14000062745
1858.14000062718
1858.14000062701
1858.14000062694
1858.140000627
1858.14000062717
1858.14000062747
1858.1400006279
1858.14000062848
1858.14000062921
1858.14000063012
1858.14000063119
1858.14000063246
1858.14000063392
1858.14000063558
1858.14000063743
1858.14000063948
1858.14000064169
1858.14000064403
1858.1400006465
1858.14000065024
1858.14000066576
1858.14000073609
1858.14000087793
1858.1400008281
1858.14000084276
1858.14000089354
1858.14000074545
1858.14000067648
1858.14000066207
1858.14000065842
1858.14000065566
1858.14000065292
1858.14000065026
1858.14000064772
1858.14000064533
1858.1400006431
1858.14000064104
1858.14000063915
1858.14000063742
1858.14000063586
1858.14000063443
1858.14000063315
1858.140000632
1858.14000063097
1858.14000063007
1858.14000062927
1858.14000062858
1858.140000628
1858.14000062752
1858.14000062714
1858.14000062686
1858.14000062669
1858.14000062663
1858.14000062669
1858.14000062686
1858.14000062716
1858.1400006276
1858.14000062818
1858.14000062892
1858.14000062983
1858.14000063091
1858.14000063217
1858.14000063363
1858.14000063529
1858.14000063713
1858.14000063916
1858.14000064135
1858.14000064365
1858.14000064607
1858.14000064975
1858.14000066518
1858.14000073535
1858.14000087678
1858.14000082534
1858.14000084219
1858.14000089321
1858.14000074524
1858.14000067634
1858.14000066197
1858.14000065835
1858.14000065561
1858.14000065289
1858.14000065024
1858.1400006477
1858.14000064532
1858.14000064309
1858.14000064104
1858.14000063915
1858.14000063742
1858.14000063585
1858.14000063443
1858.14000063314
1858.14000063199
1858.14000063096
1858.14000063006
1858.14000062926
1858.14000062857
1858.14000062799
1858.14000062751
1858.14000062713
1858.14000062686
1858.14000062669
1858.14000062663
1858.14000062669
1858.14000062686
1858.14000062717
1858.14000062761
1858.14000062819
1858.14000062893
1858.14000062984
1858.14000063092
1858.14000063219
1858.14000063365
1858.1400006353
1858.14000063714
1858.14000063916
1858.14000064133
1858.14000064362
1858.14000064602
1858.14000064966
1858.14000066506
1858.14000073517
1858.14000087648
1858.14000082471
1858.14000084202
1858.14000089307
1858.14000074513
1858.14000067624
1858.14000066187
1858.14000065825
1858.14000065552
1858.1400006528
1858.14000065014
1858.14000064761
1858.14000064523
1858.140000643
1858.14000064095
1858.14000063906
1858.14000063734
1858.14000063577
1858.14000063435
1858.14000063307
1858.14000063192
1858.1400006309
1858.14000062999
1858.1400006292
1858.14000062851
1858.14000062793
1858.14000062745
1858.14000062708
1858.14000062681
1858.14000062664
1858.14000062658
1858.14000062664
1858.14000062682
1858.14000062712
1858.14000062757
1858.14000062815
1858.14000062889
1858.1400006298
1858.14000063088
1858.14000063215
1858.14000063361
1858.14000063526
1858.1400006371
1858.14000063912
1858.1400006413
1858.14000064358
1858.14000064598
1858.14000064962
1858.14000066502
1858.14000073513
1858.14000087644
1858.14000082461
1858.14000084198
1858.140000893
1858.14000074504
1858.14000067612
1858.14000066171
1858.14000065807
1858.14000065531
1858.14000065257
1858.14000064991
1858.14000064737
1858.14000064499
1858.14000064277
1858.14000064072
1858.14000063883
1858.14000063712
1858.14000063555
1858.14000063414
1858.14000063287
1858.14000063172
1858.14000063071
1858.14000062981
1858.14000062902
1858.14000062834
1858.14000062776
1858.14000062729
1858.14000062692
1858.14000062665
1858.14000062648
1858.14000062643
1858.14000062649
1858.14000062667
1858.14000062698
1858.14000062742
1858.14000062801
1858.14000062875
1858.14000062965
1858.14000063074
1858.140000632
1858.14000063346
1858.14000063512
1858.14000063696
1858.14000063899
1858.14000064117
1858.14000064348
1858.1400006459
1858.14000064957
1858.140000665
1858.14000073516
1858.14000087653
1858.14000082471
1858.14000084202
1858.140000893
1858.14000074495
1858.14000067596
1858.14000066149
1858.14000065778
1858.14000065498
1858.14000065221
1858.14000064953
1858.14000064698
1858.14000064459
1858.14000064237
1858.14000064032
1858.14000063845
1858.14000063674
1858.14000063519
1858.14000063379
1858.14000063252
1858.14000063139
1858.14000063038
1858.14000062949
1858.14000062871
1858.14000062804
1858.14000062747
1858.140000627
1858.14000062664
1858.14000062637
1858.14000062621
1858.14000062616
1858.14000062622
1858.1400006264
1858.14000062671
1858.14000062715
1858.14000062774
1858.14000062848
1858.14000062938
1858.14000063046
1858.14000063173
1858.14000063319
1858.14000063485
1858.1400006367
1858.14000063874
1858.14000064095
1858.14000064329
1858.14000064576
1858.14000064949
1858.14000066499
1858.14000073524
1858.14000087675
1858.14000082495
1858.14000084215
1858.14000089307
1858.14000074487
1858.14000067576
1858.14000066118
1858.14000065739
1858.14000065453
1858.14000065171
1858.14000064899
1858.14000064643
1858.14000064403
1858.14000064181
1858.14000063978
1858.14000063791
1858.14000063621
1858.14000063468
1858.14000063329
1858.14000063204
1858.14000063092
1858.14000062993
1858.14000062905
1858.14000062828
1858.14000062762
1858.14000062705
1858.1400006266
1858.14000062624
1858.14000062598
1858.14000062582
1858.14000062577
1858.14000062584
1858.14000062602
1858.14000062633
1858.14000062676
1858.14000062735
1858.14000062808
1858.14000062898
1858.14000063006
1858.14000063133
1858.14000063279
1858.14000063446
1858.14000063632
1858.14000063839
1858.14000064063
1858.14000064302
1858.14000064556
1858.14000064938
1858.14000066499
1858.14000073538
1858.14000087709
1858.14000082535
1858.14000084238
1858.14000089322
1858.1400007448
1858.14000067552
1858.14000066081
1858.1400006569
1858.14000065394
1858.14000065106
1858.1400006483
1858.14000064572
1858.14000064331
1858.1400006411
1858.14000063907
1858.14000063722
1858.14000063554
1858.14000063402
1858.14000063265
1858.14000063142
1858.14000063032
1858.14000062934
1858.14000062847
1858.14000062772
1858.14000062707
1858.14000062652
1858.14000062607
1858.14000062572
1858.14000062547
1858.14000062532
1858.14000062527
1858.14000062534
1858.14000062552
1858.14000062582
1858.14000062626
1858.14000062684
1858.14000062757
1858.14000062846
1858.14000062954
1858.1400006308
1858.14000063227
1858.14000063394
1858.14000063582
1858.14000063791
1858.1400006402
1858.14000064266
1858.14000064529
1858.14000064923
1858.140000665
1858.14000073558
1858.14000087758
1858.1400008259
1858.14000084275
1858.14000089347
1858.14000074476
1858.14000067525
1858.14000066035
1858.14000065629
1858.14000065322
1858.14000065026
1858.14000064746
1858.14000064485
1858.14000064243
1858.14000064022
1858.1400006382
1858.14000063637
1858.14000063471
1858.14000063322
1858.14000063187
1858.14000063066
1858.14000062958
1858.14000062862
1858.14000062778
1858.14000062704
1858.1400006264
1858.14000062586
1858.14000062543
1858.14000062508
1858.14000062484
1858.14000062469
1858.14000062465
1858.14000062472
1858.1400006249
1858.1400006252
1858.14000062563
1858.14000062621
1858.14000062693
1858.14000062782
1858.14000062889
1858.14000063015
1858.14000063161
1858.14000063329
1858.14000063519
1858.14000063732
1858.14000063967
1858.14000064221
1858.14000064496
1858.14000064906
1858.14000066501
1858.14000073585
1858.14000087824
1858.14000082665
1858.14000084328
1858.14000089385
1858.14000074475
1858.14000067495
1858.14000065982
1858.14000065558
1858.14000065237
1858.14000064932
1858.14000064646
1858.14000064381
1858.14000064139
1858.14000063919
1858.14000063719
1858.14000063538
1858.14000063374
1858.14000063227
1858.14000063095
1858.14000062977
1858.14000062871
1858.14000062778
1858.14000062695
1858.14000062623
1858.14000062562
1858.14000062509
1858.14000062467
1858.14000062434
1858.1400006241
1858.14000062396
1858.14000062392
1858.14000062399
1858.14000062417
1858.14000062447
1858.1400006249
1858.14000062546
1858.14000062618
1858.14000062706
1858.14000062812
1858.14000062937
1858.14000063083
1858.14000063252
1858.14000063444
1858.1400006366
1858.14000063902
1858.14000064166
1858.14000064455
1858.14000064884
1858.14000066503
1858.1400007362
1858.14000087908
1858.14000082761
1858.14000084401
1858.14000089441
1858.14000074478
1858.14000067462
1858.1400006592
1858.14000065474
1858.14000065137
1858.14000064821
1858.14000064529
1858.14000064262
1858.14000064019
1858.140000638
1858.14000063602
1858.14000063423
1858.14000063263
1858.14000063119
1858.1400006299
1858.14000062875
1858.14000062772
1858.14000062681
1858.14000062601
1858.14000062531
1858.14000062471
1858.14000062421
1858.1400006238
1858.14000062348
1858.14000062325
1858.14000062312
1858.14000062308
1858.14000062315
1858.14000062333
1858.14000062363
1858.14000062405
1858.1400006246
1858.14000062531
1858.14000062618
1858.14000062722
1858.14000062847
1858.14000062992
1858.14000063161
1858.14000063355
1858.14000063576
1858.14000063825
1858.140000641
1858.14000064406
1858.14000064857
1858.14000066507
1858.14000073665
1858.14000088014
1858.14000082883
1858.140000845
1858.14000089517
1858.14000074488
1858.14000067425
1858.14000065849
1858.14000065377
1858.14000065022
1858.14000064695
1858.14000064396
1858.14000064126
1858.14000063883
1858.14000063665
1858.14000063469
1858.14000063294
1858.14000063137
1858.14000062997
1858.14000062872
1858.1400006276
1858.14000062661
1858.14000062573
1858.14000062495
1858.14000062428
1858.1400006237
1858.14000062322
1858.14000062282
1858.14000062251
1858.1400006223
1858.14000062217
1858.14000062214
1858.14000062221
1858.14000062238
1858.14000062267
1858.14000062308
1858.14000062363
1858.14000062432
1858.14000062518
1858.14000062621
1858.14000062744
1858.14000062889
1858.14000063058
1858.14000063254
1858.14000063478
1858.14000063735
1858.14000064023
1858.14000064347
1858.14000064825
1858.14000066511
1858.1400007372
1858.14000088148
1858.14000083037
1858.14000084633
1858.1400008962
1858.14000074505
1858.14000067384
1858.14000065767
1858.14000065265
1858.14000064891
1858.14000064551
1858.14000064245
1858.14000063973
1858.1400006373
1858.14000063514
1858.14000063322
1858.14000063151
1858.14000062998
1858.14000062862
1858.14000062741
1858.14000062633
1858.14000062537
1858.14000062453
1858.14000062378
1858.14000062314
1858.14000062258
1858.14000062212
1858.14000062174
1858.14000062144
1858.14000062124
1858.14000062112
1858.14000062109
1858.14000062116
1858.14000062134
1858.14000062162
1858.14000062202
1858.14000062255
1858.14000062323
1858.14000062406
1858.14000062508