/*--------------------------------*- C++ -*----------------------------------*\
  =========                 |
  \\      /  F ield         | OpenFOAM: The Open Source CFD Toolbox
   \\    /   O peration     | Website:  https://openfoam.org
    \\  /    A nd           | Version:  10
     \\/     M anipulation  |
\*---------------------------------------------------------------------------*/
FoamFile
{
    format      ascii;
    class       volScalarField;
    location    "2.4";
    object      k;
}
// * * * * * * * * * * * * * * * * * * * * * * * * * * * * * * * * * * * * * //

dimensions      [0 2 -2 0 0 0 0];

internalField   nonuniform List<scalar> 
2500
(
4.63331823362076e-09
8.21853600353578e-08
3.2367714284962e-07
4.99307154665526e-07
5.96159544041077e-07
6.40019568594199e-07
6.56932243401255e-07
6.62635454084573e-07
6.64352892346867e-07
6.6482236189445e-07
6.64940242768391e-07
6.6496752928873e-07
6.6497315530098e-07
6.64973917985439e-07
6.64973745981767e-07
6.64973457239648e-07
6.64973179036193e-07
6.64972931399927e-07
6.649727127582e-07
6.64972518462465e-07
6.64972345317575e-07
6.64972191103168e-07
6.64972054687839e-07
6.64971935423962e-07
6.64971832933082e-07
6.64971747014132e-07
6.64971678121455e-07
6.64971627214259e-07
6.64971597291753e-07
6.64971598857462e-07
6.64971619773875e-07
6.6497163808217e-07
6.64971691750895e-07
6.64971767546697e-07
6.64971858421425e-07
6.64971915730366e-07
6.64971600972608e-07
6.64969356759065e-07
6.64958928212443e-07
6.64915681391681e-07
6.64748511799384e-07
6.64144314755633e-07
6.62115573344281e-07
6.55855122824377e-07
6.38352005737849e-07
5.94825865384926e-07
5.00824857995901e-07
3.30140869956534e-07
8.69156013524601e-08
5.19563299112645e-09
1.04567977206808e-07
2.25434525825418e-06
9.16053079366231e-06
1.4254551698555e-05
1.71365620337038e-05
1.84774955273373e-05
1.90082136618144e-05
1.91915582062921e-05
1.92479990508538e-05
1.92637385427927e-05
1.92677635626006e-05
1.92687123050327e-05
1.92689134319164e-05
1.92689440728325e-05
1.92689404006752e-05
1.9268932223597e-05
1.92689241290441e-05
1.92689168795979e-05
1.92689104751625e-05
1.92689047965297e-05
1.92688997495315e-05
1.92688952695161e-05
1.92688913188405e-05
1.92688878732516e-05
1.92688849235572e-05
1.92688824686703e-05
1.92688805174146e-05
1.92688791005259e-05
1.92688783112075e-05
1.92688785021961e-05
1.92688792330552e-05
1.92688797228547e-05
1.92688813464625e-05
1.92688836657639e-05
1.9268886353365e-05
1.92688876871763e-05
1.92688754485348e-05
1.92687957768079e-05
1.92684363080116e-05
1.92669678730624e-05
1.92613703689738e-05
1.92414401498365e-05
1.91756214843481e-05
1.89762327039142e-05
1.84301081930595e-05
1.71023407307571e-05
1.43033393655669e-05
9.34218435459354e-06
2.37937614793531e-06
1.16560173960819e-07
3.53906369646334e-07
9.72948222294898e-06
4.42627722754391e-05
6.85222367406721e-05
8.22576139588772e-05
8.8732271905075e-05
9.13421604775247e-05
9.22620584865082e-05
9.25509912395687e-05
9.26331489527506e-05
9.26545590349398e-05
9.26597051802066e-05
9.26608282774242e-05
9.26610189517771e-05
9.26610131321617e-05
9.26609795197227e-05
9.26609446222402e-05
9.26609130392389e-05
9.26608850482577e-05
9.26608601960687e-05
9.26608380802209e-05
9.26608184223573e-05
9.26608010599587e-05
9.26607858919383e-05
9.26607728762126e-05
9.26607620040262e-05
9.26607533186818e-05
9.26607469576059e-05
9.26607433450005e-05
9.26607441458014e-05
9.26607469840545e-05
9.26607488785605e-05
9.2660755355718e-05
9.26607650101323e-05
9.26607757409483e-05
9.26607781418973e-05
9.26607055396258e-05
9.26602774785733e-05
9.26583928711259e-05
9.26507790101824e-05
9.26220401019544e-05
9.25207710717559e-05
9.21901619940183e-05
9.12012752387805e-05
8.85291025023824e-05
8.211686402528e-05
6.87323850283941e-05
4.50256626084835e-05
1.01904660771804e-05
3.85177535054819e-07
6.03222547077882e-07
1.67544400791733e-05
7.55701475570425e-05
0.000115793695166971
0.000138359230599986
0.000148992530559025
0.000153299175091438
0.000154828625878976
0.000155313394821361
0.000155452622506366
0.000155489296445475
0.000155498218033069
0.000155500200267072
0.000155500555765871
0.000155500561124064
0.000155500513520915
0.000155500461692619
0.000155500414285115
0.000155500372085907
0.000155500334507362
0.000155500300969884
0.000155500271066647
0.000155500244561451
0.000155500221308478
0.000155500201244421
0.000155500184348889
0.00015550017068382
0.000155500160439613
0.000155500154179339
0.000155500154215879
0.000155500157255285
0.000155500160704676
0.00015550016845736
0.000155500181639214
0.000155500196151904
0.000155500197275058
0.000155500076199403
0.000155499389184432
0.000155496363740978
0.000155484088737361
0.000155437529515869
0.00015527271008982
0.000154732501581917
0.000153111557349889
0.000148720401571229
0.000138156492836265
0.00011601477138667
7.64678749826303e-05
1.73095999555563e-05
6.40582613958861e-07
8.19028842788694e-07
2.28427301275947e-05
0.00010206123124735
0.000155203023345683
0.000184843911606006
0.00019881880758984
0.000204503281146021
0.000206535301261746
0.000207184490552378
0.000207372605945873
0.000207422642960491
0.000207434951305966
0.00020743773170087
0.000207438255405867
0.000207438285081484
0.000207438233723779
0.000207438173752235
0.00020743811806224
0.000207438068176348
0.000207438023555334
0.000207437983568396
0.000207437947759696
0.000207437915864946
0.000207437887719843
0.000207437863254055
0.000207437842439807
0.000207437825343326
0.000207437812160885
0.000207437803410067
0.000207437800725616
0.000207437802815727
0.000207437807373502
0.000207437814333206
0.000207437827742789
0.000207437842175402
0.000207437837808633
0.000207437675142793
0.000207436791715605
0.000207432903853112
0.000207417070167314
0.000207356734746364
0.00020714219120904
0.000206436247803385
0.000204311231240767
0.000198540255269469
0.000184627164992781
0.000155384163978524
0.000102882038960838
2.33728784999802e-05
8.5592935982086e-07
9.91822765024557e-07
2.77766708227023e-05
0.000123303158991215
0.000186506770103414
0.000221641666578327
0.0002382275412398
0.000245001442255927
0.000247437009034984
0.000248220584939612
0.000248449439520621
0.00024851084672888
0.000248526104513764
0.000248529602992935
0.000248530291150502
0.000248530354448894
0.000248530307024346
0.000248530245983932
0.000248530188119315
0.000248530135833023
0.000248530088777642
0.000248530046374214
0.000248530008184273
0.000248529973954679
0.000248529943525541
0.000248529916831246
0.000248529893842817
0.000248529874623114
0.000248529859345288
0.000248529848430279
0.000248529842765481
0.000248529843278232
0.000248529846233897
0.00024852985203079
0.000248529863097689
0.000248529874611302
0.000248529861124076
0.000248529662262254
0.00024852863064603
0.000248524099992392
0.000248505598957318
0.000248434836281821
0.000248182289457239
0.00024734862475917
0.000244832695328735
0.000237987231130303
0.000221460253214826
0.000186666653288675
0.000124001756454305
2.82453874696076e-05
1.02607218470611e-06
1.12174681449096e-06
3.15442121339948e-05
0.000139501094102861
0.000210255112740724
0.000249520432398867
0.000268086342175757
0.000275697093157281
0.000278447514113925
0.000279337784879525
0.000279599597271619
0.000279670389233148
0.000279688136287694
0.000279692258847023
0.000279693100723683
0.000279693202806973
0.000279693163056689
0.000279693105761179
0.000279693049974145
0.000279692998990097
0.000279692952741167
0.000279692910768417
0.000279692872696223
0.000279692838310825
0.000279692807473611
0.00027969278013292
0.000279692756263499
0.000279692735921381
0.000279692719244126
0.000279692706557586
0.000279692698388446
0.000279692695583624
0.000279692696449784
0.00027969270112818
0.000279692707954807
0.00027969271543803
0.000279692690772779
0.000279692459889285
0.000279691319117256
0.000279686321071995
0.000279665875074871
0.000279587446154355
0.00027930672295462
0.000278377693836232
0.00027556839714653
0.000267914238345465
0.000249418325992054
0.000210444997725518
0.000140119540879835
3.19601032044168e-05
1.15345276643703e-06
1.21415793525907e-06
3.42696843310094e-05
0.000151281796175418
0.000227496899821207
0.000269766496972149
0.000289787872692624
0.000298022257698187
0.00030101106110321
0.000301983525828722
0.000302271200640558
0.00030234950214566
0.000302369284224097
0.000302373929898798
0.000302374907125518
0.000302375047758245
0.00030237502066103
0.000302374969903436
0.000302374918671254
0.000302374871176805
0.000302374827671554
0.00030237478785121
0.000302374751427163
0.000302374718239899
0.00030237468818239
0.00030237466122239
0.000302374637341636
0.000302374616589225
0.000302374599065605
0.000302374585008079
0.000302374574741935
0.000302374568678295
0.000302374566775957
0.000302374568445542
0.000302374572242689
0.000302374573540565
0.000302374535694949
0.000302374280925034
0.000302373061934972
0.00030236773399616
0.000302345914186746
0.000302262031968831
0.000301961115845617
0.000300963319117436
0.000297941564470662
0.000289700473127041
0.000269775305173075
0.000227771121918269
0.000151891781307285
3.46589431040417e-05
1.24433946004635e-06
1.27667618884381e-06
3.6146215369616e-05
0.000159476571975823
0.000239500870465433
0.000283883942144443
0.000304941672693249
0.000313626593873728
0.000316790424108299
0.000317824296981074
0.000318131650882569
0.000318215777191065
0.000318237170777703
0.000318242240591365
0.000318243332109388
0.000318243508707505
0.000318243495261093
0.000318243452086605
0.000318243406443859
0.000318243363400865
0.000318243323524601
0.000318243286671656
0.000318243252646895
0.000318243221348709
0.000318243192705278
0.000318243166705466
0.000318243143339843
0.000318243122652242
0.000318243104711663
0.000318243089683577
0.000318243077774808
0.000318243069212146
0.000318243064051012
0.000318243062435226
0.000318243061532006
0.000318243056778459
0.000318243007924096
0.000318242736946
0.000318241462260977
0.000318235908786183
0.000318213151017228
0.000318125523282732
0.000317810645062596
0.000316765036652167
0.000313595011206298
0.000304943571306805
0.00028401916949642
0.000239898473999758
0.000160142718639432
3.65351325550378e-05
1.306423631224e-06
1.31709451011047e-06
3.73810873690494e-05
0.000164943649265906
0.000247532351173282
0.000293353734083806
0.000315126233535527
0.000324126646712136
0.000327415087090631
0.000328493452808492
0.000328815327901023
0.000328903834624795
0.000328926464772701
0.000328931867849969
0.000328933052311194
0.00032893325964082
0.00032893325880211
0.000328933223061383
0.000328933183026977
0.000328933144529537
0.000328933108420525
0.000328933074704254
0.000328933043272691
0.000328933014078357
0.000328932987082777
0.000328932962295006
0.000328932939714683
0.00032893291938246
0.00032893290134388
0.000328932885711563
0.000328932872614141
0.000328932862196092
0.000328932854502607
0.000328932849454232
0.000328932845107333
0.000328932834576546
0.000328932778301122
0.000328932494395617
0.000328931181428574
0.000328925478770615
0.000328902102619612
0.000328811993057896
0.000328487807295247
0.000327410165196532
0.000324140457205171
0.000315212675037368
0.000293615283422729
0.00024807029646813
0.000165706655185425
3.77878479572846e-05
1.34718742587258e-06
1.3421707273498e-06
3.81607739239125e-05
0.000168451350420914
0.000252708202455392
0.000299477126863168
0.00032172734331938
0.000330941979890449
0.000334316475442517
0.000335426116516984
0.000335758387340042
0.000335850089585349
0.000335873639716805
0.000335879296307007
0.00033588055318862
0.00033588078539479
0.000335880795653954
0.00033588076652688
0.000335880731523919
0.000335880697149751
0.000335880664497663
0.000335880633696123
0.000335880604710839
0.000335880577540166
0.000335880552174246
0.000335880528639429
0.00033588050694348
0.000335880487125658
0.000335880469215519
0.000335880453289464
0.000335880439423876
0.000335880427713852
0.000335880418178483
0.000335880410635867
0.000335880403380239
0.000335880388659355
0.000335880326732306
0.000335880033370981
0.000335878694962181
0.000335872896876061
0.000335849127081469
0.000335757430928772
0.000335427261850116
0.000334328929804167
0.000330994627569813
0.000321887461715459
0.000299853014642662
0.000253383306033817
0.000169325967922324
3.85939679376468e-05
1.37300559312204e-06
1.357157268839e-06
3.86347970883292e-05
0.000170621678732949
0.000255928573861164
0.000303302415394751
0.000325862306261123
0.000335218101535873
0.000338650287226251
0.000339781272827685
0.000340120769609572
0.000340214734990836
0.000340238949363774
0.000340244792811095
0.000340246104129362
0.000340246355753535
0.000340246375145428
0.000340246351480714
0.000340246320670457
0.000340246289767661
0.000340246260057912
0.000340246231767074
0.00034024620491869
0.000340246179546999
0.000340246155664663
0.000340246133311641
0.000340246112502389
0.000340246093275743
0.00034024607565094
0.000340246059680899
0.000340246045407225
0.000340246032890357
0.000340246022121104
0.000340246012861571
0.00034024600345508
0.000340245985797597
0.000340245919863435
0.000340245619983653
0.000340244265255117
0.000340238408142764
0.000340214396273892
0.000340121720823069
0.000339787839290127
0.000338676611613879
0.00033530191772075
0.000326082360919541
0.000303773831531147
0.000256723961631242
0.00017160284701478
3.90954827486499e-05
1.38882954449033e-06
1.36581441283981e-06
3.89132046560006e-05
0.000171920115085492
0.000257867672726812
0.000305616262271115
0.000328371089074518
0.00033781724777785
0.00034128701602891
0.000342432159265529
0.000342776537726302
0.000342872060786963
0.000342896741144673
0.000342902718345579
0.000342904069380883
0.000342904335599739
0.000342904362060319
0.000342904342645566
0.000342904315160679
0.000342904287045399
0.000342904259727738
0.000342904233505513
0.000342904208445054
0.00034290418460683
0.000342904162019908
0.000342904140734257
0.00034290412076929
0.000342904102163855
0.000342904084930669
0.000342904069107912
0.000342904054714561
0.000342904041786382
0.000342904030290081
0.000342904019954106
0.000342904009119541
0.000342903989527033
0.000342903920934158
0.000342903616805472
0.000342902251994336
0.000342896359576105
0.000342872203760466
0.00034277894397946
0.000342442836064911
0.000341323840212425
0.000337924733142679
0.000328637092183304
0.000306162286872631
0.000258760023219036
0.00017299148340147
3.93979950239813e-05
1.39824145132947e-06
1.37066284014653e-06
3.90716403666241e-05
0.00017267314725532
0.000259000271752204
0.000306974497280975
0.000329848653888319
0.000339351085799412
0.000342844676433457
0.000343998957686754
0.000344346545410048
0.000344443111697752
0.000344468110102968
0.000344474180445931
0.000344475559687843
0.000344475836588521
0.000344475868336456
0.000344475852048745
0.000344475827128214
0.000344475801197571
0.000344475775782868
0.000344475751232918
0.000344475727644308
0.000344475705095288
0.000344475683626203
0.000344475663293613
0.000344475644120365
0.0003444756261453
0.000344475609377167
0.000344475593844838
0.000344475579553016
0.000344475566520338
0.000344475554695607
0.000344475543785813
0.000344475532119807
0.000344475511364985
0.000344475441142574
0.000344475134414602
0.000344473763633365
0.000344467850806173
0.000344443612136367
0.000344350014789165
0.000344012614149174
0.000342889087340964
0.000339475690308498
0.000330148092248575
0.00030757550390673
0.000259965588312099
0.000173814446827821
3.95753697278601e-05
1.40368786385673e-06
1.37330247212857e-06
3.91592335874896e-05
0.000173097511594241
0.000259643408533119
0.000307749894130362
0.000330695196939486
0.000340231769763168
0.000343740073792974
0.000344900102380501
0.00034524974594789
0.000345346993017413
0.000345372202928756
0.000345378336466949
0.000345379735227841
0.000345380019980345
0.000345380055775177
0.000345380041514145
0.000345380018553346
0.00034537999433141
0.000345379970431821
0.000345379947238607
0.000345379924869286
0.000345379903413547
0.000345379882918371
0.000345379863444301
0.000345379845016331
0.000345379827673136
0.000345379811420975
0.000345379796282901
0.000345379782254572
0.000345379769343165
0.000345379757485018
0.00034537974637336
0.000345379734325973
0.000345379712974316
0.000345379641862544
0.000345379333672729
0.000345377959536098
0.000345372035328388
0.000345347750453313
0.000345253963979973
0.000344915835188579
0.000343789744233183
0.000340368229610113
0.000331017864701766
0.00030838941517779
0.000260660544104675
0.00017428940596074
3.96766966986463e-05
1.40676100763443e-06
1.37470271276431e-06
3.92063906016622e-05
0.000173330396546649
0.000259999190184126
0.000308181279082753
0.000331167963076512
0.000340724746857426
0.000344241918759663
0.000345405474832171
0.000345756403525282
0.000345854084108627
0.000345879431290937
0.000345885606688009
0.000345887018616847
0.000345887308890568
0.000345887347569564
0.000345887335161613
0.000345887313741977
0.000345887290884751
0.000345887268217638
0.000345887246151149
0.000345887224817851
0.000345887204313802
0.000345887184689128
0.000345887166006218
0.000345887148291081
0.000345887131582171
0.000345887115884103
0.00034588710121598
0.000345887087567692
0.000345887074938918
0.000345887063257588
0.000345887052207906
0.000345887040099848
0.000345887018547442
0.000345886947054636
0.000345886638153934
0.000345885262269712
0.0003458793319749
0.000345855022130889
0.000345761132724402
0.000345422605239946
0.000344295103295759
0.000340869103570949
0.000331506116630887
0.000308846599571364
0.000261051342182561
0.000174556875754782
3.97332059357752e-05
1.40845509855778e-06
1.37542781347238e-06
3.92311613885928e-05
0.000173455094735738
0.00026019129411301
0.000308415599425155
0.000331425802389186
0.000340994279337667
0.000344516674950782
0.000345682346968248
0.000346034060756823
0.000346132011146906
0.000346157445448802
0.000346163648004819
0.000346165068690446
0.000346165362777121
0.000346165403774712
0.000346165392933869
0.000346165372775736
0.00034616535105011
0.000346165329421804
0.000346165308324503
0.000346165287902901
0.000346165268255678
0.000346165249433152
0.000346165231497792
0.000346165214475908
0.000346165198405582
0.000346165183290445
0.000346165169146557
0.000346165155959923
0.000346165143725036
0.000346165132364119
0.000346165121555395
0.000346165109603668
0.000346165088114393
0.000346165016572068
0.000346164707432702
0.000346163330753014
0.000346157397374095
0.000346133074470069
0.000346039130556591
0.000345700390396507
0.000344572131709972
0.000341143716093321
0.000331773904895414
0.000309097530354351
0.000261266106920348
0.000174704109125302
3.97640259087361e-05
1.40936896990762e-06
1.37579484989634e-06
3.92438761553893e-05
0.000173520346271338
0.000260292701418901
0.000308540073206385
0.000331563359875064
0.000341138459498526
0.000344663867394279
0.000345830781830822
0.000346182965082834
0.000346281079872062
0.000346306568366149
0.000346312788258345
0.000346314214756783
0.000346314511568817
0.000346314554436079
0.000346314544933148
0.000346314525854487
0.000346314505109039
0.000346314484391866
0.000346314464160397
0.000346314444570705
0.000346314425721059
0.000346314407659507
0.00034631439044711
0.000346314374110033
0.000346314358686093
0.000346314344178156
0.000346314330599803
0.000346314317933729
0.000346314306170596
0.000346314295228652
0.000346314284781967
0.000346314273131527
0.000346314251878025
0.000346314180496684
0.000346313871405934
0.000346312494477682
0.000346306559669821
0.000346282230188246
0.000346188258163007
0.00034584940721317
0.000344720751925893
0.000341291064421811
0.000331917646448301
0.000309232328123053
0.000261381633399371
0.000174783452604346
3.97804877820586e-05
1.40985200355112e-06
1.37597653953953e-06
3.92502589496096e-05
0.000173553752676477
0.000260345103006319
0.000308604828285699
0.000331635252131749
0.000341214030323663
0.000344741141705816
0.000345908771464631
0.00034626122996814
0.000346359443020905
0.000346384964651077
0.000346391195492315
0.000346392625880221
0.000346392924715991
0.000346392969134468
0.000346392960807421
0.000346392942690272
0.000346392922827175
0.000346392902936927
0.000346392883503663
0.000346392864694933
0.000346392846606153
0.00034639282928101
0.000346392812778133
0.000346392797123219
0.000346392782354234
0.000346392768473709
0.000346392755492466
0.000346392743389949
0.000346392732153666
0.000346392721698735
0.000346392711696155
0.000346392700443499
0.00034639267953772
0.000346392608448529
0.000346392299576283
0.000346390922704656
0.000346384987355674
0.000346360654728737
0.000346266668581058
0.000345927761107908
0.00034479890204645
0.000341368558073911
0.000331993271540275
0.000309303302467046
0.000261442543709962
0.00017482536266585
3.97891076345217e-05
1.4101023503364e-06
1.37606436735884e-06
3.92533907854512e-05
0.000173570489968903
0.000260371628064085
0.000308637850649637
0.000331672100315512
0.000341252886689558
0.000344780944782396
0.00034594897918491
0.000346301596236008
0.000346399867032988
0.000346425408648572
0.000346431646380386
0.000346433079426821
0.000346433379830452
0.000346433425576009
0.000346433418308891
0.000346433401071932
0.000346433382024937
0.000346433362905075
0.000346433344225825
0.00034643332616559
0.000346433308814909
0.000346433292211667
0.000346433276411738
0.000346433261440305
0.000346433247335958
0.000346433234101643
0.000346433221744776
0.000346433210240944
0.000346433199574688
0.00034643318965873
0.000346433180161737
0.000346433169377892
0.000346433148899715
0.000346433078192149
0.000346432769647074
0.000346431393009709
0.000346425457596356
0.000346401123608208
0.000346307130578756
0.00034596819477558
0.000344839232633429
0.000341408555149934
0.000332032316458033
0.000309339970500615
0.000261474049938585
0.000174847076253443
3.97935337447804e-05
1.41022955836136e-06
1.37610559900884e-06
3.92548875564495e-05
0.000173578683820221
0.000260384774048029
0.000308654360450343
0.00033169063101961
0.000341272498010331
0.000344801074612395
0.000345969334504987
0.000346322041503892
0.0003464203457578
0.000346445899317025
0.000346452141410811
0.000346453576344916
0.000346453878018546
0.000346453924928542
0.000346453918632434
0.000346453902213522
0.000346453883935189
0.000346453865549256
0.000346453847597653
0.000346453830266379
0.00034645381363954
0.000346453797749392
0.000346453782649209
0.000346453768363914
0.000346453754933501
0.000346453742362078
0.000346453730652682
0.000346453719776475
0.000346453709714855
0.000346453700378938
0.00034645369143667
0.000346453681178174
0.000346453661190586
0.000346453590934029
0.000346453282797637
0.000346451906511848
0.000346445971301777
0.000346421636877177
0.00034632764065102
0.000345988690867515
0.000344859677101505
0.000341428831911504
0.000332052113725454
0.000309358569409372
0.000261490042198889
0.000174858108648549
3.97957602545624e-05
1.41029281766277e-06
1.37612414515586e-06
3.92555768822401e-05
0.000173582578427367
0.000260391129123522
0.000308662434978263
0.000331699761884027
0.000341282204619082
0.00034481106229065
0.000345979446445334
0.000346332203877642
0.00034643052731171
0.000346456087978792
0.000346462332875862
0.000346463769217391
0.000346464071962931
0.000346464119915904
0.000346464114520758
0.000346464098872363
0.000346464081332703
0.000346464063666582
0.000346464046437457
0.000346464029831968
0.000346464013926798
0.000346463998750318
0.000346463984353773
0.000346463970762382
0.000346463958018005
0.000346463946126297
0.000346463935085197
0.000346463924861162
0.000346463915432823
0.000346463906710739
0.00034646389836568
0.000346463888682793
0.000346463869242533
0.000346463799501013
0.00034646349185345
0.000346462116022182
0.000346456181194929
0.000346431846842306
0.000346337849310941
0.000345998892792651
0.000344869853331161
0.000341438924142071
0.000332061965865776
0.000309367822615419
0.000261497995534925
0.00017486359198971
3.97968531071591e-05
1.4103234409989e-06
1.37613188387897e-06
3.92558737742377e-05
0.000173584339255993
0.000260394084548904
0.000308666260909641
0.000331704137912718
0.000341286886633001
0.000344815896134416
0.000345984348411921
0.000346337133933115
0.000346435468296987
0.000346461033198368
0.000346467279930793
0.000346468717358161
0.000346469021042308
0.000346469069959499
0.000346469065425635
0.000346469050526744
0.000346469033724071
0.000346469016794696
0.000346469000311678
0.000346468984453128
0.000346468969287425
0.000346468954840927
0.000346468941164253
0.000346468928282927
0.000346468916240243
0.000346468905042832
0.000346468894684045
0.000346468885126889
0.000346468876347619
0.000346468868258107
0.000346468860538456
0.000346468851467253
0.00034646883261608
0.00034646876344051
0.000346468456366461
0.000346467081097695
0.000346461146805506
0.000346436812851807
0.000346342815056217
0.000346003855561497
0.000344874803561807
0.000341443832491901
0.000332066754262017
0.000309372313100388
0.000261501844551046
0.000174866235059093
3.97973708047473e-05
1.41033767079235e-06
1.37613401654733e-06
3.92559818737788e-05
0.000173585040499019
0.000260395333797172
0.000308667946503802
0.000331706110842251
0.000341289023043009
0.000344818114956454
0.000345986604679226
0.000346339405836388
0.000346437746413406
0.000346463313834653
0.000346469561759133
0.000346470999984436
0.000346471304530247
0.000346471354404218
0.000346471350755713
0.000346471336642735
0.000346471320627221
0.000346471304497041
0.000346471288821353
0.000346471273762191
0.00034647125937936
0.000346471245699727
0.000346471232774399
0.000346471220629194
0.000346471209307139
0.000346471198813809
0.000346471189140564
0.000346471180248899
0.000346471172113182
0.000346471164647395
0.000346471157548501
0.000346471149084608
0.000346471130817422
0.000346471062207943
0.000346470755794574
0.000346469381216476
0.000346463447625605
0.000346439114355536
0.000346345117011566
0.000346006156772569
0.00034487709945816
0.000341446108668757
0.000332068972275465
0.000309374386213442
0.000261503608373375
0.000174867433481305
3.97976000144691e-05
1.41034381988507e-06
1.3761324982066e-06
3.92559746961696e-05
0.000173585164638781
0.000260395669640567
0.000308668488524745
0.00033170680248663
0.000341289804743118
0.000344818943492935
0.000345987454983768
0.00034634026554484
0.000346438610165065
0.000346464179512761
0.00034647042855383
0.000346471867603329
0.000346472173101735
0.00034647222406235
0.000346472221436218
0.000346472208244276
0.000346472193147631
0.000346472177938991
0.000346472163166195
0.000346472148978975
0.000346472135435474
0.000346472122566525
0.000346472110425284
0.000346472099037623
0.000346472088444601
0.000346472078648845
0.000346472069642865
0.00034647206138748
0.000346472053853824
0.000346472046955513
0.000346472040398347
0.00034647203243791
0.000346472014631318
0.000346471946443139
0.000346471640518243
0.000346470266423483
0.000346464333323941
0.00034644000060531
0.000346346003899418
0.000346007044122337
0.000344877985695902
0.000341446987658028
0.000332069826746718
0.000309375178333874
0.000261504272201728
0.000174867880876381
3.97976852302759e-05
1.4103457458404e-06
1.37612942627033e-06
3.925587929545e-05
0.000173584884467272
0.00026039539419761
0.000308668276705636
0.000331706659901122
0.000341289710699
0.000344818876561509
0.000345987401259329
0.000346340217891568
0.000346438565455227
0.000346464136483772
0.000346470386647367
0.000346471826543365
0.000346472132906156
0.000346472184891241
0.000346472183233152
0.00034647217093548
0.000346472156750583
0.000346472142460535
0.000346472128574388
0.000346472115238414
0.000346472102520066
0.00034647209045691
0.00034647207910433
0.000346472068488
0.000346472058646086
0.000346472049578363
0.000346472041279276
0.000346472033708536
0.00034647202683241
0.000346472020557975
0.000346472014576869
0.000346472007145007
0.000346471989825048
0.00034647192207686
0.000346471616497604
0.000346470242695467
0.000346464309919848
0.000346439977728903
0.00034634598209969
0.000346007024473687
0.000344877969737715
0.000341446976596661
0.00033206981982186
0.000309375172272366
0.000261504265106608
0.000174867874757936
3.97976716741153e-05
1.41034458622618e-06
1.37612428013757e-06
3.92557110700485e-05
0.000173584164389654
0.000260394465528572
0.00030866728914362
0.000331705675242137
0.000341288742269409
0.000344817920802475
0.000345986452644593
0.000346339272893626
0.00034643762239891
0.000346463194656303
0.000346469445677927
0.000346470886227988
0.000346471193309719
0.000346471246183778
0.000346471245313564
0.000346471233771828
0.000346471220394628
0.000346471206927507
0.000346471193841422
0.000346471181280481
0.000346471169326214
0.000346471158022692
0.000346471147427838
0.000346471137567915
0.000346471128479473
0.000346471120160784
0.000346471112607382
0.000346471105776945
0.000346471099629463
0.00034647109406169
0.000346471088743447
0.00034647108194449
0.000346471065237723
0.000346470998081269
0.000346470692963377
0.00034646931961415
0.000346463387437888
0.000346439056384278
0.000346345063355091
0.000346006111715198
0.000344877069920392
0.000341446102578175
0.000332068993480598
0.000309374428945726
0.000261503658849519
0.000174867476182424
3.97975817734046e-05
1.41034230381755e-06
1.37611487935262e-06
3.9255394751543e-05
0.000173582703630696
0.000260392465955793
0.00030866505684618
0.000331703362286271
0.000341286409395644
0.000344815586355197
0.000345984120092164
0.000346336942081066
0.000346435292838964
0.000346460866044587
0.000346467117794063
0.000346468558939027
0.000346468866798091
0.000346468920577775
0.000346468920444794
0.000346468909620618
0.000346468897029016
0.000346468884355487
0.000346468872044245
0.000346468860236452
0.000346468849022777
0.000346468838452743
0.000346468828587314
0.000346468819454775
0.000346468811091881
0.000346468803496046
0.000346468796661778
0.000346468790541921
0.000346468785088112
0.000346468780186619
0.000346468775494457
0.000346468769292797
0.000346468753167359
0.000346468686587069
0.000346468381993895
0.00034646700924018
0.000346461078002233
0.000346436749013772
0.000346342761140586
0.000346003822180446
0.000344874809656965
0.000341443904774924
0.000332066918220902
0.000309372574299838
0.000261502167658033
0.000174866529799654
3.97974080535285e-05
1.41033793456332e-06
1.37609694560111e-06
3.92547858117905e-05
0.000173579813107108