/*--------------------------------*- C++ -*----------------------------------*\
  =========                 |
  \\      /  F ield         | OpenFOAM: The Open Source CFD Toolbox
   \\    /   O peration     | Website:  https://openfoam.org
    \\  /    A nd           | Version:  10
     \\/     M anipulation  |
\*---------------------------------------------------------------------------*/
FoamFile
{
    format      ascii;
    class       volScalarField;
    location    "2.4";
    object      nut;
}
// * * * * * * * * * * * * * * * * * * * * * * * * * * * * * * * * * * * * * //

dimensions      [0 2 -1 0 0 0 0];

internalField   nonuniform List<scalar> 
2500
(
3.60873944268332e-14
6.40007874757878e-13
2.52074302843184e-12
3.88859517500436e-12
4.64290606083944e-12
4.98449711654089e-12
5.11621596714815e-12
5.16063344978454e-12
5.17400913018119e-12
5.17766543757358e-12
5.17858354692315e-12
5.17879608436815e-12
5.17883991706769e-12
5.17884587898621e-12
5.17884455967201e-12
5.17884233394318e-12
5.17884017854145e-12
5.17883826444781e-12
5.1788365783194e-12
5.17883507660296e-12
5.17883373896984e-12
5.17883254881711e-12
5.17883149602224e-12
5.17883057099713e-12
5.17882977729242e-12
5.17882911445482e-12
5.17882857959179e-12
5.1788281850569e-12
5.17882795400776e-12
5.17882796449059e-12
5.17882812499774e-12
5.17882826468747e-12
5.17882867687212e-12
5.1788292592899e-12
5.17882995898985e-12
5.17883039675076e-12
5.17882793553662e-12
5.17881044941133e-12
5.17872921350783e-12
5.1783923869553e-12
5.17709043326891e-12
5.17238485205919e-12
5.1565847156742e-12
5.10782734445686e-12
4.97150987437737e-12
4.63251887961548e-12
3.90041456882812e-12
2.57108128665244e-12
6.76843394975175e-13
4.04670886706766e-14
3.28348763343324e-12
1.59333524150884e-10
6.47614567831032e-10
1.00783870421354e-09
1.21164500602987e-09
1.30646999172852e-09
1.34399932741139e-09
1.35696417855083e-09
1.36095523106254e-09
1.36206819330557e-09
1.36235280920193e-09
1.36241989759869e-09
1.36243412033478e-09
1.36243628869387e-09
1.36243603076361e-09
1.3624354544131e-09
1.36243488309268e-09
1.36243437175685e-09
1.36243392037435e-09
1.36243352006662e-09
1.36243316487942e-09
1.36243285042675e-09
1.36243257337218e-09
1.36243233011572e-09
1.36243212170761e-09
1.36243194920465e-09
1.36243181112688e-09
1.36243171102127e-09
1.36243165588705e-09
1.36243166851414e-09
1.36243171989006e-09
1.36243175525286e-09
1.36243186810536e-09
1.36243202922628e-09
1.36243221798606e-09
1.36243231159951e-09
1.36243144550917e-09
1.36242581144388e-09
1.36240039220119e-09
1.36229655763513e-09
1.36190075157461e-09
1.36049145271034e-09
1.35583725905094e-09
1.3417378157853e-09
1.30311887984159e-09
1.20922462711012e-09
1.01128773218982e-09
6.60456875716995e-10
1.68169724426259e-10
3.66002500241647e-12
1.11698760734838e-11
2.76476122189479e-09
8.7367937413918e-07
1.35265517219711e-06
1.62385108070445e-06
1.75168678143515e-06
1.80321536246633e-06
1.82137713057627e-06
1.82708152007126e-06
1.82870353924545e-06
1.82912623221567e-06
1.829227831186e-06
1.82925000239842e-06
1.82925376685455e-06
1.82925365220132e-06
1.82925298858704e-06
1.82925229958086e-06
1.82925167611957e-06
1.82925112398391e-06
1.82925063377612e-06
1.82925019814275e-06
1.82924981169932e-06
1.82924947086461e-06
1.82924917198114e-06
1.82924891474307e-06
1.82924870050917e-06
1.82924852902516e-06
1.82924840318926e-06
1.82924833195601e-06
1.82924834718206e-06
1.8292484032431e-06
1.82924844161679e-06
1.82924856769787e-06
1.82924875535575e-06
1.82924896674496e-06
1.82924901429617e-06
1.82924758080675e-06
1.82923913046294e-06
1.82920192388763e-06
1.82905160823641e-06
1.82848422798191e-06
1.82648489583959e-06
1.81995768281849e-06
1.80043381680009e-06
1.74767541274486e-06
1.62107185327139e-06
1.35680334783371e-06
8.88737579636213e-07
2.89573845545219e-09
1.21566184069122e-11
1.9094188016e-11
4.77426658306519e-09
1.49564237654454e-06
2.29185307146367e-06
2.73853351743054e-06
2.94901491452495e-06
3.03426188869579e-06
3.06453597360769e-06
3.07413146007507e-06
3.07688730759605e-06
3.07761322395716e-06
3.07778981508083e-06
3.07782904798112e-06
3.0778360839532e-06
3.07783618962985e-06
3.07783524708539e-06
3.07783422097134e-06
3.07783328243645e-06
3.07783244733698e-06
3.07783170342821e-06
3.07783103970223e-06
3.07783044888217e-06
3.07782992595042e-06
3.07782946634701e-06
3.0778290686352e-06
3.07782873426378e-06
3.07782846382914e-06
3.07782826054895e-06
3.07782813634083e-06
3.0778281366612e-06
3.07782819693191e-06
3.07782826614978e-06
3.07782841810937e-06
3.0778286764418e-06
3.07782896358644e-06
3.07782898619816e-06
3.07782658973728e-06
3.0778129921471e-06
3.07775310846498e-06
3.07751014339039e-06
3.07658856506499e-06
3.07332616113653e-06
3.06263331518131e-06
3.03054821336969e-06
2.94362840072018e-06
2.73452049637863e-06
2.29622874685784e-06
1.51340912690322e-06
4.93243880219648e-09
2.02763632871259e-11
2.59610538929009e-11
6.51736011711927e-09
2.02232432201567e-06
3.07539742470666e-06
3.66277115694557e-06
3.93970041553844e-06
4.05234434344221e-06
4.09261081506143e-06
4.10547509579753e-06
4.10920276493945e-06
4.11019429110911e-06
4.11043819056989e-06
4.11049328415178e-06
4.11050366097993e-06
4.1105042485701e-06
4.11050323059354e-06
4.11050204187993e-06
4.11050093799411e-06
4.11049994935009e-06
4.11049906516801e-06
4.11049827276841e-06
4.11049756346466e-06
4.11049693243043e-06
4.11049637506289e-06
4.11049588983372e-06
4.11049547729548e-06
4.11049513846174e-06
4.11049487685339e-06
4.11049470314941e-06
4.11049464973752e-06
4.1104946912182e-06
4.11049478206739e-06
4.11049491915961e-06
4.11049518348208e-06
4.1104954695231e-06
4.11049538328579e-06
4.11049216006608e-06
4.11047465485707e-06
4.11039761477535e-06
4.11008385971982e-06
4.10888826578044e-06
4.10463690343983e-06
4.09064800036291e-06
4.04853874409871e-06
3.93418073944092e-06
3.65847631641167e-06
3.0789870692101e-06
2.03858811311571e-06
6.66860105791247e-09
2.71303206638332e-11
3.14560958421262e-11
7.92901358762725e-09
2.44434098580443e-06
3.69731519303932e-06
4.39384410342861e-06
4.72264843820886e-06
4.85693634521766e-06
4.90521969069237e-06
4.92075349631997e-06
4.92529036260146e-06
4.92650771307135e-06
4.92681018630932e-06
4.92687953970421e-06
4.9268931813425e-06
4.9268944358707e-06
4.92689349552887e-06
4.92689228522088e-06
4.92689113785692e-06
4.92689010119203e-06
4.92688916837859e-06
4.92688832768836e-06
4.92688757071318e-06
4.92688689247759e-06
4.92688628924595e-06
4.92688575994052e-06
4.92688530414784e-06
4.92688492303863e-06
4.92688461995291e-06
4.92688440339532e-06
4.92688429097519e-06
4.92688430116042e-06
4.92688435997708e-06
4.92688447454247e-06
4.92688469340154e-06
4.92688492166732e-06
4.92688465440526e-06
4.92688071227094e-06
4.9268602616333e-06
4.92677044556638e-06
4.92640367835354e-06
4.92500086509892e-06
4.91999432047107e-06
4.90346755012895e-06
4.85359109580812e-06
4.71788455054055e-06
4.3902479061728e-06
3.70048503387943e-06
2.45818980743578e-06
8.06280170076265e-09
3.25420814921173e-11
3.55842024844069e-11
9.0060550038107e-09
2.76588327624116e-06
4.16873492194782e-06
4.94725501970897e-06
5.31536402468697e-06
5.4662633600116e-06
5.52079627677439e-06
5.53844777196941e-06
5.54363875307978e-06
5.54504235234829e-06
5.54539422461751e-06
5.54547596250711e-06
5.54549265420298e-06
5.54549467804866e-06
5.54549388980265e-06
5.5454927536791e-06
5.54549164746742e-06
5.54549063651983e-06
5.54548971953465e-06
5.54548888727901e-06
5.5454881324464e-06
5.54548745075984e-06
5.5454868392854e-06
5.54548629714663e-06
5.54548582384324e-06
5.54548542046837e-06
5.54548508971995e-06
5.54548483809932e-06
5.54548467605928e-06
5.54548462044465e-06
5.54548463768879e-06
5.54548473031425e-06
5.54548486549331e-06
5.54548501386589e-06
5.54548452486378e-06
5.54547994718918e-06
5.54545732914966e-06
5.54535823268269e-06
5.54495284846402e-06
5.54339783123894e-06
5.53783190466661e-06
5.51941194704643e-06
5.46371170506564e-06
5.31195174553325e-06
4.94523065325886e-06
4.17249998242315e-06
2.77814525293761e-06
9.12479011298229e-09
3.65898547158047e-11
3.85184310008448e-11
9.78474561091703e-09
2.99961018160832e-06
4.51080546430498e-06
5.34892829401276e-06
5.74591258131402e-06
5.90918410408348e-06
5.96844613660633e-06
5.98772817738272e-06
5.99343219603111e-06
5.99498475881378e-06
5.99537699784296e-06
5.99546911214374e-06
5.99548848848134e-06
5.99549127686284e-06
5.99549073951765e-06
5.99548973303965e-06
5.99548871715281e-06
5.99548777538573e-06
5.99548691274768e-06
5.99548612315207e-06
5.99548540092848e-06
5.99548474289033e-06
5.99548414686063e-06
5.99548361226394e-06
5.99548313872735e-06
5.99548272722012e-06
5.99548237972416e-06
5.99548210094938e-06
5.9954818973508e-06
5.99548177710689e-06
5.99548173939771e-06
5.99548177245129e-06
5.99548184768573e-06
5.99548187341453e-06
5.9954811230171e-06
5.99547607146107e-06
5.99545190137396e-06
5.99534625906132e-06
5.99491361592124e-06
5.99325039892791e-06
5.98728383182956e-06
5.96749950913981e-06
5.90758412308963e-06
5.74417963883907e-06
5.34910299144605e-06
4.51624283739083e-06
3.01170499752488e-06
9.895886019367e-09
3.94758664182476e-11
4.0502693326085e-11
1.03207112172454e-08
3.16214332049635e-06
4.74888762299837e-06
5.62892766592089e-06
6.04646623050177e-06
6.21867325877137e-06
6.28140655949917e-06
6.30190647596155e-06
6.30800077371703e-06
6.30966885325285e-06
6.31009305109884e-06
6.31019357669288e-06
6.3102152195586e-06
6.31021872115101e-06
6.31021845449701e-06
6.3102175983898e-06
6.31021669334135e-06
6.31021583984221e-06
6.31021504914476e-06
6.31021431839155e-06
6.31021364371783e-06
6.31021302310604e-06
6.31021245512626e-06
6.3102119395697e-06
6.31021147624609e-06
6.31021106602359e-06
6.31021071026865e-06
6.31021041226153e-06
6.31021017610405e-06
6.31021000630378e-06
6.31020990395771e-06
6.31020987189404e-06
6.31020985396062e-06
6.31020975969503e-06
6.31020879098959e-06
6.31020341796036e-06
6.31017814316594e-06
6.31006802736527e-06
6.30961678012182e-06
6.30787927337862e-06
6.30163578146598e-06
6.28090316991435e-06
6.21804703016897e-06
6.04650388234232e-06
5.63160900921468e-06
4.75677145394892e-06
3.17535187934962e-06
1.04317570137441e-08
4.14464132908779e-11
4.17852449099886e-11
1.06733511235628e-08
3.27055964091525e-06
4.90815738018984e-06
5.81671983109087e-06
6.2484325728574e-06
6.42689591185772e-06
6.49210025627925e-06
6.51348246816863e-06
6.51986471980734e-06
6.52161966197809e-06
6.52206838041245e-06
6.52217551448278e-06
6.52219900036445e-06
6.52220311134197e-06
6.52220309468751e-06
6.52220238598444e-06
6.52220159214448e-06
6.5222008287798e-06
6.52220011277615e-06
6.5221994442167e-06
6.52219882095839e-06
6.52219824205968e-06
6.52219770675797e-06
6.52219721523517e-06
6.52219676748293e-06
6.52219636430702e-06
6.5221960066107e-06
6.5221956966265e-06
6.52219543690476e-06
6.52219523031384e-06
6.52219507774913e-06
6.52219497762929e-06
6.52219489141985e-06
6.52219468259774e-06
6.52219356673608e-06
6.52218793734812e-06
6.5221619033729e-06
6.52204882907914e-06
6.52158531860906e-06
6.51979859479452e-06
6.51337052639366e-06
6.49200266277033e-06
6.4271697510545e-06
6.25014656649622e-06
5.8219059284542e-06
4.91882396075885e-06
3.28568879749758e-06
1.07894925794469e-08
4.27399451421444e-11
4.25808738411239e-11
1.08959873079881e-08
3.34011520634818e-06
5.01079111357346e-06
5.93814258053362e-06
6.37932806772767e-06
6.56203927436974e-06
6.62895001432824e-06
6.65095238594617e-06
6.65754077409342e-06
6.65935907994209e-06
6.65982604059502e-06
6.65993820152714e-06
6.65996312341786e-06
6.65996772766657e-06
6.65996793106845e-06
6.65996735350521e-06
6.65996665943222e-06
6.65996597782667e-06
6.65996533036728e-06
6.65996471960139e-06
6.65996414484877e-06
6.65996360607674e-06
6.65996310308995e-06
6.65996263641157e-06
6.65996220619526e-06
6.65996181321936e-06
6.65996145807026e-06
6.65996114226273e-06
6.65996086731115e-06
6.65996063510216e-06
6.65996044601417e-06
6.65996029643892e-06
6.65996015255508e-06
6.65995986064869e-06
6.65995863272172e-06
6.65995281583178e-06
6.65992627735735e-06
6.65981131076137e-06
6.65933999451915e-06
6.65752180945347e-06
6.65097509545291e-06
6.62919696342397e-06
6.563083191464e-06
6.38250295419156e-06
5.94559582318418e-06
5.02417731986457e-06
3.35745744729854e-06
1.10196765007342e-08
4.35591193642295e-11
4.30563478412186e-11
1.1031337799015e-08
3.38315015482084e-06
5.07464705516371e-06
6.01399323612434e-06
6.46131915688289e-06
6.64682935074406e-06
6.71488400706367e-06
6.73730961082594e-06
6.74404127945738e-06
6.74590446002172e-06
6.74638459161146e-06
6.74650045764455e-06
6.74652645893365e-06
6.7465314482127e-06
6.74653183270294e-06
6.74653136345012e-06
6.74653075251225e-06
6.74653013973899e-06
6.74652955062165e-06
6.74652898963892e-06
6.7465284572577e-06
6.74652795415689e-06
6.74652748058767e-06
6.74652703734257e-06
6.7465266247082e-06
6.74652624345467e-06
6.74652589396356e-06
6.7465255772842e-06
6.74652529424152e-06
6.74652504603417e-06
6.74652483247993e-06
6.74652464886139e-06
6.7465244623296e-06
6.74652411219484e-06
6.74652280481266e-06
6.74651685867028e-06
6.74648999659463e-06
6.74637385957637e-06
6.74589774328491e-06
6.74406013991658e-06
6.73743981251152e-06
6.71540597623674e-06
6.64849128870553e-06
6.46568248217341e-06
6.02334065088055e-06
5.09041830102701e-06
3.40260512587615e-06
1.11628767031443e-08
4.40611625705206e-11
4.33310036369211e-11
1.1110831758375e-08
3.40889619191936e-06
5.11309644284648e-06
6.05987329754933e-06
6.5110644959655e-06
6.69836645614293e-06
6.76716631595448e-06
6.78987264341064e-06
6.79670110804154e-06
6.79859517492429e-06
6.79908454625294e-06
6.7992030644072e-06
6.79922985322227e-06
6.79923513189093e-06
6.79923565654221e-06
6.79923527155955e-06
6.79923472655868e-06
6.79923416905766e-06
6.79923362737187e-06
6.79923310740662e-06
6.79923261047726e-06
6.79923213778288e-06
6.7992316898999e-06
6.79923126781929e-06
6.79923087192596e-06
6.79923050299033e-06
6.79923016126464e-06
6.79922984750597e-06
6.79922956209061e-06
6.79922930572786e-06
6.79922907775756e-06
6.7992288727952e-06
6.79922865794726e-06
6.79922826944418e-06
6.79922690934415e-06
6.79922087895271e-06
6.79919381695439e-06
6.79907697987342e-06
6.79859800933332e-06
6.79674881957896e-06
6.79008434640266e-06
6.76789647901968e-06
6.70049771547754e-06
6.51633890432337e-06
6.07070007671994e-06
5.13079030134307e-06
3.43013968278945e-06
1.12492532578895e-08
4.43597640983167e-11
4.34848222838706e-11
1.11560696417861e-08
3.42382757229694e-06
5.13555399941024e-06
6.08680483903896e-06
6.54036214894767e-06
6.72877991352784e-06
6.79805213180664e-06
6.82093965106153e-06
6.82783175008589e-06
6.82974650244699e-06
6.83024218013619e-06
6.83036254514513e-06
6.83038989325136e-06
6.83039538372342e-06
6.83039601321458e-06
6.83039569023633e-06
6.83039519608277e-06
6.83039468189987e-06
6.83039417794694e-06
6.83039369114049e-06
6.8303932233958e-06
6.83039277626452e-06
6.83039235054676e-06
6.83039194736411e-06
6.83039156716963e-06
6.83039121073354e-06
6.83039087822942e-06
6.8303905702298e-06
6.83039028682794e-06
6.83039002839345e-06
6.83038979391122e-06
6.83038957757129e-06
6.83038934623754e-06
6.830388934688e-06
6.83038754227723e-06
6.83038146034656e-06
6.83035427997138e-06
6.83023703821521e-06
6.82975642481621e-06
6.82790054168998e-06
6.82121043593089e-06
6.79893272726663e-06
6.7312506176235e-06
6.54629952387193e-06
6.09872182208518e-06
5.15469465587179e-06
3.44645768574425e-06
1.1299898765356e-08
4.45325542075483e-11
4.35685649880126e-11
1.11810798038684e-08
3.43224196111744e-06
5.14830625560461e-06
6.10217957816578e-06
6.55714759246181e-06
6.74624231205002e-06
6.81580627165529e-06
6.8388077507438e-06
6.84574061367523e-06
6.84766886479425e-06
6.84816873629609e-06
6.84829035436135e-06
6.84831808949685e-06
6.84832373565795e-06
6.84832444539274e-06
6.84832416260051e-06
6.84832370730553e-06
6.84832322700384e-06
6.84832275309349e-06
6.84832229318924e-06
6.84832184962144e-06
6.84832142416851e-06
6.84832101776215e-06
6.8483206316029e-06
6.84832026618646e-06
6.84831992227972e-06
6.84831960000686e-06
6.84831929982504e-06
6.84831902164822e-06
6.84831876561873e-06
6.84831853047426e-06
6.8483183101321e-06
6.84831807123658e-06
6.84831764785317e-06
6.84831623780825e-06
6.84831012689216e-06
6.84828287998592e-06
6.84816541257535e-06
6.84768388301096e-06
6.84582424985817e-06
6.83911970617384e-06
6.81679115508288e-06
6.74894808816301e-06
6.56354556851042e-06
6.11486023925872e-06
5.16847439828911e-06
3.45587528646811e-06
1.13288303028199e-08
4.46300502655475e-11
4.36129872581716e-11
1.11945442344155e-08
3.4368596151656e-06
5.15536071306587e-06
6.11073310485967e-06
6.56652163060016e-06
6.75601709638222e-06
6.82575688992249e-06
6.84882831278694e-06
6.85578665751603e-06
6.8577235044658e-06
6.85822609781647e-06
6.85834854587259e-06
6.85837654210659e-06
6.85838229774454e-06
6.85838306466784e-06
6.85838281861949e-06
6.85838239388358e-06
6.85838194064222e-06
6.85838149117025e-06
6.85838105360751e-06
6.85838063058272e-06
6.85838022400067e-06
6.85837983485535e-06
6.85837946438395e-06
6.85837911310223e-06
6.85837878177275e-06
6.85837847048707e-06
6.85837817962404e-06
6.85837790898322e-06
6.8583776585583e-06
6.85837742692027e-06
6.85837720780743e-06
6.85837696770933e-06
6.85837654034585e-06
6.85837512274614e-06
6.85836899773489e-06
6.85834171617787e-06
6.85822412807308e-06
6.85774210342651e-06
6.85588042931867e-06
6.84916798034881e-06
6.82681145214153e-06
6.75887945445695e-06
6.57322666456654e-06
6.12392532659698e-06
5.17622317403718e-06
3.46117870108725e-06
1.13449650569029e-08
4.4683795039397e-11
4.36359903869693e-11
1.1201616748531e-08
3.43933209944183e-06
5.15916970444273e-06
6.11537915731353e-06
6.57163401560615e-06
6.76136133356613e-06
6.8312047032068e-06
6.85431808129149e-06
6.86129199302754e-06
6.86323418976171e-06
6.8637385105406e-06
6.86386149711175e-06
6.86388966697817e-06
6.86389549822089e-06
6.86389631111842e-06
6.86389609614359e-06
6.86389569642159e-06
6.8638952656184e-06
6.86389483674466e-06
6.86389441839976e-06
6.86389401345285e-06
6.86389362386069e-06
6.86389325062112e-06
6.86389289497283e-06
6.86389255743764e-06
6.86389223877066e-06
6.86389193904402e-06
6.86389165857618e-06
6.86389139708967e-06
6.86389115447534e-06
6.86389092919102e-06
6.86389071485644e-06
6.8638904778586e-06
6.86389005174739e-06
6.86388863316629e-06
6.86388250342338e-06
6.86385520609469e-06
6.86373755684028e-06
6.86325527324637e-06
6.86139251839641e-06
6.85467585256787e-06
6.83230431989921e-06
6.7643244205531e-06
6.5785363209491e-06
6.12890073675301e-06
5.18048149188935e-06
3.46409802076742e-06
1.13537647829676e-08
4.47127869697506e-11
4.36476337708236e-11
1.12052469224853e-08
3.44062585280945e-06
5.16118032867271e-06
6.11784713039939e-06
6.57436140685288e-06
6.76422003734972e-06
6.83412313405801e-06
6.85726114676292e-06
6.86424436703541e-06
6.86618982349265e-06
6.86669521880303e-06
6.86681854911973e-06
6.86684683424431e-06
6.86685271952657e-06
6.86685356949692e-06
6.86685338105103e-06
6.86685300273358e-06
6.86685259136613e-06
6.86685218055908e-06
6.86685177938265e-06
6.8668513909316e-06
6.86685101715454e-06
6.8668506590043e-06
6.86685031769165e-06
6.86684999373555e-06
6.86684968788584e-06
6.86684940019945e-06
6.8668491309457e-06
6.86684887978153e-06
6.86684864652179e-06
6.86684842954552e-06
6.86684822239005e-06
6.86684799136674e-06
6.86684756993102e-06
6.86684615454251e-06
6.86684002576422e-06
6.86681272350805e-06
6.86669504592329e-06
6.86621263191886e-06
6.86434931970149e-06
6.85763045724618e-06
6.8352510611409e-06
6.76724594388736e-06
6.5813863320293e-06
6.13157341740049e-06
5.18277207585115e-06
3.46567119386365e-06
1.13584648593602e-08
4.47281103872976e-11
4.36533969516396e-11
1.12070691369709e-08
3.44128816896018e-06
5.16221924911295e-06
6.11913097864572e-06
6.57578676329009e-06
6.7657183294774e-06
6.83565520195183e-06
6.85880739780437e-06
6.86579607570638e-06
6.86774348052516e-06
6.86824953285868e-06
6.86837308027441e-06
6.86840144252037e-06
6.86840736793016e-06
6.86840824865887e-06
6.86840808352921e-06
6.86840772427736e-06
6.86840733040588e-06
6.86840693599584e-06
6.86840655064697e-06
6.86840617768158e-06
6.86840581899173e-06
6.86840547544375e-06
6.86840514820023e-06
6.86840483777078e-06
6.86840454490825e-06
6.8684042696629e-06
6.86840401224936e-06
6.86840377226011e-06
6.86840354944744e-06
6.86840334212834e-06
6.86840314377924e-06
6.86840292064385e-06
6.86840250610341e-06
6.86840109650833e-06
6.86839497206327e-06
6.86836767093106e-06
6.86824998261999e-06
6.86776750625975e-06
6.86590391406049e-06
6.85918393099379e-06
6.83680049488932e-06
6.76878236248676e-06
6.58288570436331e-06
6.13298058323403e-06
5.18397970992912e-06
3.46650212310282e-06
1.13609258143522e-08
4.47360517185688e-11
4.36561823283255e-11
1.12079631099057e-08
3.44161996371849e-06
5.16274508006254e-06
6.11978561876646e-06
6.57651725276929e-06
6.76648863360424e-06
6.83644427621375e-06
6.85960449496335e-06
6.86659631644627e-06
6.86854486619438e-06
6.86905131479464e-06
6.86917499883663e-06
6.86920341379648e-06
6.86920937029454e-06
6.86921027733738e-06
6.86921013322476e-06
6.86920979142604e-06
6.86920941373696e-06
6.86920903460287e-06
6.86920866420532e-06
6.86920830608183e-06
6.86920796202776e-06
6.86920763279438e-06
6.86920731948968e-06
6.86920702261303e-06
6.8692067429297e-06
6.86920648049815e-06
6.86920623546548e-06
6.86920600734767e-06
6.86920579583822e-06
6.86920559920657e-06
6.86920541088297e-06
6.86920519704385e-06
6.8692047909826e-06
6.86920338895506e-06
6.86919727099797e-06
6.86916997451197e-06
6.86905228492777e-06
6.86856978158854e-06
6.86670605297805e-06
6.85998550832696e-06
6.83760002881138e-06
6.76957528498167e-06
6.58365975135095e-06
6.13370751074097e-06
5.18460430889542e-06
3.46693258911802e-06
1.13621893360814e-08
4.47400864231896e-11
4.36574894230109e-11
1.12083902251243e-08
3.4417823559463e-06
5.16300562575687e-06
6.12011284163794e-06
6.57688453644462e-06
6.76687733981421e-06
6.83684326202095e-06
6.86000795134298e-06
6.86700155618485e-06
6.86895076928491e-06
6.86945745469668e-06
6.86958122522684e-06
6.86960967761568e-06
6.86961565929593e-06
6.869616589428e-06
6.86961646456929e-06
6.8696161389915e-06
6.86961577654419e-06
6.86961541196316e-06
6.86961505599412e-06
6.86961471232523e-06
6.86961438262426e-06
6.86961406753089e-06
6.8696137681015e-06
6.86961348483035e-06
6.86961321851054e-06
6.86961296922359e-06
6.86961273702973e-06
6.8696125213572e-06
6.86961232183723e-06
6.86961213670737e-06
6.86961195938358e-06
6.86961175596182e-06
6.86961135962866e-06
6.86960996654448e-06
6.86960385669158e-06
6.86957656717795e-06
6.86945888162778e-06
6.868976369646e-06
6.86711257769317e-06
6.86039175598886e-06
6.83800525336741e-06
6.76997718574288e-06
6.58405214876489e-06
6.13407615691689e-06
5.18492129112441e-06
3.46715126447334e-06
1.13628248090508e-08
4.47420923291479e-11
4.3658076811149e-11
1.12085867916835e-08
3.4418595011637e-06
5.16313151879597e-06
6.12027280678738e-06
6.57706543660718e-06
6.76706965171504e-06
6.83704114547602e-06
6.86020829818438e-06
6.86720290287888e-06
6.86915249624587e-06
6.86965932258345e-06
6.86978314869552e-06
6.8698116289909e-06
6.86981763192553e-06
6.86981858273846e-06
6.86981847574472e-06
6.86981816544547e-06
6.86981781764524e-06
6.86981746733738e-06
6.86981712569439e-06
6.86981679641712e-06
6.86981648102616e-06
6.86981618008417e-06
6.86981589460729e-06
6.86981562509565e-06
6.86981537237934e-06
6.86981513657052e-06
6.86981491762841e-06
6.86981471488794e-06
6.86981452792539e-06
6.86981435496738e-06
6.86981418948582e-06
6.86981399747795e-06
6.86981361199798e-06
6.8698122291267e-06
6.86980612896719e-06
6.86977884846716e-06
6.8696611705109e-06
6.86917865996792e-06
6.86731484217808e-06
6.86059388708785e-06
6.83820687547807e-06
6.7701771438405e-06
6.58424735050475e-06
6.13425949302818e-06
5.18507887457708e-06
3.46725991112589e-06
1.13631365905282e-08
4.47430628462104e-11
4.36583213295099e-11
1.12086713071947e-08
3.44189433702939e-06
5.16319000231194e-06
6.12034852918893e-06
6.57715205612355e-06
6.76716233408607e-06
6.83713683678941e-06
6.8603053397338e-06
6.8673005012256e-06
6.8692503112684e-06
6.86975722155379e-06
6.86988108405533e-06
6.86990958588074e-06
6.86991560742658e-06
6.86991657735871e-06
6.86991648744317e-06
6.86991619200577e-06
6.86991585881925e-06
6.86991552312032e-06
6.86991519627188e-06
6.86991488180571e-06
6.86991458107767e-06
6.86991429461053e-06
6.86991402340804e-06
6.86991376797636e-06
6.86991352917399e-06
6.86991330713249e-06
6.86991310172006e-06
6.86991291220322e-06
6.86991273811121e-06
6.86991257769659e-06
6.86991242461639e-06
6.86991224473776e-06
6.86991187093898e-06
6.86991049929016e-06
6.86990441050318e-06
6.86987714115783e-06
6.86975947381429e-06
6.86927697119293e-06
6.86741314820704e-06
6.86069213425297e-06
6.8383048745423e-06
6.77027431402841e-06
6.58434214644909e-06
6.13434839213967e-06
5.18515507605243e-06
3.46731223981636e-06
1.13632841488361e-08
4.47435132716834e-11
4.36583879935861e-11
1.12087019170736e-08
3.44190816303959e-06
5.16321465511647e-06
6.12038181219169e-06
6.57719102610001e-06
6.76720454128013e-06
6.83718067648366e-06
6.86034992137816e-06
6.86734539274621e-06
6.86929532594116e-06
6.86980228617997e-06
6.86992617231541e-06
6.86995468996218e-06
6.86996072859358e-06
6.8699617174974e-06
6.86996164513748e-06
6.86996136528387e-06
6.86996104770589e-06
6.86996072785414e-06
6.86996041701423e-06
6.8699601183991e-06
6.86995983319467e-06
6.86995956193372e-06
6.86995930562971e-06
6.86995906479463e-06
6.86995884028169e-06
6.86995863220149e-06
6.86995844038278e-06
6.86995826406209e-06
6.86995810273121e-06
6.86995795468459e-06
6.86995781391351e-06
6.86995764607741e-06
6.86995728385869e-06
6.86995592343509e-06
6.86994984774903e-06
6.86992259209969e-06
6.86980493866542e-06
6.86932244961091e-06
6.86745863562306e-06
6.86073760706507e-06
6.83835024248335e-06
6.77031929251599e-06
6.58438597589168e-06
6.13438935870579e-06
5.18518993153325e-06
3.46733592350788e-06
1.13633493356271e-08
4.47437073337541e-11
4.3658338827976e-11
1.12086996120392e-08
3.44191054603325e-06
5.16322119659187e-06
6.1203924200023e-06
6.57720459028109e-06
6.76721988678581e-06
6.8371969490822e-06
6.86036662507341e-06
6.86736228274613e-06
6.8693122960669e-06
6.86981929449264e-06
6.8699432027656e-06
6.86997173675443e-06
6.86997779427442e-06
6.86997880472496e-06
6.8699787526374e-06
6.86997849104685e-06
6.86997819168898e-06
6.86997789011035e-06
6.8699775971738e-06
6.86997731584835e-06
6.86997704728696e-06
6.86997679210105e-06
6.86997655134474e-06
6.86997632553104e-06
6.86997611547417e-06
6.86997592122628e-06
6.86997574263885e-06
6.86997557893509e-06
6.86997542954264e-06
6.86997529274869e-06
6.86997516271972e-06
6.86997500486688e-06
6.86997465178154e-06
6.86997329971223e-06
6.86996723371248e-06
6.86993998764814e-06
6.86982234395938e-06
6.8693398658506e-06
6.86747606455791e-06
6.86075504531285e-06
6.83836765919262e-06
6.77033656705191e-06
6.58440276851583e-06
6.13440492527692e-06
5.18520297592709e-06
3.4673447155559e-06
1.13633734080487e-08
4.47437674151389e-11
4.36582403739487e-11
1.12086721167936e-08
3.44190491219441e-06
5.16321561725668e-06
6.12038808039497e-06
6.57720161304492e-06
6.76721786771261e-06
6.83719546601344e-06
6.86036540334921e-06
6.86736118124373e-06
6.86931125288361e-06
6.86981828462645e-06
6.86994221515463e-06
6.86997076592778e-06
6.86997684058727e-06
6.86997787135172e-06
6.86997783845927e-06
6.86997759460104e-06
6.86997731332208e-06
6.86997702995808e-06
6.86997675460282e-06
6.86997649015668e-06
6.86997623795722e-06
6.86997599874942e-06
6.86997577363148e-06
6.86997556311254e-06
6.86997536794944e-06
6.86997518813778e-06
6.86997502356744e-06
6.8699748734396e-06
6.86997473708543e-06
6.86997461266246e-06
6.86997449405637e-06
6.86997434668485e-06
6.86997400324919e-06
6.86997265990477e-06
6.86996660075921e-06
6.8699393604983e-06
6.86982172323567e-06
6.86933925560163e-06
6.86747547570085e-06
6.86075449926205e-06
6.83836718682884e-06
6.77033619333605e-06
6.58440248106072e-06
6.13440466520263e-06
5.18520271700329e-06
3.46734451517081e-06
1.13633692782587e-08
4.4743729605636e-11
4.36580761152413e-11
1.12086238280288e-08
3.44189055573624e-06
5.16319708551554e-06
6.12036835907311e-06
6.57718193886729e-06
6.76719851100377e-06
6.83717635894506e-06
6.86034643741215e-06
6.86734228686229e-06
6.86929239695705e-06
6.86979945305451e-06
6.86992340059342e-06
6.86995196433518e-06
6.86995805325024e-06
6.86995910164189e-06
6.8699590843721e-06
6.86995885550326e-06
6.86995859024006e-06
6.86995832319383e-06
6.86995806370295e-06
6.86995781462496e-06
6.86995757757649e-06
6.86995735343149e-06
6.86995714333852e-06
6.86995694781843e-06
6.869956767596e-06
6.86995660263696e-06
6.86995645285288e-06
6.86995631740457e-06
6.86995619549876e-06
6.86995608508828e-06
6.86995597962621e-06
6.86995584480471e-06
6.86995551352819e-06
6.86995418191748e-06
6.86994813192069e-06
6.86992090064144e-06
6.86980327526635e-06
6.8693208301954e-06
6.86745710189199e-06
6.86073624430188e-06
6.838349188982e-06
6.77031870858999e-06
6.58438594591668e-06
6.13438978636498e-06
5.1851905776763e-06
3.46733653300316e-06
1.13633433499258e-08
4.47436561750452e-11
4.36577768760601e-11
1.12085332544683e-08
3.44186151277781e-06
5.16315731950364e-06
6.12032395668228e-06
6.57713592673354e-06
6.76715209959703e-06
6.83712991474216e-06
6.86030003025257e-06
6.86729591404193e-06
6.86924604892961e-06
6.86975312381752e-06
6.86987708578591e-06
6.86990566132322e-06
6.86991176565169e-06
6.86991283200073e-06
6.86991282934945e-06
6.86991261470906e-06
6.86991236502342e-06
6.86991211371328e-06
6.86991186958676e-06
6.86991163544294e-06
6.8699114130797e-06
6.86991120347906e-06
6.86991100784992e-06
6.86991082675318e-06
6.8699106609177e-06
6.86991051029221e-06
6.8699103747679e-06
6.86991025340977e-06
6.86991014525888e-06
6.86991004806018e-06
6.86990995501282e-06
6.86990983203527e-06
6.86990951228611e-06
6.86990819210035e-06
6.86990215250856e-06
6.86987493303851e-06
6.86975732627192e-06
6.86927492216112e-06
6.86741129613589e-06
6.86069069011845e-06
6.83830421571226e-06
6.77027497535548e-06
6.58434464676122e-06
6.13435287188291e-06
5.18516089154654e-06
3.46731768871292e-06
1.13632934888359e-08
4.47435165384797e-11
4.36572069252397e-11
1.12083591292151e-08
3.44180411992436e-06