/*--------------------------------*- C++ -*----------------------------------*\
  =========                 |
  \\      /  F ield         | OpenFOAM: The Open Source CFD Toolbox
   \\    /   O peration     | Website:  https://openfoam.org
    \\  /    A nd           | Version:  10
     \\/     M anipulation  |
\*---------------------------------------------------------------------------*/
FoamFile
{
    format      ascii;
    class       volScalarField;
    location    "2.4";
    object      omega;
}
// * * * * * * * * * * * * * * * * * * * * * * * * * * * * * * * * * * * * * //

dimensions      [0 0 -1 0 0 0 0];

internalField   nonuniform List<scalar> 
2500
(
128391.597875396
128413.045021437
128405.449979953
128402.966159872
128402.241231926
128402.034072869
128401.976699087
128401.960831424
128401.95593617
128401.954492835
128401.953303131
128401.952588149
128401.952164896
128401.951616991
128401.951114725
128401.95054429
128401.950265141
128401.949905425
128401.949492292
128401.949207977
128401.94893954
128401.94866989
128401.948431531
128401.948337137
128401.948225597
128401.948069324
128401.948027766
128401.94797985
128401.947930544
128401.947972966
128401.948032242
128401.948104047
128401.948247595
128401.948443049
128401.948642301
128401.948854624
128401.949099262
128401.949299892
128401.949744353
128401.950201118
128401.950935141
128401.952629497
128401.957856269
128401.975751222
128402.039192932
128402.253901726
128402.981057056
128405.457917816
128413.163218721
128391.568600568
31846.6182549531
14148.5934631019
14145.0351006501
14143.6835467421
14143.2201250548
14143.0692203582
14143.0231951271
14143.0101911664
14143.006773137
14143.0059357322
14143.005712219
14143.0056467867
14143.0056281779
14143.0056089486
14143.0055911509
14143.0055722512
14143.0055617075
14143.0055487743
14143.0055337055
14143.0055211703
14143.0055038604
14143.0054798521
14143.0054561509
14143.0054523259
14143.0054507277
14143.0054395884
14143.0054407473
14143.005439944
14143.0054329308
14143.0054420348
14143.0054451537
14143.0054375667
14143.0054577763
14143.005487552
14143.0055007421
14143.0055079613
14143.0055156527
14143.0055236455
14143.0055498444
14143.0056217045
14143.005903113
14143.007007875
14143.0111588545
14143.025918076
14143.0751086193
14143.2289314429
14143.6891898162
14145.0330794901
14148.6593740519
31846.8245118167
31684.0014444272
3519.10398116805
50.6624896794094
50.6575793661969
50.6558852202093
50.6553299628014
50.6551587673878
50.6551097725254
50.6550967884341
50.6550936030738
50.6550927995301
50.6550926027238
50.6550926095022
50.655092601564
50.6550925950884
50.6550925967307
50.6550925990209
50.6550925981942
50.6550925858951
50.6550925745964
50.6550925479194
50.6550925027994
50.6550924495617
50.6550924342273
50.6550924422593
50.6550924312447
50.6550924318975
50.655092439088
50.6550924367491
50.6550924528887
50.6550924520559
50.6550924250954
50.6550924745742
50.6550925558026
50.6550925683083
50.6550925640652
50.6550925702248
50.6550925657944
50.6550926177673
50.655092832245
50.6550938118734
50.6550978234212
50.6551129536414
50.6551667646815
50.6553458707419
50.6559063742699
50.6575880271322
50.6624943517229
3519.12516753489
31684.5953506125
31591.9454952686
3509.32227760448
50.5268831253874
50.5240482510601
50.5231101680302
50.5228135080576
50.5227237182649
50.5226981221257
50.5226913157344
50.5226896424166
50.5226892174411
50.5226891294347
50.5226891561999
50.5226891635321
50.5226891697458
50.522689175182
50.5226891796482
50.5226891828327
50.522689180319
50.5226891821796
50.5226891807966
50.5226891634405
50.5226891357337
50.5226891251506
50.522689134707
50.522689133996
50.5226891333516
50.5226891418167
50.522689146708
50.5226891533212
50.5226891514909
50.522689135999
50.5226891604569
50.5226892027607
50.5226892045058
50.522689198251
50.5226891982489
50.5226891891033
50.5226892024913
50.5226892822097
50.5226897352734
50.5226916860655
50.5226991474678
50.5227261108783
50.5228178715913
50.5231147542058
50.5240479832091
50.5269022257724
3509.33902065813
31592.5792454897
31548.3664941914
3504.90531704598
50.4672915893254
50.4660054986184
50.4655911291356
50.4654635173998
50.4654253967737
50.4654145225988
50.4654116071626
50.4654108858336
50.4654107006993
50.4654106664007
50.465410684566
50.4654106928626
50.4654106983699
50.4654107019946
50.465410706222
50.4654107106149
50.4654107121801
50.4654107120822
50.4654107125282
50.4654107092696
50.4654106972641
50.4654106930502
50.4654106982809
50.4654106994157
50.4654107001218
50.4654107049223
50.4654107086261
50.4654107113026
50.4654107105173
50.4654107039568
50.4654107140013
50.4654107311383
50.4654107305146
50.4654107269217
50.4654107257702
50.4654107209957
50.465410720235
50.4654107426056
50.4654109174172
50.4654116994971
50.46541471793
50.4654257140501
50.4654636933845
50.4655897769671
50.4660008261702
50.4673005296773
3504.91479352295
31548.8110305264
31530.3834907669
3503.16852351548
50.4443364110412
50.443838397802
50.4436801490921
50.4436322874271
50.4436181250687
50.4436140759392
50.4436129802572
50.4436127070067
50.4436126364958
50.4436126247305
50.4436126335364
50.4436126384177
50.4436126415549
50.4436126435221
50.4436126459359
50.4436126484865
50.4436126498727
50.4436126496899
50.4436126505067
50.4436126494151
50.4436126459766
50.4436126459857
50.4436126471596
50.4436126478497
50.4436126488285
50.4436126510433
50.4436126528577
50.4436126540915
50.4436126538829
50.4436126515975
50.4436126552104
50.4436126606614
50.4436126604712
50.4436126593422
50.4436126580583
50.4436126555861
50.4436126542163
50.4436126599295
50.4436127194125
50.4436129986175
50.4436140813587
50.4436180337047
50.443631797441
50.4436783406803
50.4438341405698
50.4443375687314
3503.17278259937
31530.6255057674
31523.7306493666
3502.55601599675
50.4363634218301
50.4361914771216
50.4361370911389
50.4361208245835
50.4361160448545
50.4361146752208
50.4361143014256
50.436114206808
50.4361141830971
50.4361141803197
50.4361141835289
50.4361141857615
50.4361141872724
50.4361141883148
50.4361141894234
50.4361141905025
50.4361141912636
50.4361141913067
50.4361141918459
50.4361141915989
50.4361141909178
50.4361141914914
50.436114191975
50.436114192365
50.4361141928235
50.4361141936189
50.436114194381
50.4361141950176
50.4361141950472
50.4361141944038
50.436114195617
50.4361141971896
50.4361141971691
50.4361141968293
50.4361141962207
50.4361141951377
50.4361141943197
50.4361141956941
50.4361142147844
50.4361143066213
50.4361146634831
50.4361159632633
50.4361205033067
50.4361360430558
50.4361890022832
50.4363624370152
3502.55762693605
31523.8411137721
31521.4795543577
3502.35823124252
50.4338187351744
50.4337643512764
50.4337471254024
50.4337420021021
50.4337405044195
50.4337400746596
50.4337399565658
50.4337399263019
50.4337399192131
50.4337399187549
50.4337399197577
50.4337399206831
50.4337399213871
50.4337399219061
50.4337399223825
50.433739922848
50.433739923246
50.4337399233814
50.4337399237011
50.4337399237659
50.4337399237761
50.4337399241929
50.433739924478
50.4337399247229
50.4337399249625
50.4337399252797
50.4337399256348
50.4337399259838
50.4337399261024
50.4337399260152
50.4337399264436
50.4337399269095
50.4337399269556
50.4337399269111
50.4337399267356
50.4337399263729
50.4337399260575
50.4337399264234
50.4337399323246
50.433739960737
50.4337400709428
50.4337404703499
50.4337418642414
50.4337466682698
50.4337632229402
50.4338178646697
3502.35876163201
31521.5237295249
31520.7726697422
3502.29888316392
50.4330625819928
50.4330465318983
50.4330414233525
50.4330399060119
50.4330394640627
50.4330393372209
50.4330393022185
50.4330392932257
50.4330392912797
50.4330392912804
50.4330392916651
50.4330392920654
50.4330392924093
50.4330392926881
50.4330392929417
50.4330392931949
50.4330392934424
50.4330392936028
50.4330392937866
50.4330392939585
50.4330392941412
50.4330392943814
50.4330392945831
50.4330392947725
50.4330392949574
50.4330392951512
50.4330392953602
50.4330392955774
50.4330392957171
50.4330392957948
50.4330392959979
50.4330392961907
50.4330392962783
50.4330392963413
50.4330392963568
50.4330392963056
50.4330392962594
50.433039296419
50.4330392982201
50.4330393066072
50.4330393389088
50.4330394551192
50.4330398591714
50.4330412554734
50.433046094868
50.433062137426
3502.29903811044
31520.788591652
31520.5645664558
3502.28217326476
50.4328516754236
50.4328471968656
50.4328457622809
50.4328453353896
50.4328452113434
50.432845175789
50.4328451659827
50.432845163502
50.4328451630426
50.4328451631321
50.4328451633295
50.4328451635428
50.4328451637472
50.4328451639346
50.4328451641162
50.4328451643005
50.4328451644865
50.4328451646534
50.4328451648197
50.4328451649925
50.4328451651727
50.4328451653579
50.43284516553
50.432845165698
50.4328451658644
50.4328451660274
50.4328451661912
50.4328451663575
50.4328451664984
50.432845166619
50.4328451667653
50.4328451669015
50.4328451670098
50.4328451671101
50.4328451671938
50.4328451672549
50.4328451673148
50.4328451674326
50.4328451680123
50.432845170429
50.4328451795207
50.432845211843
50.4328453235096
50.4328457091178
50.4328470478255
50.432851495744
3502.28221383341
31520.5698414472
31520.5068913723
3502.277750997
50.4327964798213
50.4327952867251
50.4327949020477
50.432794787113
50.4327947537672
50.4327947442511
50.432794741661
50.4327947410526
50.4327947410022
50.4327947411066
50.4327947412469
50.4327947413991
50.4327947415552
50.4327947417112
50.4327947418694
50.4327947420315
50.4327947421975
50.4327947423624
50.4327947425262
50.4327947426909
50.432794742857
50.4327947430235
50.4327947431855
50.4327947433449
50.4327947435026
50.4327947436562
50.4327947438066
50.432794743955
50.4327947440938
50.432794744224
50.4327947443564
50.432794744482
50.4327947445977
50.4327947447089
50.4327947448127
50.4327947449078
50.4327947450005
50.4327947451073
50.4327947453371
50.4327947460573
50.4327947485643
50.4327947572427
50.4327947868894
50.4327948888518
50.4327952423158
50.4327964181844
3502.2777606108
31520.5085217941
31520.4920269565
3502.27667688492
50.4327833305953
50.4327830249285
50.4327829258104
50.4327828960437
50.4327828874301
50.4327828850075
50.432782884388
50.4327828842913
50.4327828843489
50.4327828844551
50.4327828845782
50.4327828847114
50.4327828848517
50.4327828849969
50.4327828851469
50.432782885301
50.4327828854589
50.4327828856187
50.432782885779
50.4327828859396
50.4327828861001
50.4327828862598
50.4327828864172
50.4327828865724
50.4327828867252
50.4327828868743
50.4327828870196
50.4327828871614
50.4327828872976
50.4327828874283
50.432782887556
50.4327828876785
50.4327828877952
50.4327828879076
50.4327828880153
50.4327828881181
50.4327828882179
50.4327828883194
50.432782888451
50.4327828887074
50.4327828894227
50.4327828917158
50.4327828993437
50.4327829253254
50.4327830149925
50.4327833135188
3502.27667906049
31520.49250329
31520.4887540625
3502.27647238641
50.4327809960953
50.4327809203723
50.4327808957176
50.4327808882846
50.4327808861584
50.4327808855948
50.4327808854926
50.4327808855305
50.432780885616
50.4327808857219
50.4327808858398
50.4327808859668
50.4327808861015
50.4327808862423
50.4327808863884
50.4327808865388
50.4327808866926
50.4327808868486
50.4327808870057
50.4327808871632
50.4327808873203
50.4327808874764
50.4327808876307
50.4327808877827
50.432780887932
50.4327808880777
50.4327808882197
50.4327808883578
50.4327808884913
50.43278088862
50.4327808887446
50.4327808888644
50.4327808889793
50.43278088909
50.4327808891964
50.4327808892988
50.4327808893979
50.4327808894952
50.432780889598
50.43278088973
50.4327808899738
50.4327808906051
50.4327808925445
50.4327808989789
50.432780920963
50.4327809941518
3502.27647300501
31520.4888878688
31520.4884867365
3502.27648456744
50.432781327092
50.4327813088806
50.4327813029475
50.4327813011686
50.432781300688
50.4327813005963
50.432781300626
50.4327813006986
50.4327813007912
50.4327813008967
50.4327813010125
50.432781301137
50.4327813012691
50.4327813014074
50.4327813015509
50.4327813016985
50.4327813018494
50.4327813020024
50.4327813021566
50.4327813023111
50.4327813024653
50.4327813026184
50.4327813027696
50.4327813029185
50.4327813030646
50.4327813032073
50.4327813033463
50.4327813034812
50.4327813036118
50.4327813037378
50.4327813038593
50.4327813039762
50.4327813040884
50.4327813041962
50.4327813042998
50.4327813043994
50.4327813044955
50.4327813045888
50.4327813046812
50.4327813047783
50.4327813048997
50.4327813051107
50.4327813056287
50.4327813072098
50.432781312462
50.4327813298792
3502.27648491798
31520.4885242985
31520.48896966
3502.27654881252
50.4327822907582
50.4327822864972
50.4327822851235
50.4327822847327
50.4327822846582
50.4327822846838
50.4327822847468
50.4327822848283
50.4327822849228
50.4327822850281
50.4327822851426
50.4327822852656
50.4327822853956
50.4327822855318
50.432782285673
50.4327822858181
50.4327822859662
50.4327822861164
50.4327822862677
50.4327822864193
50.4327822865705
50.4327822867205
50.4327822868687
50.4327822870145
50.4327822871575
50.432782287297
50.4327822874329
50.4327822875646
50.4327822876921
50.432782287815
50.4327822879334
50.4327822880471
50.4327822881561
50.4327822882606
50.4327822883609
50.4327822884571
50.4327822885496
50.4327822886388
50.4327822887253
50.4327822888104
50.4327822888984
50.4327822890037
50.4327822891751
50.4327822895874
50.4327822908361
50.4327822948908
3502.27654913061
31520.488981398
31520.4896336638
3502.27662517333
50.4327833996492
50.4327833986821
50.432783398389
50.4327833983308
50.4327833983548
50.4327833984097
50.4327833984814
50.4327833985656
50.4327833986606
50.4327833987653
50.4327833988789
50.4327833990003
50.4327833991286
50.4327833992626
50.4327833994015
50.432783399544
50.4327833996894
50.4327833998367
50.4327833999851
50.4327834001337
50.4327834002818
50.4327834004286
50.4327834005736
50.4327834007163
50.432783400856
50.4327834009923
50.4327834011249
50.4327834012533
50.4327834013776
50.4327834014972
50.4327834016122
50.4327834017226
50.4327834018282
50.4327834019293
50.432783402026
50.4327834021185
50.4327834022071
50.4327834022922
50.4327834023739
50.4327834024526
50.4327834025291
50.4327834026058
50.4327834026925
50.432783402829
50.4327834031458
50.4327834040896
3502.27662548852
31520.489638715
31520.490340082
3502.27670427465
50.4327845408962
50.4327845406889
50.4327845406467
50.4327845406675
50.4327845407157
50.4327845407786
50.4327845408532
50.4327845409383
50.4327845410333
50.4327845411375
50.43278454125
50.4327845413699
50.4327845414963
50.4327845416282
50.4327845417646
50.4327845419045
50.4327845420471
50.4327845421915
50.4327845423368
50.4327845424822
50.4327845426271
50.4327845427706
50.4327845429124
50.4327845430517
50.432784543188
50.432784543321
50.4327845434502
50.4327845435753
50.4327845436961
50.4327845438124
50.432784543924
50.4327845440308
50.4327845441329
50.4327845442304
50.4327845443233
50.432784544412
50.4327845444966
50.4327845445774
50.4327845446546
50.4327845447283
50.4327845447984
50.4327845448647
50.4327845449287
50.4327845449992
50.4327845451027
50.4327845453401
3502.27670458597
31520.4903434244
31520.4910561725
3502.27678398051
50.4327856891646
50.4327856891295
50.4327856891453
50.4327856891856
50.4327856892407
50.4327856893064
50.4327856893823
50.4327856894679
50.4327856895627
50.4327856896663
50.4327856897776
50.4327856898959
50.4327856900203
50.4327856901499
50.4327856902838
50.432785690421
50.4327856905607
50.4327856907021
50.4327856908442
50.4327856909864
50.4327856911279
50.4327856912681
50.4327856914065
50.4327856915423
50.4327856916752
50.4327856918047
50.4327856919304
50.432785692052
50.4327856921693
50.432785692282
50.43278569239
50.4327856924933
50.4327856925917
50.4327856926855
50.4327856927746
50.4327856928594
50.4327856929399
50.4327856930164
50.4327856930891
50.432785693158
50.4327856932229
50.4327856932832
50.4327856933385
50.4327856933911
50.4327856934448
50.4327856935242
3502.27678428539
31520.4910590523
31520.4917744173
3502.2768638169
50.4327868389231
50.432786838927
50.4327868389572
50.4327868390034
50.4327868390611
50.4327868391283
50.4327868392051
50.432786839291
50.4327868393856
50.4327868394883
50.4327868395983
50.432786839715
50.4327868398374
50.4327868399647
50.432786840096
50.4327868402304
50.4327868403671
50.4327868405053
50.4327868406442
50.4327868407831
50.4327868409212
50.4327868410579
50.4327868411927
50.4327868413251
50.4327868414544
50.4327868415803
50.4327868417024
50.4327868418204
50.4327868419341
50.4327868420432
50.4327868421475
50.4327868422471
50.4327868423418
50.4327868424318
50.432786842517
50.4327868425977
50.4327868426741
50.4327868427462
50.4327868428144
50.4327868428786
50.4327868429386
50.4327868429939
50.4327868430437
50.432786843089
50.4327868431291
50.4327868431727
3502.27686411405
31520.4917771297
31520.4924931331
3502.2769436811
50.4327879889939
50.4327879890074
50.4327879890421
50.4327879890909
50.4327879891503
50.4327879892187
50.4327879892961
50.4327879893822
50.4327879894764
50.4327879895782
50.4327879896869
50.4327879898019
50.4327879899223
50.4327879900471
50.4327879901758
50.4327879903073
50.432787990441
50.4327879905759
50.4327879907115
50.432787990847
50.4327879909816
50.4327879911148
50.432787991246
50.4327879913747
50.4327879915003
50.4327879916226
50.432787991741
50.4327879918554
50.4327879919653
50.4327879920707
50.4327879921713
50.4327879922671
50.432787992358
50.432787992444
50.4327879925253
50.4327879926019
50.4327879926741
50.4327879927419
50.4327879928055
50.432787992865
50.4327879929201
50.4327879929706
50.4327879930157
50.432787993056
50.4327879930903
50.4327879931244
3502.27694397005
31520.4924957502
31520.4932119511
3502.27702355126
50.432789139131
50.4327891391476
50.4327891391846
50.4327891392354
50.4327891392962
50.4327891393656
50.4327891394436
50.4327891395297
50.4327891396234
50.4327891397243
50.4327891398316
50.4327891399448
50.432789140063
50.4327891401854
50.4327891403113
50.43278914044
50.4327891405705
50.4327891407022
50.4327891408344
50.4327891409663
50.4327891410974
50.432789141227
50.4327891413546
50.4327891414796
50.4327891416015
50.43278914172
50.4327891418347
50.4327891419453
50.4327891420514
50.432789142153
50.4327891422498
50.4327891423417
50.4327891424288
50.4327891425109
50.4327891425882
50.4327891426606
50.4327891427285
50.4327891427919
50.432789142851
50.4327891429058
50.4327891429561
50.4327891430018
50.4327891430423
50.432789143078
50.4327891431081
50.4327891431382
3502.2770238316
31520.493214485
31520.4939307916
3502.27710342278
50.4327902892835
50.4327902893019
50.4327902893408
50.4327902893933
50.4327902894553
50.4327902895256
50.432790289604
50.4327902896901
50.4327902897833
50.4327902898832
50.4327902899891
50.4327902901004
50.4327902902164
50.4327902903363
50.4327902904595
50.4327902905851
50.4327902907125
50.4327902908409
50.4327902909696
50.4327902910981
50.4327902912255
50.4327902913514
50.4327902914753
50.4327902915965
50.4327902917147
50.4327902918295
50.4327902919403
50.4327902920471
50.4327902921494
50.4327902922471
50.43279029234
50.4327902924281
50.4327902925112
50.4327902925893
50.4327902926625
50.4327902927308
50.4327902927944
50.4327902928534
50.4327902929079
50.432790292958
50.4327902930036
50.4327902930445
50.4327902930803
50.4327902931116
50.4327902931378
50.432790293165
3502.2771036944
31520.4939332479
31520.4946496375
3502.27718329466
50.4327914394401
50.4327914394601
50.4327914395008
50.4327914395548
50.432791439618
50.4327914396891
50.432791439768
50.4327914398539
50.4327914399466
50.4327914400454
50.4327914401498
50.4327914402593
50.432791440373
50.4327914404904
50.4327914406108
50.4327914407334
50.4327914408576
50.4327914409826
50.4327914411079
50.4327914412328
50.4327914413566
50.4327914414788
50.4327914415989
50.4327914417163
50.4327914418307
50.4327914419416
50.4327914420486
50.4327914421515
50.43279144225
50.4327914423438
50.4327914424328
50.4327914425169
50.432791442596
50.4327914426701
50.4327914427392
50.4327914428033
50.4327914428627
50.4327914429173
50.4327914429672
50.4327914430126
50.4327914430534
50.4327914430895
50.4327914431208
50.4327914431476
50.4327914431699
50.4327914431941
3502.27718355734
31520.4946520125
31520.4953684846
3502.27726316661
50.4327925895979
50.4327925896194
50.4327925896618
50.4327925897173
50.4327925897816
50.4327925898535
50.4327925899327
50.4327925900185
50.4327925901105
50.4327925902082
50.4327925903111
50.4327925904186
50.4327925905301
50.432792590645
50.4327925907625
50.4327925908821
50.4327925910031
50.4327925911248
50.4327925912466
50.4327925913678
50.432792591488
50.4327925916065
50.4327925917228
50.4327925918364
50.4327925919469
50.432792592054
50.4327925921571
50.4327925922561
50.4327925923507
50.4327925924405
50.4327925925257
50.4327925926058
50.4327925926809
50.4327925927509
50.4327925928159
50.4327925928759
50.4327925929309
50.432792592981
50.4327925930264
50.4327925930672
50.4327925931032
50.4327925931346
50.4327925931613
50.4327925931836
50.432792593202
50.4327925932232
3502.27726342032
31520.4953707786
31520.4960873313
3502.27734303852
50.4327937397547
50.4327937397778
50.4327937398218
50.4327937398788
50.4327937399442
50.4327937400168
50.4327937400963
50.4327937401819
50.4327937402733
50.4327937403699
50.4327937404713
50.4327937405768
50.4327937406861
50.4327937407984
50.4327937409131
50.4327937410297
50.4327937411474
50.4327937412657
50.432793741384
50.4327937415017
50.4327937416182
50.432793741733
50.4327937418455
50.4327937419553
50.432793742062
50.4327937421651
50.4327937422644
50.4327937423595
50.4327937424501
50.4327937425361
50.4327937426172
50.4327937426934
50.4327937427645
50.4327937428305
50.4327937428913
50.4327937429471
50.4327937429978
50.4327937430436
50.4327937430844
50.4327937431205
50.4327937431519
50.4327937431785
50.4327937432005
50.4327937432184
50.4327937432328
50.4327937432508
3502.2773432832
31520.496089545
31520.4968061765
3502.27742291026
50.4327948899094
50.4327948899339
50.4327948899796
50.432794890038
50.4327948901044
50.4327948901778
50.4327948902575
50.4327948903429
50.4327948904336
50.4327948905291
50.4327948906289
50.4327948907326
50.4327948908396
50.4327948909493
50.4327948910612
50.4327948911747
50.4327948912893
50.4327948914043
50.4327948915191
50.4327948916332
50.432794891746
50.432794891857
50.4327948919657
50.4327948920717
50.4327948921746
50.4327948922738
50.4327948923692
50.4327948924604
50.4327948925471
50.4327948926292
50.4327948927063
50.4327948927785
50.4327948928456
50.4327948929076
50.4327948929643
50.4327948930159
50.4327948930623
50.4327948931037
50.43279489314
50.4327948931715
50.4327948931982
50.4327948932201
50.4327948932375
50.432794893251
50.4327948932612
50.4327948932762
3502.27742314591
31520.4968083066
31520.4975250192
3502.27750278173
50.43279604006
50.4327960400861
50.4327960401334
50.4327960401933
50.4327960402607
50.4327960403347
50.4327960404147
50.4327960404999
50.4327960405899
50.4327960406843
50.4327960407826
50.4327960408843
50.432796040989
50.4327960410962
50.4327960412054
50.4327960413159
50.4327960414273
50.4327960415389
50.4327960416503
50.4327960417608
50.43279604187
50.4327960419772
50.4327960420822
50.4327960421844
50.4327960422834
50.4327960423788
50.4327960424703
50.4327960425576
50.4327960426404
50.4327960427185
50.4327960427918
50.43279604286
50.4327960429232
50.4327960429811
50.4327960430337
50.4327960430811
50.4327960431234
50.4327960431604
50.4327960431923
50.4327960432191
50.4327960432411
50.4327960432583
50.4327960432712
50.4327960432801
50.4327960432863
50.432796043298
3502.27750300833
31520.4975270692
31520.4982438586
3502.27758265282
50.4327971902052
50.4327971902328
50.4327971902817
50.432797190343
50.4327971904115
50.4327971904862
50.4327971905664
50.4327971906514
50.4327971907408
50.4327971908341
50.4327971909308
50.4327971910307
50.4327971911331
50.4327971912378
50.4327971913442
50.4327971914517
50.4327971915599
50.4327971916683
50.4327971917762
50.4327971918832
50.4327971919888
50.4327971920924
50.4327971921937
50.4327971922921
50.4327971923872
50.4327971924788
50.4327971925665
50.4327971926499
50.4327971927289
50.4327971928032
50.4327971928725
50.4327971929368
50.432797192996
50.4327971930499
50.4327971930985
50.4327971931418
50.4327971931798
50.4327971932125
50.4327971932399
50.4327971932622
50.4327971932796
50.4327971932922
50.4327971933005
50.4327971933049
50.432797193307
50.4327971933155
3502.27758287052
31520.4982458278
31520.4989626935
3502.27766252341
50.4327983403432
50.4327983403724
50.4327983404229
50.4327983404857
50.4327983405551
50.4327983406306
50.4327983407111
50.4327983407959
50.4327983408846
50.4327983409768
50.432798341072
50.43279834117
50.4327983412703
50.4327983413726
50.4327983414762
50.4327983415808
50.432798341686
50.432798341791
50.4327983418955
50.4327983419991
50.4327983421011
50.4327983422011
50.4327983422986
50.4327983423933
50.4327983424848
50.4327983425726
50.4327983426565
50.432798342736
50.4327983428112
50.4327983428816
50.4327983429471
50.4327983430076
50.4327983430628
50.4327983431128
50.4327983431574
50.4327983431966
50.4327983432304
50.4327983432588
50.4327983432819
50.4327983432997
50.4327983433124
50.4327983433203
50.4327983433241
50.432798343324
50.432798343322
50.4327983433272
3502.27766273228
31520.498964584
31520.499681523
3502.2777423934
50.4327994904727
50.4327994905033
50.4327994905555
50.4327994906197
50.4327994906903
50.4327994907664
50.4327994908472
50.4327994909318
50.4327994910199
50.4327994911111
50.4327994912049
50.4327994913011
50.4327994913992
50.432799491499
50.4327994916
50.4327994917017
50.4327994918038
50.4327994919057
50.4327994920069
50.432799492107
50.4327994922055
50.4327994923019
50.4327994923959
50.4327994924869
50.4327994925747
50.4327994926587
50.4327994927389
50.4327994928147
50.4327994928861
50.4327994929527
50.4327994930144
50.4327994930711
50.4327994931225
50.4327994931686
50.4327994932093
50.4327994932444
50.4327994932741
50.4327994932983
50.432799493317
50.4327994933304
50.4327994933385
50.4327994933419
50.4327994933411
50.4327994933365
50.4327994933304
50.4327994933324
3502.27774259361
31520.4996833348
31520.500400346
3502.27782226267
50.4328006405917
50.4328006406239
50.4328006406778
50.4328006407436
50.4328006408152
50.4328006408921
50.4328006409731
50.4328006410577
50.4328006411452
50.4328006412353
50.4328006413277
50.4328006414222
50.4328006415182
50.4328006416157
50.4328006417141
50.432800641813
50.4328006419121
50.4328006420108
50.4328006421088
50.4328006422056
50.4328006423006
50.4328006423936
50.432800642484
50.4328006425714
50.4328006426555
50.432800642736
50.4328006428125
50.4328006428846
50.4328006429523
50.4328006430152
50.4328006430732
50.4328006431261
50.4328006431737
50.4328006432161
50.4328006432528
50.4328006432841
50.4328006433098
50.4328006433298
50.4328006433442
50.4328006433531
50.4328006433568
50.4328006433555
50.4328006433502
50.4328006433411
50.4328006433308
50.4328006433296
3502.27782245431
31520.5004020807
31520.5011191614
3502.27790213111
50.4328017906989
50.4328017907326
50.4328017907883
50.4328017908557
50.4328017909285
50.4328017910061
50.4328017910875
50.432801791172
50.432801791259
50.4328017913482
50.4328017914392
50.4328017915319
50.432801791626
50.4328017917211
50.432801791817
50.4328017919132
50.4328017920094
50.4328017921051
50.4328017921999
50.4328017922934
50.4328017923851
50.4328017924746
50.4328017925616
50.4328017926455
50.4328017927261
50.432801792803
50.4328017928759
50.4328017929445
50.4328017930086
50.4328017930679
50.4328017931222
50.4328017931715
50.4328017932154
50.432801793254
50.4328017932869
50.4328017933144
50.432801793336
50.432801793352
50.4328017933621
50.4328017933667
50.4328017933659
50.4328017933601
50.4328017933504
50.4328017933367
50.4328017933222
50.4328017933177
3502.27790231438
31520.5011208188
31520.5018379684
3502.2779819986
50.4328029407924
50.4328029408277
50.4328029408854
50.4328029409545
50.4328029410284
50.4328029411069
50.4328029411887
50.4328029412732
50.4328029413597
50.432802941448
50.4328029415377
50.4328029416288
50.4328029417209
50.4328029418139
50.4328029419073
50.4328029420009
50.4328029420942
50.432802942187
50.4328029422787
50.4328029423691
50.4328029424575
50.4328029425437
50.4328029426273
50.4328029427079
50.432802942785
50.4328029428585
50.4328029429279
50.432802942993
50.4328029430536
50.4328029431094
50.4328029431602
50.4328029432059
50.4328029432462
50.4328029432811
50.4328029433105
50.4328029433341
50.4328029433519
50.4328029433638
50.4328029433699
50.4328029433702
50.4328029433649
50.4328029433546
50.4328029433404
50.4328029433221
50.4328029433034
50.4328029432956
3502.27798217381
31520.5018395536
31520.5025567656
3502.27806186501
50.4328040908707
50.4328040909076
50.4328040909675
50.4328040910384
50.4328040911135
50.432804091193
50.4328040912753
50.4328040913597
50.4328040914458
50.4328040915332
50.4328040916218
50.4328040917113
50.4328040918016
50.4328040918924
50.4328040919835
50.4328040920745
50.4328040921652
50.4328040922551
50.4328040923439
50.4328040924311
50.4328040925165
50.4328040925995
50.4328040926798
50.4328040927571
50.4328040928309
50.432804092901
50.4328040929671
50.4328040930288
50.432804093086
50.4328040931384
50.4328040931858
50.432804093228
50.4328040932649
50.4328040932963
50.432804093322
50.432804093342
50.432804093356
50.432804093364
50.4328040933661
50.4328040933621
50.4328040933525
50.4328040933378
50.4328040933191
50.4328040932962
50.432804093273
50.4328040932619
3502.27806203243
31520.5025582812
31520.5032755522
3502.27814173023
50.432805240932
50.4328052409706
50.4328052410329
50.4328052411059
50.4328052411823
50.4328052412627
50.4328052413456
50.4328052414301
50.4328052415158
50.4328052416025
50.43280524169
50.432805241778
50.4328052418665
50.4328052419553
50.4328052420441
50.4328052421327
50.4328052422207
50.4328052423079
50.4328052423938
50.4328052424781
50.4328052425605
50.4328052426404
50.4328052427176
50.4328052427917
50.4328052428624
50.4328052429293
50.4328052429921
50.4328052430506
50.4328052431045
50.4328052431536
50.4328052431977
50.4328052432366
50.4328052432702
50.4328052432981
50.4328052433204
50.4328052433368