/*--------------------------------*- C++ -*----------------------------------*\
  =========                 |
  \\      /  F ield         | OpenFOAM: The Open Source CFD Toolbox
   \\    /   O peration     | Website:  https://openfoam.org
    \\  /    A nd           | Version:  10
     \\/     M anipulation  |
\*---------------------------------------------------------------------------*/
FoamFile
{
    format      ascii;
    class       volScalarField;
    location    "2.4";
    object      p;
}
// * * * * * * * * * * * * * * * * * * * * * * * * * * * * * * * * * * * * * //

dimensions      [1 -1 -2 0 0 0 0];

internalField   nonuniform List<scalar> 
2500
(
100067.448915052
100067.448917122
100067.448917996
100067.448918415
100067.448918551
100067.448918436
100067.4489182
100067.448917883
100067.448917499
100067.448917061
100067.448916577
100067.448916053
100067.448915493
100067.448914903
100067.448914287
100067.44891365
100067.448912996
100067.448912329
100067.448911654
100067.448910973
100067.44891029
100067.448909609
100067.448908932
100067.448908262
100067.448907601
100067.448906952
100067.448906317
100067.448905698
100067.448905096
100067.448904513
100067.44890395
100067.448903409
100067.44890289
100067.448902395
100067.448901924
100067.448901477
100067.448901055
100067.448900658
100067.448900285
100067.448899937
100067.448899612
100067.448899309
100067.448899026
100067.448898753
100067.44889848
100067.448898173
100067.448897705
100067.448897056
100067.448896035
100067.448893894
100067.446674413
100067.44667624
100067.446677055
100067.446677382
100067.446677457
100067.4466773
100067.446677044
100067.446676719
100067.446676333
100067.446675895
100067.446675412
100067.446674888
100067.446674329
100067.44667374
100067.446673125
100067.446672489
100067.446671835
100067.446671169
100067.446670494
100067.446669814
100067.446669132
100067.446668452
100067.446667775
100067.446667106
100067.446666446
100067.446665797
100067.446665163
100067.446664544
100067.446663942
100067.44666336
100067.446662798
100067.446662257
100067.446661738
100067.446661243
100067.446660772
100067.446660325
100067.446659903
100067.446659506
100067.446659134
100067.446658785
100067.44665846
100067.446658158
100067.446657878
100067.446657613
100067.446657358
100067.446657091
100067.446656684
100067.446656127
100067.446655166
100067.446653248
100067.444411256
100067.444411859
100067.444411891
100067.444411857
100067.44441177
100067.444411546
100067.444411267
100067.444410933
100067.444410544
100067.444410106
100067.444409623
100067.4444091
100067.444408542
100067.444407954
100067.44440734
100067.444406705
100067.444406053
100067.444405388
100067.444404714
100067.444404035
100067.444403354
100067.444402674
100067.444401999
100067.444401331
100067.444400671
100067.444400024
100067.444399391
100067.444398773
100067.444398172
100067.44439759
100067.444397029
100067.444396489
100067.444395971
100067.444395476
100067.444395006
100067.44439456
100067.444394138
100067.444393741
100067.444393369
100067.444393021
100067.444392697
100067.444392396
100067.444392118
100067.444391862
100067.444391632
100067.444391433
100067.444391187
100067.444390989
100067.444390827
100067.444390109
100067.442139926
100067.442139766
100067.442139527
100067.44213931
100067.442139145
100067.442138894
100067.442138604
100067.442138267
100067.442137877
100067.442137438
100067.442136956
100067.442136434
100067.442135877
100067.44213529
100067.442134678
100067.442134044
100067.442133394
100067.44213273
100067.442132058
100067.442131381
100067.442130702
100067.442130024
100067.44212935
100067.442128684
100067.442128026
100067.44212738
100067.442126748
100067.442126132
100067.442125533
100067.442124953
100067.442124392
100067.442123854
100067.442123337
100067.442122844
100067.442122375
100067.44212193
100067.442121509
100067.442121113
100067.442120742
100067.442120395
100067.442120072
100067.442119772
100067.442119497
100067.442119245
100067.442119025
100067.442118854
100067.442118687
100067.442118673
100067.442118792
100067.442118863
100067.439863468
100067.439863123
100067.439862874
100067.439862587
100067.43986238
100067.439862108
100067.439861809
100067.439861466
100067.439861074
100067.439860635
100067.439860153
100067.439859632
100067.439859077
100067.439858491
100067.439857881
100067.439857249
100067.439856601
100067.43985594
100067.43985527
100067.439854596
100067.439853919
100067.439853243
100067.439852572
100067.439851907
100067.439851252
100067.439850609
100067.439849979
100067.439849365
100067.439848768
100067.43984819
100067.439847632
100067.439847095
100067.43984658
100067.439846089
100067.439845621
100067.439845178
100067.439844759
100067.439844365
100067.439843996
100067.43984365
100067.439843329
100067.439843032
100067.439842761
100067.439842515
100067.439842305
100067.439842155
100067.43984203
100067.43984209
100067.439842218
100067.439842499
100067.437584672
100067.437584358
100067.437584142
100067.437583842
100067.437583615
100067.437583331
100067.437583021
100067.437582674
100067.437582279
100067.437581839
100067.437581357
100067.437580838
100067.437580284
100067.437579701
100067.437579093
100067.437578464
100067.437577819
100067.437577161
100067.437576494
100067.437575822
100067.437575148
100067.437574476
100067.437573808
100067.437573146
100067.437572494
100067.437571854
100067.437571227
100067.437570615
100067.437570021
100067.437569446
100067.43756889
100067.437568356
100067.437567844
100067.437567355
100067.43756689
100067.437566449
100067.437566032
100067.437565641
100067.437565273
100067.437564931
100067.437564613
100067.437564319
100067.437564052
100067.437563813
100067.437563614
100067.437563476
100067.43756337
100067.437563444
100067.437563536
100067.437563798
100067.435305053
100067.435304812
100067.435304637
100067.435304351
100067.435304119
100067.435303828
100067.435303511
100067.435303158
100067.435302761
100067.435302321
100067.43530184
100067.435301321
100067.43530077
100067.435300189
100067.435299584
100067.435298958
100067.435298316
100067.435297662
100067.435296999
100067.435296331
100067.435295661
100067.435294992
100067.435294327
100067.435293669
100067.435293021
100067.435292384
100067.435291761
100067.435291153
100067.435290562
100067.43528999
100067.435289438
100067.435288907
100067.435288398
100067.435287912
100067.43528745
100067.435287012
100067.435286598
100067.435286209
100067.435285845
100067.435285505
100067.43528519
100067.435284901
100067.435284639
100067.435284407
100067.435284216
100067.435284086
100067.435283984
100067.435284044
100067.43528409
100067.435284279
100067.43302516
100067.433024984
100067.433024843
100067.433024581
100067.433024348
100067.433024055
100067.433023733
100067.433023376
100067.433022977
100067.433022536
100067.433022056
100067.43302154
100067.433020991
100067.433020413
100067.433019811
100067.433019189
100067.433018551
100067.433017901
100067.433017242
100067.433016578
100067.433015912
100067.433015248
100067.433014587
100067.433013934
100067.43301329
100067.433012657
100067.433012038
100067.433011434
100067.433010847
100067.433010279
100067.433009731
100067.433009203
100067.433008698
100067.433008216
100067.433007757
100067.433007322
100067.433006912
100067.433006527
100067.433006166
100067.43300583
100067.433005519
100067.433005234
100067.433004977
100067.433004751
100067.433004568
100067.433004439
100067.433004338
100067.433004373
100067.43300438
100067.433004501
100067.43074516
100067.43074503
100067.430744913
100067.430744673
100067.430744442
100067.43074415
100067.430743825
100067.430743467
100067.430743066
100067.430742626
100067.430742147
100067.430741632
100067.430741086
100067.430740512
100067.430739914
100067.430739296
100067.430738663
100067.430738017
100067.430737363
100067.430736703
100067.430736043
100067.430735383
100067.430734728
100067.430734079
100067.43073344
100067.430732812
100067.430732197
100067.430731598
100067.430731016
100067.430730452
100067.430729908
100067.430729385
100067.430728884
100067.430728405
100067.430727951
100067.43072752
100067.430727114
100067.430726732
100067.430726375
100067.430726043
100067.430725737
100067.430725457
100067.430725205
100067.430724984
100067.430724806
100067.430724677
100067.430724574
100067.430724584
100067.430724563
100067.430724634
100067.428465097
100067.428464999
100067.428464896
100067.428464678
100067.428464449
100067.42846416
100067.428463834
100067.428463474
100067.428463073
100067.428462634
100067.428462156
100067.428461645
100067.428461102
100067.428460531
100067.428459938
100067.428459325
100067.428458696
100067.428458055
100067.428457406
100067.428456752
100067.428456097
100067.428455443
100067.428454793
100067.42845415
100067.428453516
100067.428452893
100067.428452284
100067.428451689
100067.428451112
100067.428450553
100067.428450014
100067.428449496
100067.428448999
100067.428448526
100067.428448075
100067.428447649
100067.428447247
100067.42844687
100067.428446517
100067.42844619
100067.428445888
100067.428445613
100067.428445366
100067.42844515
100067.428444975
100067.428444844
100067.428444739
100067.428444727
100067.428444688
100067.428444723
100067.426184981
100067.426184904
100067.426184812
100067.42618461
100067.426184384
100067.426184099
100067.426183774
100067.426183413
100067.426183013
100067.426182575
100067.4261821
100067.426181591
100067.426181052
100067.426180486
100067.426179897
100067.426179289
100067.426178665
100067.42617803
100067.426177387
100067.426176739
100067.426176089
100067.426175441
100067.426174797
100067.42617416
100067.426173532
100067.426172915
100067.426172311
100067.426171723
100067.426171151
100067.426170597
100067.426170064
100067.42616955
100067.426169059
100067.42616859
100067.426168145
100067.426167723
100067.426167326
100067.426166953
100067.426166606
100067.426166283
100067.426165986
100067.426165715
100067.426165473
100067.426165262
100067.426165089
100067.426164956
100067.42616485
100067.426164819
100067.426164769
100067.42616478
100067.423904816
100067.423904752
100067.423904666
100067.423904478
100067.423904255
100067.423903974
100067.423903651
100067.423903291
100067.423902892
100067.423902455
100067.423901983
100067.423901478
100067.423900943
100067.423900381
100067.423899797
100067.423899195
100067.423898577
100067.423897948
100067.423897311
100067.423896669
100067.423896026
100067.423895384
100067.423894747
100067.423894116
100067.423893494
100067.423892883
100067.423892286
100067.423891703
100067.423891138
100067.42389059
100067.423890062
100067.423889554
100067.423889068
100067.423888605
100067.423888165
100067.423887748
100067.423887356
100067.423886989
100067.423886646
100067.423886328
100067.423886036
100067.42388577
100067.423885533
100067.423885325
100067.423885155
100067.42388502
100067.423884912
100067.423884866
100067.42388481
100067.423884805
100067.421624601
100067.421624547
100067.421624464
100067.421624287
100067.421624067
100067.42162379
100067.421623469
100067.421623111
100067.421622714
100067.421622279
100067.42162181
100067.421621309
100067.421620778
100067.421620222
100067.421619644
100067.421619047
100067.421618436
100067.421617813
100067.421617183
100067.421616548
100067.421615911
100067.421615276
100067.421614645
100067.421614021
100067.421613406
100067.421612802
100067.421612211
100067.421611635
100067.421611076
100067.421610535
100067.421610013
100067.421609511
100067.421609031
100067.421608573
100067.421608139
100067.421607728
100067.421607341
100067.421606979
100067.421606641
100067.421606329
100067.421606042
100067.421605781
100067.421605548
100067.421605344
100067.421605176
100067.421605039
100067.421604931
100067.421604874
100067.421604814
100067.421604799
100067.419344339
100067.419344292
100067.41934421
100067.419344042
100067.419343825
100067.419343552
100067.419343234
100067.419342878
100067.419342483
100067.419342052
100067.419341586
100067.419341089
100067.419340563
100067.419340013
100067.41933944
100067.41933885
100067.419338245
100067.419337629
100067.419337006
100067.419336378
100067.419335749
100067.419335121
100067.419334497
100067.41933388
100067.419333272
100067.419332676
100067.419332092
100067.419331523
100067.41933097
100067.419330435
100067.41932992
100067.419329425
100067.419328951
100067.419328499
100067.419328071
100067.419327666
100067.419327285
100067.419326928
100067.419326596
100067.419326289
100067.419326007
100067.419325751
100067.419325522
100067.419325322
100067.419325156
100067.419325019
100067.41932491
100067.419324845
100067.419324784
100067.419324762
100067.417064035
100067.417063991
100067.417063911
100067.417063749
100067.417063534
100067.417063265
100067.41706295
100067.417062596
100067.417062205
100067.417061777
100067.417061315
100067.417060823
100067.417060302
100067.417059757
100067.417059191
100067.417058608
100067.41705801
100067.417057401
100067.417056785
100067.417056165
100067.417055543
100067.417054923
100067.417054307
100067.417053698
100067.417053097
100067.417052508
100067.417051931
100067.417051369
100067.417050824
100067.417050296
100067.417049787
100067.417049299
100067.417048832
100067.417048387
100067.417047964
100067.417047565
100067.41704719
100067.417046839
100067.417046513
100067.417046212
100067.417045935
100067.417045684
100067.41704546
100067.417045264
100067.417045099
100067.417044962
100067.417044854
100067.417044784
100067.417044723
100067.417044698
100067.414783691
100067.41478365
100067.414783569
100067.414783413
100067.4147832
100067.414782934
100067.414782623
100067.414782272
100067.414781884
100067.41478146
100067.414781003
100067.414780515
100067.41478
100067.414779461
100067.414778902
100067.414778325
100067.414777735
100067.414777134
100067.414776525
100067.414775913
100067.414775299
100067.414774687
100067.414774079
100067.414773477
100067.414772885
100067.414772303
100067.414771734
100067.41477118
100067.414770642
100067.414770121
100067.41476962
100067.414769138
100067.414768678
100067.41476824
100067.414767824
100067.414767431
100067.414767062
100067.414766718
100067.414766397
100067.414766101
100067.41476583
100067.414765585
100067.414765365
100067.414765173
100067.41476501
100067.414764874
100067.414764767
100067.414764694
100067.414764634
100067.414764607
100067.412503311
100067.412503272
100067.412503191
100067.412503038
100067.412502828
100067.412502565
100067.412502257
100067.41250191
100067.412501525
100067.412501105
100067.412500652
100067.41250017
100067.412499661
100067.412499129
100067.412498576
100067.412498007
100067.412497424
100067.412496831
100067.412496231
100067.412495626
100067.412495021
100067.412494417
100067.412493817
100067.412493224
100067.412492639
100067.412492066
100067.412491505
100067.412490958
100067.412490428
100067.412489915
100067.412489421
100067.412488947
100067.412488494
100067.412488062
100067.412487653
100067.412487267
100067.412486905
100067.412486566
100067.412486252
100067.412485962
100067.412485697
100067.412485456
100067.412485241
100067.412485053
100067.412484893
100067.412484759
100067.412484653
100067.412484579
100067.412484521
100067.412484493
100067.4102229
100067.410222862
100067.410222781
100067.41022263
100067.410222423
100067.410222163
100067.410221858
100067.410221514
100067.410221133
100067.410220718
100067.41022027
100067.410219794
100067.410219291
100067.410218765
100067.41021822
100067.410217658
100067.410217083
100067.410216498
100067.410215906
100067.41021531
100067.410214713
100067.410214117
100067.410213526
100067.410212941
100067.410212365
100067.4102118
100067.410211247
100067.410210709
100067.410210187
100067.410209682
100067.410209196
100067.410208729
100067.410208283
100067.410207859
100067.410207457
100067.410207078
100067.410206722
100067.41020639
100067.410206082
100067.410205798
100067.410205538
100067.410205303
100067.410205093
100067.410204908
100067.410204751
100067.41020462
100067.410204515
100067.410204442
100067.410204386
100067.410204358
100067.407942463
100067.407942424
100067.407942342
100067.407942194
100067.407941988
100067.407941731
100067.40794143
100067.40794109
100067.407940713
100067.407940302
100067.40793986
100067.407939389
100067.407938893
100067.407938374
100067.407937836
100067.407937282
100067.407936715
100067.407936138
100067.407935555
100067.407934968
100067.407934379
100067.407933793
100067.40793321
100067.407932634
100067.407932067
100067.40793151
100067.407930966
100067.407930436
100067.407929922
100067.407929425
100067.407928947
100067.407928488
100067.40792805
100067.407927633
100067.407927238
100067.407926866
100067.407926517
100067.407926191
100067.40792589
100067.407925612
100067.407925358
100067.407925128
100067.407924923
100067.407924743
100067.407924589
100067.407924461
100067.407924358
100067.407924285
100067.407924233
100067.407924206
100067.405662002
100067.405661963
100067.405661881
100067.405661734
100067.40566153
100067.405661275
100067.405660977
100067.405660641
100067.405660268
100067.405659862
100067.405659426
100067.405658961
100067.405658472
100067.40565796
100067.40565743
100067.405656884
100067.405656325
100067.405655757
100067.405655182
100067.405654604
100067.405654025
100067.405653447
100067.405652873
100067.405652306
100067.405651748
100067.4056512
100067.405650664
100067.405650143
100067.405649637
100067.405649149
100067.405648679
100067.405648228
100067.405647797
100067.405647388
100067.405647
100067.405646636
100067.405646293
100067.405645975
100067.40564568
100067.405645408
100067.40564516
100067.405644936
100067.405644736
100067.40564456
100067.40564441
100067.405644285
100067.405644185
100067.405644114
100067.405644064
100067.405644039
100067.403381522
100067.403381483
100067.403381399
100067.403381254
100067.403381052
100067.4033808
100067.403380505
100067.403380173
100067.403379804
100067.403379403
100067.403378972
100067.403378514
100067.403378031
100067.403377527
100067.403377005
100067.403376467
100067.403375917
100067.403375357
100067.403374792
100067.403374222
100067.403373652
100067.403373083
100067.403372519
100067.403371961
100067.403371411
100067.403370873
100067.403370346
100067.403369833
100067.403369336
100067.403368856
100067.403368394
100067.403367952
100067.403367529
100067.403367127
100067.403366747
100067.40336639
100067.403366055
100067.403365743
100067.403365454
100067.403365189
100067.403364947
100067.403364729
100067.403364534
100067.403364363
100067.403364217
100067.403364095
100067.403363999
100067.40336393
100067.403363883
100067.403363859
100067.401101028
100067.401100987
100067.401100903
100067.401100758
100067.401100558
100067.401100308
100067.401100017
100067.401099688
100067.401099324
100067.401098929
100067.401098503
100067.401098052
100067.401097576
100067.40109708
100067.401096565
100067.401096036
100067.401095494
100067.401094944
100067.401094387
100067.401093826
100067.401093265
100067.401092706
100067.401092151
100067.401091602
100067.401091062
100067.401090532
100067.401090015
100067.401089511
100067.401089023
100067.401088551
100067.401088098
100067.401087663
100067.401087248
100067.401086855
100067.401086482
100067.401086132
100067.401085804
100067.401085499
100067.401085217
100067.401084959
100067.401084723
100067.401084511
100067.401084321
100067.401084155
100067.401084014
100067.401083895
100067.401083802
100067.401083736
100067.401083692
100067.40108367
100067.398820521
100067.39882048
100067.398820395
100067.398820251
100067.398820052
100067.398819805
100067.398819517
100067.398819192
100067.398818833
100067.398818442
100067.398818023
100067.398817578
100067.398817109
100067.39881662
100067.398816114
100067.398815593
100067.39881506
100067.398814519
100067.398813971
100067.39881342
100067.398812868
100067.398812318
100067.398811773
100067.398811233
100067.398810702
100067.398810182
100067.398809673
100067.398809179
100067.398808699
100067.398808236
100067.398807791
100067.398807365
100067.398806959
100067.398806573
100067.398806208
100067.398805865
100067.398805545
100067.398805247
100067.398804972
100067.398804719
100067.39880449
100067.398804283
100067.3988041
100067.398803939
100067.398803802
100067.398803687
100067.398803598
100067.398803534
100067.398803494
100067.398803474
100067.396540008
100067.396539965
100067.396539879
100067.396539735
100067.396539538
100067.396539293
100067.396539009
100067.396538688
100067.396538333
100067.396537948
100067.396537535
100067.396537096
100067.396536635
100067.396536154
100067.396535656
100067.396535143
100067.396534619
100067.396534087
100067.396533548
100067.396533007
100067.396532464
100067.396531924
100067.396531388
100067.396530858
100067.396530336
100067.396529825
100067.396529325
100067.39652884
100067.396528369
100067.396527915
100067.396527479
100067.396527061
100067.396526663
100067.396526285
100067.396525928
100067.396525592
100067.396525279
100067.396524988
100067.39652472
100067.396524474
100067.396524251
100067.396524051
100067.396523873
100067.396523717
100067.396523585
100067.396523474
100067.396523389
100067.396523329
100067.396523292
100067.396523274
100067.39425949
100067.394259446
100067.394259359
100067.394259216
100067.39425902
100067.394258778
100067.394258496
100067.394258179
100067.394257829
100067.394257449
100067.394257042
100067.394256611
100067.394256157
100067.394255683
100067.394255193
100067.394254689
100067.394254174
100067.394253651
100067.394253122
100067.394252589
100067.394252057
100067.394251526
100067.394250999
100067.394250478
100067.394249966
100067.394249464
100067.394248974
100067.394248497
100067.394248036
100067.39424759
100067.394247163
100067.394246753
100067.394246363
100067.394245993
100067.394245644
100067.394245316
100067.39424501
100067.394244727
100067.394244465
100067.394244226
100067.394244009
100067.394243815
100067.394243642
100067.394243492
100067.394243365
100067.394243259
100067.394243177
100067.39424312
100067.394243087
100067.394243071
100067.391978971
100067.391978927
100067.391978838
100067.391978696
100067.391978501
100067.391978261
100067.391977983
100067.39197767
100067.391977325
100067.391976951
100067.39197655
100067.391976125
100067.391975678
100067.391975212
100067.391974731
100067.391974235
100067.391973729
100067.391973215
100067.391972695
100067.391972172
100067.391971649
100067.391971127
100067.39197061
100067.391970099
100067.391969596
100067.391969103
100067.391968622
100067.391968155
100067.391967702
100067.391967266
100067.391966846
100067.391966445
100067.391966063
100067.391965701
100067.39196536
100067.39196504
100067.391964741
100067.391964465
100067.39196421
100067.391963977
100067.391963767
100067.391963579
100067.391963412
100067.391963267
100067.391963145
100067.391963043
100067.391962966
100067.391962912
100067.391962882
100067.391962869
100067.389698456
100067.38969841
100067.38969832
100067.389698179
100067.389697986
100067.389697748
100067.389697473
100067.389697164
100067.389696824
100067.389696455
100067.38969606
100067.389695642
100067.389695202
100067.389694745
100067.389694271
100067.389693784
100067.389693287
100067.389692782
100067.389692271
100067.389691757
100067.389691243
100067.389690731
100067.389690223
100067.389689722
100067.389689228
100067.389688745
100067.389688273
100067.389687815
100067.389687371
100067.389686943
100067.389686532
100067.38968614
100067.389685766
100067.389685412
100067.389685078
100067.389684766
100067.389684474
100067.389684205
100067.389683957
100067.389683731
100067.389683527
100067.389683345
100067.389683184
100067.389683045
100067.389682927
100067.38968283
100067.389682757
100067.389682707
100067.38968268
100067.389682669
100067.387417947
100067.3874179
100067.387417809
100067.387417668
100067.387417477
100067.387417242
100067.38741697
100067.387416665
100067.387416329
100067.387415966
100067.387415577
100067.387415165
100067.387414733
100067.387414283
100067.387413818
100067.38741334
100067.387412851
100067.387412355
100067.387411853
100067.387411349
100067.387410844
100067.387410342
100067.387409843
100067.387409351
100067.387408867
100067.387408392
100067.38740793
100067.38740748
100067.387407045
100067.387406626
100067.387406224
100067.38740584
100067.387405474
100067.387405128
100067.387404802
100067.387404497
100067.387404213
100067.38740395
100067.387403709
100067.387403489
100067.387403292
100067.387403115
100067.387402961
100067.387402827
100067.387402714
100067.387402622
100067.387402553
100067.387402507
100067.387402483
100067.387402474
100067.385137448
100067.3851374
100067.385137308
100067.385137168
100067.385136978
100067.385136745
100067.385136477
100067.385136176
100067.385135845
100067.385135487
100067.385135104
100067.385134699
100067.385134274
100067.385133832
100067.385133375
100067.385132905
100067.385132425
100067.385131938
100067.385131445
100067.38513095
100067.385130455
100067.385129961
100067.385129472
100067.385128989
100067.385128514
100067.385128049
100067.385127595
100067.385127154
100067.385126728
100067.385126318
100067.385125924
100067.385125548
100067.38512519
100067.385124852
100067.385124533
100067.385124236
100067.385123958
100067.385123703
100067.385123468
100067.385123255
100067.385123064
100067.385122893
100067.385122744
100067.385122616
100067.385122508
100067.385122421
100067.385122356
100067.385122313
100067.385122293
100067.385122286
100067.382856962
100067.382856914
100067.382856821
100067.382856681
100067.382856493
100067.382856263
100067.382855998
100067.3828557
100067.382855374
100067.382855021
100067.382854645
100067.382854247
100067.382853829
100067.382853394
100067.382852945
100067.382852483
100067.382852012
100067.382851533
100067.38285105
100067.382850564
100067.382850077
100067.382849593
100067.382849113
100067.382848639
100067.382848173
100067.382847717
100067.382847272
100067.38284684
100067.382846422
100067.38284602
100067.382845635
100067.382845267
100067.382844917
100067.382844586
100067.382844275
100067.382843985
100067.382843715
100067.382843466
100067.382843238
100067.382843031
100067.382842846
100067.382842682
100067.382842538
100067.382842415
100067.382842312
100067.38284223
100067.382842169
100067.382842129
100067.382842112
100067.382842107
100067.380576493
100067.380576444
100067.38057635
100067.380576212
100067.380576025
100067.380575797
100067.380575536
100067.380575242
100067.380574921
100067.380574573
100067.380574203
100067.380573811
100067.3805734
100067.380572973
100067.380572531
100067.380572078
100067.380571615
100067.380571145
100067.38057067
100067.380570193
100067.380569715
100067.38056924
100067.380568769
100067.380568304
100067.380567847
100067.380567399
100067.380566963
100067.38056654
100067.380566131
100067.380565737
100067.380565359
100067.380564999
100067.380564657
100067.380564334
100067.380564031
100067.380563747
100067.380563484
100067.380563241
100067.38056302
100067.38056282
100067.38056264
100067.380562482
100067.380562344
100067.380562227
100067.380562128
100067.38056205
100067.380561993
100067.380561957
100067.380561943
100067.380561939
100067.378296044
100067.378295994
100067.3782959
100067.378295762
100067.378295577
100067.378295352
100067.378295094
100067.378294805
100067.378294488
100067.378294145
100067.378293781
100067.378293395
100067.378292991
100067.378292571
100067.378292138
100067.378291692
100067.378291237
100067.378290776
100067.378290309
100067.378289841
100067.378289372
100067.378288906
100067.378288443
100067.378287987
100067.378287538
100067.378287099
100067.378286672
100067.378286257
100067.378285856
100067.37828547
100067.378285101
100067.378284748
100067.378284414
100067.378284098
100067.378283802
100067.378283525
100067.378283269
100067.378283033
100067.378282817
100067.378282623
100067.37828245
100067.378282297
100067.378282165
100067.378282052
100067.378281959
100067.378281885
100067.378281832
100067.378281798
100067.378281787
100067.378281785
100067.376015618
100067.376015567
100067.376015473
100067.376015337
100067.376015153
100067.37601493
100067.376014676
100067.376014391
100067.376014078
100067.376013741
100067.376013382
100067.376013003
100067.376012606
100067.376012193
100067.376011767
100067.376011329
100067.376010882
100067.376010429
100067.376009971
100067.376009511
100067.37600905
100067.376008592
100067.376008138
100067.37600769
100067.37600725
100067.37600682
100067.376006401
100067.376005994
100067.376005601
100067.376005223
100067.376004861
100067.376004516
100067.376004189
100067.376003881
100067.376003591
100067.376003321
100067.376003071
100067.376002841
100067.376002632
100067.376002444
100067.376002276
100067.376002129
100067.376002002
100067.376001894
100067.376001805
100067.376001735
100067.376001686
100067.376001655
100067.376001647
100067.376001646
100067.373735218
100067.373735168
100067.373735072
100067.373734938
100067.373734756
100067.373734536
100067.373734285
100067.373734004
100067.373733696
100067.373733364
100067.37373301
100067.373732637
100067.373732247
100067.373731841
100067.373731422
100067.373730991
100067.373730552
100067.373730107
100067.373729657
100067.373729205
100067.373728753
100067.373728303
100067.373727857
100067.373727418
100067.373726986
100067.373726563
100067.373726152
100067.373725753
100067.373725368
100067.373724998
100067.373724643
100067.373724306
100067.373723986
100067.373723684
100067.373723401
100067.373723138
100067.373722894
100067.373722671
100067.373722467
100067.373722285
100067.373722122
100067.373721981
100067.373721859
100067.373721756
100067.373721671
100067.373721605
100067.373721559
100067.373721531
100067.373721525
100067.373721525
100067.371454848
100067.371454797
100067.371454701
100067.371454569
100067.371454388
100067.371454171
100067.371453924
100067.371453647
100067.371453343
100067.371453016
100067.371452668
100067.371452301
100067.371451917
100067.371451517
100067.371451105
100067.371450682
100067.371450251
100067.371449813
100067.371449371
100067.371448927
100067.371448483
100067.371448041
100067.371447603
100067.371447171
100067.371446747
100067.371446333
100067.371445929
100067.371445538
100067.37144516
100067.371444797
100067.37144445
100067.371444119
100067.371443806
100067.371443511
100067.371443235
100067.371442978
100067.37144274