/*--------------------------------*- C++ -*----------------------------------*\
  =========                 |
  \\      /  F ield         | OpenFOAM: The Open Source CFD Toolbox
   \\    /   O peration     | Website:  https://openfoam.org
    \\  /    A nd           | Version:  10
     \\/     M anipulation  |
\*---------------------------------------------------------------------------*/
FoamFile
{
    format      ascii;
    class       volScalarField;
    location    "2.4";
    object      p_rgh;
}
// * * * * * * * * * * * * * * * * * * * * * * * * * * * * * * * * * * * * * //

dimensions      [1 -1 -2 0 0 0 0];

internalField   nonuniform List<scalar> 
2500
(
67.5620482596714
67.5620686085895
67.5620795314899
67.5620832357963
67.5620843306824
67.5620844886726
67.5620843280049
67.5620840310876
67.5620836525923
67.5620832166751
67.562082733828
67.5620822099881
67.5620816505398
67.5620810607506
67.5620804452192
67.5620798085583
67.5620791548426
67.5620784884668
67.5620778132288
67.5620771326794
67.5620764502964
67.5620757692232
67.562075092399
67.5620744223852
67.5620737618447
67.5620731131203
67.5620724780892
67.5620718587597
67.5620712568925
67.5620706738409
67.5620701110602
67.5620695698017
67.5620690509386
67.5620685554022
67.5620680838911
67.5620676368999
67.5620672146615
67.5620668172633
67.5620664443268
67.5620660955901
67.5620657700201
67.5620654653321
67.5620651755744
67.5620648793556
67.5620645227173
67.5620639322733
67.5620625032025
67.5620585772704
67.5620473604649
67.5620271334046
67.5628624064411
67.5629090629081
67.5629391179828
67.5629505551333
67.562954439185
67.5629555230989
67.5629556460335
67.5629554280458
67.5629550697195
67.5629546389682
67.5629541575036
67.5629536343622
67.562953075525
67.5629524862597
67.5629518712376
67.5629512350424
67.5629505819088
67.5629499160568
67.5629492413136
67.5629485613026
67.5629478794726
67.562947198996
67.5629465227539
67.5629458532785
67.5629451932327
67.5629445449886
67.5629439104378
67.5629432915739
67.5629426901432
67.5629421074846
67.5629415451258
67.562941004333
67.5629404857464
67.5629399903992
67.5629395191791
67.5629390724498
67.5629386504297
67.5629382531333
67.5629378802696
67.5629375312419
67.5629372040712
67.5629368928494
67.5629365781351
67.5629361918109
67.5629355328274
67.5629340010782
67.5629298101412
67.5629182064877
67.5628874475224
67.5628404888994
67.5634632353031
67.5635091922159
67.5635388622468
67.5635503750964
67.5635542727541
67.5635553554166
67.5635554782348
67.5635552600725
67.5635549015569
67.5635544710676
67.5635539901414
67.5635534677422
67.5635529096908
67.5635523212986
67.5635517072224
67.5635510719731
67.5635504198581
67.5635497549956
67.563549081271
67.5635484022787
67.5635477214673
67.5635470419511
67.563546366684
67.5635456982563
67.5635450391856
67.5635443918291
67.5635437582241
67.5635431402479
67.5635425396467
67.5635419578612
67.5635413963173
67.5635408562521
67.5635403384222
67.563539843788
67.5635393732373
67.5635389271192
67.5635385055939
67.5635381087923
67.5635377363506
67.5635373877449
67.5635370610544
67.5635367505893
67.5635364375485
67.5635360549786
67.5635354039696
67.5635338860011
67.5635296850232
67.5635179489764
67.56348744352
67.5634398573311
67.5638130765728
67.5638439089234
67.5638613919
67.5638680049451
67.5638700999989
67.5638705635793
67.5638704905869
67.5638702151919
67.563869841164
67.5638694069785
67.5638689256593
67.563868403915
67.5638678470277
67.5638672599889
67.5638666473969
67.5638660137192
67.5638653632632
67.5638647000742
67.5638640280522
67.5638633507479
67.5638626715809
67.5638619937381
67.5638613201008
67.5638606533321
67.5638599958766
67.5638593501208
67.5638587181165
67.5638581016683
67.5638575025223
67.5638569222065
67.5638563620887
67.5638558233331
67.563855306842
67.5638548135321
67.5638543441746
67.5638538991625
67.563853478714
67.5638530829165
67.5638527115952
67.5638523643138
67.5638520400098
67.5638517357293
67.56385144245
67.5638511255238
67.5638506845135
67.56384979836
67.5638473831932
67.5638404925849
67.563822353899
67.5637895725522
67.5639820967481
67.5639983510628
67.5640063297033
67.5640092064714
67.5640100186138
67.5640100607852
67.5640098548465
67.5640095394629
67.5640091540117
67.5640087169159
67.5640082353639
67.5640077145217
67.5640071590897
67.5640065737825
67.5640059631696
67.5640053316311
67.5640046834014
67.5640040225262
67.5640033528325
67.5640026779292
67.5640020011342
67.5640013256489
67.5640006543545
67.563999989914
67.5639993348159
67.5639986913448
67.563998061567
67.5639974473306
67.5639968503529
67.5639962721325
67.5639957140229
67.5639951772173
67.5639946626907
67.563994171287
67.5639937037195
67.563993260439
67.5639928417077
67.5639924475981
67.5639920780231
67.5639917327062
67.5639914111525
67.5639911122853
67.5639908331796
67.5639905600547
67.5639902574039
67.563989797025
67.5639886607532
67.5639855232585
67.5639771101414
67.5639593787782
67.5640527953656
67.5640599691978
67.564062988502
67.5640639366175
67.5640641072678
67.5640639424964
67.5640636687458
67.564063331316
67.5640629388945
67.5640624999069
67.5640620184859
67.5640614987788
67.564060945122
67.5640603620122
67.5640597538732
67.564059124983
67.564058479591
67.5640578216262
67.5640571549302
67.5640564830537
67.5640558093291
67.5640551368851
67.5640544686321
67.5640538072184
67.5640531551326
67.5640525146155
67.564051887719
67.5640512763493
67.5640506821655
67.5640501066664
67.5640495512198
67.5640490169899
67.5640485049807
67.5640480160364
67.5640475508699
67.5640471099177
67.5640466934856
67.5640463016753
67.5640459344868
67.5640455917601
67.5640452733496
67.5640449792263
67.5640447094192
67.5640444602177
67.564044226674
67.5640439727722
67.564043475184
67.5640422878496
67.5640389931068
67.5640309503506
67.5640790518228
67.5640817790118
67.5640827356692
67.5640828888718
67.5640827954921
67.5640825456358
67.5640822410496
67.564081892051
67.5640814954822
67.5640810553741
67.5640805743897
67.5640800561232
67.5640795046056
67.5640789240715
67.5640783188574
67.5640776931832
67.5640770511527
67.5640763967094
67.5640757336078
67.5640750653984
67.5640743953554
67.5640737266222
67.5640730620507
67.5640724043042
67.5640717558417
67.5640711189189
67.5640704955731
67.5640698876814
67.5640692968882
67.564068724736
67.5640681725199
67.5640676414769
67.5640671325527
67.5640666466497
67.5640661844227
67.5640657463664
67.5640653327864
67.5640649438865
67.564064579652
67.5640642400685
67.5640639252815
67.5640636357421
67.5640633728035
67.5640631369461
67.5640629350382
67.5640627647954
67.5640625280357
67.5640621451894
67.5640609972907
67.5640578272141
67.5640877041587
67.5640885903558
67.5640888126654
67.5640886914771
67.5640885034954
67.5640882235602
67.5640879054699
67.5640875502722
67.5640871512296
67.5640867106122
67.5640862304572
67.5640857139661
67.5640851649223
67.5640845874004
67.5640839855769
67.5640833635989
67.5640827254829
67.5640820751287
67.564081416218
67.5640807522432
67.5640800865076
67.5640794220672
67.5640787618031
67.5640781083348
67.5640774641215
67.5640768313897
67.5640762121766
67.5640756083303
67.5640750215098
67.5640744532429
67.564073904854
67.5640733775217
67.5640728722647
67.5640723899123
67.5640719311632
67.5640714965411
67.5640710863663
67.564070700857
67.5640703401004
67.5640700041986
67.5640696934424
67.564069408545
67.564069151369
67.5640689240827
67.564068736945
67.5640685960389
67.5640684515965
67.5640683449019
67.5640679663484
67.5640668617707
67.5640900427097
67.5640902630112
67.5640902548184
67.5640900579601
67.5640898403362
67.5640895523393
67.5640892286465
67.5640888700873
67.5640884697641
67.564088029234
67.5640875503159
67.564087035993
67.564086489816
67.5640859157284
67.5640853177611
67.5640846999595
67.5640840662672
67.5640834205115
67.5640827663156
67.5640821071574
67.5640814462822
67.5640807867312
67.5640801313421
67.5640794827341
67.5640788433229
67.5640782153496
67.5640776008077
67.5640770015889
67.5640764193085
67.5640758554655
67.5640753114276
67.5640747883444
67.5640742872347
67.5640738089423
67.5640733541804
67.5640729234728
67.5640725171834
67.5640721355594
67.5640717787464
67.5640714469337
67.564071140514
67.5640708603605
67.5640706084523
67.5640703874815
67.5640702079399
67.5640700751974
67.5640699593932
67.5640699271316
67.5640697903145
67.5640694493341
67.5640902748855
67.5640902842861
67.5640902133455
67.5640900065773
67.5640897817502
67.5640894939279
67.5640891684889
67.5640888083726
67.5640884077147
67.5640879678831
67.5640874906821
67.5640869789204
67.5640864360175
67.5640858657862
67.5640852721117
67.5640846589376
67.5640840301639
67.5640833895013
67.5640827405732
67.5640820867557
67.5640814312646
67.5640807771269
67.5640801271511
67.5640794839273
67.5640788498713
67.5640782271803
67.5640776178625
67.564077023766
67.5640764465206
67.5640758876398
67.5640753484477
67.5640748300939
67.5640743336262
67.564073859874
67.5640734095505
67.5640729832085
67.5640725812409
67.5640722039097
67.5640718514478
67.5640715240734
67.5640712222375
67.5640709468862
67.5640706998965
67.5640704840916
67.5640703089302
67.5640701768571
67.5640700683434
67.5640700441145
67.5640699722862
67.5640698786738
67.5640898264828
67.5640897804697
67.5640896964323
67.5640894980461
67.5640892731753
67.5640889884235
67.5640886633773
67.5640883029846
67.5640879028069
67.5640874642995
67.5640869892959
67.5640864805318
67.5640859413252
67.564085375343
67.5640847863979
67.564084178317
67.5640835549129
67.5640829198383
67.5640822766145
67.5640816286323
67.5640809790493
67.5640803308343
67.5640796867665
67.5640790494363
67.5640784212301
67.5640778043162
67.5640772007027
67.5640766122233
67.5640760405076
67.5640754870255
67.5640749531303
67.5640744399716
67.5640739485825
67.5640734797926
67.5640730343439
67.5640726127895
67.5640722155367
67.5640718429058
67.5640714951296
67.5640711724845
67.5640708754363
67.5640706049162
67.5640703626559
67.5640701512893
67.564069978951
67.5640698453644
67.5640697378112
67.5640697036288
67.5640696445917
67.5640696178598
67.564089145686
67.5640890911745
67.5640890066861
67.5640888197959
67.5640885969769
67.5640883161686
67.5640879927523
67.5640876331017
67.5640872341464
67.5640867975453
67.5640863252047
67.5640858198603
67.5640852847719
67.5640847234608
67.5640841396526
67.5640835371014
67.564082919489
67.5640822904388
67.5640816534142
67.5640810117184
67.5640803684946
67.5640797266533
67.5640790889738
67.5640784580173
67.5640778361121
67.5640772254555
67.5640766280121
67.5640760455863
67.5640754798515
67.5640749322338
67.5640744040866
67.5640738965449
67.5640734106419
67.5640729472361
67.5640725070552
67.5640720906522
67.5640716984926
67.5640713308821
67.5640709880827
67.5640706704144
67.5640703783138
67.564070112654
67.5640698749339
67.5640696675982
67.5640694973263
67.564069362008
67.5640692539164
67.5640692073794
67.5640691483422
67.5640691330191
67.564088365616
67.5640883142332
67.5640882314037
67.5640880548744
67.5640878346894
67.5640875578829
67.5640872369258
67.5640868788032
67.5640864817105
67.5640860475396
67.5640855783568
67.5640850768832
67.5640845462913
67.5640839900589
67.5640834117949
67.5640828151518
67.5640822037531
67.5640815811494
67.5640809507167
67.5640803157585
67.5640796793159
67.564079044314
67.5640784134594
67.5640777892841
67.5640771741164
67.5640765701246
67.5640759792732
67.564075403352
67.564074843991
67.5640743026452
67.5640737806389
67.5640732791071
67.5640727990831
67.5640723414399
67.5640719068761
67.5640714959882
67.5640711092274
67.5640707469429
67.5640704094112
67.5640700969234
67.564069809916
67.5640695491311
67.5640693159221
67.5640691123408
67.5640689438587
67.5640688073181
67.5640686987026
67.5640686417173
67.5640685810213
67.5640685630788
67.5640875257377
67.5640874789678
67.5640873975499
67.5640872293734
67.5640870119096
67.5640867389302
67.564086420869
67.5640860648855
67.564085670223
67.5640852390061
67.5640847734176
67.5640842762077
67.5640837505198
67.5640831997298
67.5640826273739
67.5640820370318
67.5640814322542
67.5640808164899
67.5640801930713
67.5640795652289
67.5640789359895
67.5640783082054
67.564077684583
67.5640770676109
67.5640764595883
67.5640758626832
67.5640752788167
67.5640747097787
67.5640741571697
67.5640736224741
67.5640731069725
67.564072611829
67.5640721380478
67.5640716864873
67.5640712578897
67.5640708528226
67.5640704717807
67.5640701150987
67.5640697830531
67.564069475935
67.5640691941371
67.5640689382999
67.5640687095438
67.564068509615
67.5640683429228
67.5640682059457
67.5640680971846
67.5640680325305
67.5640679710341
67.5640679486824
67.5640866390459
67.564086595914
67.5640865152236
67.5640863534936
67.5640861387074
67.5640858692932
67.564085554448
67.5640852010692
67.564084809288
67.5640843814617
67.5640839198895
67.5640834273363
67.5640829069162
67.5640823619324
67.5640817958629
67.564081212171
67.5640806143492
67.5640800057736
67.5640793897473
67.5640787693847
67.5640781477123
67.5640775275388
67.5640769115125
67.5640763021074
67.5640757016081
67.5640751121391
67.5640745356213
67.5640739738301
67.5640734283515
67.5640729006409
67.5640723919932
67.5640719035582
67.5640714363399
67.5640709911968
67.5640705688566
67.5640701699158
67.5640697948402
67.5640694440081
67.5640691176668
67.5640688161075
67.5640685396502
67.5640682888334
67.5640680645593
67.5640678683121
67.564067703599
67.564067566942
67.5640674585156
67.5640673887538
67.5640673276648
67.5640673020098
67.5640857120161
67.5640856712998
67.564085590886
67.5640854340309
67.5640852217912
67.5640849556949
67.5640846441675
67.5640842937719
67.5640839052794
67.564083481222
67.5640830240445
67.5640825365117
67.564082021694
67.5640814828657
67.5640809233882
67.5640803466958
67.5640797561646
67.5640791551268
67.5640785467986
67.5640779342793
67.5640773205087
67.5640767082805
67.5640761001996
67.5640754986962
67.5640749060549
67.5640743243566
67.5640737555223
67.564073201298
67.5640726632846
67.564072142879
67.5640716414055
67.5640711599699
67.5640706996055
67.5640702611563
67.5640698453644
67.564069452812
67.5640690839646
67.564068739186
67.5640684187529
67.5640681228979
67.5640678519121
67.564067606203
67.5640673864982
67.56406719402
67.5640670315624
67.5640668959677
67.5640667884145
67.5640667157131
67.5640666558902
67.5640666284744
67.5640847492614
67.564084709913
67.564084629339
67.564084476151
67.5640842663124
67.5640840033011
67.5640836951789
67.5640833480284
67.5640829631448
67.5640825432056
67.5640820907574
67.5640816085652
67.5640810996701
67.5640805673029
67.5640800147376
67.5640794453357
67.5640788624005
67.5640782692062
67.5640776688815
67.5640770645114
67.564076458948
67.5640758549562
67.5640752551262
67.5640746618446
67.5640740773524
67.564073503745
67.5640729428997
67.5640723965334
67.5640718662617
67.5640713534667
67.5640708594437
67.5640703853132
67.5640699320793
67.5640695005859
67.5640690915898
67.5640687056439
67.5640683432284
67.5640680047218
67.5640676903713
67.5640674003953
67.5640671349975
67.564066894498
67.5640666794789
67.5640664909297
67.5640663310623
67.5640661971702
67.5640660909557
67.5640660170029
67.5640659591445
67.5640659311612
67.5640837552201
67.5640837164829
67.564083635516
67.5640834850929
67.5640832774807
67.5640830173797
67.5640827126481
67.564082368961
67.5640819879482
67.5640815724182
67.5640811249759
67.5640806484298
67.5640801457484
67.5640796201187
67.564079074742
67.5640785129071
67.5640779378446
67.5640773527557
67.5640767607256
67.5640761647664
67.5640755676868
67.564074972237
67.5640743809199
67.5640737961367
67.5640732200845
67.5640726548299
67.564072102221
67.5640715640184
67.5640710417356
67.5640705367987
67.5640700504737
67.5640695838956
67.5640691380249
67.5640687137347
67.5640683117381
67.564067932617
67.5640675768518
67.5640672447771
67.5640669366694
67.5640666526888
67.5640663930099
67.5640661578655
67.5640659476776
67.5640657632175
67.5640656063188
67.5640654746676
67.5640653702867
67.564065296363
67.5640652408765
67.5640652132715
67.5640827339957
67.5640826952877
67.5640826136951
67.5640824653383
67.5640822597925
67.5640820024564
67.5640817011299
67.564081361008
67.5640809840843
67.5640805732255
67.5640801310656
67.5640796603984
67.5640791641927
67.5640786455479
67.5640781076072
67.5640775535721
67.5640769866295
67.5640764098789
67.5640758263908
67.5640752390755
67.5640746507415
67.564074064052
67.5640734814951
67.564072905443
67.5640723380784
67.5640717814094
67.5640712372988
67.564070707449
67.5640701934026
67.5640696965565
67.5640692181769
67.5640687593404
67.5640683210513
67.5640679041535
67.56406750936
67.564067137253
67.5640667882835
67.5640664628299
67.564066161096
67.5640658832563
67.5640656294272
67.5640653997543
67.5640651945287
67.5640650144051
67.5640648608241
67.5640647318796
67.5640646297543
67.5640645568492
67.5640645040694
67.5640644774103
67.5640816897649
67.5640816507221
67.5640815683728
67.5640814215876
67.5640812179336
67.5640809632459
67.5640806652955
67.5640803288843
67.5640799562098
67.5640795502113
67.5640791135374
67.5640786489967
67.5640781594848
67.5640776480286
67.5640771177423
67.5640765717253
67.5640760131064
67.5640754449269
67.5640748701699
67.5640742917167
67.5640737123176
67.564073134592
67.5640725610137
67.5640719939111
67.5640714354086
67.5640708875435
67.5640703521203
67.5640698308562
67.5640693252499
67.5640688366839
67.5640683664242
67.5640679155185
67.5640674850001
67.5640670756693
67.5640666882391
67.5640663232916
67.564065981278
67.5640656625474
67.5640653673327
67.5640650957357
67.5640648478729
67.5640646238026
67.5640644237283
67.5640642481594
67.5640640982165
67.5640639724297
67.5640638729528
67.5640638017649
67.56406375191
67.5640637266624
67.5640806264128
67.5640805867006
67.5640805034636
67.5640803578717
67.564080155993
67.5640799038665
67.5640796092339
67.5640792766062
67.5640789083118
67.5640785073483
67.5640780763642
67.5640776181244
67.5640771354956
67.5640766314318
67.5640761089599
67.5640755711502
67.5640750210296
67.5640744615812
67.5640738957154
67.564073326299
67.5640727560094
67.564072187437
67.5640716229973
67.5640710650041
67.5640705155674
67.5640699766664
67.5640694501199
67.5640689375869
67.5640684405807
67.5640679604548
67.5640674984752
67.5640670556895
67.5640666330728
67.5640662314545
67.5640658515331
67.5640654938761
67.5640651589492
67.5640648470726
67.5640645584645
67.5640642932267
67.5640640514321
67.5640638330951
67.5640636383177
67.5640634675074
67.5640633215371
67.5640631992137
67.5640631027491
67.5640630338312
67.5640629870613
67.5640629634727
67.5640795478685
67.5640795073268
67.5640794231294
67.5640792784543
67.5640790782199
67.5640788285818
67.5640785372671
67.5640782084665
67.5640778446832
67.5640774488857
67.5640770237369
67.5640765719436
67.5640760963433
67.5640755998174
67.5640750853199
67.564074555863
67.5640740143717
67.5640734638
67.5640729070001
67.5640723467659
67.5640717857168
67.5640712264285
67.5640706712875
67.5640701225348
67.5640695822804
67.5640690524888
67.5640685349354
67.564068031279
67.5640675430186
67.5640670714783
67.5640666178952
67.5640661833459
67.5640657687618
67.5640653749724
67.5640650026617
67.5640646524116
67.5640643246443
67.5640640197089
67.5640637377946
67.5640634790179
67.5640632433642
67.5640630308772
67.5640628415422
67.5640626756795
67.5640625339438
67.5640624154184
67.5640623222716
67.5640622560313
67.5640622124483
67.5640621907078
67.5640784578427
67.564078416297
67.5640783310373
67.5640781871043
67.564077988427
67.5640777412191
67.5640774532221
67.5640771282779
67.5640767690638
67.5640763785341
67.5640759593371
67.5640755141212
67.5640750456514
67.5640745567944
67.5640740504023
67.5640735293709
67.5640729966399
67.5640724550467
67.5640719074145
67.5640713564353
67.5640708047576
67.5640702548408
67.5640697090857
67.5640691696899
67.5640686387196
67.5640681181394
67.5640676096809
67.5640671150031
67.5640666355757
67.564066172723
67.5640657276381
67.5640653013979
67.5640648949484
67.5640645090607
67.5640641444625
67.5640638016775
67.5640634811571
67.5640631832212
67.5640629080735
67.5640626558161
67.5640624264197
67.5640622198698
67.5640620361228
67.5640618753823
67.5640617381141
67.5640616236342
67.5640615340672
67.56406147081
67.5640614305157
67.5640614107397
67.5640773600753
67.5640773174673
67.5640772311162
67.564077087809
67.5640768906014
67.5640766458091
67.5640763610718
67.564076040042
67.5640756854555
67.5640753002808
67.5640748871083
67.5640744485718
67.5640739873634
67.5640735062334
67.5640730080049
67.5640724955301
67.564071971603
67.5640714390756
67.5640709006548
67.5640703590179
67.5640698167408
67.5640692762972
67.5640687399864
67.5640682099911
67.5640676883922
67.5640671770816
67.5640666778054
67.5640661921643
67.5640657216281
67.5640652675211
67.5640648310218
67.5640644131636
67.5640640148922
67.564063636979
67.5640632801224
67.5640629448608
67.5640626316308
67.5640623407526
67.5640620724153
67.5640618267062
67.5640616036253
67.5640614030854
67.5640612250136
67.5640610695555
67.5640609369584
67.5640608267422
67.5640607409732
67.564060680932
67.5640606439556
67.5640606262459
67.5640762580733
67.5640762143448
67.5640761268587
67.564075984119
67.5640757883521
67.5640755459317
67.5640752644686
67.5640749473532
67.5640745974524
67.5640742176765
67.5640738106013
67.5640733787877
67.5640729248698
67.5640724515397
67.564071961533
67.5640714576148
67.5640709425643
67.5640704191173
67.5640698899515
67.5640693577006
67.5640688248823
67.564068293912
67.5640677670744
67.5640672465379
67.564066734325
67.5640662323131
67.5640657422482
67.5640652656875
67.5640648040862
67.5640643587394
67.5640639308403
67.5640635213931
67.564063131329
67.5640627614193
67.5640624123334
67.5640620846098
67.5640617786848
67.5640614948788
67.5640612333664
67.5640609942639
67.5640607775131
67.5640605830413
67.5640604107466
67.5640602606727
67.5640601328923
67.5640600271145
67.5640599453181
67.5640598886239
67.5640598550235
67.5640598393948
67.5640751555184
67.5640751106694
67.5640750220919
67.564074879876
67.5640746855206
67.5640744454868
67.5640741673124
67.564073854126
67.5640735089255
67.564073134592
67.5640727336286
67.5640723085817
67.5640718619834
67.5640713964531
67.5640709146828
67.5640704193502
67.5640699131618
67.5640693987953
67.5640688788844
67.564068356005
67.5640678326308
67.5640673111484
67.5640667937841
67.5640662827063
67.5640657798795
67.5640652871807
67.5640648062981
67.5640643388178
67.5640638861369
67.5640634495794
67.564063030266
67.5640626292443
67.5640622473729
67.5640618854522
67.5640615441371
67.5640612239513
67.564060925346
67.5640606485977
67.56406039391
67.564060161385
67.5640599509934
67.5640597626334
67.5640595961449
67.564059451528
67.5640593286807
67.5640592274576
67.5640591497649
67.564059096534
67.5640590663097
67.564059052791
67.5640740557865
67.5640740098461
67.5640739201626
67.5640737784997
67.5640735855704
67.5640733479231
67.5640730730374
67.5640727638092
67.5640724233235
67.5640720544179
67.5640716595808
67.564071241286
67.5640708019928
67.5640703442768
67.5640698707139
67.5640693839377
67.5640688865969
67.5640683812817
67.5640678705968
67.5640673570597
67.5640668431006
67.5640663310478
67.5640658231423
67.564065321465
67.5640648279805
67.5640643445513
67.5640638728364
67.5640634143783
67.5640629706177
67.5640625427914
67.5640621320345
67.5640617393801
67.5640613657015
67.5640610117407
67.5640606781526
67.5640603654756
67.5640600741172
67.564059804412
67.5640595565201
67.5640593305725
67.564059126511
67.5640589442482
67.5640587836097
67.5640586444933
67.5640585266228
67.5640584300418
67.5640583565255
67.564058306787
67.5640582799533
67.564058268501
67.5640729624574
67.5640729154984
67.5640728247963
67.56407268373
67.5640724922414
67.5640722569806
67.5640719854127
67.5640716801572
67.5640713443863
67.5640709809377
67.5640705922124
67.5640701806551
67.5640697486378
67.5640692986781
67.5640688332787
67.5640683550009
67.5640678664204
67.5640673701128
67.564066868581
67.5640663643135
67.5640658596822
67.5640653570008
67.5640648584522
67.5640643661172
67.5640638819168
67.5640634076699
67.56406294505
67.5640624955704
67.5640620606282
67.5640616414748
67.5640612392308
67.5640608548856
67.5640604892978
67.5640601432387
67.5640598173195
67.5640595120785
67.5640592279378
67.564058965203
67.5640587240632
67.5640585046203
67.5640583068598
67.5640581306798
67.5640579758474
67.5640578422463
67.5640577293816
67.5640576374572
67.5640575681464
67.5640575219149
67.5640574983991
67.5640574889985
67.5640718788927
67.5640718309733
67.5640717392816
67.5640715988848
67.564071408895
67.5640711760643
67.5640709078434
67.5640706065606
67.5640702755045
67.5640699174692
67.5640695348266
67.5640691299341
67.5640687051491
67.5640682628582
67.5640678055206
67.5640673356684
67.5640668557753
67.5640663683444
67.5640658758639
67.5640653807495
67.5640648853441
67.5640643919323
67.5640639026387
67.5640634195297
67.564062944497
67.5640624793596
67.5640620257182
67.5640615851007
67.5640611588897
67.5640607483074
67.5640603544598
67.5640599783364
67.5640596207668
67.564059282493
67.5640589641553
67.5640586662776
67.5640583892528
67.564058133401
67.564057898926
67.5640576859441
67.5640574944409
67.5640573242708
67.5640571752156
67.5640570470714
67.5640569391689
67.5640568519157
67.5640567867958
67.5640567439841
67.5640567237569
67.5640567163064
67.5640708085266
67.5640707597777
67.5640706671984
67.5640705276164
67.5640703391546
67.5640701087978
67.5640698439529
67.5640695466427
67.5640692203015
67.5640688676212
67.5640684910031
67.5640680927172
67.5640676750481
67.5640672403533
67.5640667910047
67.5640663294325
67.564065858096
67.5640653794253
67.5640648958506
67.564064409773
67.5640639234625
67.5640634391602
67.5640629589907
67.5640624849621
67.5640620189806
67.5640615627781
67.5640611179842
67.5640606861125
67.5640602684871
67.5640598663449
67.5640594807628
67.5640591127158
67.5640587630332
67.5640584324574
67.5640581215703
67.5640578309103
67.5640575608995
67.5640573118289
67.5640570839314
67.5640568772942
67.5640566919319
67.564056527699
67.5640563843335
67.5640562615736
67.5640561585606
67.5640560758911
67.5640560149041
67.5640559754247
67.5640559583699
67.5640559527819
67.5640697546187
67.5640697051567
67.564069611748
67.5640694731119
67.5640692862362
67.5640690583969
67.5640687969862
67.5640685036778
67.5640681819932
67.564067834639
67.5640674639581
67.5640670721768
67.5640666615218
67.5640662342776
67.5640657927579
67.5640653393348
67.5640648763801
67.5640644063096
67.5640639314952
67.5640634542506
67.5640629768604
67.5640625015076
67.5640620302875
67.5640615651791
67.5640611080453
67.5640606606321
67.5640602245257
67.5640598012251
67.5640593920398
67.5640589981776
67.5640586207155
67.5640582605993
67.5640579186438
67.5640575955767
67.5640572920092
67.5640570084361
67.5640567452938
67.5640565028734
67.5640562813933
67.5640560809989
67.564055901661
67.5640557432343
67.5640556054423
67.5640554879647
67.5640553896956
67.5640553115372
67.564055254581
67.5640552182449
67.5640552042896
67.5640552004188
67.5640687205305
67.5640686705447
67.5640685764229
67.5640684389218
67.5640682536614
67.5640680283977
67.5640677704941
67.5640674811584
67.5640671641013
67.5640668220003
67.5640664571547
67.5640660717618
67.5640656679752
67.5640652480361
67.5640648141707
67.564064368722
67.5640639139892
67.5640634523297
67.5640629860573
67.564062517471
67.5640620487975
67.5640615821903
67.5640611197014
67.5640606633096
67.5640602148342
67.5640597759921
67.564059348384
67.5640589334362
67.5640585324873
67.564058146716
67.5640577771701
67.5640574247955
67.5640570903925
67.5640567746741
67.564056478237
67.5640562015906
67.5640559451422
67.5640557091974
67.5640554940037
67.5640552996774
67.5640551262331
67.5640549734962
67.564054841132
67.5640547287767
67.5640546350769
67.5640545612696
67.5640545082279
67.5640544748167
67.5640544638009
67.5640544615017
67.5640677094343
67.5640676590992
67.5640675643081
67.5640674281312
67.5640672445152
67.5640670219
67.564066767547
67.5640664821985
67.5640661697253
67.5640658327902
67.5640654736635
67.5640650945134
67.5640646974352
67.564064284612
67.5640638582263
67.5640634205338
67.56406297379
67.5640625203087
67.5640620623744
67.5640616022138
67.5640611420095
67.5640606839152
67.5640602299536
67.5640597820311
67.5640593419812
67.5640589114919
67.5640584921348
67.564058085336
67.5640576923906
67.5640573144774
67.5640569526295
67.5640566077782
67.5640562807093
67.564055972136
67.5640556826256
67.5640554126876
67.5640551627439
67.5640549331147
67.5640547240182
67.5640545356
67.5640543678455
67.5640542206238
67.5640540935274
67.5640539861197
67.5640538967709
67.5640538271109
67.5640537778527
67.5640537470754
67.5640537388972
67.5640537379368
67.5640667245898
67.5640666741529
67.5640665787651
67.5640664441598
67.5640662621445
67.564066042265
67.5640657915355
67.5640655101597
67.5640652021975
67.5640648703265
67.5640645168023
67.5640641437203
67.564063753176
67.5640633472649
67.5640629281406
67.5640624979715
67.5640620589984
67.5640616134624
67.5640611635754
67.5640607115783
67.5640602596104
67.5640598097671
67.5640593640419
67.5640589243412
67.5640584924549
67.5640580700419
67.5640576586593
67.5640572597476
67.5640568745584
67.5640565042559
67.5640561498731
67.5640558122977
67.5640554923302
67.5640551906399
67.564054907838
67.5640546444047
67.5640544007474
67.5640541772009
67.5640539739979
67.5640537912841
67.5640536290448
67.5640534871345
67.5640533651022
67.5640532624238
67.5640531771642
67.5640531114041
67.5640530657984
67.5640530373348
67.5640530318342
67.5640530320088
67.5640657690819
67.5640657187469
67.5640656227915
67.5640654899908
67.5640653095033
67.5640650924761
67.5640648454282
67.564064567996
67.5640642644867
67.5640639375488
67.5640635894524
67.5640632222785
67.5640628380643
67.564062438847
67.5640620267222
67.564061603829
67.5640611723502
67.5640607344685
67.5640602923813
67.5640598482714
67.5640594042343
67.5640589623508
67.564058524571
67.5640580927866
67.5640576687729
67.5640572541743
67.5640568505041
67.5640564591886
67.5640560814791
67.5640557184961
67.5640553712874
67.5640550407115
67.5640547275689
67.5640544325433
67.5640541561734
67.5640538989828