/*--------------------------------*- C++ -*----------------------------------*\
  =========                 |
  \\      /  F ield         | OpenFOAM: The Open Source CFD Toolbox
   \\    /   O peration     | Website:  https://openfoam.org
    \\  /    A nd           | Version:  10
     \\/     M anipulation  |
\*---------------------------------------------------------------------------*/
FoamFile
{
    format      ascii;
    class       surfaceScalarField;
    location    "2.4";
    object      phi;
}
// * * * * * * * * * * * * * * * * * * * * * * * * * * * * * * * * * * * * * //

dimensions      [1 0 -1 0 0 0 0];

internalField   nonuniform List<scalar> 
4900
(
-6.15737985738808e-12
6.38107031303383e-12
-7.06736528663054e-12
1.24965066031643e-12
-4.95407514329e-12
-1.75234473595849e-12
-3.31949832749442e-12
-1.28027311772726e-12
-2.2142074033208e-12
-7.57875699230299e-13
-1.53022456411068e-12
-3.39431014865583e-13
-1.08392326431606e-12
-1.02328778216876e-13
-7.66971793850975e-13
2.69847894566427e-14
-5.25198180485492e-13
1.0177344607316e-13
-3.30762748376983e-13
1.48123221068338e-13
-1.69640843772631e-13
1.7988345793733e-13
-3.39429780479171e-14
2.03366489538102e-13
8.13308138318743e-14
2.2161031278859e-13
1.79657739812599e-13
2.36286481146592e-13
2.63593873317293e-13
2.48389065733348e-13
3.35200696983839e-13
2.58486391072045e-13
3.96134361557183e-13
2.66999304518861e-13
4.47799201771544e-13
2.74213391346604e-13
4.91402530144435e-13
2.80317233781165e-13
5.28008069837804e-13
2.85473138059879e-13
5.58571581745556e-13
2.8977238475862e-13
5.83972473669901e-13
2.93304198252653e-13
6.05000421983477e-13
2.96138934778582e-13
6.22430546129174e-13
2.98300837434307e-13
6.3697938130992e-13
2.99828995949102e-13
6.49365792188739e-13
3.00728488003418e-13
6.6028540241206e-13
3.01003832938234e-13
6.7046130894792e-13
3.00635184793105e-13
6.80602918663227e-13
2.99619788676087e-13
6.91458571422352e-13
2.9792821869237e-13
7.03841195771586e-13
2.95484432859471e-13
7.18652399216356e-13
2.92212651330923e-13
7.36874854027472e-13
2.88026122933661e-13
7.59657083006879e-13
2.82774001202963e-13
7.88371949158698e-13
2.76227873198581e-13
8.24662482759214e-13
2.68125718821464e-13
8.70566551522768e-13
2.58053265347948e-13
9.28691594222526e-13
2.45415458921686e-13
1.00251495232514e-12
2.29269608838658e-13
1.09710876820779e-12
2.07908841025599e-13
1.22055812004793e-12
1.78141223828481e-13
1.38722665421808e-12
1.33474271266236e-13
1.62564798892054e-12
5.95721595233671e-14
1.99161379300212e-12
-7.07204272064051e-14
2.5941067273642e-12
-3.09865027375636e-13
3.62024308501867e-12
-7.34411911199829e-13
5.18198974281065e-12
-1.26742639055838e-12
7.27913030504531e-12
-1.79617516249028e-12
6.32247683919291e-12
1.25501195272068e-12
6.52744405270828e-12
-6.49374423528266e-12
1.318203582477e-11
-1.06802377909091e-11
5.86752082030531e-12
-8.650977264081e-12
-3.33847475091321e-12
-6.34540566471922e-12
-3.15564128466136e-12
-4.7045294920249e-12
-1.97878576320883e-12
-3.58502923428157e-12
-1.04333900131736e-12
-2.78945499120363e-12
-4.83503845153484e-13
-2.18893912796989e-12
-1.59475449050676e-13
-1.71235803138836e-12
3.8575469999777e-14
-1.32197935009989e-12
1.69789198049333e-13
-9.95746231988622e-13
2.63719000605124e-13
-7.1959433791765e-13
3.34868173383085e-13
-4.83796321568313e-13
3.9078488946956e-13
-2.81242877073827e-13
4.35927801968854e-13
-1.06560174455887e-13
4.7311210098964e-13
4.45490345253904e-14
5.04065823752323e-13
1.75562770336103e-13
5.30048653056534e-13
2.89396198565015e-13
5.51946103898008e-13
3.88523136639313e-13
5.70380460229403e-13
4.75126660499668e-13
5.85823518200033e-13
5.51142571560267e-13
5.98597036158663e-13
6.18336177241717e-13
6.08972023060671e-13
6.7831423211433e-13
6.17157643776964e-13
7.32599257087928e-13
6.23270897441987e-13
7.82647903523008e-13
6.27394705048387e-13
8.29898609251559e-13
6.29559824776192e-13
8.75764031843617e-13
6.29775876262778e-13
9.21682492219297e-13
6.28003850208125e-13
9.69123611500919e-13
6.24193614323289e-13
1.01964085956602e-12
6.18240374102318e-13
1.07492619708283e-12
6.09919151450537e-13
1.13684832433682e-12
5.98991698277512e-13
1.20748460228081e-12
5.85157672617996e-13
1.28925015190571e-12
5.67945094576084e-13
1.38501690470369e-12
5.46664540783543e-13
1.4982477457241e-12
5.20469338991017e-13
1.63321153457414e-12
4.88112956656931e-13
1.79531004949485e-12
4.47827506970262e-13
1.99162515087702e-12
3.96890971300001e-13
2.23193976375293e-12
3.30743248772252e-13
2.5305046657927e-12
2.4149133240331e-13
2.90989089896137e-12
1.14064178301657e-13
3.40918129882565e-12
-8.2531090848738e-14
4.10236691804527e-12
-4.10054096642193e-13
5.12146465894452e-12
-9.77719007912565e-13
6.66725895120607e-12
-1.92834103542029e-12
8.90402144404347e-12
-3.14598842908688e-12
1.09880069998033e-11
-3.51195892379063e-12
6.74152159949811e-12
5.85853666701131e-12
1.34984238034464e-11
-4.80080646647893e-12
1.83000274860754e-11
-8.32828091392358e-12
9.81911842758392e-12
-7.84753183230462e-12
-3.40342438924816e-12
-6.57970061509057e-12
-4.02799247322513e-12
-5.36162655400366e-12
-2.8145070704788e-12
-4.34880298961485e-12
-1.67951670814404e-12
-3.54145029395285e-12
-9.16040893843069e-13
-2.89447597929215e-12
-4.32269450869479e-13
-2.36542654809075e-12
-1.17067921379464e-13
-1.92609738596532e-12
1.02540274521985e-13
-1.55650620732919e-12
2.64318620584273e-13
-1.24236951500944e-12
3.88638907629395e-13
-9.73180150758049e-13
4.86979461311297e-13
-7.4098387470735e-13
5.66504968004418e-13
-5.39617109282635e-13
6.31900535495649e-13
-3.64155752624631e-13
6.86209685463534e-13
-2.10587372494132e-13
7.31622776252265e-13
-7.55413630236056e-14
7.69701401167129e-13
4.38367370192613e-14
8.01575977493519e-13
1.50057684203927e-13
8.280809919579e-13
2.45333274273117e-13
8.4982006358111e-13
3.31677225045074e-13
8.67273794995107e-13
4.10929199533819e-13
8.80805435249895e-13
4.84830141886332e-13
8.90639299416218e-13
5.5503510535129e-13
8.9692383934268e-13
6.23180453575022e-13
8.99714416302833e-13
6.90871132856261e-13
8.99033432172837e-13
7.59738091904968e-13
8.94822265437956e-13
8.31462689195092e-13
8.8696429056318e-13
9.07853889638194e-13
8.75236184039431e-13
9.90847366022274e-13
8.59277183101805e-13
1.08259368615229e-12
8.38646526024392e-13
1.18550967154247e-12
8.12774190745814e-13
1.30239859302753e-12
7.80817684573611e-13
1.43654566429276e-12
7.41601024648097e-13
1.59193365962687e-12
6.93584854031025e-13
1.77344469268038e-12
6.34597354625576e-13
1.98718444428666e-12
5.61605563956709e-13
2.24102289390245e-12
4.70024509290515e-13
2.54544661269672e-12
3.52526695178951e-13
2.91470111366541e-12
1.97235038355586e-13
3.36887311083585e-12
-1.70005787673569e-14
3.93671183043566e-12
-3.29924556103362e-13
4.66201039202865e-12
-8.1789069724968e-13
5.59283179506841e-12
-1.59277625816368e-12
6.73463451980775e-12
-2.75162458931012e-12
7.96454016043986e-12
-4.0467523837178e-12
8.52488127761736e-12
-3.72788974991937e-12
4.94984362980671e-12
9.77219876614135e-12
1.86615203525408e-11
-5.820629034997e-12
2.44294162046569e-11
-6.48350206311681e-12
1.08826960540549e-11
-6.53615749587681e-12
-2.97240365225788e-12
-5.99239468360399e-12
-4.21816622247896e-12
-5.16463344326464e-12
-3.30332438065979e-12
-4.33857837274359e-12
-2.1729978046633e-12
-3.62240851627672e-12
-1.30181264469286e-12
-3.02525091356216e-12
-6.99823828144242e-13
-2.52768699890305e-12
-2.85829305805567e-13
-2.11050274650385e-12
1.28994404634737e-14
-1.75760697149532e-12
2.37207595969505e-13
-1.45655357991787e-12
4.11254641564555e-13
-1.1978162261289e-12
5.4957539856905e-13
-9.73994764307853e-13
6.61599964856373e-13
-7.79239593285862e-13
7.53636672001144e-13
-6.08834761039122e-13
8.29933395988955e-13
-4.58906653216662e-13
8.93540479276032e-13
-3.2618323608452e-13
9.46653542037892e-13
-2.07881460854636e-13
9.90885614158678e-13
-1.01558002968288e-13
1.02742733338278e-12
-5.06534920011316e-15
1.05716287195192e-12
8.35558550060602e-14
1.08077135225468e-12
1.66097303258452e-13
1.09876613319474e-12
2.44249934986132e-13
1.11147895444628e-12
3.19614037983964e-13
1.11912977636143e-12
3.93768943762864e-13
1.12180193371692e-12
4.68259335354929e-13
1.11953352476772e-12
5.44667102978772e-13
1.11223508508983e-12
6.24627002221146e-13
1.09972304677495e-12
7.09888278813812e-13
1.08166778664072e-12
8.02323490792757e-13
1.05757605094398e-12
9.04019195227821e-13
1.02680611177498e-12
1.01732109708401e-12
9.88525175514655e-13
1.14494643628326e-12
9.41534310742668e-13
1.29005934312354e-12
8.84206318396461e-13
1.45646406189858e-12
8.14366388443778e-13
1.64880031091875e-12
7.28980952929914e-13
1.87279746787299e-12
6.23888312444434e-13
2.13570866179476e-12
4.92884708772759e-13
2.44692827902819e-12
3.26357932650093e-13
2.81861863767562e-12
1.09449191766728e-13
3.26642392828519e-12
-1.8269356345415e-13
3.80883774557038e-12
-5.92724430277735e-13
4.46429628648587e-12
-1.19643123592672e-12
5.22488925907659e-12
-2.07758259682469e-12
5.99096002197885e-12
-3.23789566907084e-12
6.52120912554188e-12
-4.28388922137982e-12
6.53517130676574e-12
-3.42921873493406e-12
5.83734045394566e-12
1.07833991913998e-11
2.4695089305489e-11
-5.01656530417707e-12
2.97322667690014e-11
-5.57345210214777e-12
1.18032161941171e-11
-5.81108307237782e-12
-2.40241089779484e-12
-5.45053601146132e-12
-4.27221695417684e-12
-4.79740799363737e-12
-3.66446568153122e-12
-4.10605122178283e-12
-2.57873969658186e-12
-3.4856246688296e-12
-1.63890166631302e-12
-2.95605423470123e-12
-9.46928792810345e-13
-2.50828764952114e-12
-4.51936580638102e-13
-2.12904873082476e-12
-8.58747058448806e-14
-1.80599525741835e-12
1.92976768326751e-13
-1.5289804018639e-12
4.11094294018324e-13
-1.28996246792524e-12
5.85239549618342e-13
-1.08249388631336e-12
7.26564788540693e-13
-9.01376215753483e-13
8.42694586013867e-13
-7.42339887741752e-13
9.38871519012692e-13
-6.01841448199159e-13
1.01889025678993e-12
-4.7685706979279e-13
1.08549599426601e-12
-3.64801101636765e-13
1.14073445187939e-12
-2.63394760766454e-13
1.18611837826547e-12
-1.7062640127575e-13
1.22278526223478e-12
-8.46647519092695e-14
1.25160445215077e-12
-3.83280018325261e-15
1.27322584694183e-12
7.34507948904182e-14
1.28808434962139e-12
1.48689885527764e-13
1.29645876490745e-12
2.2334606590708e-13
1.29848066152843e-12
2.98868331874525e-13
1.29418384273724e-12
3.76728089251251e-13
1.28346244839772e-12
4.58456899907958e-13
1.26605852293937e-12
5.45681491906521e-13
1.24155630355743e-12
6.40152571471882e-13
1.20932952581934e-12
7.43807502359297e-13
1.16856266971018e-12
8.58823378153553e-13
1.11817950256455e-12
9.8770521334816e-13
1.0566678744068e-12
1.13335949362766e-12
9.81995017594572e-13
1.29923546702851e-12
8.9144752690407e-13
1.48949615287729e-12
7.8125350488958e-13
1.70918261904568e-12
6.46335290420324e-13
1.96453922720117e-12
4.79195368830492e-13
2.26338877561703e-12
2.68507449165316e-13
2.61540716759439e-12
-2.64270982365231e-15
3.03211152399307e-12
-3.61154680507137e-13
3.52522623617842e-12
-8.49939952456909e-13
4.10132580088985e-12
-1.53912195015986e-12
4.74005531548777e-12
-2.48375024375677e-12
5.34221225930085e-12
-3.60294409798018e-12
5.70855598860751e-12
-4.39866789161477e-12
5.5367775705038e-12
-2.98450190604588e-12
4.98060899173622e-12
1.16181948949889e-11
2.98479379928064e-11
-3.56988082051271e-12
3.35613253303586e-11
-4.93896557456935e-12
1.349657925612e-11
-5.28977492701366e-12
-1.76166037893572e-12
-4.97346571588519e-12
-4.32401239787895e-12
-4.42762617579469e-12
-3.95970556387505e-12
-3.84549352841352e-12
-2.91641035431504e-12
-3.3113213595959e-12
-1.93088315619728e-12
-2.84464981189524e-12
-1.17231821371146e-12
-2.44295712810139e-12
-6.13149055514922e-13
-2.09807104058372e-12
-1.91415552834062e-13
-1.80132793294223e-12
1.34039433187393e-13
-1.54497855230011e-12
3.90711682460467e-13
-1.3225387155596e-12
5.96736123996771e-13
-1.12858322776047e-12
7.64442424219265e-13
-9.58605527974128e-13
9.02435341424674e-13
-8.08809907743822e-13
1.01673269499804e-12
-6.75988050993269e-13
1.11173186253406e-12
-5.57371129182425e-13
1.19064810129523e-12
-4.50563431264489e-13
1.25589372811261e-12
-3.53437552603218e-13
1.30926666796993e-12
-2.64110435870061e-13
1.3521335593189e-12
-1.80862479077073e-13
1.38553744748458e-12
-1.02109283351395e-13
1.41024647950114e-12
-2.63625766662691e-14
1.42679845013414e-12
4.77990260945104e-14
1.43552163575174e-12
1.21749095731721e-13
1.43660116461792e-12
1.96854233717085e-13
1.43006157258766e-12
2.74504180304404e-13
1.41577983477449e-12
3.56139903602669e-13
1.39343280295845e-12
4.43290252210318e-13
1.3625266726229e-12
5.37596064045522e-13
1.32231335578586e-12
6.4086408306682e-13
1.27182474568892e-12
7.55112991132577e-13
1.20976925389673e-12
8.82655242882946e-13
1.13435482119129e-12
1.0261377108865e-12
1.04321040190599e-12
1.18866002796118e-12
9.33173958251458e-13
1.37389090810149e-12
7.99880280937712e-13
1.58616658643902e-12
6.37548557065226e-13
1.83067893249181e-12
4.37739304628797e-13
2.11362279522265e-12
1.87994238282475e-13
2.44217643518145e-12
-1.29775673557233e-13
2.8240149251949e-12
-5.43161892848376e-13
3.26547076701362e-12
-1.09377956538574e-12
3.76622570793431e-12
-1.84460635627914e-12
4.30587551404883e-12
-2.82886115477175e-12
4.81103430441488e-12
-3.90893994312878e-12
5.14485258762127e-12
-4.51871926829622e-12
4.86784743752283e-12
-2.47164151528886e-12
3.52314841284561e-12
1.32072802929868e-11
3.35221971101869e-11
-2.44502209919644e-12
3.62332889197292e-11
-4.28471785910965e-12
1.5616220633211e-11
-4.71224549791588e-12
-1.08916546575828e-12
-4.48782336311985e-12
-4.32686580265807e-12
-4.05810379231618e-12
-4.18041472927296e-12
-3.58170216764871e-12
-3.18943423505253e-12
-3.12802374890444e-12
-2.18336018791728e-12
-2.71908067946619e-12
-1.38098853854891e-12
-2.35882362924397e-12
-7.73941890441817e-13
-2.04411614394598e-12
-3.07756365126331e-13
-1.76987851496153e-12
5.67065974376688e-14
-1.53074298964718e-12
3.46745485509065e-13
-1.32176540115328e-12
5.81014271035534e-13
-1.13855017007745e-12
7.7250144656507e-13
-9.77270473041403e-13
9.30436987747889e-13
-8.3460653412691e-13
1.06140682771938e-12
-7.07676240336602e-13
1.17026103926643e-12
-5.93952532219313e-13
1.26059910378847e-12
-4.91214607485922e-13
1.3351337807055e-12
-3.97477880660105e-13
1.3959150501027e-12
-3.10966636401476e-13
1.44450400244986e-12
-2.30054635614427e-13
1.48210293204678e-12
-1.53235498259856e-13
1.50958300530932e-12
-7.90898481346345e-14
1.52757641974331e-12
-6.26920063344059e-15
1.53646474583802e-12
6.65422388911986e-14
1.5364717482382e-12
1.40640562193546e-13
1.52762552909076e-12
2.17361706671203e-13
1.50976974939776e-12
2.98065889324814e-13
1.48254326575929e-12
3.84207939419137e-13
1.44536700805614e-12
4.77336725817227e-13
1.3973902814178e-12
5.7914654895804e-13
1.33751252031859e-12
6.91519979433886e-13
1.26424968881047e-12
8.16588484794791e-13
1.17557586437479e-12
9.56756942613978e-13
1.06884189490821e-12
1.11479291732473e-12
9.40527648267959e-13
1.29388089736708e-12
7.85827270290254e-13
1.49767212490746e-12
5.98459399785572e-13
1.73032239630752e-12
3.69397039919564e-13
1.9964449270054e-12
8.56024891763362e-14
2.30082218928272e-12
-2.71364278747583e-13
2.64752967233785e-12
-7.28571485881978e-13
3.03796561888664e-12
-1.32500409417903e-12
3.46575985850444e-12
-2.1154079400782e-12
3.90848321059113e-12
-3.11529335637734e-12
4.30794542531358e-12
-4.1476890884678e-12
4.55398507645472e-12
-4.59004703250225e-12
4.20460744009042e-12
-1.92644784124215e-12
2.39489536984101e-12
1.52227690693837e-11
3.60426277113904e-11
-1.75193591606325e-12
3.81816121011774e-11
-3.61709488371249e-12
1.77213892693793e-11
-4.09114575956402e-12
-4.07493486272252e-13
-3.99470967676874e-12
-4.23688616214331e-12
-3.68634870707963e-12
-4.31370668267747e-12
-3.31102871883347e-12
-3.39482416536812e-12
-2.93267969679955e-12
-2.39384430654997e-12
-2.57785688785278e-12
-1.5688850532936e-12
-2.25649984952504e-12
-9.29188899114076e-13
-1.97008850512335e-12
-4.29124488515742e-13
-1.71683569377512e-12
-3.28976960778935e-14
-1.4936073600338e-12
2.8552088614e-13
-1.29694927666267e-12
5.44550092750898e-13
-1.12346882108309e-12
7.57341068054888e-13
-9.70018952192621e-13
9.33422089144279e-13
-8.33752428176415e-13
1.07973695298334e-12
-7.12118275406643e-13
1.20144618847338e-12
-6.02831855116133e-13
1.30244405709916e-12
-5.03847878444306e-13
1.38567672943798e-12
-4.13318551609354e-13
1.45340712546849e-12
-3.29574712536403e-13
1.50736097750909e-12
-2.51072801223488e-13
1.54887646460922e-12
-1.7638368127315e-13
1.57892171639162e-12
-1.04149184668547e-13
1.59820752106426e-12
-3.30876157477968e-14
1.60717449757706e-12
3.80672525042379e-14
1.6060684486214e-12
1.10552134326802e-13
1.59493012091973e-12
1.85646281680605e-13
1.57356845282245e-12
2.64645585572262e-13
1.54159159222704e-12
3.48931601200247e-13
1.49834487230114e-12
4.39967599064259e-13
1.442886703038e-12
5.39340216516419e-13
1.37400634132702e-12
6.48802503799889e-13
1.29005012357502e-12
7.70307589751796e-13
1.188805902338e-12
9.06020056654758e-13
1.06740891623555e-12
1.05838110174728e-12
9.22067161004999e-13
1.23009826393806e-12
7.47685067486392e-13
1.42414950718222e-12
5.37678681949479e-13
1.64369102700424e-12
2.82762997352904e-13
1.89184352312157e-12
-3.01799335292371e-14
2.17118268395629e-12
-4.19216923927935e-13
2.48258533975385e-12
-9.09891735434455e-13
2.82313539566356e-12
-1.53744326850052e-12
3.18119263818948e-12
-2.34746713286631e-12
3.53049446757319e-12
-3.33932013866607e-12
3.81797564566844e-12
-4.30586858728755e-12
3.93512477381244e-12
-4.56493667663559e-12
3.53592907438368e-12
-1.3651300514501e-12
1.69973292421189e-12
1.72310784195069e-11
3.78478312413673e-11
-1.33801332097545e-12
3.96845564385166e-11
-3.0071204757625e-12
1.95900184836545e-11
-3.50048844158571e-12
2.55979125064703e-13
-3.52112023600197e-12
-4.06446282458139e-12
-3.32167753425274e-12
-4.3711058405009e-12
-3.03673151058022e-12
-3.54225070966348e-12
-2.72705194537278e-12
-2.56792149892389e-12
-2.42282699658765e-12
-1.73845315927694e-12
-2.13860127206283e-12
-1.07959330150365e-12
-1.8796541368291e-12
-5.55304269817707e-13
-1.64700913693461e-12
-1.34120953738448e-13
-1.4395227069128e-12
2.07885491861119e-13
-1.2551203865324e-12
4.8827787579263e-13
-1.09136142653182e-12
7.19933901301523e-13
-9.45767993415776e-13
9.12393042828998e-13
-8.15957508679169e-13
1.07274890346824e-12
-6.99714305709177e-13
1.20634184577046e-12
-5.94995883598073e-13
1.31726727503033e-12
-4.99939633079202e-13
1.40864509348714e-12
-4.12834801551533e-13
1.48290521443738e-12
-3.32124117463834e-13
1.54191288341633e-12
-2.5634922526804e-13
1.58711478145156e-12
-1.84159511420333e-13
1.61957024609724e-12
-1.14257999986678e-13
1.64005060010323e-12
-4.54245880644263e-14
1.64905650041966e-12
2.35483353385504e-14
1.64685293059884e-12
9.38455142513769e-14
1.63348670257753e-12
1.66680296034806e-13
1.60874588474775e-12
2.43290645199583e-13
1.57220082445942e-12
3.24981812288489e-13
1.5231391072781e-12
4.13128553116648e-13
1.46054136952785e-12
5.09214834530077e-13
1.38310082838178e-12
6.14856012713963e-13
1.28902845527704e-12
7.31825726198501e-13
1.1759692265904e-12
8.62047479177716e-13
1.0409032443277e-12
1.00763498330152e-12
8.79854040468311e-13
1.1708311532474e-12
6.87574034840511e-13
1.35396122304358e-12
4.57366538928732e-13
1.55924090575641e-12
1.79979355673589e-13
1.78843316505723e-12
-1.57361188394206e-13
2.04218193484994e-12
-5.71766290359803e-13
2.31870050721764e-12
-1.08651288154138e-12
2.61162318529962e-12
-1.7323094623063e-12
2.90538796130551e-12
-2.54517240494254e-12
3.17068942758241e-12
-3.50932979975354e-12
3.35667330089193e-12
-4.39303336658152e-12
3.35376333001935e-12
-4.45165413370803e-12
2.92676061476575e-12
-8.10261544813307e-13
1.28609333336647e-12
1.90091406455469e-11
3.92167475217989e-11
-1.07352314526306e-12
4.0896413885238e-11
-2.49179420643474e-12
2.11750166291689e-11
-2.9813138191218e-12
8.87159576716845e-13
-3.08622455492627e-12
-3.83382050981452e-12
-2.97456024966361e-12
-4.36559553132784e-12
-2.76589187025458e-12
-3.63777067045344e-12
-2.51688015539163e-12
-2.70557332710977e-12
-2.25915155643832e-12
-1.88577085794254e-12
-2.01013706634115e-12
-1.21904684648319e-12
-1.77792057861726e-12
-6.78999011650392e-13
-1.56574883228342e-12
-2.39069288849103e-13
-1.3741628179911e-12
1.22024017753414e-13
-1.20230348225854e-12
4.20508061401955e-13
-1.04860619375639e-12
6.68640066843227e-13
-9.11223910281548e-13
8.75720895128559e-13
-7.88222673441283e-13
1.04880849904811e-12
-6.77720667422086e-13
1.19330738519577e-12
-5.77916715064201e-13
1.31342057778861e-12
-4.8713428317138e-13
1.41238560728256e-12
-4.03804357944119e-13
1.49275598695834e-12
-3.26480224537029e-13
1.55650435195533e-12
-2.53797816195403e-13
1.60517002696857e-12
-1.84484467493848e-13
1.63988682375974e-12
-1.17314799985253e-13
1.66148127028878e-12
-5.1128153043563e-14
1.6705010609658e-12
1.52215059354363e-14
1.66723271899869e-12
8.28625071730024e-14
1.65172479713096e-12
1.5294304560521e-13
1.62375319293912e-12
2.26634990044222e-13
1.58285088872179e-12
3.05167837443175e-13
1.52825884934088e-12
3.89822579978494e-13
1.45889680914265e-12
4.81975721883015e-13
1.37337674872269e-12
5.83099341182879e-13
1.26980993568519e-12
6.94788998890041e-13
1.14573308765265e-12
8.18731903573635e-13
9.98029880394064e-13
9.56714166284601e-13
8.22631282465458e-13
1.11053362661599e-12
6.14255003146076e-13
1.28190943300924e-12
3.66255323576313e-13
1.47219849431799e-12
6.96690093628411e-14
1.68197815179985e-12
-2.87600350493152e-13
1.91028665092874e-12
-7.21279340805594e-13
2.15326631573317e-12
-1.25190236726977e-12
2.4020640514876e-12
-1.90523418341555e-12
2.63874650796681e-12
-2.70787111487262e-12
2.83291579409729e-12
-3.63034088252177e-12
2.9365177040163e-12
-4.4205296542086e-12
2.84612255768032e-12
-4.27512338035256e-12
2.41265738045205e-12
-2.75146140618327e-13
1.0234646793811e-12
2.05084237490018e-11
4.03073132210737e-11
-8.87555680942036e-13
4.18969511224565e-11
-2.0718094996319e-12
2.24946948612524e-11
-2.54085141319697e-12
1.47011155902274e-12
-2.69694241156096e-12
-3.5770772227248e-12
-2.65124091578585e-12
-4.31778489523217e-12
-2.50434485634789e-12
-3.69462358699101e-12
-2.30747976150924e-12
-2.81403740498782e-12
-2.09162039758125e-12
-2.01417898124069e-12
-1.87549904804161e-12
-1.34858785041775e-12
-1.66900722777752e-12
-7.99944746713504e-13
-1.47702703632084e-12
-3.46764035065859e-13
-1.30143991615513e-12
2.92861332471068e-14
-1.14241341571418e-12
3.42774860408791e-13
-9.99156190808307e-13
6.05078084348653e-13
-8.70393803162575e-13
8.25051413554558e-13
-7.54615232340678e-13
1.00956506813443e-12
-6.50258907462594e-13
1.16398286372354e-12
-5.55756503180688e-13
1.29252726231542e-12
-4.69622124772084e-13
1.39851095298001e-12
-3.90428079550355e-13
1.48456068224981e-12
-3.16842169326669e-13
1.55273020725852e-12
-2.47599557748183e-13
1.60463601561585e-12
-1.81505707160122e-13
1.64146508670664e-12
-1.17411553536875e-13
1.66409730438957e-12
-5.42200313017821e-14
1.67311459343728e-12
9.15026880834841e-15
1.6688267537676e-12
7.3763814179623e-14
1.65128303460928e-12
1.40703762633577e-13
1.62024862086517e-12
2.11070410342004e-13
1.57522637946298e-12
2.86012847084644e-13
1.51541874978431e-12
3.66715438536947e-13
1.43970167343136e-12
4.54444587586746e-13
1.34661951505059e-12
5.50535349377913e-13
1.23421045240815e-12
6.56399816817204e-13
1.09995008248922e-12
7.73491325589837e-13
9.40676424690771e-13
9.03285101372527e-13
7.52304881348784e-13
1.04716389825247e-12
5.29624688889683e-13
1.20629929388348e-12
2.661750036046e-13
1.38129700820923e-12
-4.651080456577e-14
1.57174552854036e-12
-4.19606811917579e-13
1.77541926820344e-12
-8.67171093763529e-13
1.9869693007231e-12
-1.40675862916644e-12
2.19597517044857e-12
-2.05911923764761e-12
2.38354108835391e-12
-2.84208252600858e-12
2.52001768882664e-12
-3.7143503197689e-12
2.56134761890435e-12
-4.40704453756808e-12
2.41714936020966e-12
-4.0677359539983e-12
1.99414398486729e-12
2.23819371092255e-13
8.39895577255956e-13
2.17460500289793e-11
4.11968957944889e-11
-7.46318961529819e-13
4.27369302572352e-11
-1.73269399779657e-12
2.35937326935603e-11
-2.17074569134251e-12
2.00333314852034e-12
-2.35253947443838e-12
-3.31146233438577e-12
-2.35391034656468e-12
-4.23881499250327e-12
-2.255560998942e-12
-3.7184462279535e-12
-2.10252135081008e-12
-2.89408030189234e-12
-1.92366221399041e-12
-2.1209890887886e-12
-1.73776628401134e-12
-1.46331639058664e-12
-1.55567085370481e-12
-9.11893970468677e-13
-1.38334964418445e-12
-4.50155935227704e-13
-1.22367790095893e-12
-6.28251818167282e-14
-1.07764804990186e-12
2.62832017457775e-13
-9.45123496497564e-13
5.37132475403682e-13
-8.25332718567649e-13
7.68330527121997e-13
-7.17151188429932e-13
9.62988650345495e-13
-6.19312276736215e-13
1.12633643698223e-12
-5.30476478921112e-13
1.26254910586257e-12
-4.4934039147705e-13
1.37496775837818e-12
-3.7461606152112e-13
1.46624906573653e-12
-3.05092774467542e-13
1.53850934389431e-12
-2.39598868730299e-13
1.59341435171135e-12
-1.77029365558094e-13
1.63220042107793e-12
-1.16309485101107e-13
1.65578552293739e-12
-5.64129536985311e-14
1.66478279281171e-12
3.67512102616946e-15
1.65952090291378e-12
6.4953099904765e-14
1.6400494684717e-12
1.28433314057145e-13
1.60612816067352e-12
1.95144267641286e-13
1.5572305537777e-12
2.66150247810845e-13
1.49253418598592e-12
3.42540221291473e-13
1.41088186404409e-12
4.25462787367197e-13
1.31077247337684e-12
5.16116222558981e-13
1.19019100173712e-12
6.15736408131947e-13
1.04659108222283e-12
7.25560197403862e-13
8.76805185015051e-13
8.46765548751176e-13
6.76815699810342e-13
9.80362283010576e-13
4.41559181843161e-13
1.12704189410406e-12
1.64869931588724e-13
1.28678485573704e-12
-1.61072969175623e-13
1.45838717868701e-12
-5.46347660632589e-13
1.63869589879604e-12
-1.00319916084701e-12
1.82139998556547e-12
-1.54616061494268e-12
1.99529794384977e-12
-2.19115172710582e-12
2.1416367042372e-12
-2.94820657462135e-12
2.23280906454885e-12
-3.76625636658872e-12
2.2295437554909e-12
-4.36277631301283e-12
2.05769680526388e-12
-3.84808701117222e-12
1.65690630222287e-12
6.83198372346316e-13
7.00820597635066e-13
2.27668414340588e-11
4.19371443030196e-11
-6.33325955970895e-13
4.34462590887649e-11
-1.45727385290469e-12
2.45090788935595e-11
-1.85884663248008e-12
2.48157918697884e-12
-2.0489607505493e-12
-3.05395074324088e-12
-2.08224270712636e-12
-4.14325789968267e-12
-2.02112027737394e-12
-3.71992850860553e-12
-1.90423043996296e-12
-2.95273724711373e-12
-1.75754762761546e-12
-2.21038126306974e-12
-1.59902253465487e-12
-1.56544481724029e-12
-1.43975271278479e-12
-1.0157790682587e-12
-1.28632279199477e-12
-5.49379220331577e-13
-1.14228911109623e-12
-1.53957728131064e-13
-1.00926877827551e-12
1.8131915890707e-13
-8.87651425610185e-13
4.65603650030752e-13
-7.77092480180282e-13
7.06444781714831e-13
-6.76810253961726e-13
9.10009157018566e-13
-5.85806049464729e-13
1.08131633650325e-12
-5.02959218668369e-13
1.22444270504553e-12
-4.27132741639271e-13
1.34270567443353e-12
-3.57180161384556e-13
1.43876607325514e-12
-2.92008705141506e-13
1.5147792075592e-12
-2.30543162596062e-13
1.57243858645582e-12
-1.71769525046913e-13
1.61302370921897e-12
-1.14688756834111e-13
1.63747649146408e-12
-5.8350198847166e-14
1.64644040045773e-12
-1.80831797727488e-15
1.64025732650573e-12
5.58681909222648e-14
1.61897465974897e-12
1.15616045689182e-13
1.58235605221459e-12
1.78387484499428e-13
1.52984578215618e-12
2.45162281167977e-13
1.46060576154791e-12
3.1693118221977e-13
1.37345860440552e-12
3.94730038366358e-13
1.26687351483947e-12
4.79625445725233e-13
1.13880039672043e-12
5.72680419255584e-13
9.86712917516888e-13
6.74927132821724e-13
8.07470452278245e-13
7.87277032949669e-13
5.97184546250031e-13
9.10415354346482e-13
3.50998647979274e-13
1.04462305381835e-12
6.31317367541021e-14
1.18938717742854e-12
-2.73505025043829e-13
1.34290700976467e-12
-6.67781812890598e-13
1.50140963897806e-12
-1.13010000001871e-12
1.65806828307852e-12
-1.6720662492846e-12
1.80153521678578e-12
-2.30514706332116e-12
1.91397288360957e-12
-3.03269229526113e-12
1.97052805634241e-12
-3.79586094900852e-12
1.93704325982466e-12
-4.30117323890276e-12
1.7555638378329e-12
-3.63324602048254e-12
1.38410559096252e-12
1.09625343200827e-12
5.90081381070136e-13
2.36075505945129e-11
4.255466042724e-11
-5.39973626555873e-13
4.40502074833609e-11
-1.2310050887004e-12
2.52778214828615e-11
-1.59373007700536e-12
2.9102689251463e-12
-1.78106196093931e-12
-2.80863456686179e-12
-1.83459623628925e-12
-4.03625828046362e-12
-1.80135153807398e-12
-3.70207161838354e-12
-1.71380496673859e-12
-2.99050710558697e-12
-1.59473173253032e-12
-2.28061263271414e-12
-1.46069292990617e-12
-1.65153531907093e-12
-1.32253537761325e-12
-1.10697867543382e-12
-1.18706283444665e-12
-6.39022884091629e-13
-1.05823135205156e-12
-2.38194933668453e-13
-9.38097055560898e-13
1.04471772369039e-13
-8.27450880051381e-13
3.96919767193213e-13
-7.26300690902734e-13
6.45938743657264e-13
-6.34152257969272e-13
8.57232403257935e-13
-5.50245788645684e-13
1.03555858502711e-12
-4.73658720125262e-13
1.18485389400782e-12
-4.03410480825673e-13
1.30836869152523e-12
-3.38496816407277e-13
1.40875451292318e-12
-2.77934047940464e-13
1.48817188756254e-12
-2.20750306444187e-13
1.54833586565503e-12
-1.66015480640969e-13
1.59055094357898e-12
-1.12813756820915e-13
1.61578098256136e-12
-6.02680126718968e-14
1.6246909534732e-12
-7.50680749586235e-15
1.61763659875171e-12
4.63284130147847e-14
1.59466200363125e-12
1.02102584955312e-13
1.55553374973396e-12
1.60686495775357e-13
1.49967729350498e-12
2.22976304696814e-13
1.42624074941135e-12
2.89861867026226e-13
1.33404431662735e-12
3.62271014301414e-13
1.22153429808134e-12
4.41138128060325e-13
1.0866503199591e-12
5.27374051743712e-13
9.26906280525274e-13
6.21817497396497e-13
7.39229090353787e-13
7.25151995860786e-13
5.19896052370378e-13
8.37779167774687e-13
2.64314241281929e-13
9.5964992111327e-13
-3.28636909487231e-14
1.0898761417502e-12
-3.77944271518468e-13
1.2262522277571e-12
-7.78553260224953e-13
1.36465419855234e-12
-1.24329288887597e-12
1.49809840922993e-12
-1.78103110910385e-12
1.61556993378505e-12
-2.39927654853304e-12
1.70063143116595e-12
-3.09580785586061e-12
1.73146366048438e-12
-3.80578569878745e-12
1.67897089695347e-12