/*--------------------------------*- C++ -*----------------------------------*\
  =========                 |
  \\      /  F ield         | OpenFOAM: The Open Source CFD Toolbox
   \\    /   O peration     | Website:  https://openfoam.org
    \\  /    A nd           | Version:  10
     \\/     M anipulation  |
\*---------------------------------------------------------------------------*/
FoamFile
{
    format      ascii;
    class       volScalarField;
    location    "2.4";
    object      rho;
}
// * * * * * * * * * * * * * * * * * * * * * * * * * * * * * * * * * * * * * //

dimensions      [1 -3 0 0 0 0 0];

internalField   nonuniform List<scalar> 
2500
(
1.14182545035856
1.14200993350171
1.14211136009812
1.14214452093893
1.14215419064265
1.14215694740775
1.14215770814166
1.14215791299362
1.14215797071107
1.14215798670055
1.14215799685048
1.14215800268127
1.14215800608745
1.14215801034002
1.14215801430487
1.14215801870198
1.14215802098763
1.14215802381868
1.14215802703337
1.1421580293311
1.14215803159909
1.14215803405668
1.14215803626275
1.14215803696219
1.14215803774043
1.14215803911973
1.14215803942396
1.14215803981404
1.14215804037626
1.14215803986854
1.14215803929431
1.14215803887951
1.14215803757074
1.14215803574968
1.1421580340706
1.14215803242425
1.14215803057254
1.14215802897524
1.14215802557077
1.14215802174242
1.14215801459237
1.14215799508049
1.14215792897857
1.14215769283932
1.14215685250272
1.14215398870144
1.14214428330069
1.142111213972
1.14200830887306
1.14182577044555
1.14988661297827
1.15033028533899
1.15061966546886
1.15072961734249
1.15076732255081
1.1507796010874
1.15078334603619
1.15078440413775
1.15078468225504
1.1507847503928
1.15078476857956
1.15078477390366
1.15078477541782
1.15078477698243
1.15078477843063
1.15078477996845
1.15078478082636
1.15078478187872
1.15078478310482
1.1507847841248
1.15078478553326
1.15078478748676
1.15078478941526
1.15078478972651
1.15078478985656
1.15078479076291
1.15078479066863
1.15078479073401
1.15078479130462
1.15078479056389
1.1507847903101
1.15078479092744
1.15078478928303
1.15078478686025
1.15078478578701
1.15078478519957
1.15078478457375
1.15078478392341
1.15078478179166
1.15078477594456
1.15078475304698
1.15078466315495
1.15078432539921
1.15078312447652
1.15077912197728
1.15076660601684
1.15072915822236
1.15061982987899
1.15032492657252
1.14987916570497
1.15578835786352
1.15622866237057
1.15651639646548
1.15662849929023
1.15666718181493
1.1566798605996
1.15668376974315
1.15668488851601
1.15668518500152
1.15668525773772
1.15668527608627
1.15668528058025
1.15668528042547
1.15668528060673
1.1566852807546
1.1566852807171
1.1566852806648
1.15668528068368
1.15668528096452
1.15668528122252
1.15668528183168
1.15668528286197
1.15668528407763
1.15668528442779
1.15668528424438
1.15668528449589
1.15668528448099
1.1566852843168
1.1566852843702
1.15668528400166
1.15668528402068
1.15668528463631
1.15668528350648
1.15668528165167
1.15668528136611
1.156685281463
1.15668528132235
1.15668528142351
1.15668528023674
1.15668527533924
1.15668525296989
1.15668516136808
1.15668481587678
1.15668358712921
1.15667949735276
1.15666669878719
1.15662830154128
1.15651628980655
1.15622170146881
1.15576669339703
1.15915621611478
1.15945147439305
1.15962031250964
1.15968537811636
1.15970691046403
1.15971372003373
1.15971578109551
1.15971636863829
1.15971652487469
1.15971656328464
1.15971657303969
1.15971657505982
1.15971657444544
1.15971657427714
1.1597165741345
1.15971657400972
1.1597165739072
1.1597165738341
1.1597165738918
1.15971657384909
1.15971657388084
1.15971657427924
1.15971657491523
1.15971657515816
1.1597165749388
1.15971657495512
1.15971657496991
1.1597165747756
1.15971657466332
1.15971657451152
1.15971657455353
1.15971657490914
1.15971657434772
1.15971657337667
1.15971657333661
1.15971657348019
1.15971657348023
1.15971657369017
1.15971657338285
1.15971657155297
1.15971656115317
1.15971651637397
1.15971634510221
1.15971572617465
1.15971361987206
1.15970680519301
1.15968538426438
1.15961987414526
1.159445942651
1.159132963328
1.16075740424603
1.16091264123456
1.16098958661759
1.16101917362182
1.16102870667005
1.16103164255686
1.16103251957816
1.16103276975486
1.16103283682886
1.16103285342412
1.16103285768341
1.16103285847251
1.16103285805458
1.16103285786371
1.161032857737
1.16103285765361
1.16103285755636
1.16103285745529
1.16103285741928
1.16103285742153
1.16103285741127
1.16103285748624
1.16103285776245
1.16103285785939
1.16103285773905
1.16103285771294
1.1610328576967
1.16103285758626
1.16103285750105
1.16103285743947
1.16103285745754
1.16103285760847
1.16103285737738
1.16103285698312
1.16103285699747
1.16103285708013
1.16103285710662
1.16103285721646
1.16103285723396
1.1610328567193
1.16103285269749
1.16103283470456
1.16103276526097
1.16103251227875
1.16103163850807
1.16102873777851
1.16101928111601
1.16098938094668
1.16090950239594
1.1607410486743
1.16141942931723
1.16148819606477
1.16151790604535
1.16152937327927
1.16153301715546
1.16153411923518
1.16153444534308
1.16153453857993
1.16153456380953
1.16153457010151
1.16153457172512
1.16153457199603
1.16153457179326
1.16153457168087
1.16153457160863
1.16153457156333
1.16153457150775
1.16153457144902
1.1615345714171
1.16153457142131
1.1615345714025
1.16153457142763
1.16153457150681
1.1615345715066
1.16153457147957
1.16153457146368
1.16153457144114
1.16153457139014
1.16153457134836
1.16153457131996
1.16153457132476
1.16153457137738
1.16153457129419
1.16153457116867
1.16153457117305
1.16153457119905
1.16153457122861
1.16153457128554
1.16153457131708
1.16153457118553
1.16153456981585
1.16153456338676
1.16153453845514
1.16153444744687
1.16153413051779
1.16153305879656
1.16152947130712
1.16151787938869
1.16148678395182
1.16141051478033
1.16166453797358
1.16169131066159
1.16170151900047
1.16170547941904
1.16170673210209
1.16170710677339
1.16170721686603
1.16170724841313
1.16170725702285
1.1617072592022
1.16170725974834
1.16170725981231
1.16170725973839
1.16170725968697
1.16170725965217
1.16170725962816
1.16170725960262
1.16170725957777
1.16170725956024
1.16170725955924
1.16170725954683
1.16170725955251
1.1617072595682
1.16170725955499
1.16170725954385
1.16170725953487
1.16170725952431
1.16170725950599
1.16170725948843
1.16170725947377
1.16170725947309
1.16170725948791
1.16170725945996
1.16170725942374
1.16170725942421
1.16170725943204
1.16170725944606
1.161707259471
1.16170725948984
1.16170725945819
1.16170725901848
1.16170725690318
1.16170724868349
1.16170721874534
1.16170711417343
1.16170675624282
1.16170553642242
1.16170154168373
1.16169077636226
1.16166046732169
1.16174749782446
1.16175691355404
1.16176013376389
1.16176138651679
1.16176178332164
1.16176190133895
1.16176193583868
1.16176194573837
1.16176194845872
1.16176194915586
1.16176194931915
1.1617619493297
1.1617619493066
1.16176194928529
1.16176194926907
1.16176194925711
1.16176194924614
1.16176194923542
1.16176194922625
1.16176194922313
1.16176194921577
1.16176194921427
1.16176194921404
1.16176194920444
1.16176194919787
1.16176194919223
1.16176194918671
1.1617619491794
1.16176194917122
1.16176194916318
1.16176194916045
1.16176194916246
1.16176194915259
1.16176194914186
1.1617619491408
1.16176194914182
1.16176194914587
1.16176194915422
1.16176194916149
1.16176194915306
1.16176194901712
1.16176194836263
1.16176194582399
1.16176193662349
1.16176190451462
1.16176179385187
1.16176141250846
1.16176015381626
1.16175673762013
1.16174586971822
1.16177355116528
1.16177660006365
1.16177755227025
1.16177792200083
1.16177803968153
1.16177807463507
1.16177808481583
1.16177808773776
1.16177808854408
1.16177808875124
1.16177808879607
1.16177808879605
1.16177808878719
1.16177808877797
1.16177808877005
1.16177808876362
1.16177808875778
1.16177808875195
1.16177808874625
1.16177808874255
1.16177808873832
1.16177808873436
1.16177808873015
1.16177808872462
1.16177808871997
1.16177808871561
1.16177808871135
1.16177808870688
1.16177808870207
1.16177808869707
1.16177808869385
1.16177808869206
1.16177808868738
1.16177808868294
1.16177808868092
1.16177808867947
1.16177808867911
1.16177808868029
1.16177808868136
1.16177808867768
1.16177808863619
1.16177808844299
1.16177808769888
1.16177808502185
1.16177807571409
1.1617780435488
1.16177793206828
1.16177756251131
1.16177654866504
1.16177296432544
1.16178122136083
1.16178214306928
1.16178241074067
1.16178251390973
1.16178254695716
1.16178255679112
1.16178255964868
1.16178256046771
1.16178256069361
1.16178256075076
1.16178256076134
1.16178256075928
1.16178256075474
1.16178256074982
1.16178256074511
1.1617825607408
1.16178256073661
1.16178256073237
1.16178256072808
1.16178256072424
1.16178256072041
1.16178256071642
1.16178256071228
1.16178256070801
1.16178256070404
1.16178256070017
1.16178256069634
1.16178256069259
1.16178256068881
1.16178256068498
1.16178256068174
1.16178256067896
1.16178256067559
1.16178256067245
1.16178256066996
1.16178256066764
1.16178256066572
1.16178256066431
1.16178256066293
1.16178256066021
1.16178256064686
1.16178256059119
1.16178256038175
1.16178255963717
1.16178255706479
1.16178254818183
1.16178251734305
1.16178241487981
1.16178212961179
1.16178102693583
1.16178334714609
1.16178361003224
1.16178368224025
1.16178370972474
1.16178371858628
1.16178372123394
1.16178372200211
1.16178372222132
1.16178372228099
1.161783722295
1.16178372229616
1.16178372229376
1.16178372229053
1.16178372228702
1.16178372228343
1.16178372227983
1.16178372227619
1.16178372227245
1.16178372226863
1.16178372226483
1.16178372226106
1.16178372225726
1.16178372225344
1.1617837222496
1.16178372224587
1.1617837222422
1.16178372223856
1.16178372223503
1.16178372223156
1.16178372222814
1.16178372222495
1.16178372222195
1.1617837222189
1.16178372221601
1.16178372221334
1.16178372221078
1.16178372220839
1.1617837222062
1.16178372220406
1.1617837222016
1.16178372219631
1.16178372217971
1.16178372212196
1.16178372192204
1.16178372123909
1.16178371889026
1.16178371074777
1.16178368366014
1.16178360684313
1.16178328705196
1.16178389501923
1.16178396633927
1.1617839851495
1.16178399219092
1.16178399447423
1.16178399515995
1.16178399535837
1.16178399541418
1.16178399542845
1.16178399543068
1.16178399542935
1.16178399542691
1.16178399542407
1.161783995421
1.16178399541777
1.16178399541443
1.16178399541097
1.16178399540742
1.16178399540378
1.1617839954001
1.16178399539641
1.16178399539271
1.16178399538901
1.16178399538533
1.16178399538171
1.16178399537813
1.16178399537461
1.16178399537118
1.16178399536783
1.16178399536456
1.16178399536143
1.16178399535842
1.16178399535548
1.16178399535265
1.16178399534996
1.16178399534737
1.16178399534489
1.16178399534253
1.16178399534023
1.16178399533789
1.16178399533486
1.16178399532895
1.16178399531247
1.16178399525965
1.16178399508393
1.16178399448541
1.16178399241981
1.16178398554287
1.16178396561759
1.16178387746248
1.16178401565173
1.16178403417603
1.1617840389277
1.16178404067208
1.16178404124004
1.16178404141126
1.16178404146024
1.16178404147323
1.16178404147558
1.16178404147471
1.16178404147274
1.1617840414703
1.16178404146758
1.16178404146466
1.16178404146155
1.16178404145831
1.16178404145494
1.16178404145148
1.16178404144794
1.16178404144434
1.16178404144072
1.1617840414371
1.16178404143348
1.16178404142988
1.16178404142633
1.16178404142283
1.16178404141939
1.16178404141603
1.16178404141276
1.16178404140958
1.1617840414065
1.16178404140354
1.16178404140067
1.16178404139791
1.16178404139526
1.16178404139271
1.16178404139026
1.1617840413879
1.16178404138562
1.16178404138337
1.16178404138101
1.16178404137797
1.16178404137235
1.16178404135781
1.16178404131313
1.16178404116491
1.16178404065847
1.16178403897248
1.16178403397083
1.16178401071987
1.16178402550485
1.16178403013531
1.16178403130277
1.16178403172229
1.16178403185897
1.16178403189995
1.16178403191102
1.16178403191313
1.16178403191245
1.16178403191078
1.16178403190864
1.16178403190621
1.16178403190355
1.16178403190068
1.16178403189763
1.16178403189445
1.16178403189114
1.16178403188774
1.16178403188427
1.16178403188074
1.16178403187719
1.16178403187363
1.16178403187008
1.16178403186655
1.16178403186307
1.16178403185964
1.16178403185627
1.16178403185298
1.16178403184978
1.16178403184668
1.16178403184367
1.16178403184076
1.16178403183797
1.16178403183527
1.16178403183269
1.1617840318302
1.16178403182782
1.16178403182552
1.16178403182331
1.16178403182116
1.16178403181903
1.1617840318168
1.161784031814
1.16178403180914
1.1617840317972
1.16178403176078
1.16178403163979
1.16178403123856
1.16178403001903
1.16178402412036
1.16178400770523
1.16178400882377
1.16178400910348
1.16178400920164
1.16178400923328
1.16178400924228
1.161784009244
1.16178400924341
1.16178400924196
1.16178400924008
1.1617840092379
1.16178400923548
1.16178400923284
1.16178400923001
1.16178400922701
1.16178400922388
1.16178400922062
1.16178400921728
1.16178400921387
1.16178400921041
1.16178400920692
1.16178400920343
1.16178400919995
1.16178400919649
1.16178400919308
1.16178400918972
1.16178400918643
1.16178400918321
1.16178400918008
1.16178400917705
1.16178400917411
1.16178400917128
1.16178400916855
1.16178400916593
1.16178400916342
1.16178400916101
1.1617840091587
1.16178400915649
1.16178400915436
1.1617840091523
1.16178400915031
1.16178400914835
1.16178400914632
1.1617840091439
1.16178400913995
1.16178400913045
1.16178400910168
1.16178400900828
1.16178400871825
1.16178400727256
1.16178398323134
1.16178398349317
1.16178398355875
1.16178398358103
1.16178398358778
1.16178398358912
1.16178398358857
1.1617839835873
1.16178398358565
1.16178398358371
1.16178398358152
1.16178398357911
1.16178398357649
1.1617839835737
1.16178398357074
1.16178398356765
1.16178398356446
1.16178398356117
1.16178398355782
1.16178398355443
1.16178398355101
1.16178398354759
1.16178398354418
1.16178398354079
1.16178398353745
1.16178398353417
1.16178398353095
1.16178398352781
1.16178398352476
1.16178398352179
1.16178398351893
1.16178398351618
1.16178398351353
1.16178398351099
1.16178398350855
1.16178398350622
1.161783983504
1.16178398350187
1.16178398349982
1.16178398349787
1.16178398349598
1.16178398349417
1.16178398349241
1.16178398349064
1.16178398348864
1.1617839834855
1.1617839834782
1.16178398345646
1.1617839833886
1.16178398304509
1.16178395719414
1.16178395725348
1.16178395726866
1.16178395727343
1.16178395727441
1.16178395727393
1.16178395727282
1.16178395727137
1.16178395726965
1.16178395726769
1.1617839572655
1.1617839572631
1.16178395726051
1.16178395725775
1.16178395725483
1.1617839572518
1.16178395724865
1.16178395724543
1.16178395724215
1.16178395723882
1.16178395723547
1.16178395723212
1.16178395722879
1.16178395722548
1.16178395722221
1.161783957219
1.16178395721586
1.1617839572128
1.16178395720982
1.16178395720694
1.16178395720416
1.16178395720148
1.16178395719891
1.16178395719645
1.1617839571941
1.16178395719185
1.16178395718971
1.16178395718767
1.16178395718572
1.16178395718386
1.16178395718208
1.16178395718038
1.16178395717877
1.16178395717724
1.16178395717577
1.16178395717414
1.16178395717176
1.16178395716629
1.16178395715021
1.16178395707088
1.16178393080043
1.16178393081326
1.16178393081682
1.16178393081763
1.16178393081727
1.16178393081634
1.16178393081507
1.16178393081356
1.16178393081181
1.16178393080983
1.16178393080765
1.16178393080527
1.1617839308027
1.16178393079998
1.16178393079711
1.16178393079412
1.16178393079104
1.16178393078788
1.16178393078466
1.1617839307814
1.16178393077813
1.16178393077485
1.16178393077159
1.16178393076836
1.16178393076518
1.16178393076205
1.16178393075899
1.161783930756
1.16178393075311
1.16178393075031
1.16178393074761
1.16178393074501
1.16178393074252
1.16178393074014
1.16178393073787
1.16178393073571
1.16178393073366
1.16178393073171
1.16178393072985
1.16178393072809
1.16178393072642
1.16178393072483
1.16178393072333
1.16178393072194
1.16178393072067
1.16178393071946
1.16178393071822
1.16178393071639
1.16178393071212
1.1617839306943
1.16178390432733
1.16178390432973
1.16178390433066
1.16178390433057
1.16178390432988
1.16178390432881
1.16178390432748
1.16178390432593
1.16178390432416
1.16178390432218
1.16178390432001
1.16178390431764
1.1617839043151
1.16178390431242
1.1617839043096
1.16178390430666
1.16178390430364
1.16178390430054
1.16178390429739
1.16178390429421
1.16178390429101
1.16178390428781
1.16178390428463
1.16178390428148
1.16178390427838
1.16178390427533
1.16178390427235
1.16178390426945
1.16178390426663
1.16178390426392
1.1617839042613
1.16178390425879
1.16178390425638
1.16178390425409
1.1617839042519
1.16178390424983
1.16178390424787
1.16178390424601
1.16178390424425
1.16178390424259
1.16178390424102
1.16178390423954
1.16178390423816
1.16178390423688
1.16178390423574
1.16178390423469
1.16178390423377
1.16178390423277
1.16178390423115
1.16178390422729
1.16178387783687
1.16178387783698
1.16178387783731
1.161783877837
1.1617838778362
1.16178387783507
1.1617838778337
1.16178387783213
1.16178387783034
1.16178387782836
1.16178387782619
1.16178387782384
1.16178387782134
1.16178387781869
1.16178387781592
1.16178387781304
1.16178387781008
1.16178387780705
1.16178387780397
1.16178387780086
1.16178387779774
1.16178387779462
1.16178387779152
1.16178387778845
1.16178387778543
1.16178387778246
1.16178387777957
1.16178387777675
1.16178387777402
1.16178387777139
1.16178387776885
1.16178387776643
1.16178387776411
1.1617838777619
1.16178387775981
1.16178387775783
1.16178387775595
1.16178387775419
1.16178387775253
1.16178387775097
1.1617838777495
1.16178387774813
1.16178387774686
1.1617838777457
1.16178387774466
1.16178387774373
1.16178387774294
1.16178387774215
1.16178387774115
1.16178387774038
1.16178385134264
1.16178385134226
1.16178385134243
1.16178385134204
1.16178385134119
1.16178385134002
1.16178385133862
1.16178385133702
1.16178385133522
1.16178385133324
1.16178385133108
1.16178385132876
1.16178385132628
1.16178385132368
1.16178385132095
1.16178385131813
1.16178385131523
1.16178385131227
1.16178385130926
1.16178385130623
1.16178385130318
1.16178385130015
1.16178385129713
1.16178385129414
1.1617838512912
1.16178385128832
1.16178385128551
1.16178385128278
1.16178385128014
1.16178385127759
1.16178385127515
1.16178385127281
1.16178385127058
1.16178385126846
1.16178385126646
1.16178385126456
1.16178385126278
1.16178385126112
1.16178385125955
1.16178385125809
1.16178385125673
1.16178385125547
1.16178385125431
1.16178385125326
1.16178385125232
1.1617838512515
1.16178385125081
1.16178385125011
1.16178385124927
1.16178385124918
1.16178382484758
1.16178382484708
1.16178382484719
1.16178382484677
1.16178382484587
1.16178382484466
1.16178382484323
1.16178382484161
1.16178382483981
1.16178382483782
1.16178382483568
1.16178382483337
1.16178382483094
1.16178382482837
1.1617838248257
1.16178382482294
1.1617838248201
1.16178382481721
1.16178382481427
1.16178382481131
1.16178382480835
1.16178382480539
1.16178382480245
1.16178382479955
1.1617838247967
1.16178382479391
1.16178382479118
1.16178382478854
1.16178382478599
1.16178382478353
1.16178382478117
1.16178382477892
1.16178382477678
1.16178382477475
1.16178382477284
1.16178382477104
1.16178382476935
1.16178382476778
1.16178382476631
1.16178382476495
1.1617838247637
1.16178382476254
1.16178382476149
1.16178382476055
1.16178382475973
1.161783824759
1.1617838247584
1.16178382475778
1.161783824757
1.16178382475706
1.16178379835232
1.16178379835179
1.16178379835186
1.1617837983514
1.16178379835046
1.16178379834922
1.16178379834776
1.16178379834612
1.16178379834431
1.16178379834233
1.16178379834019
1.16178379833792
1.16178379833551
1.16178379833299
1.16178379833037
1.16178379832767
1.16178379832489
1.16178379832207
1.16178379831921
1.16178379831633
1.16178379831344
1.16178379831057
1.16178379830771
1.1617837983049
1.16178379830213
1.16178379829943
1.16178379829679
1.16178379829424
1.16178379829177
1.1617837982894
1.16178379828713
1.16178379828497
1.16178379828292
1.16178379828098
1.16178379827916
1.16178379827745
1.16178379827586
1.16178379827439
1.16178379827302
1.16178379827176
1.16178379827061
1.16178379826957
1.16178379826862
1.16178379826779
1.16178379826707
1.16178379826645
1.16178379826594
1.16178379826538
1.16178379826466
1.16178379826476
1.16178377185703
1.16178377185648
1.16178377185651
1.16178377185601
1.16178377185504
1.16178377185376
1.16178377185228
1.16178377185062
1.1617837718488
1.16178377184682
1.1617837718447
1.16178377184245
1.16178377184008
1.1617837718376
1.16178377183503
1.16178377183239
1.16178377182968
1.16178377182692
1.16178377182414
1.16178377182133
1.16178377181853
1.16178377181574
1.16178377181297
1.16178377181024
1.16178377180756
1.16178377180494
1.16178377180239
1.16178377179993
1.16178377179755
1.16178377179527
1.16178377179309
1.16178377179102
1.16178377178906
1.16178377178722
1.16178377178549
1.16178377178387
1.16178377178238
1.161783771781
1.16178377177973
1.16178377177857
1.16178377177753
1.16178377177659
1.16178377177576
1.16178377177504
1.16178377177442
1.16178377177391
1.16178377177348
1.161783771773
1.16178377177232
1.16178377177245
1.16178374536175
1.16178374536118
1.16178374536118
1.16178374536065
1.16178374535963
1.16178374535832
1.16178374535681
1.16178374535514
1.16178374535331
1.16178374535134
1.16178374534923
1.16178374534701
1.16178374534467
1.16178374534224
1.16178374533972
1.16178374533714
1.16178374533449
1.16178374533181
1.1617837453291
1.16178374532637
1.16178374532364
1.16178374532093
1.16178374531825
1.16178374531561
1.16178374531301
1.16178374531048
1.16178374530803
1.16178374530565
1.16178374530336
1.16178374530117
1.16178374529909
1.16178374529711
1.16178374529524
1.16178374529348
1.16178374529184
1.16178374529032
1.16178374528892
1.16178374528764
1.16178374528647
1.16178374528542
1.16178374528447
1.16178374528364
1.16178374528292
1.16178374528231
1.1617837452818
1.16178374528139
1.16178374528106
1.16178374528064
1.16178374528001
1.16178374528017
1.16178371886652
1.16178371886594
1.1617837188659
1.16178371886533
1.16178371886428
1.16178371886294
1.16178371886141
1.16178371885972
1.16178371885788
1.16178371885591
1.16178371885382
1.16178371885162
1.16178371884932
1.16178371884693
1.16178371884447
1.16178371884194
1.16178371883936
1.16178371883675
1.16178371883411
1.16178371883146
1.16178371882882
1.16178371882619
1.16178371882359
1.16178371882103
1.16178371881853
1.16178371881609
1.16178371881372
1.16178371881143
1.16178371880923
1.16178371880713
1.16178371880514
1.16178371880325
1.16178371880147
1.1617837187998
1.16178371879826
1.16178371879683
1.16178371879552
1.16178371879434
1.16178371879327
1.16178371879231
1.16178371879148
1.16178371879075
1.16178371879014
1.16178371878963
1.16178371878923
1.16178371878892
1.16178371878868
1.16178371878834
1.16178371878777
1.16178371878794
1.16178369237139
1.16178369237079
1.16178369237071
1.16178369237011
1.16178369236902
1.16178369236764
1.16178369236609
1.16178369236439
1.16178369236254
1.16178369236058
1.16178369235851
1.16178369235633
1.16178369235407
1.16178369235172
1.16178369234931
1.16178369234684
1.16178369234433
1.16178369234178
1.16178369233922
1.16178369233665
1.16178369233408
1.16178369233153
1.16178369232902
1.16178369232655
1.16178369232413
1.16178369232178
1.16178369231949
1.1617836923173
1.16178369231519
1.16178369231318
1.16178369231127
1.16178369230947
1.16178369230778
1.16178369230621
1.16178369230476
1.16178369230342
1.16178369230221
1.16178369230112
1.16178369230015
1.16178369229929
1.16178369229856
1.16178369229794
1.16178369229743
1.16178369229704
1.16178369229674
1.16178369229653
1.16178369229639
1.16178369229612
1.1617836922956
1.1617836922958
1.16178366587638
1.16178366587576
1.16178366587566
1.16178366587502
1.16178366587389
1.16178366587248
1.1617836658709
1.16178366586918
1.16178366586733
1.16178366586538
1.16178366586332
1.16178366586117
1.16178366585894
1.16178366585664
1.16178366585428
1.16178366585187
1.16178366584942
1.16178366584694
1.16178366584445
1.16178366584195
1.16178366583946
1.161783665837
1.16178366583457
1.16178366583218
1.16178366582985
1.16178366582758
1.16178366582539
1.16178366582328
1.16178366582126
1.16178366581934
1.16178366581752
1.16178366581581
1.16178366581421
1.16178366581273
1.16178366581137
1.16178366581012
1.161783665809
1.16178366580801
1.16178366580713
1.16178366580638
1.16178366580575
1.16178366580523
1.16178366580483
1.16178366580454
1.16178366580435
1.16178366580425
1.1617836658042
1.16178366580401
1.16178366580354
1.16178366580377
1.16178363938154
1.1617836393809
1.16178363938076
1.16178363938009
1.16178363937893
1.16178363937748
1.16178363937588
1.16178363937414
1.16178363937229
1.16178363937033
1.16178363936829
1.16178363936617
1.16178363936397
1.16178363936172
1.1617836393594
1.16178363935705
1.16178363935466
1.16178363935225
1.16178363934983
1.16178363934741
1.161783639345
1.16178363934262
1.16178363934027
1.16178363933796
1.16178363933572
1.16178363933354
1.16178363933143
1.16178363932941
1.16178363932747
1.16178363932564
1.16178363932391
1.16178363932229
1.16178363932078
1.16178363931939
1.16178363931811
1.16178363931696
1.16178363931593
1.16178363931503
1.16178363931425
1.1617836393136
1.16178363931307
1.16178363931266
1.16178363931236
1.16178363931218
1.16178363931209
1.1617836393121
1.16178363931214
1.16178363931202
1.16178363931162
1.16178363931187
1.1617836128869
1.16178361288625
1.16178361288607
1.16178361288536
1.16178361288416
1.16178361288268
1.16178361288106
1.1617836128793
1.16178361287744
1.16178361287549
1.16178361287346
1.16178361287136
1.1617836128692
1.16178361286699
1.16178361286472
1.16178361286243
1.1617836128601
1.16178361285775
1.1617836128554
1.16178361285306
1.16178361285073
1.16178361284842
1.16178361284615
1.16178361284393
1.16178361284176
1.16178361283967
1.16178361283765
1.16178361283571
1.16178361283386
1.16178361283212
1.16178361283047
1.16178361282894
1.16178361282752
1.16178361282621
1.16178361282503
1.16178361282397
1.16178361282303
1.16178361282222
1.16178361282153
1.16178361282098
1.16178361282055
1.16178361282024
1.16178361282005
1.16178361281997
1.16178361281999
1.1617836128201
1.16178361282024
1.16178361282019
1.16178361281984
1.16178361282013
1.16178358639249
1.16178358639183
1.16178358639162
1.16178358639087
1.16178358638963
1.16178358638812
1.16178358638647
1.1617835863847
1.16178358638283
1.16178358638088
1.16178358637886
1.16178358637679
1.16178358637466
1.16178358637249
1.16178358637027
1.16178358636803
1.16178358636576
1.16178358636348
1.1617835863612
1.16178358635892
1.16178358635667
1.16178358635444
1.16178358635225
1.16178358635011
1.16178358634803
1.16178358634601
1.16178358634407
1.16178358634222
1.16178358634046
1.16178358633879
1.16178358633724
1.16178358633579
1.16178358633445
1.16178358633323
1.16178358633214
1.16178358633116
1.16178358633031
1.16178358632959
1.161783586329
1.16178358632854
1.16178358632821
1.161783586328
1.16178358632792
1.16178358632795
1.16178358632807
1.16178358632828
1.16178358632852
1.16178358632855
1.16178358632826
1.16178358632857
1.16178355989837
1.16178355989769
1.16178355989744
1.16178355989666
1.16178355989538
1.16178355989382
1.16178355989215
1.16178355989036
1.16178355988848
1.16178355988654
1.16178355988453
1.16178355988248
1.16178355988038
1.16178355987825
1.16178355987608
1.16178355987389
1.16178355987168
1.16178355986946
1.16178355986725
1.16178355986504
1.16178355986286
1.16178355986071
1.16178355985859
1.16178355985653
1.16178355985453
1.16178355985259
1.16178355985074
1.16178355984897
1.16178355984729
1.16178355984571
1.16178355984423
1.16178355984286
1.16178355984161
1.16178355984048
1.16178355983947
1.16178355983858
1.16178355983782
1.16178355983719
1.16178355983669
1.16178355983632
1.16178355983609
1.16178355983598
1.161783559836
1.16178355983613
1.16178355983636
1.16178355983667
1.16178355983701
1.16178355983711
1.16178355983688
1.16178355983722
1.16178353340457
1.16178353340387
1.16178353340357
1.16178353340276
1.16178353340143
1.16178353339984
1.16178353339814
1.16178353339633
1.16178353339444
1.1617835333925
1.16178353339051
1.16178353338847
1.16178353338641
1.16178353338431
1.16178353338218
1.16178353338004
1.16178353337789
1.16178353337574
1.16178353337359
1.16178353337145
1.16178353336934
1.16178353336726
1.16178353336522
1.16178353336323
1.16178353336131
1.16178353335945
1.16178353335767
1.16178353335598
1.16178353335438
1.16178353335288
1.16178353335149
1.1617835333502
1.16178353334903
1.16178353334798
1.16178353334705
1.16178353334624
1.16178353334557
1.16178353334502
1.16178353334461
1.16178353334434
1.1617835333442
1.16178353334419
1.16178353334431
1.16178353334455
1.16178353334488
1.1617835333453
1.16178353334573
1.16178353334591
1.16178353334574
1.16178353334611
1.16178350691112
1.1617835069104
1.16178350691006
1.16178350690921
1.16178350690784
1.1617835069062
1.16178350690447
1.16178350690264
1.16178350690074
1.1617835068988
1.16178350689682
1.1617835068948
1.16178350689276
1.1617835068907
1.16178350688862
1.16178350688653
1.16178350688443
1.16178350688233
1.16178350688024
1.16178350687817
1.16178350687613
1.16178350687412
1.16178350687215
1.16178350687024
1.16178350686839
1.16178350686661
1.16178350686491
1.16178350686329
1.16178350686177
1.16178350686035
1.16178350685903
1.16178350685783
1.16178350685673
1.16178350685576
1.16178350685491
1.16178350685419
1.16178350685359
1.16178350685313
1.16178350685281
1.16178350685263
1.16178350685258
1.16178350685267
1.16178350685289
1.16178350685323
1.16178350685366
1.16178350685419
1.16178350685472
1.16178350685498
1.16178350685488
1.16178350685527
1.16178348041807
1.16178348041733
1.16178348041695
1.16178348041606
1.16178348041462
1.16178348041294
1.16178348041118
1.16178348040933
1.16178348040742
1.16178348040547
1.1617834804035
1.1617834804015
1.16178348039949
1.16178348039746
1.16178348039542
1.16178348039337
1.16178348039133
1.16178348038929
1.16178348038726
1.16178348038525
1.16178348038327
1.16178348038133
1.16178348037943
1.16178348037759
1.16178348037581
1.16178348037411
1.16178348037248
1.16178348037094
1.16178348036949
1.16178348036814
1.1617834803669
1.16178348036577
1.16178348036475
1.16178348036386
1.16178348036308