/*--------------------------------*- C++ -*----------------------------------*\
  =========                 |
  \\      /  F ield         | OpenFOAM: The Open Source CFD Toolbox
   \\    /   O peration     | Website:  https://openfoam.org
    \\  /    A nd           | Version:  10
     \\/     M anipulation  |
\*---------------------------------------------------------------------------*/
FoamFile
{
    format      ascii;
    class       volScalarField;
    location    "2.4";
    object      T;
}
// * * * * * * * * * * * * * * * * * * * * * * * * * * * * * * * * * * * * * //

dimensions      [0 0 0 1 0 0 0];

internalField   nonuniform List<scalar> 
2500
(
305.243953012126
305.194643146818
305.167539966739
305.158679783326
305.156096250732
305.155359711776
305.155156463245
305.15510173199
305.155086311104
305.155082038711
305.155079326378
305.155077767903
305.155076857135
305.155075720158
305.155074659988
305.155073484279
305.155072872656
305.155072115277
305.155071255377
305.155070640444
305.155070033444
305.155069375784
305.155068785324
305.155068597398
305.155068388432
305.15506801889
305.155067936595
305.155067831383
305.155067680204
305.155067814906
305.155067967406
305.155068077336
305.15506842614
305.155068911838
305.155069359628
305.155069798695
305.155070292649
305.155070718649
305.155071627485
305.155072649575
305.155074559132
305.155079771434
305.155097431355
305.155160520799
305.155385036301
305.156150172144
305.158743242592
305.167578977529
305.195077284815
305.243867409114
303.104064681217
302.987160092489
302.910959013819
302.882015963199
302.872091951558
302.868860380863
302.867874766768
302.867596291407
302.867523095234
302.867505162087
302.867500375103
302.867498973256
302.867498574035
302.867498161463
302.867497779466
302.867497373831
302.867497147092
302.867496869143
302.867496545444
302.867496275973
302.867495904248
302.867495389072
302.867494880477
302.867494797517
302.867494762259
302.867494522702
302.86749454651
302.86749452832
302.867494377185
302.867494571196
302.867494637077
302.867494473718
302.86749490564
302.86749554244
302.86749582409
302.867495977906
302.867496141844
302.86749631225
302.867496872549
302.867498410668
302.867504436188
302.867528093525
302.867616984496
302.867933047194
302.868986444487
302.872280505124
302.882136774884
302.910915698133
302.988571518651
303.106027721906
301.556332570366
301.441496626242
301.366499855323
301.337290791854
301.327213142303
301.323910186355
301.322891828149
301.322600381419
301.322523145092
301.32250419652
301.322499416101
301.322498244768
301.322498284376
301.322498236369
301.322498196999
301.322498205868
301.322498218547
301.322498212653
301.322498138488
301.322498070256
301.322497910534
301.322497641097
301.322497323373
301.322497231121
301.322497277874
301.322497211341
301.322497214229
301.322497256025
301.322497241159
301.322497336235
301.322497330376
301.322497169122
301.322497462594
301.322497944954
301.322498018541
301.32249799252
301.322498028398
301.322498001297
301.322498309722
301.322499584812
301.322505411407
301.322529273401
301.322619274943
301.322939369821
301.324004783774
301.327338945621
301.337342279043
301.366527615648
301.443311387239
301.56198511074
300.680172060122
300.603602826967
300.55983561663
300.542972329174
300.537392130227
300.535627444575
300.535093328787
300.534941069668
300.534900581469
300.534890627299
300.534888098799
300.534887574666
300.534887733168
300.534887776
300.534887812118
300.534887843559
300.534887869188
300.53488788716
300.534887871209
300.534887881261
300.534887872007
300.534887767731
300.534887601884
300.534887537902
300.534887593729
300.534887588494
300.534887583672
300.534887633057
300.534887661205
300.53488769962
300.534887687833
300.534887594806
300.534887739447
300.53488799027
300.534887999853
300.534887961871
300.534887961102
300.534887905959
300.534887984868
300.534888458347
300.534891152673
300.534902756243
300.534947139729
300.535107531135
300.535653370136
300.537419379472
300.542970703586
300.559949202773
300.60503698023
300.686203821178
300.265396795988
300.225245370996
300.205347736438
300.197697408918
300.195232526904
300.194473426891
300.194246665798
300.194181980462
300.19416463765
300.194160346394
300.194159244589
300.194159039937
300.194159147285
300.194159195857
300.194159227776
300.194159248446
300.194159272659
300.194159297824
300.194159306143
300.194159304551
300.194159306183
300.194159285772
300.19415921333
300.194159187242
300.194159217344
300.194159223095
300.194159226313
300.194159253906
300.194159274996
300.19415929
300.194159284436
300.194159244544
300.194159303453
300.194159404578
300.194159400077
300.194159377936
300.194159370338
300.194159341203
300.194159335956
300.19415946831
300.19416050746
300.194165158943
300.194183113384
300.194248523176
300.194474442968
300.195224452046
300.197669582752
300.20540088574
300.226057079774
300.269627691178
300.094234544336
300.076467247786
300.068791717377
300.06582927903
300.064887934738
300.064603229022
300.064518983963
300.064494897474
300.06448837948
300.064486753616
300.064486333647
300.064486263034
300.064486314708
300.064486342966
300.064486360791
300.064486371605
300.064486385036
300.064486399247
300.064486406508
300.064486404418
300.064486408262
300.064486400749
300.064486379276
300.064486378315
300.064486384293
300.064486387406
300.064486392253
300.064486404472
300.064486414332
300.06448642076
300.064486418635
300.064486404181
300.064486424839
300.064486456457
300.064486454543
300.064486447067
300.064486438689
300.064486423259
300.064486414399
300.064486447677
300.064486800806
300.064488460948
300.064494900924
300.064518410765
300.064600283799
300.064877146158
300.065803923041
300.068798571695
300.076832042311
300.096537918511
300.030908481774
300.02399387857
300.021357446994
300.020334631551
300.020011115984
300.019914354144
300.019885921739
300.019877774239
300.019875550382
300.019874987109
300.019874845526
300.019874828376
300.019874846759
300.019874859265
300.019874867419
300.019874872738
300.01987487841
300.019874883876
300.019874887425
300.019874886686
300.019874888887
300.019874886406
300.019874881343
300.01987488375
300.01987488563
300.019874886967
300.019874888728
300.019874892512
300.019874896121
300.019874899006
300.019874898307
300.019874893629
300.019874900021
300.019874908578
300.019874907683
300.019874904911
300.019874900561
300.019874893406
300.019874887839
300.019874895322
300.01987500819
300.01987555379
300.019877675888
300.019885406943
300.019912412768
300.020004850516
300.020319878457
300.021351556917
300.024131837105
300.031959807606
300.009476572567
300.007045075525
300.006213504908
300.005890001466
300.005787533227
300.005757057146
300.005748148001
300.005745591326
300.005744888495
300.005744708021
300.005744665309
300.005744661954
300.005744667214
300.005744671947
300.005744675306
300.005744677517
300.005744679436
300.005744681259
300.005744682657
300.005744682476
300.005744683381
300.005744682764
300.005744681823
300.005744683307
300.005744684017
300.0057446845
300.005744684969
300.005744685919
300.005744687117
300.005744688302
300.005744688142
300.005744686783
300.005744688518
300.005744690502
300.005744690014
300.00574468901
300.005744687248
300.005744684391
300.005744681828
300.005744683328
300.005744717758
300.005744886098
300.005745540987
300.005747916198
300.005756207143
300.005784783366
300.005883258404
300.006208295172
300.007090476077
300.009896982964
300.002741872034
300.00195456218
300.00170867707
300.001613202753
300.00158281454
300.001573788524
300.001571159391
300.001570404604
300.001570196027
300.001570142074
300.00157012995
300.001570129323
300.001570130908
300.001570132521
300.001570133743
300.001570134533
300.001570135134
300.001570135703
300.001570136216
300.001570136193
300.0015701363
300.001570136331
300.001570136428
300.001570136872
300.001570137096
300.001570137262
300.001570137417
300.001570137645
300.001570137985
300.001570138398
300.001570138375
300.001570138009
300.001570138416
300.001570138787
300.001570138559
300.001570138208
300.001570137596
300.001570136606
300.00157013566
300.001570135949
300.001570146011
300.001570195253
300.001570386757
300.001571077403
300.00157348032
300.001581785681
300.001610572321
300.00170600144
300.001967803255
300.00289337911
300.000754382781
300.000516374766
300.000447255514
300.000420614629
300.000412080972
300.000409541478
300.000408803369
300.000408591584
300.000408532871
300.000408517646
300.00040851436
300.00040851426
300.000408514732
300.000408515238
300.000408515637
300.00040851589
300.000408516072
300.000408516241
300.000408516398
300.000408516426
300.000408516441
300.00040851649
300.000408516583
300.000408516713
300.000408516775
300.000408516825
300.000408516883
300.000408516941
300.000408517025
300.000408517147
300.000408517145
300.000408517048
300.00040851713
300.000408517179
300.000408517087
300.000408516972
300.000408516781
300.000408516475
300.000408516178
300.000408516238
300.000408519055
300.000408532807
300.000408586275
300.000408777947
300.000409441642
300.000411734917
300.00041969774
300.000446156013
300.000519818863
300.000804557022
300.000198611949
300.000130728324
300.000112082497
300.000104985224
300.000102696913
300.000102013071
300.000101814472
300.000101757555
300.000101741754
300.000101737658
300.0001017368
300.000101736788
300.000101736923
300.00010173707
300.000101737189
300.000101737264
300.000101737317
300.000101737365
300.000101737415
300.000101737443
300.000101737455
300.000101737469
300.000101737493
300.000101737525
300.00010173754
300.000101737554
300.000101737574
300.00010173759
300.000101737609
300.00010173764
300.000101737639
300.000101737613
300.000101737627
300.000101737627
300.000101737596
300.000101737561
300.000101737506
300.00010173742
300.000101737336
300.000101737352
300.00010173811
300.000101741796
300.000101756123
300.000101807184
300.000101983017
300.000102589056
300.000104691199
300.000111685655
300.000131521377
300.000214099085
300.000050296717
300.000031880061
300.000027022795
300.000025204408
300.000024614715
300.000024437472
300.000024385973
300.000024371234
300.000024367142
300.000024366082
300.000024365864
300.000024365862
300.000024365899
300.000024365938
300.00002436597
300.000024365991
300.000024366005
300.000024366018
300.000024366032
300.000024366043
300.000024366048
300.000024366052
300.000024366057
300.000024366064
300.000024366067
300.00002436607
300.000024366077
300.000024366082
300.000024366085
300.000024366092
300.000024366092
300.000024366085
300.000024366086
300.000024366085
300.000024366075
300.000024366065
300.000024366051
300.000024366029
300.000024366008
300.000024366013
300.00002436621
300.000024367164
300.000024370863
300.000024383972
300.000024428859
300.000024582959
300.000025115948
300.000026891534
300.0000320365
300.000054800227
300.000012305127
300.0000075216
300.000006294566
300.000005844001
300.000005697225
300.000005652815
300.000005639888
300.000005636193
300.000005635167
300.0000056349
300.000005634844
300.000005634843
300.000005634851
300.00000563486
300.000005634868
300.000005634872
300.000005634875
300.000005634878
300.000005634881
300.000005634884
300.000005634885
300.000005634886
300.000005634887
300.000005634888
300.000005634889
300.00000563489
300.000005634892
300.000005634893
300.000005634893
300.000005634895
300.000005634894
300.000005634893
300.000005634893
300.000005634892
300.00000563489
300.000005634888
300.000005634885
300.00000563488
300.000005634876
300.000005634878
300.000005634929
300.000005635169
300.000005636093
300.000005639347
300.000005650426
300.000005688279
300.000005818695
300.000006253866
300.00000754523
300.000013549166
300.000002919345
300.00000172355
300.00000142203
300.000001313572
300.000001278139
300.000001267342
300.000001264189
300.000001263288
300.000001263036
300.00000126297
300.000001262954
300.000001262952
300.000001262953
300.000001262954
300.000001262955
300.000001262955
300.000001262955
300.000001262955
300.000001262955
300.000001262955
300.000001262955
300.000001262955
300.000001262955
300.000001262955
300.000001262954
300.000001262954
300.000001262955
300.000001262955
300.000001262955
300.000001262955
300.000001262955
300.000001262955
300.000001262955
300.000001262955
300.000001262955
300.000001262955
300.000001262955
300.000001262955
300.000001262955
300.000001262957
300.000001262971
300.00000126303
300.000001263255
300.00000126404
300.000001266692
300.000001275704
300.000001306622
300.000001410044
300.000001724803
300.000003247963
300.000000674117
300.000000385191
300.000000312898
300.00000028742
300.000000279089
300.000000276533
300.000000275782
300.000000275566
300.000000275504
300.000000275487
300.000000275481
300.000000275479
300.000000275478
300.000000275477
300.000000275476
300.000000275475
300.000000275474
300.000000275473
300.000000275472
300.000000275472
300.000000275471
300.000000275471
300.00000027547
300.00000027547
300.000000275469
300.000000275469
300.000000275469
300.000000275469
300.000000275469
300.000000275469
300.000000275469
300.000000275469
300.000000275469
300.00000027547
300.00000027547
300.000000275471
300.000000275472
300.000000275472
300.000000275473
300.000000275475
300.00000027548
300.000000275496
300.00000027555
300.000000275736
300.000000276355
300.000000278442
300.000000285573
300.000000309516
300.000000384274
300.000000757566
300.000000152306
300.00000008461
300.000000067601
300.000000061713
300.000000059793
300.0000000592
300.000000059024
300.000000058971
300.000000058955
300.000000058948
300.000000058945
300.000000058943
300.000000058941
300.00000005894
300.000000058938
300.000000058937
300.000000058936
300.000000058935
300.000000058934
300.000000058933
300.000000058932
300.000000058931
300.000000058931
300.00000005893
300.00000005893
300.00000005893
300.000000058929
300.000000058929
300.000000058929
300.000000058929
300.000000058929
300.00000005893
300.00000005893
300.00000005893
300.000000058931
300.000000058932
300.000000058933
300.000000058934
300.000000058935
300.000000058937
300.00000005894
300.000000058945
300.000000058959
300.000000059004
300.000000059146
300.00000005962
300.000000061232
300.000000066679
300.000000084082
300.000000172762
300.000000034147
300.000000018742
300.000000014741
300.000000013366
300.000000012925
300.000000012787
300.000000012745
300.000000012731
300.000000012725
300.000000012721
300.000000012718
300.000000012716
300.000000012714
300.000000012713
300.000000012711
300.00000001271
300.000000012708
300.000000012707
300.000000012706
300.000000012705
300.000000012704
300.000000012704
300.000000012703
300.000000012703
300.000000012702
300.000000012702
300.000000012702
300.000000012701
300.000000012701
300.000000012701
300.000000012701
300.000000012702
300.000000012702
300.000000012703
300.000000012703
300.000000012704
300.000000012705
300.000000012706
300.000000012708
300.000000012709
300.000000012712
300.000000012715
300.00000001272
300.000000012732
300.000000012766
300.000000012873
300.000000013239
300.000000014493
300.000000018537
300.000000038998
300.000000008014
300.000000004624
300.000000003613
300.000000003257
300.000000003148
300.000000003114
300.000000003102
300.000000003097
300.000000003093
300.00000000309
300.000000003088
300.000000003086
300.000000003084
300.000000003082
300.00000000308
300.000000003079
300.000000003078
300.000000003076
300.000000003075
300.000000003074
300.000000003074
300.000000003073
300.000000003072
300.000000003072
300.000000003071
300.000000003071
300.000000003071
300.00000000307
300.00000000307
300.00000000307
300.000000003071
300.000000003071
300.000000003071
300.000000003072
300.000000003072
300.000000003073
300.000000003074
300.000000003076
300.000000003077
300.000000003079
300.000000003081
300.000000003083
300.000000003086
300.000000003091
300.0000000031
300.000000003127
300.000000003218
300.000000003544
300.000000004549
300.000000009122
300.000000002356
300.000000001658
300.00000000132
300.000000001189
300.000000001154
300.000000001143
300.000000001138
300.000000001134
300.000000001131
300.000000001129
300.000000001126
300.000000001124
300.000000001122
300.00000000112
300.000000001119
300.000000001117
300.000000001116
300.000000001115
300.000000001113
300.000000001112
300.000000001112
300.000000001111
300.00000000111
300.00000000111
300.000000001109
300.000000001109
300.000000001109
300.000000001108
300.000000001108
300.000000001108
300.000000001109
300.000000001109
300.000000001109
300.00000000111
300.000000001111
300.000000001111
300.000000001112
300.000000001114
300.000000001115
300.000000001117
300.000000001119
300.000000001121
300.000000001123
300.000000001127
300.000000001131
300.00000000114
300.000000001171
300.000000001296
300.000000001625
300.000000002593
300.000000001155
300.000000001046
300.000000000857
300.000000000774
300.000000000755
300.00000000075
300.000000000746
300.000000000743
300.00000000074
300.000000000738
300.000000000735
300.000000000733
300.000000000731
300.000000000729
300.000000000728
300.000000000726
300.000000000725
300.000000000724
300.000000000722
300.000000000721
300.00000000072
300.00000000072
300.000000000719
300.000000000719
300.000000000718
300.000000000718
300.000000000717
300.000000000717
300.000000000717
300.000000000717
300.000000000717
300.000000000718
300.000000000718
300.000000000719
300.000000000719
300.00000000072
300.000000000721
300.000000000723
300.000000000724
300.000000000726
300.000000000728
300.00000000073
300.000000000732
300.000000000735
300.000000000738
300.000000000743
300.000000000762
300.000000000843
300.000000001025
300.000000001193
300.000000000904
300.000000000921
300.000000000764
300.000000000693
300.000000000677
300.000000000673
300.00000000067
300.000000000667
300.000000000664
300.000000000662
300.000000000659
300.000000000657
300.000000000655
300.000000000653
300.000000000652
300.00000000065
300.000000000649
300.000000000647
300.000000000646
300.000000000645
300.000000000644
300.000000000644
300.000000000643
300.000000000642
300.000000000642
300.000000000641
300.000000000641
300.000000000641
300.000000000641
300.000000000641
300.000000000641
300.000000000641
300.000000000642
300.000000000642
300.000000000643
300.000000000644
300.000000000645
300.000000000646
300.000000000648
300.000000000649
300.000000000651
300.000000000653
300.000000000656
300.000000000658
300.000000000661
300.000000000665
300.000000000681
300.000000000754
300.000000000904
300.000000000899
300.000000000852
300.000000000896
300.000000000746
300.000000000677
300.000000000662
300.000000000658
300.000000000656
300.000000000653
300.00000000065
300.000000000648
300.000000000645
300.000000000643
300.000000000641
300.000000000639
300.000000000637
300.000000000636
300.000000000634
300.000000000633
300.000000000632
300.000000000631
300.00000000063
300.000000000629
300.000000000629
300.000000000628
300.000000000627
300.000000000627
300.000000000627
300.000000000627
300.000000000627
300.000000000627
300.000000000627
300.000000000627
300.000000000628
300.000000000628
300.000000000629
300.00000000063
300.000000000631
300.000000000632
300.000000000634
300.000000000635
300.000000000637
300.000000000639
300.000000000641
300.000000000644
300.000000000646
300.00000000065
300.000000000666
300.000000000736
300.000000000879
300.000000000837
300.000000000841
300.000000000891
300.000000000743
300.000000000674
300.00000000066
300.000000000656
300.000000000653
300.00000000065
300.000000000648
300.000000000645
300.000000000643
300.000000000641
300.000000000638
300.000000000637
300.000000000635
300.000000000633
300.000000000632
300.000000000631
300.000000000629
300.000000000628
300.000000000628
300.000000000627
300.000000000626
300.000000000626
300.000000000625
300.000000000625
300.000000000624
300.000000000624
300.000000000624
300.000000000624
300.000000000624
300.000000000625
300.000000000625
300.000000000626
300.000000000626
300.000000000627
300.000000000628
300.00000000063
300.000000000631
300.000000000633
300.000000000635
300.000000000637
300.000000000639
300.000000000641
300.000000000644
300.000000000647
300.000000000663
300.000000000733
300.000000000874
300.000000000824
300.000000000839
300.00000000089
300.000000000742
300.000000000673
300.000000000659
300.000000000656
300.000000000653
300.00000000065
300.000000000647
300.000000000645
300.000000000643
300.00000000064
300.000000000638
300.000000000636
300.000000000635
300.000000000633
300.000000000632
300.00000000063
300.000000000629
300.000000000628
300.000000000627
300.000000000626
300.000000000626
300.000000000625
300.000000000625
300.000000000624
300.000000000624
300.000000000624
300.000000000624
300.000000000624
300.000000000624
300.000000000624
300.000000000625
300.000000000625
300.000000000626
300.000000000627
300.000000000628
300.000000000629
300.000000000631
300.000000000632
300.000000000634
300.000000000636
300.000000000639
300.000000000641
300.000000000643
300.000000000647
300.000000000662
300.000000000732
300.000000000873
300.000000000822
300.000000000838
300.000000000889
300.000000000742
300.000000000673
300.000000000659
300.000000000655
300.000000000653
300.00000000065
300.000000000647
300.000000000645
300.000000000642
300.00000000064
300.000000000638
300.000000000636
300.000000000635
300.000000000633
300.000000000632
300.00000000063
300.000000000629
300.000000000628
300.000000000627
300.000000000626
300.000000000626
300.000000000625
300.000000000625
300.000000000624
300.000000000624
300.000000000624
300.000000000624
300.000000000624
300.000000000624
300.000000000624
300.000000000625
300.000000000625
300.000000000626
300.000000000627
300.000000000628
300.000000000629
300.000000000631
300.000000000632
300.000000000634
300.000000000636
300.000000000639
300.000000000641
300.000000000643
300.000000000647
300.000000000662
300.000000000732
300.000000000873
300.000000000821
300.000000000838
300.000000000889
300.000000000742
300.000000000673
300.000000000659
300.000000000655
300.000000000653
300.00000000065
300.000000000647
300.000000000645
300.000000000642
300.00000000064
300.000000000638
300.000000000636
300.000000000635
300.000000000633
300.000000000632
300.00000000063
300.000000000629
300.000000000628
300.000000000627
300.000000000626
300.000000000626
300.000000000625
300.000000000625
300.000000000624
300.000000000624
300.000000000624
300.000000000624
300.000000000624
300.000000000624
300.000000000624
300.000000000625
300.000000000625
300.000000000626
300.000000000627
300.000000000628
300.000000000629
300.000000000631
300.000000000632
300.000000000634
300.000000000636
300.000000000638
300.000000000641
300.000000000643
300.000000000647
300.000000000662
300.000000000732
300.000000000873
300.000000000821
300.000000000838
300.000000000889
300.000000000742
300.000000000673
300.000000000659
300.000000000655
300.000000000652
300.00000000065
300.000000000647
300.000000000644
300.000000000642
300.00000000064
300.000000000638
300.000000000636
300.000000000634
300.000000000633
300.000000000631
300.00000000063
300.000000000629
300.000000000628
300.000000000627
300.000000000626
300.000000000626
300.000000000625
300.000000000625
300.000000000624
300.000000000624
300.000000000624
300.000000000624
300.000000000624
300.000000000624
300.000000000624
300.000000000625
300.000000000625
300.000000000626
300.000000000627
300.000000000628
300.000000000629
300.000000000631
300.000000000632
300.000000000634
300.000000000636
300.000000000638
300.000000000641
300.000000000643
300.000000000647
300.000000000662
300.000000000732
300.000000000873
300.000000000821
300.000000000838
300.000000000889
300.000000000742
300.000000000673
300.000000000659
300.000000000655
300.000000000652
300.000000000649
300.000000000647
300.000000000644
300.000000000642
300.00000000064
300.000000000637
300.000000000636
300.000000000634
300.000000000632
300.000000000631
300.00000000063
300.000000000629
300.000000000628
300.000000000627
300.000000000626
300.000000000625
300.000000000625
300.000000000624
300.000000000624
300.000000000624
300.000000000623
300.000000000623
300.000000000623
300.000000000624
300.000000000624
300.000000000624
300.000000000625
300.000000000626
300.000000000627
300.000000000628
300.000000000629
300.00000000063
300.000000000632
300.000000000634
300.000000000636
300.000000000638
300.00000000064
300.000000000643
300.000000000647
300.000000000662
300.000000000732
300.000000000873
300.000000000821
300.000000000838
300.000000000889
300.000000000742
300.000000000673
300.000000000658
300.000000000654
300.000000000652
300.000000000649
300.000000000646
300.000000000644
300.000000000641
300.000000000639
300.000000000637
300.000000000635
300.000000000633
300.000000000632
300.000000000631
300.000000000629
300.000000000628
300.000000000627
300.000000000626
300.000000000626
300.000000000625
300.000000000624
300.000000000624
300.000000000623
300.000000000623
300.000000000623
300.000000000623
300.000000000623
300.000000000623
300.000000000624
300.000000000624
300.000000000625
300.000000000625
300.000000000626
300.000000000627
300.000000000629
300.00000000063
300.000000000632
300.000000000634
300.000000000636
300.000000000638
300.00000000064
300.000000000643
300.000000000647
300.000000000662
300.000000000732
300.000000000873
300.000000000822
300.000000000839
300.000000000889
300.000000000742
300.000000000673
300.000000000658
300.000000000654
300.000000000651
300.000000000648
300.000000000645
300.000000000643
300.00000000064
300.000000000638
300.000000000636
300.000000000634
300.000000000633
300.000000000631
300.00000000063
300.000000000629
300.000000000628
300.000000000627
300.000000000626
300.000000000625
300.000000000624
300.000000000624
300.000000000623
300.000000000623
300.000000000623
300.000000000623
300.000000000622
300.000000000623
300.000000000623
300.000000000623
300.000000000624
300.000000000624
300.000000000625
300.000000000626
300.000000000627
300.000000000628
300.000000000629
300.000000000631
300.000000000633
300.000000000635
300.000000000637
300.00000000064
300.000000000642
300.000000000646
300.000000000662
300.000000000732
300.000000000874
300.000000000822
300.000000000839
300.00000000089
300.000000000741
300.000000000672
300.000000000657
300.000000000653
300.00000000065
300.000000000647
300.000000000645
300.000000000642
300.00000000064
300.000000000637
300.000000000635
300.000000000634
300.000000000632
300.00000000063
300.000000000629
300.000000000628
300.000000000627
300.000000000626
300.000000000625
300.000000000624
300.000000000624
300.000000000623
300.000000000623
300.000000000622
300.000000000622
300.000000000622
300.000000000622
300.000000000622
300.000000000622
300.000000000622
300.000000000623
300.000000000623
300.000000000624
300.000000000625
300.000000000626
300.000000000627
300.000000000629
300.000000000631
300.000000000632
300.000000000634
300.000000000637
300.000000000639
300.000000000642
300.000000000646
300.000000000662
300.000000000733
300.000000000874
300.000000000823
300.00000000084
300.00000000089
300.000000000741
300.000000000672
300.000000000657
300.000000000653
300.000000000649
300.000000000646
300.000000000644
300.000000000641
300.000000000639
300.000000000636
300.000000000634
300.000000000633
300.000000000631
300.000000000629
300.000000000628
300.000000000627
300.000000000626
300.000000000625
300.000000000624
300.000000000623
300.000000000623
300.000000000622
300.000000000622
300.000000000622
300.000000000621
300.000000000621
300.000000000621
300.000000000621
300.000000000621
300.000000000622
300.000000000622
300.000000000623
300.000000000623
300.000000000624
300.000000000625
300.000000000627
300.000000000628
300.00000000063
300.000000000632
300.000000000634
300.000000000636
300.000000000639
300.000000000642
300.000000000646
300.000000000662
300.000000000733
300.000000000875
300.000000000824
300.00000000084
300.00000000089
300.000000000742
300.000000000672
300.000000000656
300.000000000652
300.000000000648
300.000000000645
300.000000000642
300.00000000064
300.000000000637
300.000000000635
300.000000000633
300.000000000631
300.00000000063
300.000000000628
300.000000000627
300.000000000626
300.000000000625
300.000000000624
300.000000000623
300.000000000623
300.000000000622
300.000000000621
300.000000000621
300.000000000621
300.000000000621
300.00000000062
300.00000000062
300.00000000062
300.000000000621
300.000000000621
300.000000000621
300.000000000622
300.000000000623
300.000000000623
300.000000000624
300.000000000626
300.000000000627
300.000000000629
300.000000000631
300.000000000633
300.000000000635
300.000000000638
300.000000000641
300.000000000646
300.000000000662
300.000000000733
300.000000000876
300.000000000825
300.000000000841
300.000000000891
300.000000000742
300.000000000671
300.000000000656
300.000000000651
300.000000000647
300.000000000644
300.000000000641
300.000000000638
300.000000000636
300.000000000634
300.000000000632
300.00000000063
300.000000000629
300.000000000627
300.000000000626
300.000000000625
300.000000000624
300.000000000623
300.000000000622
300.000000000622
300.000000000621
300.00000000062
300.00000000062
300.00000000062
300.00000000062
300.000000000619
300.000000000619
300.000000000619
300.00000000062
300.00000000062
300.00000000062
300.000000000621
300.000000000622
300.000000000622
300.000000000623
300.000000000625
300.000000000626
300.000000000628
300.00000000063
300.000000000632
300.000000000635
300.000000000637
300.000000000641
300.000000000645
300.000000000662
300.000000000734
300.000000000878
300.000000000827
300.000000000843
300.000000000892
300.000000000742
300.000000000671
300.000000000655
300.00000000065
300.000000000646
300.000000000643
300.00000000064
300.000000000637
300.000000000634
300.000000000632
300.00000000063
300.000000000629
300.000000000627
300.000000000626
300.000000000625
300.000000000624
300.000000000623
300.000000000622
300.000000000621
300.00000000062
300.00000000062
300.000000000619
300.000000000619
300.000000000619
300.000000000619
300.000000000618
300.000000000618
300.000000000618
300.000000000619
300.000000000619
300.000000000619
300.00000000062
300.000000000621
300.000000000621