/*--------------------------------*- C++ -*----------------------------------*\
  =========                 |
  \\      /  F ield         | OpenFOAM: The Open Source CFD Toolbox
   \\    /   O peration     | Website:  https://openfoam.org
    \\  /    A nd           | Version:  10
     \\/     M anipulation  |
\*---------------------------------------------------------------------------*/
FoamFile
{
    format      ascii;
    class       volVectorField;
    location    "2.4";
    object      U;
}
// * * * * * * * * * * * * * * * * * * * * * * * * * * * * * * * * * * * * * //

dimensions      [0 1 -1 0 0 0 0];

internalField   nonuniform List<vector> 
2500
(
(-1.82007521175093e-06 -1.70172588175661e-05 7.26534895520999e-25)
(-3.92652854367475e-06 -1.94202781286321e-05 9.59768992828247e-24)
(-2.62367835758505e-06 -1.99465546650919e-05 8.04321179120216e-25)
(-1.74849848598449e-06 -1.97667688371479e-05 -9.75889491252848e-27)
(-1.21606069527867e-06 -1.96076186596096e-05 1.51216220622471e-24)
(-8.42771283208248e-07 -1.95115452858768e-05 8.30810963722801e-25)
(-6.09985107393759e-07 -1.94700256052611e-05 1.98392119158529e-25)
(-4.54955333784741e-07 -1.94539400008254e-05 3.03912339989227e-25)
(-3.37027159896127e-07 -1.944724146291e-05 1.48506932829002e-24)
(-2.44933898953129e-07 -1.94442943669612e-05 7.2077238623403e-24)
(-1.69556471165912e-07 -1.94426403557415e-05 -3.6689547042323e-25)
(-1.0661134901969e-07 -1.94415109434529e-05 9.32569263824848e-24)
(-5.33824146804494e-08 -1.94406401123371e-05 1.19580994031835e-23)
(-8.03101312446267e-09 -1.94399129713837e-05 -3.73348511792879e-25)
(3.07431330154198e-08 -1.94392828989455e-05 6.52699708520588e-24)
(6.39520674378209e-08 -1.94387363274167e-05 4.66639313931856e-25)
(9.24047607191475e-08 -1.94382503150004e-05 8.53332319556461e-24)
(1.16765551547991e-07 -1.94378158048717e-05 1.15020573970871e-23)
(1.37596050188936e-07 -1.94374269440375e-05 1.04020577823515e-24)
(1.55377697865193e-07 -1.94370845419774e-05 1.0956847747658e-23)
(1.70545908391607e-07 -1.94367777716368e-05 9.90556383015084e-25)
(1.83489431688666e-07 -1.94365124801014e-05 1.25343382315032e-24)
(1.94570722141368e-07 -1.94362771679628e-05 6.06021481848188e-24)
(2.04115330930025e-07 -1.94360785030662e-05 2.62671060489251e-25)
(2.12429250272839e-07 -1.94359067961527e-05 1.15488752946646e-24)
(2.19840477260827e-07 -1.94357705568491e-05 7.2226644698189e-24)
(2.26644547356309e-07 -1.943565465758e-05 9.28608282459448e-25)
(2.33132713073139e-07 -1.9435580354655e-05 -1.03675942719915e-24)
(2.39638612520965e-07 -1.94355301981212e-05 5.30717400206426e-24)
(2.46474529582037e-07 -1.94355078201828e-05 6.53308936863144e-25)
(2.53964929698296e-07 -1.94355214174159e-05 -9.16847002862135e-25)
(2.62510339057248e-07 -1.94355775972995e-05 3.41685261241242e-25)
(2.72525509434897e-07 -1.94356554225515e-05 -1.04386125104246e-24)
(2.84471360130386e-07 -1.9435775387093e-05 -9.58228362199159e-25)
(2.98912466009914e-07 -1.94359623516082e-05 7.53419557094186e-25)
(3.16512670766988e-07 -1.94362097851212e-05 7.32582753603123e-24)
(3.38091600374509e-07 -1.94365376164505e-05 -6.91818418128548e-24)
(3.64671571328277e-07 -1.94369742274e-05 -4.68798615615625e-25)
(3.97576737940939e-07 -1.94375668868294e-05 -5.97907522465168e-25)
(4.38650032453985e-07 -1.94384395360086e-05 -6.83224505468734e-25)
(4.90662045387458e-07 -1.94398969775553e-05 -7.97418021867108e-24)
(5.58018033315578e-07 -1.94428007322313e-05 -6.46266647707585e-24)
(6.50012002862867e-07 -1.94497222858206e-05 9.42387550806023e-25)
(7.78882266601491e-07 -1.94664224388542e-05 -6.49375426305158e-24)
(9.84323271349026e-07 -1.95080890150374e-05 -9.53664657445783e-24)
(1.3337507784395e-06 -1.96028426606814e-05 1.44983719769214e-24)
(1.84152747148758e-06 -1.97578154139323e-05 -4.65210222642461e-24)
(2.70599872867919e-06 -1.99409750870087e-05 -1.01068321765867e-23)
(4.0281618362845e-06 -1.94085098206931e-05 7.16750028470785e-25)
(1.87618319513635e-06 -1.69205227619095e-05 -9.87608513610949e-24)
(-6.0770412111618e-07 -1.51674539837864e-05 1.68171900805798e-24)
(-5.77700633362312e-06 -1.76164512386224e-05 7.49916628905079e-24)
(-4.36603437363646e-06 -1.83609524722227e-05 1.965726103619e-24)
(-3.07102297132442e-06 -1.77951711570622e-05 8.90605496338663e-25)
(-2.35669005294608e-06 -1.73354283354193e-05 1.15889113709269e-23)
(-1.80450369249875e-06 -1.70624241683136e-05 2.83418220723512e-24)
(-1.42320751841051e-06 -1.69280757051443e-05 8.54067917398676e-25)
(-1.14350445496418e-06 -1.68635385700791e-05 1.13137963024224e-24)
(-9.17849085061301e-07 -1.68299213552471e-05 3.30351360790613e-24)
(-7.35245200178099e-07 -1.68100419262331e-05 2.99557276271822e-24)
(-5.83511800697446e-07 -1.67966458008239e-05 -2.91760761384168e-26)
(-4.55824627344421e-07 -1.67867489167212e-05 1.40889575685082e-24)
(-3.47235747889074e-07 -1.67790476646286e-05 2.64777814420743e-24)
(-2.54152895491474e-07 -1.67728375690209e-05 -7.11670082339241e-25)
(-1.73916058456364e-07 -1.67677126290328e-05 1.79436600428997e-24)
(-1.04432739337418e-07 -1.67634460590762e-05 9.7763949583551e-25)
(-4.40275207745556e-08 -1.67598522680412e-05 2.97042857386406e-24)
(8.6742233069154e-09 -1.67568138324242e-05 4.03168879865066e-24)
(5.48184694171426e-08 -1.6754250059725e-05 2.25083601488853e-24)
(9.53976735208612e-08 -1.67520973836786e-05 5.74383858519739e-24)
(1.31291680599928e-07 -1.67503102601754e-05 2.37827735848075e-24)
(1.63287546051677e-07 -1.67488530334008e-05 2.72884397538531e-24)
(1.92111905189283e-07 -1.67476936535517e-05 1.62977632516165e-24)
(2.18418767509514e-07 -1.67468312132253e-05 8.7191325492179e-25)
(2.42825777062368e-07 -1.67462374838295e-05 2.21116278571014e-24)
(2.65980830541894e-07 -1.67459131079483e-05 3.33716529748467e-24)
(2.88481206966606e-07 -1.6745860500613e-05 1.58311815032773e-24)
(3.10921136016003e-07 -1.67460823330116e-05 -2.37108947198355e-24)
(3.33959891461108e-07 -1.67465747287881e-05 8.58508264641983e-27)
(3.58233837093231e-07 -1.67473661949034e-05 1.49188634509622e-24)
(3.84428467093267e-07 -1.67484882434271e-05 -2.64326397922241e-24)
(4.13357757350212e-07 -1.674996294076e-05 -5.72815204874417e-25)
(4.45877099362233e-07 -1.67518341995885e-05 -2.34186983982651e-24)
(4.82932599289812e-07 -1.6754159707032e-05 -2.29320934409537e-24)
(5.25700719361092e-07 -1.67570524760655e-05 7.54221168533429e-25)
(5.75560164735842e-07 -1.6760618642043e-05 1.39587314427157e-24)
(6.3419207260749e-07 -1.67650321816216e-05 -2.04454332290984e-24)
(7.03694312023622e-07 -1.67705373167844e-05 -9.46573451264349e-25)
(7.86740233387991e-07 -1.6777543009809e-05 -1.16608373313338e-24)
(8.86913708336735e-07 -1.67867828803507e-05 -9.78106876135485e-24)
(1.00917595141808e-06 -1.6799660404479e-05 -1.42228753895081e-24)
(1.16046761315606e-06 -1.68193520112475e-05 3.38288880941677e-25)
(1.35328415847078e-06 -1.68535246777448e-05 -5.49564188980119e-24)
(1.60047739967232e-06 -1.69199082723311e-05 -4.10490312868932e-25)
(1.94897244607753e-06 -1.70568032707115e-05 -9.86317723910164e-25)
(2.47633463956894e-06 -1.73321157354709e-05 -5.52913498476542e-24)
(3.16208491836272e-06 -1.77939064445436e-05 1.4791186606082e-24)
(4.45681441470906e-06 -1.83833769948686e-05 -1.06040849769873e-26)
(5.96487619860319e-06 -1.7625950676343e-05 -7.18616012310377e-24)
(7.39796908061352e-07 -1.50340770991823e-05 -6.8401984819248e-25)
(-6.05416404993249e-08 1.05842301465566e-05 2.20030691425392e-24)
(-3.74583626598132e-06 1.1492584450516e-05 2.87817412301316e-24)
(-3.46820268753722e-06 9.46166221843274e-06 2.57909304970387e-24)
(-2.95142960254224e-06 9.28868121518628e-06 6.87170092026578e-25)
(-2.55965437514974e-06 9.42273306196074e-06 -4.17429439318844e-24)
(-2.10848006599489e-06 9.58032387890999e-06 -2.78977208541851e-24)
(-1.74127725283799e-06 9.69692439876611e-06 1.09157931997562e-24)
(-1.44705858316665e-06 9.77566000581927e-06 1.31714710373945e-24)
(-1.19995284780919e-06 9.82901963048596e-06 -2.73667431304453e-24)
(-9.95989963348153e-07 9.86676311930301e-06 -2.31200737825986e-24)
(-8.24973721318754e-07 9.89471196664946e-06 7.53005578949461e-24)
(-6.80313728164509e-07 9.91623706628025e-06 3.08589616284467e-24)
(-5.56823869803953e-07 9.93331001168768e-06 -3.75918116508271e-24)
(-4.50581196531417e-07 9.94717047304961e-06 5.99608121148322e-24)
(-3.58573246723896e-07 9.95862711642009e-06 -2.88921844590787e-24)
(-2.78416728526069e-07 9.96819194570185e-06 1.67609880628383e-24)
(-2.08200469103776e-07 9.97623604804415e-06 4.0431420682533e-24)
(-1.46346407027994e-07 9.98303519252644e-06 1.07250621842955e-24)
(-9.15318069787709e-08 9.98876660837885e-06 2.97628926253052e-24)
(-4.26163003672638e-08 9.99357276651625e-06 -2.49636464266943e-25)
(1.40544626893339e-09 9.99756766497074e-06 2.70356151049387e-24)
(4.14315119648941e-08 1.00008266301582e-05 -3.16016028508682e-24)
(7.82747754469286e-08 1.00034111716832e-05 3.24592480154112e-24)
(1.12693626326407e-07 1.00053445154201e-05 1.29700811229135e-24)
(1.45407675394095e-07 1.00066682788878e-05 -2.38136514724443e-24)
(1.7712122124788e-07 1.00073930549798e-05 4.42151398569826e-24)
(2.08525687191745e-07 1.00074961215276e-05 8.7716403334961e-25)
(2.40307074052908e-07 1.00069984432298e-05 3.13481276941952e-24)
(2.73177947854589e-07 1.00058699883469e-05 1.54574824524197e-24)
(3.07886654895093e-07 1.0004063883472e-05 -3.57926867851141e-24)
(3.45243151102141e-07 1.00015235231613e-05 4.17493994768044e-26)
(3.86136298735947e-07 9.99818956328036e-06 -7.99060458693064e-24)
(4.31556266696248e-07 9.99393153155671e-06 3.10178146636375e-24)
(4.82620179282348e-07 9.98861802928904e-06 2.94650077780633e-24)
(5.4064934514004e-07 9.98205787839338e-06 -5.67336377748315e-24)
(6.0721530294638e-07 9.9739825569707e-06 2.05228104377085e-24)
(6.84238091215989e-07 9.9640105438564e-06 -2.42679489318034e-24)
(7.74078392544512e-07 9.95162139523078e-06 -1.01437369311863e-24)
(8.79714504787179e-07 9.93600908395845e-06 5.81090225016429e-24)
(1.00505405690802e-06 9.91592468816897e-06 -7.08217772845913e-24)
(1.15525234364534e-06 9.88932656230099e-06 -1.93895980088912e-24)
(1.33685907014497e-06 9.85276643916304e-06 -7.79343352197931e-25)
(1.56010271010293e-06 9.80013359325323e-06 -6.85578287768364e-25)
(1.83026589314604e-06 9.7209322500982e-06 -1.0636466018909e-24)
(2.1714243306428e-06 9.60178019395229e-06 -1.26473581284724e-24)
(2.603528823051e-06 9.43630964709159e-06 -4.32930362987978e-24)
(2.97379546431628e-06 9.28060008012879e-06 -3.95126741527508e-25)
(3.50206708699879e-06 9.39114174339896e-06 -8.294578630426e-25)
(3.8958605790976e-06 1.1457157435656e-05 -4.39621236881356e-24)
(1.65626979848862e-07 1.05987054492258e-05 -9.93439883879142e-25)
(-1.8225132540854e-06 1.50386029825799e-05 2.39315819822247e-24)
(-2.26934137113477e-06 1.41915199685106e-05 1.28770858417297e-23)
(-2.69725904190769e-06 1.02512774002837e-05 2.71149711653234e-24)
(-2.62649655720027e-06 9.3766429108429e-06 7.63518427484525e-25)
(-2.44040586649175e-06 9.25144900047028e-06 8.91592393833347e-25)
(-2.08275536906959e-06 9.34008118347256e-06 2.70573956847507e-24)
(-1.75905304861585e-06 9.45825555535514e-06 9.07910634345999e-25)
(-1.48798833811355e-06 9.55692014673746e-06 1.14991181153718e-24)
(-1.25628452622148e-06 9.63082912596954e-06 3.83472046129478e-24)
(-1.06329691004419e-06 9.68612458341264e-06 7.1650395360357e-24)
(-9.00620819602163e-07 9.72820973894606e-06 9.58051966313434e-25)
(-7.62486714410608e-07 9.76103056148795e-06 7.0305464752932e-24)
(-6.44206730828414e-07 9.78720254156938e-06 7.1906823080393e-24)
(-5.42171373983903e-07 9.80847329854015e-06 4.24001819253224e-25)
(-4.53539482205165e-07 9.82602063492212e-06 7.56291035370337e-24)
(-3.76045220235511e-07 9.84063858061021e-06 2.33678902929136e-24)
(-3.07850229460158e-07 9.85289152555722e-06 6.67801894805353e-24)
(-2.47428971730572e-07 9.86318863424964e-06 8.05239990724502e-24)
(-1.93505889431776e-07 9.8718278977191e-06 3.13408194243004e-24)
(-1.44957778125465e-07 9.87902836224704e-06 8.56877522526982e-24)
(-1.00815621627895e-07 9.88495602579925e-06 2.6784306638252e-24)
(-6.021546565061e-08 9.88972923607068e-06 3.39862494296336e-24)
(-2.23600100171356e-08 9.89345538878967e-06 6.75753521874577e-24)
(1.34857885549662e-08 9.89618576815406e-06 1.50362216157552e-24)
(4.80203926362582e-08 9.89796481872007e-06 2.69081226914288e-24)
(8.19141519206198e-08 9.89880431575135e-06 6.25377066851769e-24)
(1.15835339061554e-07 9.89871000009954e-06 2.04572677253176e-24)
(1.50451165160992e-07 9.89766350617215e-06 -1.70039221044267e-24)
(1.86444487850282e-07 9.89563801313417e-06 4.88820421035624e-24)
(2.24539735974943e-07 9.89256317589653e-06 2.1762016158123e-24)
(2.65525004032963e-07 9.88835478647898e-06 -2.57028170795185e-24)
(3.10249042078416e-07 9.88288706548953e-06 -4.44688763329605e-25)
(3.59665145884865e-07 9.87600046019881e-06 -2.3698664079657e-24)
(4.14869969579811e-07 9.86746557409293e-06 -2.28532695862275e-24)
(4.77135414421456e-07 9.85698774019318e-06 1.41362105850549e-24)
(5.47954093957293e-07 9.8441520718711e-06 5.04806523391632e-24)
(6.29152981267043e-07 9.82838802145477e-06 -3.90589672625946e-24)
(7.22959663017332e-07 9.80890260724576e-06 -1.21676328325127e-24)
(8.32159345603285e-07 9.78453483844702e-06 -7.93700329632564e-25)
(9.60318057262102e-07 9.75350967149379e-06 1.71878937310479e-24)
(1.11202397074404e-06 9.71315645649848e-06 -5.72932020018373e-24)
(1.29288106124528e-06 9.65945159719597e-06 -5.09904040217373e-24)
(1.51095657549917e-06 9.58674211561164e-06 3.25008109878043e-24)
(1.76726747977449e-06 9.48818104538163e-06 -4.417886938948e-24)
(2.07169352263947e-06 9.36791812317218e-06 -4.90521038733929e-24)
(2.41406801274095e-06 9.27105246880671e-06 2.98827101565734e-24)
(2.58283551625758e-06 9.36616848808906e-06 -4.90907997769906e-24)
(2.68167951305232e-06 1.01553773695789e-05 -4.99869112922394e-24)
(2.32781594312807e-06 1.41697215484434e-05 4.45915516205103e-24)
(1.83602763048138e-06 1.50114165681e-05 -3.77082453582881e-24)
(-1.72368616899964e-06 1.35650921455371e-05 1.19285424253262e-24)
(-1.7795989793039e-06 1.04530726422193e-05 7.45490505465136e-24)
(-2.47636467611427e-06 6.23266308182313e-06 1.34767661280365e-24)
(-2.41721991720192e-06 5.32596414601879e-06 2.12294086912551e-25)
(-2.27116720367622e-06 5.22168487473258e-06 -1.16365920034926e-24)
(-1.96385142087366e-06 5.34996223348696e-06 1.71879021321349e-24)
(-1.68151472949547e-06 5.5055522324421e-06 4.0220643921443e-25)
(-1.44140191549455e-06 5.63314258260562e-06 5.15819551514673e-25)
(-1.23366977370026e-06 5.72848637825388e-06 2.53460770372923e-24)
(-1.05897288176353e-06 5.80022642953649e-06 3.70818426692777e-24)
(-9.10654719734722e-07 5.85518184845184e-06 -4.81234201222601e-25)
(-7.84004181989133e-07 5.89826054847636e-06 2.80517928217467e-24)
(-6.75090331000225e-07 5.93270798404329e-06 3.79503987112214e-24)
(-5.80805551686742e-07 5.96072517083681e-06 -5.3648659318114e-25)
(-4.98637054573054e-07 5.98381198909119e-06 4.16412082330278e-24)
(-4.26546221934639e-07 6.00300871816586e-06 1.16447564208372e-24)
(-3.62867695283965e-07 6.01905696558646e-06 3.04883084891632e-24)
(-3.06195068731045e-07 6.03248378790606e-06 4.14441482673313e-24)
(-2.55339744325136e-07 6.04368980291586e-06 1.49894092733805e-24)
(-2.09265743724011e-07 6.05298067317772e-06 4.41992073363904e-24)
(-1.67068729097088e-07 6.06055964006549e-06 1.25000733441539e-24)
(-1.27932018422841e-07 6.06660400545194e-06 2.31527083521393e-24)
(-9.11175104658015e-08 6.07123886441271e-06 2.61995669453799e-24)
(-5.59403883467285e-08 6.07454853585671e-06 7.10554948538687e-25)
(-2.1742710809836e-08 6.07658406534854e-06 1.96901540710484e-24)
(1.21006763014195e-08 6.07737042016636e-06 3.01896674664478e-24)
(4.62062881803899e-08 6.07692041882538e-06 1.55143417670002e-24)
(8.11998551329495e-08 6.07520353224537e-06 -1.33455455623686e-24)
(1.17716900729094e-07 6.07217481313705e-06 1.95755855945283e-24)
(1.56432934789484e-07 6.0677456852209e-06 1.51740288612345e-24)
(1.98084509727527e-07 6.06179846525673e-06 -1.48464793338611e-24)
(2.43454241187767e-07 6.05417146467759e-06 7.30476380601474e-25)
(2.9343140471548e-07 6.04464516347868e-06 -1.74582411074173e-24)
(3.49032487386577e-07 6.03293477379739e-06 -1.66008847357437e-24)
(4.11421716289377e-07 6.01862578100676e-06 1.43479990049338e-24)
(4.81964903908091e-07 6.00118292369206e-06 2.03642929686149e-24)
(5.62311197646135e-07 5.97986608221966e-06 -1.81130535065673e-24)
(6.54442132447598e-07 5.95365783040731e-06 -5.68483107459356e-25)
(7.60792138652707e-07 5.92107828834739e-06 -9.33913631675632e-25)
(8.84395768021916e-07 5.879867838601e-06 3.86126121731189e-24)
(1.02904043558467e-06 5.82673434844089e-06 -1.92425074374847e-24)
(1.1991681327168e-06 5.75668266271251e-06 -1.91817809792961e-24)
(1.40084129033922e-06 5.66258743761925e-06 4.51088428137128e-24)
(1.63322901250179e-06 5.53521549951369e-06 -1.77412017668681e-24)
(1.90195114923924e-06 5.37779634855286e-06 -1.81197041392441e-24)
(2.19747522029066e-06 5.24132169386705e-06 4.93002399004592e-24)
(2.32851023201129e-06 5.30769782385277e-06 -1.8628284014003e-24)
(2.43276043699344e-06 6.11811774806886e-06 -2.13595177350096e-24)
(1.78098820950678e-06 1.04318025166513e-05 6.10842752272632e-24)
(1.69231010730148e-06 1.35724876102493e-05 -2.00916138824462e-24)
(-9.8895371340311e-07 1.14129246445025e-05 4.96726502407711e-25)
(-1.61584709704781e-06 7.21554797426686e-06 5.17215952536388e-24)
(-2.3538800860048e-06 3.23742129166729e-06 5.56272780517048e-25)
(-2.23481843905345e-06 2.4184373049812e-06 1.22872530114958e-25)
(-2.09755850567697e-06 2.37333837885039e-06 1.01225568384911e-24)
(-1.83261879191129e-06 2.54313811471643e-06 1.7782467628795e-24)
(-1.58904073863658e-06 2.73022092652632e-06 1.99023784646147e-25)
(-1.37874937841654e-06 2.88118545722196e-06 2.13498620645485e-25)
(-1.19371299610134e-06 2.99421640739983e-06 1.89697273712769e-24)
(-1.03579040600632e-06 3.07982759684911e-06 2.1948360964827e-24)
(-9.00232010530437e-07 3.14589958957604e-06 -1.326678183498e-24)
(-7.83504639462694e-07 3.19797202675322e-06 8.44938206554624e-25)
(-6.82491066272644e-07 3.23977527481469e-06 2.33148936103198e-24)
(-5.94608827227372e-07 3.27383537033838e-06 -1.20809228516218e-24)
(-5.17701306876986e-07 3.30191920563028e-06 2.4213728762072e-24)
(-4.49973740861423e-07 3.32524984610633e-06 4.30582930172651e-25)
(-3.89931953554321e-07 3.34471137545893e-06 1.11560047866577e-24)
(-3.36294209529188e-07 3.36095548782579e-06 2.62490247639435e-24)
(-2.87960960561356e-07 3.3744600014143e-06 5.98805231684193e-25)
(-2.43969172045946e-07 3.38558959894052e-06 2.55100315669068e-24)
(-2.03476235393956e-07 3.39461549245397e-06 5.05755084771147e-25)
(-1.65718030622733e-07 3.40174893542096e-06 1.79921831918864e-24)
(-1.29996964143295e-07 3.40712982004117e-06 8.65447009287155e-25)
(-9.56663108919017e-08 3.41088188759402e-06 2.97482012078297e-25)
(-6.21090987163293e-08 3.41306304292521e-06 1.84118700725657e-24)
(-2.87342774954419e-08 3.41370579845909e-06 1.08726747868936e-24)
(5.03601493714036e-09 3.41281781077003e-06 1.58482747885389e-24)
(3.97902400458613e-08 3.41037309406389e-06 -1.49803192888824e-24)
(7.61308387822208e-08 3.40630145417402e-06 6.44992417723647e-25)
(1.14689904731462e-07 3.40051085083201e-06 1.49449760979077e-24)
(1.56160602666431e-07 3.39284568673379e-06 -1.50694169566277e-24)
(2.01271968471432e-07 3.38310396260512e-06 1.33317191700633e-24)
(2.50852485923956e-07 3.37103221878651e-06 -1.65163336806776e-24)
(3.05842549006022e-07 3.35626614531385e-06 -1.70584678133754e-24)
(3.67308602569025e-07 3.33831381733304e-06 1.48436859239956e-24)
(4.36493166870621e-07 3.31654289366093e-06 7.07314444316906e-25)
(5.14861295325261e-07 3.29005414220449e-06 -5.62979498610483e-25)
(6.04146462204377e-07 3.25766177848906e-06 -2.45341949098031e-25)
(7.06417873287521e-07 3.21762782148575e-06 -1.39741115865868e-24)
(8.24157346657819e-07 3.16736997416249e-06 2.59430783474905e-24)
(9.60308664845821e-07 3.10315264763798e-06 -4.87472479653779e-25)
(1.11807391902833e-06 3.01935356787163e-06 -5.32812055611622e-25)
(1.30148670325576e-06 2.9078958274163e-06 2.44691026408722e-24)
(1.50829677591089e-06 2.75786514002167e-06 -4.90896496325912e-25)
(1.74234932500461e-06 2.5698157025367e-06 -5.15335171651164e-25)
(1.99879806550897e-06 2.39110301220807e-06 2.74993220775845e-24)
(2.12444833321293e-06 2.38644061154439e-06 -5.07040551419953e-25)
(2.29803067151614e-06 3.09783380812219e-06 -4.9025962741027e-25)
(1.59812515503337e-06 7.17207090825454e-06 4.1393359822391e-24)
(9.53786086359368e-07 1.14262446111975e-05 -7.10004425677168e-25)
(-4.6471306438935e-07 1.00940045892354e-05 1.68015236802464e-25)
(-1.45061072417887e-06 5.62582530305005e-06 1.88827719696871e-24)
(-2.1347233820954e-06 1.71330496246552e-06 1.86648247762302e-25)
(-2.02335487202091e-06 9.0077532216888e-07 3.98700950730884e-26)
(-1.91525831213679e-06 8.79715337016869e-07 2.72532762260187e-25)
(-1.69908416975617e-06 1.0697352796836e-06 4.78674774773466e-25)
(-1.49382847325813e-06 1.27522746099148e-06 6.39316928685645e-26)
(-1.31178105957786e-06 1.44194117859622e-06 6.5645174848169e-26)
(-1.14756104591925e-06 1.56833037498973e-06 4.93055691755897e-25)
(-1.00458381679944e-06 1.6651799275234e-06 8.639598999436e-25)
(-8.8008284167471e-07 1.74066329131057e-06 -3.1818650903658e-25)
(-7.71714537927093e-07 1.80059174692862e-06 6.49575355572396e-25)
(-6.77175753458346e-07 1.848947297524e-06 1.09755465400295e-24)
(-5.94418672207809e-07 1.88847580555843e-06 -2.46071055699742e-25)
(-5.21639609732261e-07 1.92112188526844e-06 1.03799928982879e-24)
(-4.57289763114219e-07 1.94824910101583e-06 1.63575269065676e-25)
(-4.000359803612e-07 1.97086306518432e-06 7.55007961310878e-25)
(-3.4871662401166e-07 1.98970595097038e-06 1.09911710554678e-24)
(-3.02322903698525e-07 2.00533285390582e-06 2.13450863669049e-25)
(-2.59956553597006e-07 2.01816141929278e-06 1.0805445535e-24)
(-2.2082434172683e-07 2.02850876208573e-06 1.65946343516841e-25)
(-1.84210082542951e-07 2.03661697201693e-06 4.66758773157683e-25)
(-1.49447992288063e-07 2.04266924940337e-06 6.94588691603558e-25)
(-1.15922255722427e-07 2.04678959346467e-06 1.10623361474944e-25)
(-8.3052325922086e-08 2.04905687224654e-06 5.12277544619211e-25)
(-5.02717121234801e-08 2.04951061963475e-06 7.22194345016572e-25)
(-1.7028335053218e-08 2.04815499074086e-06 4.14753855518306e-25)
(1.72368639642558e-08 2.04496516231606e-06 -3.4157249214187e-25)
(5.30999042054814e-08 2.03985683522888e-06 6.48573469350213e-25)
(9.11617493767042e-08 2.03272153527871e-06 3.80490930152695e-25)
(1.3206939020719e-07 2.02337587538932e-06 -3.75737255015805e-25)
(1.76517911114484e-07 2.0115871577498e-06 3.46643361384422e-25)
(2.25282000442805e-07 1.99706253439003e-06 -3.94666655700312e-25)
(2.79226859848626e-07 1.97936874361859e-06 -4.45173383466872e-25)
(3.39338784090791e-07 1.95796716755776e-06 3.69797038589857e-25)
(4.06734567717129e-07 1.93211623627018e-06 4.1076588608759e-25)
(4.82706662851434e-07 1.9008133518127e-06 -4.58759680810946e-25)
(5.68747948257519e-07 1.86274334123201e-06 -8.70972892881094e-26)
(6.66569599003692e-07 1.81599385998922e-06 -3.56068435538855e-25)
(7.78109312594968e-07 1.75778395119249e-06 6.21651347893852e-25)
(9.05474743103239e-07 1.6841524360907e-06 -5.73462256681923e-25)
(1.05065630301521e-06 1.58928095749752e-06 -6.22005801399457e-25)
(1.21569095018295e-06 1.46492063928832e-06 5.46410172664468e-25)
(1.39677148214951e-06 1.30007165361944e-06 -6.53470204932731e-25)
(1.59568642245611e-06 1.09476137092575e-06 -6.26697927865884e-25)
(1.80648210586518e-06 8.95001667880195e-07 6.68035756481931e-25)
(1.90723982839055e-06 8.54511875261702e-07 -6.02584462498697e-25)
(2.07343096667545e-06 1.54617131012607e-06 -9.0564361615614e-25)
(1.42991168632612e-06 5.55363795313837e-06 1.06452856130608e-24)
(4.36396480492576e-07 1.00796134153535e-05 -9.05315742151395e-25)
(-2.19479522627951e-07 9.60460104672117e-06 5.53495604636656e-26)
(-1.24591936095494e-06 5.17907927750928e-06 4.5499220832773e-25)
(-1.84784922280147e-06 1.13397947830559e-06 6.18767051540019e-26)
(-1.79368438610099e-06 2.59501117803823e-07 8.25197666610365e-27)
(-1.72792794473685e-06 2.24080755127833e-07 -1.11518326064076e-25)
(-1.5628212817463e-06 4.14216901831553e-07 1.27355016020842e-25)
(-1.39445309778176e-06 6.26335069671171e-07 2.37006316291564e-26)
(-1.23918048911863e-06 8.01939268090862e-07 2.6955579151719e-26)
(-1.09460988877843e-06 9.37643823324729e-07 1.59499741364992e-25)
(-9.65717640327658e-07 1.04320837016053e-06 2.3583269083012e-25)
(-8.51576626819006e-07 1.12646297756822e-06 -7.77797802856801e-26)
(-7.50978418885383e-07 1.19315786351588e-06 1.33578350066723e-25)
(-6.62401854367984e-07 1.24730603466827e-06 2.62640535392439e-25)
(-5.84312185929527e-07 1.29176825780474e-06 -5.66124099298592e-26)
(-5.15264563893583e-07 1.32858178390352e-06 2.45956222680183e-25)
(-4.53948468263386e-07 1.3592155848268e-06 5.43023654174814e-26)
(-3.99196557061082e-07 1.38476367123833e-06 1.7572347915874e-25)
(-3.49968844008998e-07 1.4060331341475e-06 2.61769321584539e-25)
(-3.05342392332793e-07 1.42364412666958e-06 6.94752158300866e-26)
(-2.6448718757392e-07 1.4380641753797e-06 2.50354057275988e-25)
(-2.26662118802321e-07 1.4496452877268e-06 5.12642225035975e-26)
(-1.9118529290306e-07 1.45866677036741e-06 1.27201207623782e-25)
(-1.57429190860027e-07 1.46533329765903e-06 1.49392745423559e-25)
(-1.24809246053936e-07 1.46978020909703e-06 3.25072394784982e-26)
(-9.27667735086379e-08 1.47210103314791e-06 1.35110753012218e-25)
(-6.07647415768443e-08 1.47234846845377e-06 1.60557541736911e-25)
(-2.82714169637801e-08 1.47053026249001e-06 1.02927123028376e-25)
(5.24559321986776e-09 1.46659869145976e-06 -7.79029013747656e-26)
(4.03365332981765e-08 1.46048345914758e-06 1.42383895069259e-25)
(7.75724876856296e-08 1.4520340480627e-06 9.30350021713661e-26)
(1.17565337264115e-07 1.44105930169175e-06 -8.35040963983648e-26)
(1.60971865822981e-07 1.42730739412805e-06 7.94649588042729e-26)
(2.08511902842971e-07 1.41042603358414e-06 -1.01074209438928e-25)
(2.60990022342867e-07 1.38995422147023e-06 -1.10176429852529e-25)
(3.19300074621135e-07 1.36528728354879e-06 9.12703589421478e-26)
(3.84438856760796e-07 1.33561689255453e-06 1.23474913086737e-25)
(4.57536531042608e-07 1.29986710696708e-06 -1.02396408588582e-25)
(5.39841344782234e-07 1.25663031371278e-06 -2.35090889226922e-26)
(6.32713719782709e-07 1.20389980563212e-06 -6.93791041417806e-26)
(7.37568178772837e-07 1.1388111219556e-06 3.05037022322385e-25)
(8.55736781172818e-07 1.05738707261794e-06 -1.11232238990768e-25)
(9.88081673499072e-07 9.53949776912541e-07 -1.25995468559436e-25)
(1.13483607073307e-06 8.20696295730409e-07 3.14669136850732e-25)
(1.29076303974909e-06 6.47771511144388e-07 -1.39184215281634e-25)
(1.45544115463647e-06 4.36774127409907e-07 -1.213708555451e-25)
(1.61785493951541e-06 2.3587093619862e-07 3.56839254247019e-25)
(1.68048430780714e-06 2.00215675118919e-07 -1.130096976e-25)
(1.78367589637635e-06 9.41088430089452e-07 -1.42441756402729e-25)
(1.22454989125844e-06 5.08209644714572e-06 5.13513901443357e-25)
(1.97222398241487e-07 9.55210870383872e-06 -2.17553383502596e-25)
(-1.26049659737861e-07 9.56901814831029e-06 3.5361059172643e-26)
(-1.03928596915975e-06 5.25637712626147e-06 2.92726898832068e-25)
(-1.55969924288149e-06 1.00303657197143e-06 4.0292415339266e-26)
(-1.5696383397138e-06 4.18181135250043e-08 1.90513358338325e-26)
(-1.54449211691979e-06 -3.08355822591644e-08 1.27780638714629e-25)
(-1.42636676781351e-06 1.46602540141352e-07 1.29746791395195e-25)
(-1.29181485934696e-06 3.57016030026788e-07 2.21215882859586e-26)
(-1.16147201277906e-06 5.36142094542213e-07 2.58955332488039e-26)
(-1.035555416826e-06 6.77703739882133e-07 1.63669423945759e-25)
(-9.20290193762222e-07 7.89687628457199e-07 1.87678567929731e-25)
(-8.16302162138348e-07 8.79175293644192e-07 -9.37324349353007e-26)
(-7.23389007168041e-07 9.51562311312272e-07 2.75246179746634e-26)
(-6.40742274491017e-07 1.01076563114253e-06 1.67093858190763e-25)
(-5.67316786480389e-07 1.05962570206597e-06 -1.08465790569018e-25)
(-5.02012353081415e-07 1.10022277926719e-06 1.55352733265594e-25)
(-4.43751726421064e-07 1.13408599255005e-06 2.95136416512514e-26)
(-3.91537619727472e-07 1.16235367415274e-06 5.29550286941392e-26)
(-3.44451597636419e-07 1.18589541577271e-06 1.47851942201972e-25)
(-3.01657869357904e-07 1.20536931733918e-06 4.02925831275756e-26)
(-2.6239735559465e-07 1.22128315249739e-06 1.37667067334594e-25)
(-2.25976626456402e-07 1.23402870885431e-06 3.29488700810033e-26)
(-1.91757806134237e-07 1.2439122537757e-06 1.27411651553424e-25)
(-1.59150574292919e-07 1.25114911185387e-06 3.79544029820566e-26)
(-1.27597383550477e-07 1.25589984549313e-06 1.84448759235294e-26)
(-9.65658788061268e-08 1.25826721807336e-06 1.09539473047064e-25)
(-6.55420655067024e-08 1.25830853634098e-06 5.14999108559794e-26)
(-3.40262907440398e-08 1.25603015433037e-06 9.17833883309285e-26)
(-1.50373617947824e-09 1.25138421781119e-06 -8.16806087948515e-26)
(3.25453474040481e-08 1.24428293388701e-06 2.54891560702593e-26)
(6.86625148893646e-08 1.23457194773694e-06 8.80542550792189e-26)
(1.07430603697404e-07 1.22203656393115e-06 -6.5707542500829e-26)
(1.49455632285318e-07 1.20640293454948e-06 6.93945208074219e-26)
(1.95413899940098e-07 1.18728924368146e-06 -1.17481193842671e-25)
(2.46038570213484e-07 1.16419265521901e-06 -9.85942136808338e-26)
(3.02133987491354e-07 1.13646483092035e-06 8.20489804455914e-26)
(3.64583020704038e-07 1.10326043160514e-06 3.05357247270237e-26)
(4.34344256749367e-07 1.06344485128794e-06 -2.21821344069089e-26)
(5.12431090386565e-07 1.01555934354829e-06 -8.74198253795393e-27)
(5.99869097868326e-07 9.57579572389694e-07 -8.75486678002239e-26)
(6.97588355115638e-07 8.86668928480159e-07 1.22732769943301e-25)
(8.06214992082879e-07 7.98978145850796e-07 -1.19479501811275e-26)
(9.2563572964992e-07 6.89217764546641e-07 -1.52028559803365e-26)
(1.05460325921693e-06 5.50412840615893e-07 1.29825566249822e-25)
(1.18678278038124e-06 3.74527027423777e-07 -1.63905262467881e-26)
(1.31987712545603e-06 1.65772714762274e-07 -1.15232935138588e-26)
(1.43740872010813e-06 -2.36632905054384e-08 1.34466749632244e-25)