/*--------------------------------*- C++ -*----------------------------------*\
  =========                 |
  \\      /  F ield         | OpenFOAM: The Open Source CFD Toolbox
   \\    /   O peration     | Website:  https://openfoam.org
    \\  /    A nd           | Version:  10
     \\/     M anipulation  |
\*---------------------------------------------------------------------------*/
FoamFile
{
    format      ascii;
    class       volScalarField;
    location    "2.4";
    object      wallHeatFlux;
}
// * * * * * * * * * * * * * * * * * * * * * * * * * * * * * * * * * * * * * //

dimensions      [1 0 -3 0 0 0 0];

internalField   uniform 0;

boundaryField
{
    back
    {
        type            calculated;
        value           uniform 0;
    }
    bottom
    {
        type            calculated;
        value           nonuniform List<scalar> 
50
(
262.652610327288
275.514513237246
282.582359440063
284.891095534534
285.563044779204
285.753699448606
285.805923314439
285.819208001995
285.822160522227
285.822816076604
285.822722973488
285.822610745463
285.822534782097
285.822403706613
285.822297426067
285.822154619276
285.82211270666
285.822034820342
285.821937684762
285.821888682959
285.821863028204
285.821874769917
285.821892192303
285.821862650251
285.821817686591
285.821815084642
285.821801301131
285.821793638452
285.821819376644
285.821792212936
285.821782525227
285.82182950941
285.82182315317
285.82180634589
285.821826296572
285.821877439032
285.821945798648
285.821985413473
285.822101207703
285.822151287168
285.82202313336
285.821098516802
285.817010225899
285.800958804367
285.743390135571
285.544413731238
284.869147433108
282.566585082371
275.394831575612
262.669213525029
)
;
    }
    left
    {
        type            calculated;
        value           uniform 0;
    }
    front
    {
        type            calculated;
        value           uniform 0;
    }
    right
    {
        type            calculated;
        value           uniform 0;
    }
    top
    {
        type            calculated;
        value           uniform 0;
    }
}


// ************************************************************************* //
