/*--------------------------------*- C++ -*----------------------------------*\
  =========                 |
  \\      /  F ield         | OpenFOAM: The Open Source CFD Toolbox
   \\    /   O peration     | Website:  https://openfoam.org
    \\  /    A nd           | Version:  10
     \\/     M anipulation  |
\*---------------------------------------------------------------------------*/
FoamFile
{
    format      ascii;
    class       volScalarField;
    location    "7.2";
    object      alphat;
}
// * * * * * * * * * * * * * * * * * * * * * * * * * * * * * * * * * * * * * //

dimensions      [1 -1 -1 0 0 0 0];

internalField   nonuniform List<scalar> 
2500
(
7.33841027962147e-15
1.44193696353116e-13
6.16358626641742e-13
1.06920726890618e-12
1.45985885437972e-12
1.77414607604983e-12
2.01070131943859e-12
2.17754974209947e-12
2.28802812613884e-12
2.35684113397958e-12
2.39724668760248e-12
2.419663102929e-12
2.43144016919794e-12
2.43731282956405e-12
2.44009832514213e-12
2.44135758882177e-12
2.44190108399899e-12
2.44212526242677e-12
2.44221359572477e-12
2.44224671166572e-12
2.44225837362235e-12
2.44226208532297e-12
2.44226302017763e-12
2.44226306790809e-12
2.44226288226381e-12
2.44226267119734e-12
2.44226239211532e-12
2.44226174435676e-12
2.4422598363409e-12
2.44225424111253e-12
2.44223861145788e-12
2.44219697056884e-12
2.44209070915578e-12
2.44183041612149e-12
2.44121825656009e-12
2.43983723815345e-12
2.43685312326167e-12
2.43068831534283e-12
2.41853739075294e-12
2.39573804043463e-12
2.35510706833257e-12
2.28649693196525e-12
2.17697780134351e-12
2.01209965438201e-12
1.77850135823253e-12
1.46763414689469e-12
1.07968622783082e-12
6.26848665199831e-13
1.48519899407763e-13
7.69106069504374e-15
7.28287326683997e-13
3.75395529357043e-11
1.63815491768986e-10
2.84394119085469e-10
3.88579340479304e-10
4.72617980891187e-10
5.36080427107362e-10
5.8101723468656e-10
6.10904475183758e-10
6.296115822796e-10
6.40654157487334e-10
6.46814756185732e-10
6.50070321687151e-10
6.51703509072494e-10
6.52482933260298e-10
6.52837497115264e-10
6.52991497139178e-10
6.53055428839456e-10
6.53080789086716e-10
6.53090367643507e-10
6.53093772746747e-10
6.53094873635407e-10
6.53095162652297e-10
6.5309518885633e-10
6.53095142567739e-10
6.53095084756912e-10
6.53095004099243e-10
6.53094812791586e-10
6.53094252556047e-10
6.53092623521133e-10
6.53088105761621e-10
6.53076145846963e-10
6.53045805336416e-10
6.52971910732203e-10
6.52799110038876e-10
6.52411474151174e-10
6.51578561638039e-10
6.49867456714894e-10
6.46513369187606e-10
6.4025370942007e-10
6.29156175250245e-10
6.10509416282877e-10
5.80882552788617e-10
5.36469897117583e-10
4.73785109139699e-10
3.90637500032215e-10
2.87147894081851e-10
1.66557467689984e-10
3.86422995567762e-11
7.61936214034864e-13
2.58839112610787e-12
6.75843177793771e-10
2.31785131535942e-07
4.01612022115482e-07
5.47426220191894e-07
6.64664519736756e-07
7.53064118426883e-07
8.15659278584862e-07
8.57345945091536e-07
8.83500609047012e-07
8.98988632645183e-07
9.07662096513406e-07
9.1226497528934e-07
9.14584556432028e-07
9.15696849258716e-07
9.16205349821695e-07
9.16427344597106e-07
9.16519995122403e-07
9.16556955796159e-07
9.16571005665006e-07
9.16576042014303e-07
9.16577693000682e-07
9.16578141646121e-07
9.16578196303746e-07
9.16578138977702e-07
9.16578058341302e-07
9.16577940684718e-07
9.16577657447445e-07
9.165768326133e-07
9.16574450327862e-07
9.16567878667536e-07
9.1655055799546e-07
9.1650679173082e-07
9.1640060167094e-07
9.1615320185687e-07
9.15600271281936e-07
9.14416557685146e-07
9.11993608073823e-07
9.07260978091467e-07
8.98458327825092e-07
8.82900539647004e-07
8.56828387372626e-07
8.15486092283282e-07
7.53579012774246e-07
6.66197240071296e-07
5.50123955836328e-07
4.05217342061971e-07
2.35365913204715e-07
6.93897088436756e-10
2.68967293113585e-12
4.58862556520065e-12
1.20655840242199e-09
4.1510343832557e-07
7.16543306204147e-07
9.73709146892599e-07
1.17948489847166e-06
1.33411118202103e-06
1.44335879733344e-06
1.51602830701879e-06
1.56160497723349e-06
1.58860088224181e-06
1.60372965098752e-06
1.61176673526601e-06
1.61582228474221e-06
1.61776998042177e-06
1.61866191609276e-06
1.61905203815539e-06
1.61921519456525e-06
1.61928043370312e-06
1.61930530261764e-06
1.61931425123825e-06
1.61931720362432e-06
1.61931801724283e-06
1.61931812645627e-06
1.61931803640431e-06
1.61931789873462e-06
1.61931769543581e-06
1.61931720494997e-06
1.61931577742193e-06
1.61931165438466e-06
1.61930027407557e-06
1.61927025474004e-06
1.6191943347653e-06
1.61900997625923e-06
1.6185801348967e-06
1.6176188156204e-06
1.61555966506449e-06
1.61134279497368e-06
1.60310286475738e-06
1.58777077279213e-06
1.56066078751028e-06
1.51520070760734e-06
1.44304526679779e-06
1.33483390237849e-06
1.18174484500789e-06
9.77727158980104e-07
7.21915307032053e-07
4.20391987017524e-07
1.2326686305649e-09
4.73252249939638e-12
6.55901310816364e-12
1.72560171434858e-09
5.92175117381216e-07
1.01862846332891e-06
1.38047862933221e-06
1.6688389338562e-06
1.88489746953766e-06
2.03726701406835e-06
2.13852031150158e-06
2.20200439179157e-06
2.23961504811673e-06
2.2607051006776e-06
2.27191917541331e-06
2.27758427949851e-06
2.28030860019332e-06
2.28155807366519e-06
2.28210550319642e-06
2.28233488329367e-06
2.28242680339724e-06
2.28246193816055e-06
2.28247462939868e-06
2.28247884481282e-06
2.28248002414333e-06
2.28248019821696e-06
2.2824800844733e-06
2.2824798998585e-06
2.28247961925336e-06
2.28247894016083e-06
2.28247696622062e-06
2.28247126737756e-06
2.28245553138926e-06
2.282413989579e-06
2.28230883061632e-06
2.28205323064584e-06
2.2814567585341e-06
2.2801217069541e-06
2.27725999568028e-06
2.27139598154587e-06
2.25993128830699e-06
2.23858819894987e-06
2.20082993583099e-06
2.13747345583932e-06
2.03682278034347e-06
1.88567970264558e-06
1.67144484606653e-06
1.38516733136523e-06
1.02490734404956e-06
5.9833098359721e-07
1.75605264291621e-09
6.7286647271154e-12
8.44133800475572e-12
2.22107150943407e-09
7.59834612254059e-07
1.3028528688494e-06
1.76143016844049e-06
2.12558977221228e-06
2.39777742549456e-06
2.58943766716306e-06
2.71670063741915e-06
2.79647619684601e-06
2.84375020207281e-06
2.87027450126462e-06
2.88439010806612e-06
2.89152860599504e-06
2.89496576763825e-06
2.89654441849606e-06
2.89723717735475e-06
2.89752797958655e-06
2.89764476214535e-06
2.89768952120667e-06
2.89770575318418e-06
2.89771118376974e-06
2.89771272885547e-06
2.89771297723802e-06
2.89771285095779e-06
2.89771262896337e-06
2.89771227894342e-06
2.89771142805625e-06
2.89770896012643e-06
2.89770184375654e-06
2.89768219470912e-06
2.8976302962005e-06
2.89749882105751e-06
2.89717899410449e-06
2.8964320440274e-06
2.89475895503979e-06
2.89117030670943e-06
2.88381251428467e-06
2.86942019685736e-06
2.84261480445535e-06
2.79517132511031e-06
2.71552005805644e-06
2.5888886830909e-06
2.39852518442381e-06
2.12826877259025e-06
1.76631181573698e-06
1.30940920151957e-06
7.66266760916781e-07
2.25337021236656e-09
8.62530322648557e-12
1.02003176186778e-11
2.68424415406229e-09
9.15602989110432e-07
1.56543990477502e-06
2.11195923707279e-06
2.5446483312395e-06
2.86739524013684e-06
3.09437239716019e-06
3.2449940747974e-06
3.3394020981539e-06
3.39536281535664e-06
3.42677920756949e-06
3.44351189499869e-06
3.45198243342637e-06
3.45606578059465e-06
3.45794373722218e-06
3.45876909201536e-06
3.45911615664903e-06
3.45925582212201e-06
3.4593094955297e-06
3.45932903919434e-06
3.45933562717854e-06
3.45933753577334e-06
3.45933786946189e-06
3.45933774084207e-06
3.45933748987237e-06
3.45933707783844e-06
3.45933607066367e-06
3.45933315825948e-06
3.45932477674271e-06
3.459301646297e-06
3.45924053778253e-06
3.4590856422636e-06
3.45870858170899e-06
3.45782734654468e-06
3.45585218132508e-06
3.45161312389286e-06
3.44291737696829e-06
3.42590044858596e-06
3.3941942816088e-06
3.33805489586691e-06
3.24376163055334e-06
3.09376053433913e-06
2.8680648265394e-06
2.54722631014746e-06
2.1167096036483e-06
1.57183998169635e-06
9.21906940713678e-07
2.71668182937484e-09
1.03904335223447e-11
1.18123761795874e-11
3.10909740492467e-09
1.05778630076484e-06
1.80395640931052e-06
2.42925175841529e-06
2.92304350424301e-06
3.29073851860309e-06
3.54906401259688e-06
3.7204094371142e-06
3.82780388664346e-06
3.89148192203531e-06
3.92725114955285e-06
3.94631701765233e-06
3.95597787692289e-06
3.9606402104222e-06
3.96278716022369e-06
3.96373209099879e-06
3.96413009501888e-06
3.96429057895792e-06
3.96435241549575e-06
3.96437502287659e-06
3.96438270176727e-06
3.96438496840482e-06
3.96438539776358e-06
3.96438527711651e-06
3.96438500383986e-06
3.96438453657552e-06
3.96438338745803e-06
3.9643800771036e-06
3.96437057521696e-06
3.96434437682944e-06
3.96427516299291e-06
3.96409965044272e-06
3.96367215691658e-06
3.96267244764322e-06
3.9604304477281e-06
3.9556162223175e-06
3.94573616755681e-06
3.92639418188433e-06
3.89034370781083e-06
3.82649128811455e-06
3.71920303446958e-06
3.54844478586186e-06
3.2913308126596e-06
2.92543435982944e-06
2.43368241422e-06
1.80993504559011e-06
1.06370882290635e-06
3.14055359330579e-09
1.20028962556618e-11
1.32634788841751e-11
3.4920079840468e-09
1.18543615037039e-06
2.01719839241022e-06
2.7120910514777e-06
3.25966294713594e-06
3.66683000212806e-06
3.95265486740764e-06
4.14217675710119e-06
4.26096793139687e-06
4.33142639253302e-06
4.37102621424375e-06
4.39214946987908e-06
4.40286242656749e-06
4.40803788865453e-06
4.41042395612913e-06
4.41147554629128e-06
4.4119191679376e-06
4.41209838666986e-06
4.41216761826735e-06
4.41219302988631e-06
4.41220172612065e-06
4.41220434112022e-06
4.41220487421289e-06
4.41220477053007e-06
4.41220448154462e-06
4.4122039652706e-06
4.4122026875726e-06
4.41219902278207e-06
4.41218853633884e-06
4.41215965918791e-06
4.41208338374393e-06
4.41188991186192e-06
4.41141845454099e-06
4.41031536005963e-06
4.40784025589581e-06
4.40252306535852e-06
4.39160648277363e-06
4.37022813460542e-06
4.33037062936246e-06
4.25975588947551e-06
4.14106916618312e-06
3.95209349410605e-06
3.66738196418141e-06
3.26185371547121e-06
2.71612696801067e-06
2.02262987991815e-06
1.19084672842395e-06
3.52183110721717e-09
1.34506268957533e-11
1.45476474798543e-11
3.83140103159436e-09
1.29824137446152e-06
2.20497981064932e-06
2.96055404500754e-06
3.55487665186907e-06
3.99629884812343e-06
4.3059728419669e-06
4.5112606893773e-06
4.63994484295651e-06
4.71629663881971e-06
4.75923156647562e-06
4.7821497826775e-06
4.79378282962926e-06
4.79940824902617e-06
4.80200463119953e-06
4.80315035405986e-06
4.80363439596526e-06
4.80383029661888e-06
4.80390615710619e-06
4.80393410856278e-06
4.80394374319948e-06
4.80394669191441e-06
4.80394733390402e-06
4.80394725539355e-06
4.80394695668244e-06
4.80394639714829e-06
4.80394500349825e-06
4.8039410249359e-06
4.80392968016952e-06
4.80389848571747e-06
4.80381611950192e-06
4.80360716593983e-06
4.80309779137302e-06
4.80190545138443e-06
4.79922892786904e-06
4.79347674327837e-06
4.78166301380101e-06
4.75852103102964e-06
4.71536477795118e-06
4.63888835625201e-06
4.51031790179771e-06
4.30553929909688e-06
3.99687322382956e-06
3.55690994852708e-06
2.9642081310222e-06
2.20984717901826e-06
1.30310541315353e-06
3.85931268786627e-09
1.47292730285663e-11
1.56655298969267e-11
4.12739016164833e-09
1.39640747431768e-06
2.3679175018265e-06
3.17571771616578e-06
3.81018437198082e-06
4.28098663119146e-06
4.61110976773179e-06
4.82992140896715e-06
4.96709972284655e-06
5.04851868529346e-06
5.09432630269592e-06
5.11879387916672e-06
5.13122304477972e-06
5.13723885277453e-06
5.14001826047307e-06
5.1412461823833e-06
5.14176566079939e-06
5.14197625847081e-06
5.14205799825489e-06
5.14208822565303e-06
5.14209871627667e-06
5.14210198016875e-06
5.14210273316869e-06
5.1421026861843e-06
5.14210238286734e-06
5.14210178545567e-06
5.14210028794404e-06
5.14209603365137e-06
5.14208394706104e-06
5.14205076737984e-06
5.14196320186649e-06
5.1417410445399e-06
5.14119932245139e-06
5.13993078885916e-06
5.13708215242695e-06
5.13095795734892e-06
5.11837643828033e-06
5.09372427105756e-06
5.04774215480648e-06
4.96624281839436e-06
4.82920084301676e-06
4.61087353288337e-06
4.2816611456645e-06
3.81214019849749e-06
3.17906491797936e-06
2.37228217993276e-06
1.40076085362356e-06
4.15339705718447e-09
1.58407831774976e-11
1.66230572130353e-11
4.38144438521005e-09
1.48054682190786e-06
2.50724533578987e-06
3.35941388199052e-06
4.02792753308946e-06
4.52362997314178e-06
4.87108493408447e-06
5.10136611633531e-06
5.24575643052214e-06
5.33148425120318e-06
5.37973922092031e-06
5.40552962570171e-06
5.41864018134365e-06
5.42499103556797e-06
5.42792800192214e-06
5.42922692820824e-06
5.42977713898208e-06
5.43000054530881e-06
5.43008744319952e-06
5.43011968781524e-06
5.43013095049833e-06
5.43013450785233e-06
5.43013537077995e-06
5.43013535960771e-06
5.43013505591874e-06
5.43013442573654e-06
5.43013283607478e-06
5.43012834164047e-06
5.43011562002987e-06
5.43008075712742e-06
5.42998880130742e-06
5.42975550807693e-06
5.42918650136433e-06
5.42785365832879e-06
5.4248596387346e-06
5.41842096818533e-06
5.40518998358023e-06
5.37925971768067e-06
5.33088514358493e-06
5.24513221017278e-06
5.10091496351522e-06
4.8711100264109e-06
4.52448711030594e-06
4.0299061228356e-06
3.36256694523628e-06
2.51121905661454e-06
1.48447244297545e-06
4.4057552169637e-09
1.67920681385959e-11
1.74302071956933e-11
4.59608284385798e-09
1.55158114596093e-06
2.62465536029633e-06
3.51402489901955e-06
4.21105327406027e-06
4.72760353222786e-06
5.08957459172469e-06
5.32947019031417e-06
5.4799137431622e-06
5.56926403674003e-06
5.6195805208048e-06
5.64648769508784e-06
5.66017494121509e-06
5.6668101473408e-06
5.66988124405654e-06
5.67124082503019e-06
5.67181739330457e-06
5.67205183883591e-06
5.67214321178568e-06
5.67217722414095e-06
5.67218917492916e-06
5.67219300141279e-06
5.67219397058256e-06
5.67219399773639e-06
5.6721936970655e-06
5.6721930389895e-06
5.67219136855356e-06
5.67218666717664e-06
5.67217340771372e-06
5.6721371334113e-06
5.67204151276578e-06
5.67179893720319e-06
5.67120718798633e-06
5.66982071151778e-06
5.6667053554854e-06
5.66000403774145e-06
5.64623029545297e-06
5.61923142101746e-06
5.56885586999288e-06
5.47954461608555e-06
5.32932417192665e-06
5.08991541736495e-06
4.72872173223999e-06
4.21316018061864e-06
3.51711325207461e-06
2.62837566135478e-06
1.55518826838601e-06
4.61903219266703e-09
1.75937781320364e-11
1.80998512841455e-11
4.77458711966742e-09
1.61065196962237e-06
2.72215571499748e-06
3.6423040259149e-06
4.36290926013071e-06
4.89669808374164e-06
5.27067941590942e-06
5.51853811246773e-06
5.67400237890493e-06
5.76636250037216e-06
5.81839533848151e-06
5.84623444303842e-06
5.86040416195043e-06
5.86727793431751e-06
5.87046191379599e-06
5.87187271829332e-06
5.87247163481097e-06
5.87271548622706e-06
5.87281069722426e-06
5.87284624066081e-06
5.87285879712541e-06
5.87286286677388e-06
5.87286393648059e-06
5.87286400286419e-06
5.87286370775323e-06
5.87286302642244e-06
5.8728612862092e-06
5.87285640866179e-06
5.87284269893408e-06
5.87280525513525e-06
5.87270661217983e-06
5.87245639405746e-06
5.87184592233275e-06
5.87041527112531e-06
5.86719990902596e-06
5.86028196964542e-06
5.84606032112255e-06
5.81817919101623e-06
5.7661510964806e-06
5.67390058323768e-06
5.5187208516208e-06
5.27137777860079e-06
4.89814492266332e-06
4.36524346746965e-06
3.64545670940437e-06
2.72576593409017e-06
1.61405903561917e-06
4.79656955020346e-09
1.82591794640625e-11
1.86466758469548e-11
4.92072776990794e-09
1.65903684914367e-06
2.80193992582943e-06
3.74721176262363e-06
4.48705778134618e-06
5.0349200692509e-06
5.41871479577176e-06
5.67308802436328e-06
5.83266611388292e-06
5.92749698263845e-06
5.98094176001488e-06
6.0095493288851e-06
6.02411793482642e-06
6.03118950947602e-06
6.0344673782511e-06
6.03592093674142e-06
6.03653858134312e-06
6.03679035359411e-06
6.03688881777021e-06
6.03692567152982e-06
6.03693875442669e-06
6.03694304057224e-06
6.03694420364986e-06
6.03694430890318e-06
6.03694402099779e-06
6.03694332079403e-06
6.03694152133677e-06
6.03693649588379e-06
6.03692241400509e-06
6.03688401337858e-06
6.03678290971935e-06
6.03652647988147e-06
6.03590079374645e-06
6.0344342286132e-06
6.03113750805208e-06
6.02404322248067e-06
6.00945673647517e-06
5.98085665552537e-06
5.92748148698054e-06
5.83283458453401e-06
5.67361114676891e-06
5.41979826801381e-06
5.03674771709257e-06
4.4897032295697e-06
3.7505448604141e-06
2.80557415621099e-06
1.66235824288409e-06
4.94214483990511e-09
1.88031203562394e-11
1.90861980105052e-11
5.03851118980589e-09
1.69807255114761e-06
2.86626826270689e-06
3.83176807848448e-06
4.587108307182e-06
5.14631120036267e-06
5.53802212027578e-06
5.79765781346315e-06
5.96056471673792e-06
6.05739879780689e-06
6.11199087732746e-06
6.14122441359009e-06
6.15611881530542e-06
6.16335242129722e-06
6.16670744671573e-06
6.16819626436161e-06
6.16882941656796e-06
6.16908777975166e-06
6.16918896844656e-06
6.16922693001727e-06
6.1692404646516e-06
6.16924494060418e-06
6.16924618929545e-06
6.16924633247288e-06
6.16924605215008e-06
6.16924533714689e-06
6.16924348838418e-06
6.16923834068929e-06
6.16922395550447e-06
6.16918478262499e-06
6.16908170250229e-06
6.16882029198356e-06
6.16818240895865e-06
6.1666870394898e-06
6.16332502236084e-06
6.15608910927043e-06
6.14120944223827e-06
6.11203135119331e-06
6.05757283093462e-06
5.96099829612424e-06
5.79852178473032e-06
5.53950379754468e-06
5.14855419249591e-06
4.59012887048952e-06
3.83537667766421e-06
2.87004130622328e-06
1.70140941767407e-06
5.05973280617976e-09
1.9241100951979e-11
1.94339119597145e-11
5.13195735538744e-09
1.72908794365612e-06
2.91736486834217e-06
3.89892473543046e-06
4.66657300757204e-06
5.23479283702419e-06
5.63280593095678e-06
5.89663770195776e-06
6.06220374340427e-06
6.16064137866223e-06
6.21615399667713e-06
6.24589105897497e-06
6.26104825714524e-06
6.26841295583441e-06
6.27183060980318e-06
6.27334815080218e-06
6.27399398783923e-06
6.27425776880978e-06
6.27436121153745e-06
6.27440009818249e-06
6.2744140154824e-06
6.2744186552749e-06
6.27441998024756e-06
6.27442015860054e-06
6.27441988800588e-06
6.27441916200745e-06
6.27441727316464e-06
6.27441202621817e-06
6.27439739763814e-06
6.27435761060723e-06
6.27425296586913e-06
6.27398761895555e-06
6.27334009742999e-06
6.2718219534342e-06
6.26840827063029e-06
6.26106021288497e-06
6.24594824810812e-06
6.21631194504179e-06
6.16099428557241e-06
6.06289068076628e-06
5.89783331767286e-06
5.63468544139002e-06
5.23746796865226e-06
4.67001065451316e-06
3.90287907118045e-06
2.92136683405339e-06
1.73252286015862e-06
5.15329744564374e-09
1.95884767774706e-11
1.9704597213611e-11
5.20491765974627e-09
1.75334913082621e-06
2.95733421776026e-06
3.95146195807566e-06
4.728750000131e-06
5.3040402822657e-06
5.70700236287619e-06
5.97413495405395e-06
6.14179693454925e-06
6.24150129501181e-06
6.29774286590695e-06
6.3278797196718e-06
6.34324617507048e-06
6.35071558377205e-06
6.35418343068413e-06
6.35572407677894e-06
6.35638016013485e-06
6.35664833922071e-06
6.3567536236165e-06
6.35679327311846e-06
6.35680751045996e-06
6.3568122899962e-06
6.35681368179365e-06
6.3568138927662e-06
6.35681363271133e-06
6.35681289915256e-06
6.35681097863884e-06
6.35680565274714e-06
6.35679083225359e-06
6.35675056478075e-06
6.35664470112573e-06
6.35637629175356e-06
6.35572127095814e-06
6.35418539466742e-06
6.35073144908759e-06
6.34329592168545e-06
6.32800263351814e-06
6.29800844499318e-06
6.24201943862743e-06
6.14272058203245e-06
5.97564533042424e-06
5.70926789105498e-06
5.30714826390394e-06
4.73262563190641e-06
3.9558071126575e-06
2.96162910375661e-06
1.75694414151233e-06
5.22662280620904e-09
1.9859820928814e-11
1.9911804144765e-11
5.26093758358661e-09
1.7720181289627e-06
2.98809868678218e-06
3.9919115730456e-06
4.77663672882435e-06
5.35738963249127e-06
5.76418169560825e-06
6.03387365630618e-06
6.20316426021735e-06
6.30385524756464e-06
6.36066605632096e-06
6.39111598305943e-06
6.4066468017023e-06
6.41419872358002e-06
6.41770626218306e-06
6.41926524945286e-06
6.41992950157427e-06
6.42020120496119e-06
6.42030797487225e-06
6.42034824548042e-06
6.42036274711166e-06
6.42036764456779e-06
6.42036909436569e-06
6.42036933485435e-06
6.42036908555548e-06
6.42036834745691e-06
6.42036640278437e-06
6.42036101562725e-06
6.42034604692774e-06
6.42030541078705e-06
6.42019861497702e-06
6.4199278656686e-06
6.41926711206964e-06
6.41771766598152e-06
6.414232871969e-06
6.40673025080191e-06
6.39129773924497e-06
6.36102853175591e-06
6.3045232839848e-06
6.20430485338439e-06
6.03567652905166e-06
5.7668127096574e-06
5.36091803696122e-06
4.78095304218773e-06
3.99666991219945e-06
2.99272607520989e-06
1.77581546006368e-06
5.28318631314416e-09
2.00684555706373e-11
2.00675123100981e-11
5.30316364128552e-09
1.78612486329831e-06
3.01135674725926e-06
4.02250596138117e-06
4.8128727344281e-06
5.39777642085288e-06
5.80748425984791e-06
6.07912883558859e-06
6.24966489566658e-06
6.35111233682922e-06
6.40836080990272e-06
6.43905217511285e-06
6.45471016109881e-06
6.46232614562451e-06
6.46586461600382e-06
6.46743795483052e-06
6.4681086279983e-06
6.46838311659406e-06
6.46849106861066e-06
6.46853183830126e-06
6.46854655543611e-06
6.4685515513297e-06
6.468553051032e-06
6.46855331776556e-06
6.46855307915759e-06
6.46855233915399e-06
6.46855037691321e-06
6.46854494367902e-06
6.46852986350905e-06
6.46848895128937e-06
6.46838145903791e-06
6.46810896150761e-06
6.46744391934837e-06
6.46588430420291e-06
6.46237635072346e-06
6.45482327428964e-06
6.43928591155575e-06
6.40880932700252e-06
6.35191441337759e-06
6.25100130633905e-06
6.08119896786051e-06
5.81045461220335e-06
5.4017034171735e-06
4.8176184024243e-06
4.0276814210125e-06
3.01633565856854e-06
1.79014954340462e-06
5.32607355416265e-09
2.02261455461789e-11
2.01819408181028e-11
5.33428968607589e-09
1.79655100940044e-06
3.02855942186848e-06
4.04514982750868e-06
4.83970840522096e-06
5.42770238196032e-06
5.83958587203366e-06
6.11269099790416e-06
6.28416116312713e-06
6.38617761696257e-06
6.44375634998987e-06
6.4746305250778e-06
6.49038514977565e-06
6.49805000746715e-06
6.50161217414406e-06
6.5031965572292e-06
6.50387219666886e-06
6.5041488522436e-06
6.50425773096888e-06
6.50429889610186e-06
6.50431378671733e-06
6.50431886382803e-06
6.50432040588967e-06
6.50432069585187e-06
6.50432046794008e-06
6.5043197282857e-06
6.50431775415016e-06
6.50431228772882e-06
6.5042971267471e-06
6.5042560147789e-06
6.50414801900086e-06
6.5038742555748e-06
6.50320609944327e-06
6.50163907718935e-06
6.49811420287542e-06
6.49052416086313e-06
6.47490979533789e-06
6.44428060191373e-06
6.3870984430424e-06
6.28567252488892e-06
6.11500251387084e-06
5.84286696338703e-06
5.43200077391265e-06
4.84486289436511e-06
4.0507331899353e-06
3.03389339466311e-06
1.80081462433365e-06
5.35792951850693e-09
2.03429324535246e-11
2.02634790755785e-11
5.35653472432688e-09
1.80402333606284e-06
3.04090132334791e-06
4.06141015509153e-06
4.85899442061344e-06
5.44922461372769e-06
5.86268679325965e-06
6.13685491272809e-06
6.30900716351947e-06
6.41144060250929e-06
6.4692622936021e-06
6.50027151234749e-06
6.51609784161967e-06
6.52379913369889e-06
6.52737905465386e-06
6.52897175753647e-06
6.52965116071453e-06
6.52992947018051e-06
6.53003906258103e-06
6.53008053611199e-06
6.53009556455121e-06
6.5301007079389e-06
6.5301022856975e-06
6.53010259627062e-06
6.53010237893098e-06
6.53010164148313e-06
6.53009966024467e-06
6.53009417148678e-06
6.53007895525092e-06
6.53003770662197e-06
6.5299293657735e-06
6.52965473094764e-06
6.52898441861917e-06
6.52741223611561e-06
6.52387550637627e-06
6.51625943351973e-06
6.50059060590872e-06
6.46985307438818e-06
6.41246635909212e-06
6.31067429432198e-06
6.13938340900068e-06
5.86625053972242e-06
5.45386576971284e-06
4.86453285175635e-06
4.06738455884705e-06
3.04658389298107e-06
1.80852822516297e-06
5.38093867259612e-09
2.04270780896626e-11
2.03187016851123e-11
5.37164309699378e-09
1.80911381438408e-06
3.04932200537406e-06
4.07251896180745e-06
4.87218571623568e-06
5.46396043215378e-06
5.87851715935695e-06
6.15342537052114e-06
6.32605469408147e-06
6.42878124881921e-06
6.48677464515653e-06
6.51787985406158e-06
6.53375746481648e-06
6.54148498356166e-06
6.54507777277852e-06
6.54667655038361e-06
6.54735872404615e-06
6.54763826249579e-06
6.54774839160332e-06
6.54779010093037e-06
6.54780523728837e-06
6.54781043430734e-06
6.54781204210558e-06
6.54781237095378e-06
6.54781216390283e-06
6.54781143012035e-06
6.54780944574689e-06
6.54780394374896e-06
6.5477886937302e-06
6.54774736130308e-06
6.54763880762444e-06
6.54736362924054e-06
6.54669195352429e-06
6.54511646394321e-06
6.54157204310873e-06
6.53393890279281e-06
6.51823404183586e-06
6.48742428235006e-06
6.4299003165301e-06
6.32786126505585e-06
6.15614969759969e-06
5.88233856429536e-06
5.46891778155202e-06
4.87808329494851e-06
4.07886503294771e-06
3.05534190519798e-06
1.81385713597617e-06
5.39682515667783e-09
2.04850825195594e-11
2.03524315694646e-11
5.38089785705229e-09
1.81224372555491e-06
3.05451330099204e-06
4.07938339093865e-06
4.88035369870781e-06
5.47310108935203e-06
5.8883516824775e-06
6.16373247843641e-06
6.33666887379591e-06
6.43958574548894e-06
6.49769166512257e-06
6.52886040306085e-06
6.54477230854032e-06
6.55251755851516e-06
6.55611914717123e-06
6.55772212885666e-06
6.55840624497597e-06
6.55868665804691e-06
6.55879717625287e-06
6.55883906084184e-06
6.55885428020536e-06
6.55885952033067e-06
6.55886115345506e-06
6.55886149853562e-06
6.55886130138707e-06
6.55886057236641e-06
6.55885858809254e-06
6.55885308052258e-06
6.5588378151359e-06
6.55879644452434e-06
6.55868779206326e-06
6.55841235183445e-06
6.55773999071892e-06
6.55616277092547e-06
6.55261418538767e-06
6.54497153407749e-06
6.52924611303644e-06
6.49839433483163e-06
6.44078924544131e-06
6.33860229820664e-06
6.16663612531718e-06
5.89241087877652e-06
5.47835295510697e-06
4.88658936936396e-06
4.08608354173907e-06
3.06085887851331e-06
1.81722095478705e-06
5.40686442324751e-09
2.05217426713371e-11
2.0367819593304e-11
5.38513919460673e-09
1.81368928760177e-06
3.05692876320703e-06
4.08259814326104e-06
4.88420090170584e-06
5.47742801458915e-06
5.8930269495043e-06
6.16864961675515e-06
6.34174648167927e-06
6.44476506676615e-06
6.50293252825686e-06
6.53413685922689e-06
6.55006845972696e-06
6.55782415161962e-06
6.56143105639883e-06
6.56303664584964e-06
6.56372200139915e-06
6.56400299085631e-06
6.56411377595033e-06
6.56415578721506e-06
6.56417107070621e-06
6.56417634668491e-06
6.56417800223475e-06
6.56417836231199e-06
6.56417817470885e-06
6.56417745085545e-06
6.56417546846533e-06
6.56416996062741e-06
6.56415469451249e-06
6.56411332475137e-06
6.5640046743585e-06
6.56372922430251e-06
6.56305678526375e-06
6.56147924408887e-06
6.55792962998671e-06
6.55028415369529e-06
6.53455179487712e-06
6.50368446960705e-06
6.44604723341899e-06
6.34379854079946e-06
6.17172169864935e-06
5.8973106793077e-06
5.48295969429168e-06
4.89076005552328e-06
4.08963975923418e-06
3.06359125224316e-06
1.81889683589747e-06
5.41189862681747e-09
2.05402216011551e-11
2.03664111397683e-11
5.38478008655592e-09
1.8135865775704e-06
3.05679198754511e-06
4.08245655131758e-06
4.88407405955623e-06
5.47732720018956e-06
5.89295660965719e-06
6.16860908457095e-06
6.34173184011604e-06
6.44477090035721e-06
6.502953290992e-06
6.53416775132206e-06
6.55010578402422e-06
6.55786532175197e-06
6.56147440503438e-06
6.56308117242608e-06
6.56376714237844e-06
6.56404844598196e-06
6.56415939245164e-06
6.56420148982478e-06
6.56421682264327e-06
6.56422212940646e-06
6.56422380564129e-06
6.56422417999766e-06
6.56422400158121e-06
6.56422328279347e-06
6.56422130310783e-06
6.56421579888986e-06
6.56420054477943e-06
6.56415921224095e-06
6.56405066042208e-06
6.56377544354421e-06
6.5631035119021e-06
6.56152700097861e-06
6.5579793501956e-06
6.55033738954926e-06
6.53461093732744e-06
6.50375289234574e-06
6.44612922555008e-06
6.3438988699114e-06
6.17184468874406e-06
5.89745880763047e-06
5.48313186716361e-06
4.89094982407295e-06
4.08983369209871e-06
3.06376748725432e-06
1.81902354251137e-06
5.41234960639808e-09
2.05421050682421e-11
2.03481946607154e-11
5.37981837055474e-09
1.81193505926547e-06
3.05410191176738e-06
4.07895713475782e-06
4.87997155148791e-06
5.47279723689986e-06
5.88813978598244e-06
6.16361073721827e-06
6.33662558898149e-06
6.43960459694397e-06
6.49775589153934e-06
6.52895544052263e-06
6.54488692554004e-06
6.55264388831664e-06
6.55625211365424e-06
6.55785868382702e-06
6.5585446708825e-06
6.55882603959264e-06
6.55893704778448e-06
6.55897919306361e-06
6.55899456121818e-06
6.5589998938401e-06
6.55900158893798e-06
6.55900197674519e-06
6.55900180705011e-06
6.55900109319015e-06
6.5589991171547e-06
6.55899362090122e-06
6.55897839270632e-06
6.55893713655196e-06
6.55882878608407e-06
6.55855405889946e-06
6.55788324774745e-06
6.55630917287105e-06
6.55276657692043e-06
6.54513464428993e-06
6.52942721848088e-06
6.49860368831887e-06
6.44103985475211e-06
6.33890857508093e-06
6.16701106062441e-06
5.89286177113246e-06
5.47887619981394e-06
4.88716511879038e-06
4.08667090192342e-06
3.06139168177881e-06
1.81760330465527e-06
5.40822380237046e-09
2.05274176615752e-11
2.03116195981195e-11
5.36984079210312e-09
1.80859836659767e-06
3.04863355818416e-06
4.07180415026336e-06
4.87154375571426e-06
5.46344951871421e-06
5.87816116587783e-06
6.15322199197263e-06
6.32598463357368e-06
6.42881710014337e-06
6.48688803118042e-06
6.51804599137915e-06
6.53395717536017e-06
6.54170480086613e-06
6.54530899129641e-06
6.54691393542731e-06
6.54759932331706e-06
6.54788050182149e-06
6.54799147001429e-06
6.54803362416958e-06
6.54804901317298e-06
6.54805436634297e-06
6.54805607819496e-06
6.54805647843518e-06
6.54805631692067e-06
6.54805560797679e-06
6.54805363699002e-06
6.54804815414919e-06
6.548032968337e-06
6.54799183370755e-06
6.54788380137381e-06
6.54760985277811e-06
6.54694084818639e-06
6.54537077433654e-06
6.54183665926562e-06
6.53422194254328e-06
6.51854797117821e-06
6.48778661689644e-06
6.43033318702443e-06
6.32838903112606e-06
6.15679404606233e-06
5.88311118930488e-06
5.46981158174481e-06
4.87906353501966e-06
4.07986162332399e-06
3.05624280333575e-06
1.81450145315042e-06
5.39911211219893e-09
2.04946331034428e-11
2.02535553694021e-11
5.3540133512452e-09
1.80330182621978e-06
3.03993422491941e-06