/*--------------------------------*- C++ -*----------------------------------*\
  =========                 |
  \\      /  F ield         | OpenFOAM: The Open Source CFD Toolbox
   \\    /   O peration     | Website:  https://openfoam.org
    \\  /    A nd           | Version:  10
     \\/     M anipulation  |
\*---------------------------------------------------------------------------*/
FoamFile
{
    format      ascii;
    class       volScalarField;
    location    "7.2";
    object      h;
}
// * * * * * * * * * * * * * * * * * * * * * * * * * * * * * * * * * * * * * //

dimensions      [0 2 -2 0 0 0 0];

internalField   nonuniform List<scalar> 
2500
(
6310.36058546208
6306.00822916496
6294.96319733733
6286.60605346301
6281.33294970235
6278.21592105095
6276.43519071081
6275.44697697052
6274.91704566318
6274.64471348938
6274.50922534162
6274.4448737732
6274.41552514462
6274.40207981443
6274.3958942636
6274.39270073319
6274.39128732054
6274.39025846292
6274.38934176209
6274.38873378302
6274.38823872314
6274.38782322232
6274.3874874062
6274.38727902206
6274.38706941698
6274.38690140113
6274.38684383863
6274.38683551822
6274.38688860136
6274.38701343024
6274.38722963375
6274.3876353286
6274.38816269629
6274.38899415102
6274.39046354251
6274.39342008307
6274.39980996586
6274.41378228626
6274.44518747788
6274.51201001104
6274.65047129076
6274.92702974337
6275.45870930619
6276.44391281295
6278.21561171146
6281.31482347738
6286.58243121628
6294.98418781001
6306.10246628553
6310.25739199593
5453.83220973498
5428.30421700613
5396.20394505081
5372.53670509263
5357.34121423007
5348.12597475145
5342.7081339601
5339.61291027476
5337.90386128518
5336.9968518591
5336.5347873278
5336.30942520941
5336.2041237206
5336.15665262581
5336.13592017504
5336.12697582328
5336.12326601211
5336.12154369956
5336.12057115956
5336.12000539079
5336.11959961264
5336.11926907495
5336.11900234492
5336.11882024787
5336.11865831884
5336.11852690517
5336.11846255865
5336.11843359779
5336.11844229527
5336.11851171454
5336.11868393294
5336.11908266417
5336.11991102849
5336.12171502937
5336.12580915075
5336.1354152243
5336.15775212865
5336.20826560527
5336.31903883856
5336.55210212672
5337.02371245498
5337.94039564301
5339.65311162892
5342.73804859679
5348.12533543869
5357.29764781741
5372.49625814126
5396.32026316024
5428.69009140226
5453.42634342157
4573.76416885322
4528.25441302034
4482.05886000822
4449.19411402161
4428.31430131795
4415.71171751193
4408.31931150087
4404.09814965321
4401.76489278657
4400.52335922371
4399.88918979949
4399.57881989791
4399.43329727885
4399.3677501436
4399.33931295182
4399.32734867606
4399.32249386204
4399.32047420867
4399.31954319009
4399.31907339988
4399.31877466031
4399.3185388287
4399.31834685326
4399.31821102913
4399.31809894041
4399.31800656962
4399.31795163867
4399.31791568317
4399.31789562394
4399.31792038106
4399.31804320153
4399.31840422559
4399.31934609145
4399.32160702754
4399.32700110923
4399.33998843673
4399.37053736734
4399.43994972974
4399.59194867428
4399.91157033073
4400.55722519278
4401.8099545558
4404.14749235233
4408.35662338399
4415.71438218498
4428.27766110828
4449.20212550216
4482.36195498454
4529.10541760806
4573.95515714075
3777.18986183679
3721.30005422112
3672.21725857056
3638.67438034986
3617.94864946457
3605.74390878099
3598.74289259601
3594.82166501577
3592.68893689297
3591.56914521059
3591.00360316466
3590.72945516566
3590.60198416214
3590.54505430575
3590.52059388655
3590.51045462799
3590.50641190698
3590.50480761026
3590.50413438297
3590.50382553505
3590.50364298956
3590.50349709597
3590.50337318809
3590.50328375608
3590.50321425731
3590.5031558776
3590.50311576494
3590.50308204554
3590.50305235003
3590.50304190563
3590.50308941925
3590.50331856559
3590.50404787536
3590.50587867212
3590.51032368206
3590.52121947451
3590.54721062859
3590.60696539456
3590.73919092781
3591.02034175318
3591.59494840389
3592.72419296124
3594.86212797932
3598.7773961047
3605.75820285367
3617.95244189475
3638.77847387426
3672.73042887843
3722.61300069196
3778.48744064745
3129.23621640809
3073.8739910417
3029.99317168328
3001.16169631794
2983.86839584227
2973.95160033585
2968.39608253684
2965.34578160535
2963.71301304328
2962.86636318789
2962.44293314413
2962.23923500282
2962.14509602603
2962.10328374014
2962.08542704726
2962.0780946592
2962.07521267301
2962.07410930167
2962.07368091888
2962.07350515569
2962.07341139621
2962.07333414071
2962.07326297063
2962.07321082084
2962.07317306501
2962.07314048521
2962.07311469519
2962.07308798475
2962.07305837114
2962.07303804219
2962.0730363038
2962.07314248847
2962.07363005139
2962.07490617605
2962.07802930004
2962.08579183527
2962.10450576383
2962.14791152099
2962.24476373909
2962.45256263771
2962.88151345261
2963.73430036358
2965.37126344692
2968.41995674021
2973.96834719768
2983.89825283106
3001.32400700673
3030.61252667106
3075.44504881284
3131.47715617585
2649.20216177522
2602.13338553013
2567.67328743114
2545.85717487061
2533.15307502166
2526.05869940356
2522.17667962678
2520.08619276333
2518.98389493313
2518.41866100982
2518.13825640621
2518.00413674075
2517.94240632203
2517.91507863515
2517.9034507468
2517.89870748134
2517.89686669463
2517.89618477359
2517.89593970462
2517.89585296434
2517.89581555277
2517.89578335951
2517.89574786926
2517.89572130561
2517.89570419603
2517.89568857807
2517.89567374085
2517.89565501113
2517.89563069633
2517.89560832999
2517.89559006654
2517.89562052898
2517.89590495082
2517.89670387452
2517.89866737742
2517.90360835434
2517.91561800693
2517.94365517445
2518.00660945195
2518.14262129029
2518.42567013122
2518.99400068056
2520.09864698447
2522.18899827303
2526.0704740365
2533.18728457289
2546.02302071533
2568.27029994945
2603.68717854361
2651.8625111649
2322.05754111
2286.57095726712
2262.22505210034
2247.33754520349
2238.9131201157
2234.32871381353
2231.87693366198
2230.5811091887
2229.90739619757
2229.56535508677
2229.39680101402
2229.31651753316
2229.27965789104
2229.2633674078
2229.25645020522
2229.2536422239
2229.25256510124
2229.25217947159
2229.25205192747
2229.25201469823
2229.25200678664
2229.25200016065
2229.25198602388
2229.251974794
2229.25196943791
2229.2519634681
2229.25195578307
2229.25194389291
2229.25192640762
2229.25190715277
2229.25188767491
2229.25188544997
2229.25203352936
2229.25248778585
2229.25361880782
2229.25649884163
2229.26354344245
2229.28006470786
2229.317328171
2229.39824991859
2229.56773204135
2229.91088972415
2230.58536817755
2231.88089809561
2234.33359622158
2238.9384849102
2247.47043936984
2262.71172410097
2287.89273575361
2324.60211967975
2115.31242754911
2091.10118248948
2075.3806723395
2066.07305557201
2060.94861390071
2058.22857828812
2056.80576033359
2056.06720709586
2055.68829869227
2055.49764519702
2055.40420811125
2055.3598336776
2055.33948559303
2055.33049651678
2055.32668326539
2055.32514108834
2055.32455600174
2055.32435347862
2055.32429493534
2055.324285366
2055.32428612253
2055.32428737758
2055.32428464704
2055.32428127311
2055.32428180267
2055.32428062529
2055.324277127
2055.32427019541
2055.32425881777
2055.32424462986
2055.32422818946
2055.32421705913
2055.32428677666
2055.32452416859
2055.32513032836
2055.32669085002
2055.33052584262
2055.33954609717
2055.35995036785
2055.40441714101
2055.49799957397
2055.6887986313
2056.06756686595
2056.80533176284
2058.22834786334
2060.96222465231
2066.16208534575
2075.72755285875
2092.0944993043
2117.4004753698
1993.33012449623
1978.16997993032
1968.78422767176
1963.39173650263
1960.49922504454
1959.00008433198
1958.23250697884
1957.8409660116
1957.64261840706
1957.54362935514
1957.49533642447
1957.4724454966
1957.46195119431
1957.45731296024
1957.45534571731
1957.45455253936
1957.45425503672
1957.45415674957
1957.45413412439
1957.45413450006
1957.45413763078
1957.45414079955
1957.45414151384
1957.45414180285
1957.45414331458
1957.45414337656
1957.4541419093
1957.45413822032
1957.45413138742
1957.45412208898
1957.45411050908
1957.45410032673
1957.45412935062
1957.4542444292
1957.45454995194
1957.45534409566
1957.45730218632
1957.46191470061
1957.47236403199
1957.49518350416
1957.54337272236
1957.64217755065
1957.84006355083
1958.23058100405
1958.99743989417
1960.50393900062
1963.44302724043
1969.00513245627
1978.84208468947
1994.85006492491
1925.74317028643
1916.93900491632
1911.7108028762
1908.78987190302
1907.26132596713
1906.48696107854
1906.0985887193
1905.90381128133
1905.80633679566
1905.75805727828
1905.73459314486
1905.72348340884
1905.71838730997
1905.71613231417
1905.71517553574
1905.71479082623
1905.71464827549
1905.71460426492
1905.71459695775
1905.7145991761
1905.71460234438
1905.71460515671
1905.71460668307
1905.71460786781
1905.71460920661
1905.71460966185
1905.71460913244
1905.71460714194
1905.71460330096
1905.71459774945
1905.71459059513
1905.71458388325
1905.71459435127
1905.71464641367
1905.71479224245
1905.71517469209
1905.71611982949
1905.7183468567
1905.72339312165
1905.73442154972
1905.75776022833
1905.80582509
1905.90284471657
1906.09667168923
1906.48391097297
1907.26124923805
1908.81551270944
1911.83839575674
1917.35431752557
1926.74537272257
1890.3956953561
1885.61425696355
1882.87717440135
1881.38732824374
1880.62568551719
1880.24813910549
1880.06253007036
1879.97097109118
1879.92569147822
1879.90342352706
1879.89263604815
1879.88753074574
1879.88518612188
1879.88414688007
1879.88370561478
1879.88352866611
1879.88346392921
1879.88344563381
1879.88344398706
1879.88344584299
1879.88344816392
1879.8834501235
1879.88345141175
1879.88345246254
1879.88345337499
1879.88345380704
1879.88345362356
1879.8834525732
1879.88345054076
1879.88344747251
1879.88344345487
1879.88343967044
1879.88344279204
1879.88346497672
1879.88353123879
1879.88370657844
1879.88414055992
1879.88516241486
1879.88747567916
1879.89252886445
1879.9032321713
1879.92534796585
1879.97029638927
1880.06113523879
1880.24565827897
1880.62389189047
1881.3983396572
1882.94473996592
1885.85122390313
1891.0030170944
1872.86693507371
1870.4221920245
1869.06729537517
1868.34746815021
1867.98750901077
1867.8127404589
1867.7284633218
1867.68755864084
1867.66756345447
1867.65779677775
1867.65307853787
1867.65084542916
1867.64981813146
1867.64936183683
1867.64916790447
1867.64909035508
1867.64906248925
1867.64905527789
1867.64905518796
1867.64905648651
1867.6490579295
1867.64905911777
1867.64905996074
1867.64906065481
1867.64906119428
1867.64906148331
1867.64906141618
1867.64906088428
1867.64905986511
1867.64905827758
1867.64905618307
1867.64905425921
1867.64905494805
1867.64906390871
1867.64909266417
1867.64916957336
1867.64936012136
1867.64980809227
1867.65082019667
1867.65302756316
1867.65770193284
1867.66738196037
1867.6871732319
1867.72760493482
1867.81105911261
1867.98561951049
1868.3513425077
1869.10035342139
1870.54814133718
1873.20882332957
1864.59147598962
1863.40803324404
1862.77061320886
1862.43951287972
1862.27735276441
1862.20016069463
1862.16362449386
1862.14617093909
1862.13773649609
1862.13364373061
1862.13167133932
1862.13073737232
1862.13030682109
1862.13011512777
1862.13003356331
1862.13000104134
1862.12998959411
1862.12998689777
1862.12998712394
1862.12998789785
1862.12998869951
1862.12998935135
1862.12998983165
1862.12999022613
1862.12999051443
1862.1299906759
1862.12999064895
1862.12999039219
1862.12998990455
1862.1299891295
1862.12998810291
1862.12998714913
1862.12998720706
1862.12999070483
1862.13000265602
1862.13003506964
1862.13011542125
1862.13030390536
1862.13072851385
1862.13165215418
1862.13360552769
1862.13765561365
1862.14597829541
1862.16315328594
1862.19915339859
1862.27594287592
1862.4404363735
1862.78563798373
1863.47084175805
1864.77177080331
1860.85858121771
1860.31361482449
1860.02736845794
1859.88175651339
1859.81182532094
1859.77915617204
1859.76396883771
1859.75682595116
1859.75341309534
1859.75176765487
1859.75097640179
1859.75060142334
1859.7504281454
1859.7503507963
1859.75031784432
1859.75030474479
1859.75030024033
1859.75029928545
1859.75029947846
1859.75029988913
1859.7503002973
1859.75030062726
1859.75030087569
1859.75030107826
1859.75030122038
1859.7503013005
1859.75030128912
1859.75030117097
1859.75030094727
1859.75030058831
1859.75030011253
1859.75029966184
1859.75029960569
1859.75030092378
1859.75030571325
1859.75031888833
1859.75035155301
1859.750427964
1859.7505994624
1859.75097120414
1859.75175558803
1859.7533822882
1859.75673912389
1859.7637317065
1859.77860655884
1859.8109405826
1859.88170548581
1860.03373164957
1860.34317772197
1860.94824984549
1859.24453634227
1859.00482798687
1858.88166516484
1858.8202119023
1858.79123660548
1858.77793974416
1858.77186421833
1858.76905003547
1858.76772045267
1858.76708346783
1858.76677775955
1858.76663272674
1858.76656552858
1858.76653544858
1858.76652261709
1858.76651753161
1858.76651582356
1858.76651550207
1858.76651561752
1858.766515817
1858.76651601019
1858.76651616604
1858.76651628494
1858.76651638099
1858.76651644633
1858.76651648279
1858.766516478
1858.76651642598
1858.76651632746
1858.76651616922
1858.76651595988
1858.76651575831
1858.76651570984
1858.7665161923
1858.76651805091
1858.76652323225
1858.76653607562
1858.76656602292
1858.76663294315
1858.76677737313
1858.76708115175
1858.76771069947
1858.76901415731
1858.77175293418
1858.77766161659
1858.79074161084
1858.81996616141
1858.88417807629
1859.0180276677
1859.28682967692
1858.57362585604
1858.47255172424
1858.42161166986
1858.39664303209
1858.38507128663
1858.37984984379
1858.37750330089
1858.37643242917
1858.37593207874
1858.37569386049
1858.37557973866
1858.37552552703
1858.37550033668
1858.37548902716
1858.37548419546
1858.37548228564
1858.37548165973
1858.37548155627
1858.37548161287
1858.37548170256
1858.37548178809
1858.37548185708
1858.37548191016
1858.37548195261
1858.37548198075
1858.37548199621
1858.37548199424
1858.3754819723
1858.37548193071
1858.37548186426
1858.37548177669
1858.37548169138
1858.37548166452
1858.37548183757
1858.37548253944
1858.37548451698
1858.37548941553
1858.37550079597
1858.3755261009
1858.37558044161
1858.37569427898
1858.37592981755
1858.37641869234
1858.37745400422
1858.37971768564
1858.38481721846
1858.39644028372
1858.42253470826
1858.4781664186
1858.59263280223
1858.30482383699
1858.26384080225
1858.24353057325
1858.23373659562
1858.22926985921
1858.22728618413
1858.22640869591
1858.22601398249
1858.22583156531
1858.22574524874
1858.225703966
1858.22568432565
1858.22567517085
1858.22567104721
1858.22566928191
1858.22566858511
1858.22566836088
1858.22566832791
1858.22566835276
1858.22566839008
1858.22566842536
1858.22566845384
1858.22566847586
1858.22566849331
1858.22566850461
1858.22566851072
1858.22566850993
1858.22566850109
1858.22566848437
1858.22566845791
1858.22566842323
1858.22566838926
1858.22566837722
1858.22566843907
1858.22566869851
1858.22566943351
1858.22567125103
1858.22567545558
1858.22568475326
1858.22570460754
1858.22574600352
1858.22583144636
1858.22600906951
1858.22638788773
1858.22722667924
1858.22914818531
1858.23361239852
1858.24384352903
1858.26612446431
1858.31299534324
1858.20077166026
1858.18474724037
1858.17692139419
1858.17320349028
1858.1715329509
1858.17080206997
1858.17048357809
1858.17034229369
1858.17027769438
1858.17024731049
1858.17023280007
1858.17022588426
1858.17022264915
1858.17022118608
1858.17022055753
1858.1702203089
1858.17022022899
1858.1702202174
1858.17022022672
1858.17022024066
1858.17022025383
1858.17022026448
1858.17022027273
1858.17022027922
1858.17022028333
1858.1702202855
1858.17022028518
1858.17022028184
1858.17022027557
1858.17022026577
1858.17022025303
1858.17022024066
1858.17022023643
1858.17022025928
1858.17022035418
1858.17022062158
1858.17022127987
1858.17022279429
1858.17022612224
1858.17023318443
1858.17024782937
1858.17027795901
1858.1703406383
1858.17047514308
1858.17077650354
1858.17147797041
1858.1731378656
1858.17701762614
1858.18563820929
1858.20414412964
1858.16177234981
1858.15571547025
1858.15279490522
1858.15142610095
1858.15081947602
1858.15055775141
1858.15044530494
1858.15039608278
1858.15037380891
1858.15036339268
1858.15035842371
1858.15035604971
1858.150354934
1858.15035442631
1858.15035420643
1858.15035411843
1858.1503540889
1858.15035408332
1858.15035408566
1858.15035408972
1858.15035409366
1858.15035409683
1858.1503540993
1858.15035410124
1858.15035410242
1858.15035410302
1858.15035410286
1858.15035410175
1858.15035409971
1858.15035409658
1858.15035409258
1858.15035408889
1858.15035408835
1858.15035409777
1858.15035413293
1858.15035422925
1858.15035446344
1858.15035499735
1858.15035616123
1858.15035861311
1858.15036366583
1858.15037401826
1858.15039554979
1858.15044199795
1858.15054720948
1858.15079584516
1858.15139461391
1858.15282063629
1858.15604983538
1858.16311254384
1858.14759150919
1858.14537349362
1858.14431578181
1858.14382611628
1858.14361183548
1858.14352057696
1858.14348188494
1858.14346515937
1858.14345766444
1858.1434541775
1858.14345251435
1858.14345171647
1858.14345133851
1858.14345116435
1858.14345108727
1858.14345105506
1858.14345104289
1858.14345103908
1858.14345103827
1858.14345103835
1858.14345103859
1858.14345103878
1858.14345103892
1858.14345103905
1858.14345103909
1858.14345103909
1858.14345103898
1858.14345103874
1858.14345103836
1858.1434510378
1858.14345103715
1858.14345103683
1858.14345103793
1858.14345104276
1858.1434510567
1858.14345109205
1858.14345117512
1858.14345136089
1858.14345176065
1858.14345259449
1858.14345429933
1858.14345777364
1858.14346498978
1858.14348062167
1858.14351638447
1858.14360211483
1858.14381205501
1858.14432104387
1858.1454944858
1858.14810569811
1858.14258005443
1858.14179157649
1858.14141921203
1858.14124873717
1858.1411749934
1858.14114395968
1858.14113096137
1858.14112540676
1858.14112293903
1858.14112179496
1858.14112124782
1858.14112098289
1858.14112085518
1858.14112079447
1858.141120766
1858.14112075267
1858.14112074628
1858.14112074294
1858.14112074091
1858.14112073944
1858.14112073828
1858.14112073731
1858.14112073655
1858.14112073598
1858.14112073558
1858.14112073535
1858.14112073528
1858.14112073538
1858.14112073563
1858.14112073603
1858.14112073663
1858.14112073759
1858.14112073931
1858.14112074256
1858.1411207492
1858.14112076336
1858.14112079389
1858.14112085907
1858.14112099558
1858.14112127539
1858.14112184061
1858.14112298324
1858.14112534865
1858.14113048623
1858.14114234311
1858.14117114653
1858.14124280844
1858.14141951516
1858.14183388114
1858.14277097083
1858.14085598972
1858.14058341299
1858.14045580938
1858.14039798173
1858.14037322703
1858.14036292058
1858.14035864985
1858.14035684217
1858.14035604365
1858.14035567293
1858.14035549362
1858.14035540464
1858.1403553598
1858.14035533676
1858.14035532444
1858.14035531736
1858.14035531285
1858.14035530963
1858.14035530713
1858.14035530509
1858.1403553034
1858.14035530201
1858.14035530091
1858.14035530008
1858.14035529952
1858.14035529921
1858.14035529916
1858.14035529938
1858.14035529986
1858.14035530061
1858.14035530167
1858.14035530309
1858.14035530504
1858.14035530778
1858.14035531195
1858.14035531892
1858.14035533161
1858.14035535599
1858.14035540388
1858.14035549834
1858.14035568457
1858.14035605535
1858.14035681689
1858.14035847028
1858.14036231165
1858.14037175483
1858.1403955989
1858.14045534322
1858.14059773174
1858.14092473526
1858.14027772979
1858.14018595626
1858.14014336011
1858.14012424134
1858.14011613276
1858.14011278693
1858.14011141152
1858.14011083216
1858.14011057555
1858.14011045448
1858.14011039375
1858.14011036159
1858.14011034359
1858.14011033279
1858.14011032573
1858.14011032067
1858.14011031675
1858.14011031356
1858.1401103109
1858.14011030865
1858.14011030676
1858.14011030522
1858.140110304
1858.14011030308
1858.14011030246
1858.14011030212
1858.14011030209
1858.14011030235
1858.14011030291
1858.14011030379
1858.14011030501
1858.1401103066
1858.14011030863
1858.14011031121
1858.14011031456
1858.14011031914
1858.14011032591
1858.14011033678
1858.14011035549
1858.14011038927
1858.1401104522
1858.14011057311
1858.14011081638
1858.14011134015
1858.14011255941
1858.14011558403
1858.14012332154
1858.14014300141
1858.14019065481
1858.14030178075
1858.14008837728
1858.14005825084
1858.14004441274
1858.14003826517
1858.14003567823
1858.14003461646
1858.14003418042
1858.14003399518
1858.14003391085
1858.14003386871
1858.14003384542
1858.14003383123
1858.14003382175
1858.14003381485
1858.14003380947
1858.14003380506
1858.14003380134
1858.14003379816
1858.14003379544
1858.14003379312
1858.14003379117
1858.14003378957
1858.14003378831
1858.14003378736
1858.14003378672
1858.14003378639
1858.14003378635
1858.14003378663
1858.14003378723
1858.14003378815
1858.14003378943
1858.14003379107
1858.14003379313
1858.14003379566
1858.14003379874
1858.14003380254
1858.14003380738
1858.14003381387
1858.14003382316
1858.14003383749
1858.14003386113
1858.14003390284
1858.14003398221
1858.14003414787
1858.14003452906
1858.14003547624
1858.14003792148
1858.14004422551
1858.14005974715
1858.1400965654
1858.14002776692
1858.14001812403
1858.1400137763
1858.14001187312
1858.14001107642
1858.14001074788
1858.14001061025
1858.14001054889
1858.14001051824
1858.14001050057
1858.14001048889
1858.14001048028
1858.14001047346
1858.14001046779
1858.14001046295
1858.14001045875
1858.1400104551
1858.14001045193
1858.14001044919
1858.14001044685
1858.14001044489
1858.14001044328
1858.14001044201
1858.14001044105
1858.14001044041
1858.14001044008
1858.14001044005
1858.14001044033
1858.14001044094
1858.14001044188
1858.14001044317
1858.14001044484
1858.14001044691
1858.14001044941
1858.1400104524
1858.14001045595
1858.14001046016
1858.14001046525
1858.14001047156
1858.14001047977
1858.14001049114
1858.14001050825
1858.14001053686
1858.1400105914
1858.1400107106
1858.14001100055
1858.14001174726
1858.14001369284
1858.14001858655
1858.14003048249
1858.14000878021
1858.14000577991
1858.14000449128
1858.14000394583
1858.14000371703
1858.14000361895
1858.14000357418
1858.14000355097
1858.14000353671
1858.14000352647
1858.1400035183
1858.1400035114
1858.14000350541
1858.14000350013
1858.14000349547
1858.14000349135
1858.14000348774
1858.14000348458
1858.14000348185
1858.14000347952
1858.14000347756
1858.14000347596
1858.14000347469
1858.14000347373
1858.1400034731
1858.14000347276
1858.14000347274
1858.14000347303
1858.14000347364
1858.14000347458
1858.14000347588
1858.14000347754
1858.14000347961
1858.1400034821
1858.14000348505
1858.14000348851
1858.14000349252
1858.14000349716
1858.14000350254
1858.14000350886
1858.14000351648
1858.1400035261
1858.14000353933
1858.14000356014
1858.1400035992
1858.14000368577
1858.14000389947
1858.14000445732
1858.14000591835
1858.14000965742
1858.14000295372
1858.14000205869
1858.14000173427
1858.14000161373
1858.14000156123
1858.14000153401
1858.14000151748
1858.14000150574
1858.14000149634
1858.14000148829
1858.14000148116
1858.14000147478
1858.14000146904
1858.1400014639
1858.14000145931
1858.14000145524
1858.14000145166
1858.14000144853
1858.14000144582
1858.1400014435
1858.14000144156
1858.14000143997
1858.14000143871
1858.14000143777
1858.14000143713
1858.14000143681
1858.14000143679
1858.14000143708
1858.14000143769
1858.14000143863
1858.14000143992
1858.14000144158
1858.14000144363
1858.14000144611
1858.14000144903
1858.14000145245
1858.14000145638
1858.14000146087
1858.14000146596
1858.14000147171
1858.14000147822
1858.14000148564
1858.14000149435
1858.14000150518
1858.14000152034
1858.1400015454
1858.14000159552
1858.14000172128
1858.14000209843
1858.14000322873
1858.14000120117
1858.14000095908
1858.14000093202
1858.14000094149
1858.14000094241
1858.14000093639
1858.14000092815
1858.14000091968
1858.14000091164
1858.14000090418
1858.14000089734
1858.1400008911
1858.14000088545
1858.14000088037
1858.14000087583
1858.1400008718
1858.14000086825
1858.14000086515
1858.14000086247
1858.14000086019
1858.14000085827
1858.14000085669
1858.14000085545
1858.14000085452
1858.1400008539
1858.14000085358
1858.14000085357
1858.14000085386
1858.14000085447
1858.1400008554
1858.14000085668
1858.14000085832
1858.14000086036
1858.14000086281
1858.14000086572
1858.1400008691
1858.14000087299
1858.14000087742
1858.14000088242
1858.14000088801
1858.14000089421
1858.14000090104
1858.14000090851
1858.14000091657
1858.14000092487
1858.14000093188
1858.14000093307
1858.14000092733
1858.14000096967
1858.1400012836
1858.14000068491
1858.14000064126
1858.14000070382
1858.14000075195
1858.14000076844
1858.14000076839
1858.14000076235
1858.14000075467
1858.1400007469
1858.14000073956
1858.14000073277
1858.14000072657
1858.14000072096
1858.14000071592
1858.14000071142
1858.14000070743
1858.14000070393
1858.14000070087
1858.14000069823
1858.14000069598
1858.14000069409
1858.14000069254
1858.14000069132
1858.14000069041
1858.1400006898
1858.14000068949
1858.14000068948
1858.14000068977
1858.14000069037
1858.14000069129
1858.14000069256
1858.14000069418
1858.1400006962
1858.14000069862
1858.1400007015
1858.14000070485
1858.1400007087
1858.14000071311
1858.14000071807
1858.14000072362
1858.14000072977
1858.1400007365
1858.14000074373
1858.14000075116
1858.14000075772
1858.14000075981
1858.14000074695
1858.14000070233
1858.14000064358
1858.14000070722
1858.140000537
1858.14000055254
1858.14000064127
1858.14000070024
1858.14000072077
1858.14000072206
1858.14000071636
1858.1400007087
1858.14000070087
1858.14000069347
1858.14000068666
1858.14000068047
1858.14000067488
1858.14000066988
1858.14000066543
1858.1400006615
1858.14000065804
1858.14000065504
1858.14000065244
1858.14000065023
1858.14000064838
1858.14000064686
1858.14000064567
1858.14000064478
1858.14000064418
1858.14000064388
1858.14000064387
1858.14000064416
1858.14000064475
1858.14000064567
1858.14000064691
1858.14000064852
1858.1400006505
1858.14000065289
1858.14000065573
1858.14000065904
1858.14000066287
1858.14000066724
1858.14000067219
1858.14000067775
1858.14000068392
1858.14000069071
1858.14000069802
1858.14000070548
1858.14000071185
1858.14000071293
1858.14000069652
1858.14000064107
1858.14000055269
1858.14000054103
1858.14000049716
1858.14000053009
1858.1400006259
1858.14000068728
1858.14000070834
1858.14000070952
1858.14000070355
1858.14000069565
1858.14000068765
1858.14000068014
1858.14000067328
1858.14000066708
1858.14000066152
1858.14000065657
1858.14000065217
1858.1400006483
1858.14000064491
1858.14000064196
1858.14000063942
1858.14000063726
1858.14000063545
1858.14000063397
1858.1400006328
1858.14000063194
1858.14000063136
1858.14000063107
1858.14000063106
1858.14000063135
1858.14000063193
1858.14000063283
1858.14000063405
1858.14000063563
1858.14000063758
1858.14000063993
1858.14000064272
1858.140000646
1858.14000064978
1858.14000065412
1858.14000065906
1858.14000066463
1858.14000067086
1858.14000067776
1858.14000068526
1858.14000069298
1858.14000069967
1858.14000070096
1858.14000068418
1858.14000062632
1858.14000052982
1858.14000049586
1858.14000048886
1858.14000052685
1858.140000624
1858.14000068518
1858.1400007056
1858.14000070615
1858.14000069969
1858.14000069143
1858.1400006832
1858.14000067556
1858.14000066864
1858.14000066244
1858.14000065691
1858.14000065201
1858.14000064768
1858.14000064388
1858.14000064056
1858.14000063768
1858.1400006352
1858.1400006331
1858.14000063134
1858.1400006299
1858.14000062877
1858.14000062793
1858.14000062737
1858.14000062709
1858.14000062709
1858.14000062738
1858.14000062795
1858.14000062882
1858.14000063002
1858.14000063156
1858.14000063347
1858.14000063578
1858.14000063852
1858.14000064174
1858.14000064548
1858.14000064978
1858.1400006547
1858.14000066028
1858.14000066658
1858.14000067362
1858.14000068135
1858.14000068944
1858.14000069664
1858.14000069859
1858.14000068249
1858.14000062482
1858.14000052665
1858.14000048616
1858.14000049006
1858.14000052951
1858.14000062618
1858.14000068619
1858.1400007055
1858.14000070518
1858.14000069809
1858.1400006894
1858.14000068091
1858.14000067313
1858.14000066616
1858.14000065996
1858.14000065447
1858.14000064964
1858.14000064539
1858.14000064167
1858.14000063843
1858.14000063563
1858.14000063322
1858.14000063118
1858.14000062948
1858.14000062809
1858.140000627
1858.14000062619
1858.14000062565
1858.14000062538
1858.14000062539
1858.14000062567
1858.14000062623
1858.14000062708
1858.14000062825
1858.14000062975
1858.14000063161
1858.14000063386
1858.14000063654
1858.1400006397
1858.14000064338
1858.14000064764
1858.14000065253
1858.14000065813
1858.14000066449
1858.14000067168
1858.14000067968
1858.14000068819
1858.14000069602
1858.14000069884
1858.14000068387
1858.14000062734
1858.14000052952
1858.14000048712
1858.14000049461
1858.14000053446
1858.14000062989
1858.14000068823
1858.1400007061
1858.14000070473
1858.14000069692
1858.14000068776
1858.14000067899
1858.14000067107
1858.14000066405
1858.14000065787
1858.14000065244
1858.14000064768
1858.14000064353
1858.1400006399
1858.14000063676
1858.14000063404
1858.14000063172
1858.14000062975
1858.1400006281
1858.14000062677
1858.14000062572
1858.14000062494
1858.14000062443
1858.14000062418
1858.14000062419
1858.14000062446
1858.140000625
1858.14000062583
1858.14000062696
1858.14000062842
1858.14000063022
1858.14000063241
1858.14000063503
1858.14000063811
1858.14000064172
1858.14000064592
1858.14000065078
1858.14000065637
1858.1400006628
1858.14000067014
1858.14000067842
1858.1400006874
1858.14000069595
1858.14000069982
1858.14000068627
1858.14000063138
1858.14000053472
1858.14000049177
1858.14000050094
1858.14000054082
1858.1400006345
1858.14000069073
1858.14000070688
1858.14000070428
1858.14000069567
1858.14000068601
1858.14000067696
1858.1400006689
1858.14000066184
1858.1400006557
1858.14000065034
1858.14000064569
1858.14000064163
1858.14000063812
1858.14000063508
1858.14000063246
1858.14000063023
1858.14000062834
1858.14000062676
1858.14000062549
1858.14000062448
1858.14000062374
1858.14000062326
1858.14000062302
1858.14000062303
1858.14000062329
1858.14000062382
1858.14000062462
1858.14000062571
1858.14000062712
1858.14000062886
1858.14000063098
1858.14000063352