/*--------------------------------*- C++ -*----------------------------------*\
  =========                 |
  \\      /  F ield         | OpenFOAM: The Open Source CFD Toolbox
   \\    /   O peration     | Website:  https://openfoam.org
    \\  /    A nd           | Version:  10
     \\/     M anipulation  |
\*---------------------------------------------------------------------------*/
FoamFile
{
    format      ascii;
    class       volScalarField;
    location    "7.2";
    object      k;
}
// * * * * * * * * * * * * * * * * * * * * * * * * * * * * * * * * * * * * * //

dimensions      [0 2 -2 0 0 0 0];

internalField   nonuniform List<scalar> 
2500
(
8.19804400462132e-10
1.61095071687465e-08
6.88562415692312e-08
1.19440593730707e-07
1.63075393462397e-07
1.98179880058053e-07
2.2460195522253e-07
2.43238162056233e-07
2.55578155373638e-07
2.63264339930845e-07
2.67777530603444e-07
2.70281396332526e-07
2.71596875346562e-07
2.72252843232222e-07
2.72563979241664e-07
2.72704636397664e-07
2.72765343630189e-07
2.72790383034212e-07
2.7280024839025e-07
2.72803946420214e-07
2.72805248191323e-07
2.72805662046702e-07
2.7280576586603e-07
2.72805770830189e-07
2.72805749715028e-07
2.72805725836146e-07
2.72805694565757e-07
2.72805622200686e-07
2.72805409177136e-07
2.72804784415108e-07
2.7280303894776e-07
2.72798388319501e-07
2.72786519624396e-07
2.72757445763976e-07
2.72689068673167e-07
2.72534810720209e-07
2.72201488735549e-07
2.71512887938591e-07
2.70155651373118e-07
2.67609014465299e-07
2.63070647824446e-07
2.55407130004473e-07
2.43174288738271e-07
2.2475816265292e-07
1.98666382478027e-07
1.63943924678395e-07
1.20611175965057e-07
7.00281390481376e-08
1.65928445274735e-08
8.59199934153727e-10
2.02208979345272e-08
4.63160527593543e-07
2.02071916145828e-06
3.50755239322323e-06
4.79203480214373e-06
5.82806299903717e-06
6.61041171304551e-06
7.1643823120779e-06
7.53283013571157e-06
7.76345413549568e-06
7.89959115822644e-06
7.97554267527842e-06
8.01567985358196e-06
8.03581533676986e-06
8.04542491453288e-06
8.04979638306272e-06
8.05169508049329e-06
8.05248329769611e-06
8.05279595018756e-06
8.05291402844043e-06
8.05295599353609e-06
8.05296955054874e-06
8.05297310016889e-06
8.05297341365438e-06
8.05297283433699e-06
8.05297211455726e-06
8.05297111660947e-06
8.05296875616459e-06
8.05296184865356e-06
8.05294176554859e-06
8.05288606853103e-06
8.05273861817993e-06
8.05236454906344e-06
8.05145348884988e-06
8.04932299054982e-06
8.04454376306325e-06
8.03427473321627e-06
8.01317864863264e-06
7.97182692887389e-06
7.89465432710008e-06
7.75784008580625e-06
7.52796061968755e-06
7.16272347174708e-06
6.61521556909268e-06
5.84245535321481e-06
4.81741504261635e-06
3.54151491970247e-06
2.05454392403577e-06
4.76767349462272e-07
2.11551029878128e-08
7.14524297947851e-08
2.07233756486622e-06
1.0231295463742e-05
1.77238405468519e-05
2.41555564943755e-05
2.93263441435093e-05
3.32250968041892e-05
3.59857878128351e-05
3.78243664618934e-05
3.89779387407949e-05
3.9661067837707e-05
4.00436369677745e-05
4.02466651847472e-05
4.03489814280696e-05
4.03980451988821e-05
4.04204756724982e-05
4.04302681832668e-05
4.04343551335515e-05
4.04359854895827e-05
4.04366052063211e-05
4.04368273167597e-05
4.0436900090991e-05
4.04369198329022e-05
4.04369222080941e-05
4.04369196491901e-05
4.04369160671452e-05
4.04369108618359e-05
4.04368983566102e-05
4.04368619618434e-05
4.04367568685153e-05
4.04364669775296e-05
4.04357029329524e-05
4.04337723357619e-05
4.04290881224674e-05
4.04181749543184e-05
4.03937846217346e-05
4.03415705206174e-05
4.02346949582643e-05
4.00259441488195e-05
3.9637677990916e-05
3.89514737930388e-05
3.78015440752601e-05
3.59781587510915e-05
3.32478220446801e-05
2.9393971382921e-05
2.42745900717224e-05
1.78829505609265e-05
1.03893765181384e-05
2.12770817391903e-06
7.42484031084282e-08
1.26005948399076e-07
3.68005375176733e-06
1.82256912081132e-05
3.14538638556712e-05
4.27367422732784e-05
5.17642076697095e-05
5.8547606502579e-05
6.33403102203834e-05
6.65284002223187e-05
6.85279507488733e-05
6.97123525440966e-05
7.03761188804641e-05
7.07287489984798e-05
7.09066910025247e-05
7.09921497436212e-05
7.10312855553849e-05
7.1048403276541e-05
7.1055562270875e-05
7.10584248257867e-05
7.10595159964783e-05
7.10599086006495e-05
7.10600380909467e-05
7.10600737366236e-05
7.10600784872608e-05
7.10600745029386e-05
7.10600684342361e-05
7.10600594941162e-05
7.10600379544475e-05
7.10599752967087e-05
7.10597943617311e-05
7.10592949851312e-05
7.10579777625934e-05
7.10546465298452e-05
7.10465572361339e-05
7.10276967126937e-05
7.09855165136929e-05
7.08951675432309e-05
7.0710147659038e-05
7.03486182767533e-05
6.96759326627902e-05
6.84865285096579e-05
6.64920978586859e-05
6.33265681667294e-05
5.85793364982494e-05
5.18633951304112e-05
4.29130965708653e-05
3.16896985605256e-05
1.84579547550041e-05
3.75972360616794e-06
1.29958542231244e-07
1.79344879080284e-07
5.24070367169754e-06
2.58902172622998e-05
4.45264996656407e-05
6.0336869425794e-05
7.29355106732825e-05
8.23751807951009e-05
8.9032351139919e-05
9.345629910915e-05
9.62301025320743e-05
9.78734570259652e-05
9.87949807007413e-05
9.92849847087408e-05
9.95325275132337e-05
9.96515710650022e-05
9.97061693634626e-05
9.97300906326231e-05
9.97401140241534e-05
9.97441307338507e-05
9.97456660390677e-05
9.97462205958793e-05
9.9746404762348e-05
9.97464562532109e-05
9.97464638259796e-05
9.97464588303652e-05
9.97464507410326e-05
9.97464384613135e-05
9.97464087667258e-05
9.97463224842001e-05
9.97460734261525e-05
9.97453857479787e-05
9.97435704030692e-05
9.9738975182203e-05
9.97278060722625e-05
9.97017417565824e-05
9.96434038997907e-05
9.95183568162754e-05
9.92621224973318e-05
9.87611679689529e-05
9.78285889020201e-05
9.61787871037065e-05
9.34105632168875e-05
8.90129523012112e-05
8.2409379534707e-05
7.30494084465037e-05
6.05418114634912e-05
4.48010114911746e-05
2.61594621946445e-05
5.33323943663164e-06
1.83986434548273e-07
2.30082060521056e-07
6.72444062326704e-06
3.31189142440087e-05
5.67792497235288e-05
7.67579147341045e-05
9.26225608559208e-05
0.000104480449903019
0.000112830266850069
0.000118374666435567
0.000121850266907326
0.000123909897042049
0.000125065521492477
0.000125680524775847
0.000125991545254602
0.000126141301759401
0.000126210083780377
0.00012624026757285
0.000126252938023096
0.000126258026342327
0.00012625997654016
0.000126260683778945
0.000126260920376953
0.000126260987670727
0.000126260998471187
0.000126260992954508
0.000126260983268557
0.000126260968004849
0.000126260930913781
0.000126260823359228
0.000126260513261509
0.000126259657085402
0.000126257395755945
0.000126251667274961
0.000126237732238861
0.000126205187294564
0.000126132290519951
0.000125975933657378
0.000125655358522448
0.000125028299216439
0.000123860428273646
0.000121793415660235
0.000118323233026791
0.000112806355123222
0.000104513041182366
9.27393055121069e-05
7.69706599167503e-05
5.70650420132715e-05
3.3399404371856e-05
6.82229726480407e-06
2.3510046499329e-07
2.77424052063886e-07
8.10975584396857e-06
3.98277134929911e-05
6.80881782161468e-05
9.18536867239628e-05
0.000110668910307214
0.000124703419755703
0.000134573531999587
0.000141123403249527
0.000145228838467556
0.000147662375588367
0.00014902857709632
0.000149756235066012
0.000150124597410661
0.000150302172780591
0.000150383841158595
0.000150419734255585
0.00015043482749782
0.000150440901335855
0.000150443235522096
0.00015044408545611
0.000150444371956857
0.000150444454946358
0.000150444469447055
0.000150444463848106
0.000150444452927625
0.000150444435000849
0.000150444391187572
0.000150444264511463
0.000150443899985258
0.000150442894037014
0.000150440236463201
0.000150433500300331
0.000150417102622422
0.00015037877937626
0.000150292883528132
0.000150108536540663
0.000149730380242531
0.000148990361194408
0.000147611558145475
0.000145170251636887
0.00014106980804376
0.000134546926027095
0.000124732543439795
0.000110781032377867
9.20603059461834e-05
6.83666072111972e-05
4.01020577553266e-05
8.20782987405416e-06
2.82599511960744e-07
3.20828137922077e-07
9.38117560208153e-06
4.59555623808911e-05
7.83681102898156e-05
0.00010552882428566
0.000126977279307186
0.000142948635523552
0.000154169457630682
0.000161612205771546
0.000166277141673572
0.000169043166524587
0.0001705969057425
0.000171425089913176
0.000171844740241888
0.000172047264193902
0.000172140524335119
0.000172181570756336
0.000172198859523286
0.000172205830759209
0.000172208516881421
0.000172209498930061
0.000172209832496775
0.00017220993095469
0.000172209949601848
0.000172209944361622
0.000172209932489331
0.000172209912187709
0.000172209862262972
0.000172209718450634
0.000172209305679538
0.000172208167622304
0.000172205161012065
0.000172197536957208
0.000172178967227881
0.000172135541293517
0.000172038152266947
0.000171829030267661
0.00017139985828353
0.000170559679828072
0.000168993723554046
0.000166220123695746
0.000161559800947917
0.000154142559117398
0.00014297436418241
0.000127081138099773
0.000105721305399138
7.86278827462168e-05
4.62129728840242e-05
9.47615175922375e-06
3.26007242061706e-07
3.59949233100189e-07
1.05286536286464e-05
5.14649108221596e-05
8.75721741316579e-05
0.000117737131117625
0.000141506881220615
0.000159181805999699
0.000171589385191501
0.000179816516122261
0.000184973252087621
0.00018803187026311
0.000189750912220264
0.000190667882011007
0.000191132936977794
0.000191357606789248
0.000191461187505037
0.00019150683777264
0.000191526095734442
0.000191533875781137
0.000191536881198757
0.000191537984348082
0.000191538361864862
0.000191538475385664
0.000191538498528136
0.000191538494029063
0.000191538481483963
0.000191538459070083
0.000191538403599155
0.000191538244498011
0.000191537789258548
0.000191536535656037
0.000191533224445074
0.000191524825662122
0.000191504359345445
0.000191456473230815
0.000191349027338957
0.000191118204933122
0.000190644310316524
0.000189716266628678
0.000187986038259249
0.000184920635714379
0.000179768433838114
0.000171565014290167
0.000159205765347391
0.000141601983290866
0.000117912341767517
8.78079999438492e-05
5.16998831953707e-05
1.06186198276726e-05
3.65031806546288e-07
3.94622486942252e-07
1.15472558712521e-05
5.63409346489435e-05
9.56896134789589e-05
0.000128478001097486
0.000154268793053039
0.000173424473302929
0.000186862928743797
0.000195771517928788
0.000201355855161868
0.000204669199132901
0.000206532395219626
0.000207526950877907
0.000208031777364971
0.000208275897655246
0.000208388570144483
0.000208438289921952
0.000208459295421896
0.000208467796748229
0.000208471088805263
0.000208472301795563
0.000208472719905692
0.000208472847870699
0.000208472875732209
0.000208472872326993
0.000208472859364693
0.000208472835082313
0.000208472774600483
0.00020847260194082
0.00020847210961381
0.000208470755884413
0.0002084671814975
0.000208458113729386
0.000208436008900282
0.000208384266122876
0.000208268115803822
0.000208018494374493
0.000207505826920426
0.000206501560582562
0.000204628759709133
0.000201310007283465
0.000195730603876486
0.000186844113424752
0.000173449396860499
0.000154357027651267
0.000128636575967288
9.59008592134314e-05
5.65520715435e-05
1.16314093851987e-05
3.99551956289991e-07
4.24846743718453e-07
1.24367366352525e-05
6.05895435258138e-05
0.000102741946420018
0.000137791020951179
0.000165319441462988
0.00018574677176886
0.000200070289151428
0.00020956418978223
0.000215516151714814
0.000219048801458716
0.000221036328197564
0.000222097941713279
0.000222637225830678
0.000222898243416877
0.000223018838111013
0.000223072115981073
0.000223094655460028
0.000223103793021991
0.000223107339609724
0.000223108651141405
0.000223109106319073
0.000223109247937081
0.000223109280610329
0.000223109278573071
0.000223109265413161
0.000223109239491943
0.000223109174515254
0.000223108989923896
0.000223108465497597
0.000223107025867576
0.000223103226505996
0.000223093587387491
0.000223070082789685
0.000223015042832757
0.000222891444389727
0.000222625724015368
0.000222079829450023
0.000221010206730611
0.000219015108632843
0.00021547897144433
0.000209532924857596
0.00020006003832037
0.000185776036406315
0.000165404299763193
0.000137936250842767
0.000102931333649834
6.07784621102855e-05
1.25151208286228e-05
4.29601317098577e-07
4.50762313148411e-07
1.32009275126112e-05
6.42344301778565e-05
0.000108777853986657
0.000145749183161286
0.000174752646567863
0.000196258711512889
0.000211333066356698
0.000221323835549212
0.000227588224766204
0.000231307536705675
0.00023340108499533
0.00023452000537581
0.000235088808794514
0.00023536434159662
0.000235491762359176
0.000235548116497189
0.000235571987492429
0.000235581680021277
0.000235585450105986
0.000235586849047449
0.000235587337683091
0.000235587492020921
0.000235587529460281
0.000235587528976399
0.000235587515801227
0.000235587488460524
0.000235587419491877
0.00023558722449832
0.000235586672566155
0.000235585160028739
0.00023558117050373
0.000235571049030455
0.000235546362572288
0.000235488536950551
0.00023535864092052
0.000235079298183938
0.000234505269917103
0.00023338028160986
0.000231281544220239
0.000227561142693919
0.000221304261922771
0.000211334154451643
0.000196295897484227
0.000174838486228909
0.000145885977930048
0.00010895025827486
6.44047597820444e-05
1.3274185123179e-05
4.55346363516454e-07
4.72623611611741e-07
1.38469713084014e-05
6.73134875917376e-05
0.000113867275470838
0.000152451257628992
0.00018269080530224
0.000205100584294459
0.000220804175842853
0.000231211702661122
0.000237738481937073
0.0002416148177369
0.000243797727297205
0.000244965057132596
0.000245558859058052
0.000245846718163009
0.000245979953392027
0.000246038936912859
0.000246063950525332
0.000246074121620703
0.000246078085710961
0.000246079561291231
0.000246080079760692
0.000246080245768158
0.000246080287814875
0.000246080288993361
0.000246080275949418
0.000246080247399641
0.000246080174929653
0.000246079970966107
0.000246079395721371
0.000246077822009255
0.000246073673638268
0.000246063149833173
0.000246037477617793
0.000245977327273918
0.000245842171915473
0.000245551444647414
0.000244953890200411
0.000243782582071107
0.000241597109955898
0.000237722467808444
0.000231205367730507
0.000220818961810513
0.000205149095223716
0.00018278220934846
0.000152585240256311
0.000114028676615414
6.74699850012977e-05
1.39161183731405e-05
4.77059441687161e-07
4.90769009842656e-07
1.43844700437303e-05
6.98749353373601e-05
0.000118095202635607
0.00015801389684557
0.000189275837322711
0.000212433145231473
0.000228657543021293
0.000239410375344353
0.000246154868684148
0.000250161720391093
0.000252419056913892
0.000253626798638484
0.000254241522477774
0.000254539726829762
0.000254677857176714
0.000254739062006382
0.000254765044760044
0.000254775623750056
0.000254779754283069
0.000254781296262278
0.000254781840999085
0.000254782017552776
0.000254782063960117
0.000254782066840255
0.000254782054037594
0.00025478202447943
0.000254781948983659
0.00025478173738095
0.000254781142612125
0.000254779518189479
0.000254775238767952
0.000254764383571746
0.000254737899519892
0.000254675833682175
0.000254536341865176
0.000254236221418076
0.000253619244718333
0.000252409679799121
0.000250152549061077
0.000246150452469306
0.000239418303055577
0.000228687839912357
0.000212495913018591
0.000189377101411955
0.000158150668629638
0.000118251824625749
7.0022747083054e-05
1.44506996765646e-05
4.950894136494e-07
5.05590508909239e-07
1.48246220606448e-05
7.19734731472468e-05
0.000121555627808059
0.000162564010218595
0.000194660480605055
0.000218428192531945
0.000235078221759145
0.000246113605005104
0.000253036524701423
0.000257150538765102
0.00025946911469293
0.000260710186780031
0.000261342211488495
0.00026164899512776
0.000261791197759014
0.000261854256978061
0.000261881052038253
0.000261891974586367
0.000261896246223777
0.000261897845037922
0.000261898412608938
0.000261898598553489
0.000261898649011031
0.000261898653577295
0.000261898641087242
0.00026189861071052
0.000261898532645184
0.000261898314627518
0.000261897703717984
0.000261896037796588
0.000261891651651364
0.000261880527044863
0.000261853383121878
0.0002617897596404
0.000261646739168809
0.000261338970269519
0.000260706169876195
0.000259465422634431
0.000257149866521263
0.000253043833400714
0.000246136299426115
0.000235125225602613
0.000218507480583048
0.000194775246813215
0.000162708608328626
0.000121713290217071
7.21175653285911e-05
1.48891463346898e-05
5.09832526542915e-07
5.17505538916052e-07
1.51794139287007e-05
7.36667251221952e-05
0.000124346018725507
0.000166231847466282
0.000199000421316295
0.000223260061146506
0.000240253474824624
0.00025151713024109
0.00025858444531151
0.000262785353638884
0.000265153696689077
0.000266421921738952
0.000267068078716434
0.000267381890918509
0.000267527440443873
0.000267592029135754
0.000267619496887297
0.000267630705338871
0.000267635095161751
0.000267636742031297
0.000267637329198237
0.000267637523376512
0.000267637577547971
0.000267637583759405
0.000267637571598299
0.000267637540579623
0.000267637460375541
0.000267637237055363
0.000267636612989352
0.000267634913570116
0.000267630441692265
0.000267619101039573
0.000267591428053191
0.000267526555126683
0.000267380702283241
0.000267066789993454
0.00026642127224407
0.000265155452548813
0.000262792903639014
0.000258603255087418
0.000251554611506124
0.000240317753727945
0.000223357367773111
0.000199131460857412
0.000166388397398216
0.000124509702796812
7.38114873684388e-05
1.52433484024241e-05
5.21705662290011e-07
5.2693258191282e-07
1.54609164613536e-05
7.50121668329352e-05
0.000126562588556421
0.000169145106883285
0.00020244760627965
0.000227098402046685
0.000244365204590597
0.000255810886146901
0.000262993554818623
0.000267264025471981
0.000269672301595673
0.000270962369688369
0.000271619926832569
0.000271939425871234
0.000272087692243721
0.000272153526965898
0.000272181544991173
0.000272192988469196
0.000272197476073397
0.00027219916307333
0.000272199766840631
0.000272199968126453
0.000272200025607094
0.000272200033344496
0.000272200021605416
0.00027219999010977
0.000272199908167012
0.000272199680541307
0.000272199045916866
0.00027219731985591
0.000272192780105463
0.000272181268692907
0.000272153177590328
0.000272087316708675
0.000271939222615287
0.000271620445502435
0.000270964850696047
0.000269679153790955
0.000267279335456744
0.00026302335587968
0.00025586275494519
0.00024444674244395
0.000227214455913616
0.00020259673991968
0.000169316655721469
0.000126736203738953
7.51611822721787e-05
1.55252074399011e-05
5.31123493062016e-07
5.34271618032894e-07
1.56807145836246e-05
7.6064647749272e-05
0.000128296513252798
0.000171424245121443
0.000205144932131248
0.000230102454432397
0.000247583951107859
0.000259172826940496
0.000266446420434639
0.000270771843445253
0.000273211742602805
0.000274519154237744
0.000275185789273453
0.000275509830791785
0.000275660274611931
0.000275727111669636
0.000275755574196701
0.000275767208472184
0.000275771775971038
0.000275773496065017
0.000275774113716292
0.000275774321064455
0.000275774381444084
0.000275774390596588
0.000275774379314747
0.000275774347491125
0.000275774264174441
0.000275774033123988
0.000275773390174094
0.000275771643270968
0.000275767050642378
0.000275755406376478
0.000275726989945916
0.000275660359814167
0.000275510519068378
0.000275187947405075
0.000274524486545832
0.000273223264083828
0.000270794321803711
0.000266486490559228
0.000259238350822443
0.000247682235349553
0.000230237286389624
0.000205313066638412
0.000171612748668517
0.000128482836032454
7.6220608305991e-05
1.57461051840965e-05
5.38480375109731e-07
5.39889723901691e-07
1.58494819601563e-05
7.68745465298985e-05
0.00012963113959821
0.000173179034077756
0.000207222359079104
0.000232416861559432
0.000250064511005451
0.000261764417707382
0.000269108664333774
0.0002734768893111
0.000275941483217634
0.000277262476626316
0.000277936242091771
0.000278263863209291
0.000278416028940832
0.000278483661678562
0.000278512478584509
0.000278524265751904
0.000278528897695686
0.00027853064473463
0.000278531273851383
0.000278531486315175
0.000278531549210994
0.000278531559643974
0.000278531548828754
0.000278531516808187
0.000278531432443444
0.000278531198735172
0.000278530549355804
0.000278528786459117
0.00027852415339174
0.000278512407614609
0.000278483742483225
0.000278416523665619
0.000278265344650862
0.000277939862320549
0.00027727036166054
0.000275957208301577
0.000273505870389224
0.00026915814609678
0.000261842630802415
0.000250178650924788
0.000232569932498761
0.000207409611452921
0.00017338546261541
0.000129831887169231
7.70392841951984e-05
1.59165101310507e-05
5.44137183891005e-07
5.44111577009662e-07
1.5976694873956e-05
7.74865308630299e-05
0.000130640131366262
0.000174506294196987
0.000208794366716155
0.00023416894054076
0.000251943083624519
0.000263727699634511
0.000271125977250896
0.000275527019077199
0.000278010599950449
0.000279342067560371
0.000280021349861283
0.000280351750175678
0.000280505257804521
0.000280573513148431
0.000280602608615305
0.000280614516611965
0.000280619199838412
0.000280620968528784
0.000280621606994613
0.000280621823728863
0.000280621888789655
0.000280621900361202
0.000280621890009778
0.000280621857906566
0.000280621772779671
0.000280621537072465
0.000280620882857235
0.000280619107983563
0.000280614444702835
0.000280602623083504
0.000280573771903728
0.000280506111927149
0.000280353928197152
0.000280026256991927
0.000279352207627118
0.000278030057735275
0.000275561815148619
0.000271183954063098
0.000263817507111043
0.000252071944882504
0.000234339303387072
0.000209000245568258
0.000174730818471879
0.00013085612888648
7.76611314803952e-05
1.60457149496211e-05
5.48412768729551e-07
5.47214204281091e-07
1.60704678009096e-05
7.79388450175777e-05
0.000131386429834421
0.000175488646477972
0.000209958570985455
0.000235467210074804
0.000253335738857014
0.00026518371752183
0.000272622519166034
0.000277048246309737
0.000279546154755742
0.000280885553152729
0.000281569027901632
0.000281901548465378
0.000282056084103119
0.000282124818576456
0.000282154129493416
0.000282166131499362
0.000282170854928872
0.000282172640774567
0.000282173286766434
0.000282173507024089
0.000282173573922535
0.000282173586501798
0.0002821735766144
0.000282173544526337
0.000282173458883416
0.000282173221736462
0.000282172564015401
0.000282170780476091
0.00028216609535099
0.000282154218813603
0.000282125232541103
0.000282057251223713
0.000281904333421271
0.000281575058547484
0.000280897668589829
0.000279568898105867
0.000277088194031721
0.000272688085792625
0.000265283996825152
0.000253478080748566
0.00023565368499238
0.000210182185524039
0.00017573086660262
0.00013161783081693
7.81238112232378e-05
1.6141686878286e-05
5.51579340644838e-07
5.49425055624417e-07
1.61374854215218e-05
7.82630161728703e-05
0.000131921857439725
0.000176194066963851
0.000210795254744483
0.000236400907501666
0.000254337924485077
0.000266232018936442
0.000273700411450314
0.000278144228626201
0.000280652677298374
0.000281997934279232
0.000282684519778522
0.000283018620970052
0.00028317392683877
0.000283243022248385
0.000283272496446858
0.000283284570203202
0.000283289324593908
0.000283291123818746
0.000283291775789775
0.000283291998922699
0.00028329206736977
0.000283292080843187
0.000283292071414435
0.000283292039422096
0.000283291953471029
0.000283291715355051
0.000283291055236901
0.000283289265768837
0.000283284565673534
0.000283272651332178
0.000283243571517321
0.000283175366332719
0.000283021934206255
0.000282691530036384
0.000282011777350593
0.000280678306836793
0.000278188728495782
0.000273772735727642
0.000266341711388731
0.000254492528663616
0.000236602252382911
0.000211035525651675
0.000176453251445771
0.000132168381431838
7.84584494584175e-05
1.62110065294331e-05
5.53860888295417e-07
5.50922387398119e-07
1.61830026965437e-05
7.84838571875485e-05
0.00013228717334172
0.000176676002357175
0.000211367535213492
0.000237040194340243
0.000255024696313961
0.000266950898307356
0.000274439987753117
0.000278896521214665
0.000281412418997738
0.000282761840329631
0.000283450650577381
0.000283785889561602
0.000283941753694354
0.000284011112643578
0.000284040707033853
0.000284052834107096
0.000284057611781695
0.000284059421236033
0.000284060077888875
0.000284060303348467
0.000284060373098736
0.000284060387364971
0.000284060378382568
0.00028406034654924
0.000284060260462166
0.000284060021771792
0.000284059360188027
0.000284057567084511
0.000284052857755901
0.000284040919833121
0.000284011780869834
0.000283943432212986
0.000283789666420939
0.000283458521807703
0.000282777205875851
0.000281440601874628
0.00027894506915502
0.000274518361295094
0.000267069086391906
0.000255190478364872
0.000237255256487248
0.000211623386846679
0.000176951310707163
0.000132548331568636
7.86896342762195e-05
1.62588680016206e-05
5.55433646519396e-07
5.5183696577232e-07
1.62108849846387e-05
7.86196440495234e-05
0.000132512390619675
0.000176973806335295
0.000211721892145642
0.000237436749481047
0.000255451353896499
0.000267398058332248
0.000274900469654569
0.000279365259740225
0.000281886039177368
0.000283238216617671
0.000283928514686979
0.000284264522911186
0.000284420768792539
0.000284490310128357
0.000284519988788576
0.000284532153805614
0.000284536948360487
0.000284538765418204
0.000284539425672062
0.000284539653001725
0.000284539723850709
0.000284539738821145
0.000284539730268332
0.000284539698641582
0.000284539612558825
0.000284539373626712
0.000284538711376219
0.000284536916616086
0.000284532203001836
0.000284520253719035
0.000284491085020109
0.000284422661299262
0.00028426871482509
0.000283937157586326
0.000283254949676146
0.000281916522738066
0.000279417470563577
0.000274984346417917
0.000267524025761519
0.000255627451936046
0.0002376645884905
0.000211992411060669
0.000177264475555159
0.000132787677568072
7.88355686432195e-05
1.62891137542444e-05
5.5642767646959e-07
5.52254222447529e-07
1.62236634820237e-05
7.86823596982237e-05
0.000132617185402001
0.000177113278333634
0.000211888803008314
0.000237624473057484
0.000255654190225686
0.000267611388183146
0.000275120761415624
0.000279589964284433
0.000282113413675111
0.000283467135291199
0.000284158287810909
0.00028449474904678
0.000284651225561892
0.000284720880032226
0.000284750612463362
0.000284762802486022
0.000284767608619382
0.000284769431172691
0.000284770094208596
0.000284770323093679
0.000284770394915537
0.000284770410536568
0.000284770402397858
0.000284770370995276
0.000284770284994236
0.000284770046050488
0.000284769383768372
0.000284767589045053
0.000284762875520313
0.000284750925810642
0.000284721753729889
0.000284653316063609
0.000284499324960764
0.000284167645152222
0.000283485136233012
0.000282146034763737
0.000279645587867605
0.000275209784852029
0.000267744662748638
0.000255840029096029
0.000237864451103448
0.000212173355441119
0.000177418761176723
0.000132906220774116
7.89082761165345e-05
1.63042809011029e-05
5.56928740332968e-07
5.52216058646623e-07
1.62225823446421e-05
7.86779074607885e-05
0.000132611257767638
0.000177107143782464
0.000211883309922912
0.000237620110292166
0.000255651150343053
0.000267609641975464
0.000275120138749404
0.000279590230084859
0.000282114327253876
0.000283468488368466
0.000284159919964594
0.000284496548057692
0.000284653119088825
0.00028472282466434
0.000284752583751157
0.000284764787402824
0.000284769600537281
0.000284771426826271
0.000284772092002148
0.000284772322222749
0.000284772394941978
0.000284772411182473
0.000284772403442305
0.000284772372259483
0.000284772286375766
0.00028477204758905
0.00028477138582769
0.0002847695927191
0.000284764883470532
0.000284752943876166
0.000284723793806217
0.000284655400831697
0.000284501494895525
0.000284169967589339
0.000283487714881944
0.000282149015953774
0.000279649157617915
0.000275214149904404
0.000267750010551187
0.000255846466915766
0.000237871931217529
0.000212181597730222
0.00017742718254223
0.000132913872336391
7.89137765554709e-05
1.6305640296603e-05
5.56979834065239e-07
5.51722161086248e-07
1.62076350541019e-05
7.86062640588231e-05
0.000132494561607576
0.000176955338426467
0.000211705342536367
0.000237423600003728
0.000255442196156559
0.000267392813383526
0.000274898629364226
0.000279366115685572
0.000281888863945764
0.000283242378230596
0.00028393352580331
0.000284270042203932
0.000284426576022407
0.000284496273045248
0.000284526032875396
0.000284538239352106
0.000284543055164443
0.000284544883531797
0.000284545550240673
0.000284545781583101
0.000284545855120658
0.000284545871944686
0.000284545864582872
0.000284545833613829
0.000284545747888463
0.000284545509447255
0.000284544848810145
0.000284543059015208
0.000284538358501534
0.000284526440150741
0.000284497338689121
0.00028442905139329
0.000284275364741351
0.000283944272460417
0.000283262845135212
0.000281925643485075
0.000279428380750132
0.00027499767099732
0.000267540327896987
0.000255647047654319
0.000237687320582877
0.000212017417435111
0.000177289980893349
0.000132810810020024
7.88521666872268e-05
1.62932113395012e-05
5.56581624198226e-07
5.50730487746316e-07
1.61775766070154e-05
7.84615135792682e-05
0.000132257336809218
0.000176645032157741
0.000211339733353924
0.000237018083461406
0.000255009310334329
0.000266942135852911
0.000274437010668874
0.000278898139862166
0.000281417401865432
0.000282769111986589
0.000283459378881132
0.000283795490222964
0.000283951849004214
0.000284021475488471
0.000284051209326668
0.000284063407552335
0.000284068221629633
0.00028407005038214
0.000284070717995521
0.000284070950229386
0.000284071024493782
0.000284071041857185
0.000284071034850265
0.000284071004094492
0.000284070918588147
0.000284070680728803
0.000284070021930332
0.000284068237407368
0.000284063550694934
0.00028405166612073
0.000284022643030883
0.000283954529306465
0.000283801210569266
0.000283470865142339
0.000282790889123418
0.000281456384757319
0.000278963911496598
0.000274541319438504
0.000267097100478998
0.000255224054711342
0.000237294085642589
0.000211665960158198
0.000176994585459908
0.00013258744486546
7.87176042149751e-05
1.62657615349135e-05
5.5569272704723e-07
5.49156155738292e-07
1.61298944315076e-05
7.82317399951508e-05