/*--------------------------------*- C++ -*----------------------------------*\
  =========                 |
  \\      /  F ield         | OpenFOAM: The Open Source CFD Toolbox
   \\    /   O peration     | Website:  https://openfoam.org
    \\  /    A nd           | Version:  10
     \\/     M anipulation  |
\*---------------------------------------------------------------------------*/
FoamFile
{
    format      ascii;
    class       volScalarField;
    location    "7.2";
    object      nut;
}
// * * * * * * * * * * * * * * * * * * * * * * * * * * * * * * * * * * * * * //

dimensions      [0 2 -1 0 0 0 0];

internalField   nonuniform List<scalar> 
2500
(
6.40781408947251e-15
1.25906458234053e-13
5.38170047845837e-13
9.33546760868103e-13
1.27461067658813e-12
1.54900076080695e-12
1.75552609521925e-12
1.90119387846056e-12
1.99764783475303e-12
2.05772575110899e-12
2.09300235968318e-12
2.1125733719055e-12
2.1228555568465e-12
2.12798279884475e-12
2.13041473189469e-12
2.1315141546265e-12
2.13198866258298e-12
2.13218438236383e-12
2.13226149850033e-12
2.13229040731086e-12
2.13230058574434e-12
2.13230382347874e-12
2.13230463734469e-12
2.13230467756405e-12
2.13230451401878e-12
2.13230432856782e-12
2.1323040845038e-12
2.13230351889704e-12
2.13230185340606e-12
2.13229696916337e-12
2.13228332464503e-12
2.13224697141443e-12
2.13215419978416e-12
2.13192694748538e-12
2.13139249003771e-12
2.13018676336217e-12
2.12758142008257e-12
2.12219911192418e-12
2.11159053081228e-12
2.09168520011322e-12
2.05621180083748e-12
1.99631103406614e-12
1.9006945964359e-12
1.75674701959275e-12
1.55280334094139e-12
1.2813992506464e-12
9.42696081651084e-13
5.47329403240309e-13
1.2968403437755e-13
6.715742044198e-15
6.34150625079797e-13
3.268454226248e-11
1.42614128998798e-10
2.47567982944791e-10
3.3824541957517e-10
4.11385829628653e-10
4.66617818739765e-10
5.0572680496653e-10
5.31738161306582e-10
5.48019408024775e-10
5.57630116367629e-10
5.62991930766889e-10
5.65825401478138e-10
5.67246849967174e-10
5.67925227071992e-10
5.68233824994551e-10
5.68367860657005e-10
5.68423503994571e-10
5.68445575897592e-10
5.68453912077732e-10
5.68456875143928e-10
5.68457832747768e-10
5.68458083812382e-10
5.68458106280897e-10
5.68458065688997e-10
5.68458015124984e-10
5.68457944800022e-10
5.6845777823062e-10
5.68457290614334e-10
5.68455872821689e-10
5.68451940856947e-10
5.68441531616609e-10
5.68415124592679e-10
5.68350809634146e-10
5.68200410468847e-10
5.67863027675214e-10
5.67138096976583e-10
5.65648834183773e-10
5.62729619237469e-10
5.57281595065755e-10
5.47623066036867e-10
5.31394361267481e-10
5.05609642348857e-10
4.6695686901122e-10
4.12401744454596e-10
3.40036930558758e-10
2.49965139014917e-10
1.45001287664652e-10
3.36447126482222e-11
6.63449253535415e-13
2.24731671554768e-12
5.86698937299656e-10
2.01181915460574e-07
3.48548411825805e-07
4.75064042298527e-07
5.76781138918615e-07
6.53476453956418e-07
7.07783993004767e-07
7.4395166322001e-07
7.66643926854688e-07
7.80081790643343e-07
7.8760723397349e-07
7.91600918995785e-07
7.93613521079565e-07
7.9457861786637e-07
7.95019828306829e-07
7.95212447360703e-07
7.95292837810759e-07
7.9532490729732e-07
7.95337097574741e-07
7.95341466989306e-07
7.95342898984096e-07
7.95343287785144e-07
7.95343334857718e-07
7.95343284820716e-07
7.95343214608207e-07
7.95343112370134e-07
7.95342866502229e-07
7.95342150715527e-07
7.95340083597332e-07
7.95334381485262e-07
7.95319352745713e-07
7.95281377865242e-07
7.95189239372482e-07
7.94974576988855e-07
7.94494815919703e-07
7.93467750609153e-07
7.91365462480177e-07
7.87259204790854e-07
7.79621685256552e-07
7.66123311340908e-07
7.43502668973345e-07
7.07633826421401e-07
6.53923337283427e-07
5.78111204723249e-07
4.77405117026686e-07
3.51677382562094e-07
2.0429012058685e-07
6.02373209402649e-10
2.33525400144196e-12
3.97354068370123e-12
1.0446320352274e-09
3.59336230754896e-07
6.20210424599296e-07
8.42744972664995e-07
1.02080271510271e-06
1.15459965520439e-06
1.24913127911281e-06
1.31201268525875e-06
1.35145099830141e-06
1.37481134668966e-06
1.38790287183815e-06
1.39485775442688e-06
1.39836725187228e-06
1.40005271647281e-06
1.4008245697975e-06
1.40116217106539e-06
1.40130336268461e-06
1.40135981891272e-06
1.40138133957343e-06
1.40138908305634e-06
1.4013916374395e-06
1.40139234098926e-06
1.4013924350913e-06
1.40139235683698e-06
1.40139223742469e-06
1.40139206130003e-06
1.40139163666715e-06
1.40139040111658e-06
1.40138683290388e-06
1.40137698436142e-06
1.40135100604795e-06
1.40128530665522e-06
1.40112576733708e-06
1.40075379399884e-06
1.39992189811186e-06
1.39813998511929e-06
1.39449089025876e-06
1.3873604818336e-06
1.37409302697997e-06
1.35063398850542e-06
1.31129661046517e-06
1.2488601059772e-06
1.15522526133901e-06
1.02275866761889e-06
8.46222571501546e-07
6.24860422236326e-07
3.63914903701946e-07
1.06724275765895e-09
4.09816640906493e-12
5.66767018532224e-12
1.49082672150632e-09
5.11533126505694e-07
8.79828488533511e-07
1.19230418729431e-06
1.44131054603756e-06
1.62788190147234e-06
1.75945732055273e-06
1.84689335134634e-06
1.9017148743639e-06
1.93419382017432e-06
1.95240646085439e-06
1.96209063027821e-06
1.96698289489642e-06
1.96933557506615e-06
1.97041460604443e-06
1.97088736205466e-06
1.97108545365142e-06
1.97116483551931e-06
1.97119517769495e-06
1.97120613757643e-06
1.9712097776172e-06
1.9712107956546e-06
1.97121094564926e-06
1.97121084717103e-06
1.97121068752033e-06
1.97121044501406e-06
1.97120985835743e-06
1.97120815341679e-06
1.97120323161095e-06
1.97118964157921e-06
1.97115376565288e-06
1.97106295073788e-06
1.97084221608313e-06
1.97032710715902e-06
1.96917417143357e-06
1.9667028426355e-06
1.96163880421456e-06
1.951738211107e-06
1.93330706624261e-06
1.90070067534031e-06
1.84598938383025e-06
1.7590738124889e-06
1.62855760158836e-06
1.4435612498474e-06
1.19635388569894e-06
8.852522737841e-07
5.16851749447436e-07
1.51714255826821e-09
5.81430990604898e-12
7.28262343442436e-12
1.91589382174006e-09
6.55357721049699e-07
1.12363006274777e-06
1.51906073370518e-06
1.83306960698254e-06
2.0677726621847e-06
2.23303935386255e-06
2.34277788144728e-06
2.41156873410505e-06
2.45233366003134e-06
2.47520602957515e-06
2.48737823666156e-06
2.49353395515138e-06
2.49649792420523e-06
2.49785924773131e-06
2.49845663888335e-06
2.49870740897019e-06
2.49880811535535e-06
2.49884671298711e-06
2.49886071045854e-06
2.49886539330277e-06
2.49886672542655e-06
2.49886693940141e-06
2.49886683036093e-06
2.49886663879287e-06
2.49886633682739e-06
2.49886560290269e-06
2.49886347446156e-06
2.49885733741551e-06
2.49884039274451e-06
2.49879563788505e-06
2.498682261553e-06
2.49840646272383e-06
2.49776234033737e-06
2.4963195789337e-06
2.49322497720744e-06
2.48688015405532e-06
2.47446933304383e-06
2.45135457507583e-06
2.41044352108399e-06
2.34175987368907e-06
2.23256602151026e-06
2.0684175918451e-06
1.83537999929904e-06
1.52327084818798e-06
1.12928511453116e-06
6.60906758777143e-07
1.94376464559924e-09
7.4414018855491e-12
8.79062457683796e-12
2.31300718786246e-09
7.88909392659816e-07
1.34876067792349e-06
1.81958312555841e-06
2.19233815022831e-06
2.47038021442335e-06
2.6659190214067e-06
2.79567905850124e-06
2.87701170295452e-06
2.92522218373366e-06
2.95228770365176e-06
2.96670312474412e-06
2.97400062235735e-06
2.97751849696722e-06
2.97913639289825e-06
2.97984745354555e-06
2.98014645774656e-06
2.98026678305133e-06
2.98031302415336e-06
2.98032986160822e-06
2.98033553731555e-06
2.98033718149525e-06
2.98033746886826e-06
2.98033735800488e-06
2.98033714172686e-06
2.98033678666957e-06
2.98033591883663e-06
2.98033340952834e-06
2.98032618837571e-06
2.98030626051596e-06
2.98025361342614e-06
2.98012016712046e-06
2.97979532108901e-06
2.97903611812936e-06
2.97733447439226e-06
2.97368245132909e-06
2.96619093115017e-06
2.95153063060558e-06
2.92421546564422e-06
2.87585106372142e-06
2.79461729583488e-06
2.6653919160363e-06
2.47095712341519e-06
2.19455923980215e-06
1.82367601263382e-06
1.3542754893659e-06
7.94342336636638e-07
2.340968914506e-09
8.9545417943025e-12
1.01729214221038e-11
2.67736684836938e-09
9.10854168868519e-07
1.55332934023508e-06
2.09171567705525e-06
2.51687407260945e-06
2.83346291705389e-06
3.0558844408745e-06
3.20341560055091e-06
3.29588426761475e-06
3.35071243192266e-06
3.38151058570942e-06
3.39792678416099e-06
3.40624504434593e-06
3.41025944489428e-06
3.41210803156903e-06
3.41292164570263e-06
3.4132643397637e-06
3.41340252177722e-06
3.41345576524158e-06
3.41347523105082e-06
3.4134818428771e-06
3.4134837945058e-06
3.41348416416144e-06
3.41348406028567e-06
3.4134838249708e-06
3.41348342259901e-06
3.41348243308727e-06
3.41347958261933e-06
3.41347140097869e-06
3.41344884300055e-06
3.41338924717143e-06
3.41323812508769e-06
3.412870039853e-06
3.41200925962086e-06
3.41007883144793e-06
3.40593364652089e-06
3.39742665114874e-06
3.38077270569995e-06
3.34973238894592e-06
3.2947540743869e-06
3.20237684678612e-06
3.05535126581467e-06
2.83397290287329e-06
2.51893270663025e-06
2.09553080323854e-06
1.55847781344867e-06
9.15955074936217e-07
2.70446392585478e-09
1.03370705446798e-11
1.14180037545024e-11
3.00598021642014e-09
1.02041194659776e-06
1.73635375809867e-06
2.33447751977306e-06
2.80579518935121e-06
3.15626122925641e-06
3.4022834703897e-06
3.56541380695667e-06
3.66766311416387e-06
3.72831021545327e-06
3.76239579577092e-06
3.78057767548519e-06
3.78979888005327e-06
3.79425367547715e-06
3.79630749204532e-06
3.79721265289162e-06
3.79759450251252e-06
3.79774876617604e-06
3.7978083578286e-06
3.79783023112097e-06
3.7978377165136e-06
3.79783996740413e-06
3.7978404262714e-06
3.7978403370445e-06
3.79784008829863e-06
3.79783964389305e-06
3.79783854405774e-06
3.79783538947394e-06
3.79782636306728e-06
3.79780150668402e-06
3.79773585186078e-06
3.79756931976568e-06
3.79716351057787e-06
3.79621401708001e-06
3.79408356148508e-06
3.78950677205315e-06
3.78011029454422e-06
3.76170884131527e-06
3.72740145689147e-06
3.66661983600834e-06
3.56446043345466e-06
3.4018002530483e-06
3.15673631603549e-06
2.80768089565042e-06
2.33795153867399e-06
1.7410293425045e-06
1.02507007096136e-06
3.03165923059027e-09
1.15791704488435e-11
1.25206861358465e-11
3.29746568903541e-09
1.11730202335456e-06
1.89764752127407e-06
2.54789614088511e-06
3.05937101363153e-06
3.4392600079457e-06
3.70576655601805e-06
3.88243823046704e-06
3.99318452202443e-06
4.05889335121757e-06
4.09584344015932e-06
4.11556702220523e-06
4.12557851054277e-06
4.13041979087167e-06
4.13265425863038e-06
4.13364027747702e-06
4.13405684828328e-06
4.13422544228724e-06
4.13429072862809e-06
4.13431478398057e-06
4.1343230756858e-06
4.1343256134008e-06
4.13432616591973e-06
4.13432609837103e-06
4.1343258413033e-06
4.1343253597551e-06
4.13432416033819e-06
4.13432073629396e-06
4.1343109727958e-06
4.13428412643334e-06
4.13421324113438e-06
4.13403341370711e-06
4.13359504146375e-06
4.13256890348483e-06
4.13026546523676e-06
4.12531508932613e-06
4.11514810337508e-06
4.0952319448454e-06
4.05809137986427e-06
3.9922752947007e-06
3.88162685100041e-06
3.70539343247171e-06
3.43975430029343e-06
3.06112086301334e-06
2.55104090013705e-06
1.90183663278319e-06
1.12148862284973e-06
3.32149221745124e-09
1.26770474819221e-11
1.34812301148865e-11
3.55183731764646e-09
1.20167150054565e-06
2.03768954405991e-06
2.7328276531636e-06
3.27880658809211e-06
3.68394732481666e-06
3.96802928750013e-06
4.15632411560755e-06
4.27437075866178e-06
4.34443459454317e-06
4.38385364697916e-06
4.40490885494456e-06
4.41560459011391e-06
4.42078140584492e-06
4.42317318494677e-06
4.4242298555859e-06
4.42467688544098e-06
4.42485811239398e-06
4.42492845248655e-06
4.42495446429905e-06
4.42496349189193e-06
4.42496630060887e-06
4.42496694860806e-06
4.42496690818952e-06
4.42496664718042e-06
4.42496613308304e-06
4.4249648444041e-06
4.42496118340011e-06
4.42495078240311e-06
4.42492223001815e-06
4.42484687664447e-06
4.42465570220797e-06
4.4241895309183e-06
4.4230979124677e-06
4.42064655949158e-06
4.41537647261488e-06
4.40454963148458e-06
4.38333557598494e-06
4.34376636016769e-06
4.27363335836035e-06
4.15570403749801e-06
3.96782598984997e-06
3.68452775240852e-06
3.2804896231705e-06
2.73570803321424e-06
2.04144560210102e-06
1.20541804970519e-06
3.57422043602022e-09
1.36320746887702e-11
1.4304414271097e-11
3.77027440329122e-09
1.27401883849273e-06
2.15749351029145e-06
2.89078411562101e-06
3.46603978766096e-06
3.89259165106116e-06
4.1915766949747e-06
4.38973374437835e-06
4.51398169556068e-06
4.58775054885214e-06
4.6292739915687e-06
4.65146665925628e-06
4.66274830573844e-06
4.6682132226739e-06
4.67074048558687e-06
4.67185821324359e-06
4.67233167035801e-06
4.67252391184797e-06
4.67259868763801e-06
4.67262643420219e-06
4.67263612577676e-06
4.67263918689832e-06
4.67263992945949e-06
4.67263991985396e-06
4.67263965853346e-06
4.6726391162595e-06
4.67263774834468e-06
4.67263388086101e-06
4.67262293387055e-06
4.67259293425616e-06
4.67251380610011e-06
4.67231305692308e-06
4.67182342590099e-06
4.67067651284212e-06
4.66810015551718e-06
4.66255967244475e-06
4.65117439652335e-06
4.62886137789155e-06
4.58723501502822e-06
4.51344455153914e-06
4.38934552400338e-06
4.19159828159799e-06
3.89332920802314e-06
3.46774234878582e-06
2.89349731634688e-06
2.16091293894629e-06
1.27739699756147e-06
3.79119568895516e-09
1.44498673481751e-11
1.49985685426293e-11
3.95488086000839e-09
1.33511640339945e-06
2.25848102333178e-06
3.02377005339341e-06
3.62355244692566e-06
4.06803622639844e-06
4.37950696916324e-06
4.58593361124049e-06
4.71538809351161e-06
4.79227272314974e-06
4.83556932913695e-06
4.85872256400957e-06
4.87050024204475e-06
4.87620974146936e-06
4.87885237609949e-06
4.88002227605444e-06
4.88051840483138e-06
4.8807201418887e-06
4.88079876702811e-06
4.88082803419014e-06
4.88083831768426e-06
4.88084161032675e-06
4.88084244428981e-06
4.8808424676598e-06
4.88084220893923e-06
4.88084164267357e-06
4.88084020528281e-06
4.88083615980661e-06
4.88082475021416e-06
4.88079353667474e-06
4.88071125645017e-06
4.88050252362059e-06
4.8799933318707e-06
4.8788002887318e-06
4.8761195695855e-06
4.87035318203133e-06
4.85850107522431e-06
4.83526893357549e-06
4.79192150114295e-06
4.71507046429273e-06
4.58580796325091e-06
4.3798002420029e-06
4.06899841538588e-06
3.62536539842902e-06
3.02642752452072e-06
2.26168229983265e-06
1.33822035439878e-06
3.97462936132061e-09
1.51393292210624e-11
1.55745998990607e-11
4.10843981060918e-09
1.38593353121339e-06
2.3423589519094e-06
3.13412690304881e-06
3.75419232110699e-06
4.21350624598278e-06
4.53530924988138e-06
4.74858641340995e-06
4.88236013050722e-06
4.96183406630443e-06
5.00660722663831e-06
5.03056218966826e-06
5.04275493447249e-06
5.04866967095294e-06
5.05140941833104e-06
5.05262338595163e-06
5.05313874104425e-06
5.0533485700792e-06
5.05343049715318e-06
5.05346108154195e-06
5.0534718861219e-06
5.0534753879731e-06
5.05347630843653e-06
5.05347636556044e-06
5.05347611162482e-06
5.05347552535361e-06
5.05347402793444e-06
5.05346983090322e-06
5.05345803396373e-06
5.0534258143516e-06
5.05334093414851e-06
5.05312562669825e-06
5.05260032859797e-06
5.05136928330383e-06
5.0486025318393e-06
5.04264979056449e-06
5.03041236140269e-06
5.00642123623852e-06
4.96165215759695e-06
4.88227253726902e-06
4.7487436561321e-06
4.53591017503944e-06
4.21475121728101e-06
3.75620085092872e-06
3.136839712444e-06
2.34546547071547e-06
1.38886527210719e-06
4.12735567157677e-09
1.57117036377676e-11
1.6045047122508e-11
4.23417271710811e-09
1.42756234860349e-06
2.41100318383917e-06
3.22438698208937e-06
3.86100679014762e-06
4.33242920652549e-06
4.66267541507939e-06
4.88155751668429e-06
5.01887066234013e-06
5.10047036745091e-06
5.14645832652052e-06
5.17107445889987e-06
5.18361039776201e-06
5.18969531956262e-06
5.19251584769968e-06
5.19376660022602e-06
5.19429806872976e-06
5.19451471277348e-06
5.19459943886159e-06
5.19463115064955e-06
5.19464240817409e-06
5.19464609630241e-06
5.19464709710457e-06
5.19464718767351e-06
5.19464693993821e-06
5.19464633742925e-06
5.19464478903795e-06
5.19464046475316e-06
5.19462834762811e-06
5.19459530479731e-06
5.1945083074963e-06
5.19428765571053e-06
5.19374926766082e-06
5.19248732322947e-06
5.18965057357964e-06
5.18354610957015e-06
5.1709947853349e-06
5.14638509612817e-06
5.10045703379437e-06
5.01901562729099e-06
4.88200765092821e-06
4.66360771665686e-06
4.33400185250558e-06
3.86328313202527e-06
3.22725502850018e-06
2.41413035134761e-06
1.43042034204677e-06
4.25260179800017e-09
1.61796663913725e-11
1.64232099113602e-11
4.33551507264296e-09
1.46114945824577e-06
2.46635278885732e-06
3.29714132018238e-06
3.94709276968257e-06
4.42827293602481e-06
4.76533043424344e-06
4.98874048892022e-06
5.12891782724143e-06
5.21224114583939e-06
5.25921627276817e-06
5.28437100385503e-06
5.29718726621959e-06
5.30341160434154e-06
5.30629852031094e-06
5.30757961088824e-06
5.30812442262658e-06
5.30834673772692e-06
5.30843380808587e-06
5.30846647307551e-06
5.30847811929308e-06
5.30848197073983e-06
5.30848304520821e-06
5.30848316840916e-06
5.30848292719845e-06
5.30848231195577e-06
5.30848072114083e-06
5.30847629167638e-06
5.30846391358095e-06
5.30843020628984e-06
5.30834150840402e-06
5.3081165711478e-06
5.30756768865856e-06
5.30628096040142e-06
5.30338802823982e-06
5.29716170491771e-06
5.28435812138284e-06
5.25925109952974e-06
5.21239089702895e-06
5.12929091153202e-06
4.9894839146856e-06
4.7666053804969e-06
4.4302029743026e-06
3.94969188765139e-06
3.30024642741836e-06
2.46959939760971e-06
1.46402075389609e-06
4.35377583319739e-09
1.65565011752837e-11
1.6722394784192e-11
4.41592024385077e-09
1.4878365914539e-06
2.51031885138352e-06
3.35492629825e-06
4.01546822909313e-06
4.5044070300929e-06
4.84688723914155e-06
5.07390781157446e-06
5.21637320705607e-06
5.30107630521332e-06
5.34884351056849e-06
5.37443150143343e-06
5.38747388755435e-06
5.39381102473181e-06
5.39675182963844e-06
5.39805763533489e-06
5.39861336179243e-06
5.39884033865551e-06
5.39892934851051e-06
5.39896280948689e-06
5.3989747849723e-06
5.39897877739679e-06
5.39897991750244e-06
5.39898007097071e-06
5.39897983813077e-06
5.39897921342727e-06
5.3989775881254e-06
5.39897307325999e-06
5.3989604857357e-06
5.3989262499997e-06
5.39883620584481e-06
5.39860788152721e-06
5.39805070561004e-06
5.3967443810504e-06
5.39380699323122e-06
5.38748417516627e-06
5.37448071123908e-06
5.3489794211502e-06
5.30137997270282e-06
5.21696429931437e-06
5.07493660869295e-06
4.84850451031588e-06
4.50670891298187e-06
4.01842623667808e-06
3.35832890296762e-06
2.51376244085214e-06
1.49079225206918e-06
4.43428288844935e-09
1.68553943979877e-11
1.69553072007572e-11
4.47869967732434e-09
1.50871243233137e-06
2.54471101470857e-06
3.40013267786457e-06
4.06896929098473e-06
4.56399196474392e-06
4.91073059943086e-06
5.14059140899566e-06
5.28486028474081e-06
5.37065335456304e-06
5.41904779787782e-06
5.44497979512516e-06
5.45820223972093e-06
5.46462947620323e-06
5.46761347039667e-06
5.46893915723332e-06
5.46950370029881e-06
5.46973446159155e-06
5.46982505614044e-06
5.46985917353003e-06
5.46987142440086e-06
5.4698755370704e-06
5.46987673467671e-06
5.46987691621313e-06
5.46987669244239e-06
5.46987606123351e-06
5.46987440867999e-06
5.46986982588513e-06
5.46985707322644e-06
5.46982242408827e-06
5.46973133110122e-06
5.46950037165272e-06
5.46893674289342e-06
5.46761516035202e-06
5.46464312790197e-06
5.45824504541763e-06
5.44508555936694e-06
5.41927632193679e-06
5.37109920398777e-06
5.2856550599475e-06
5.14189104950455e-06
4.91268002886209e-06
4.56666630388282e-06
4.0723041733581e-06
3.4038715724237e-06
2.54840665451374e-06
1.51180584827737e-06
4.49737641882244e-09
1.70888734703946e-11
1.7133601693558e-11
4.526903068382e-09
1.52477654411009e-06
2.57118293200694e-06
3.43493838655268e-06
4.11017442244907e-06
4.60989752422904e-06
4.95993174778675e-06
5.19199482046916e-06
5.33766507934741e-06
5.42430711297285e-06
5.47319136898124e-06
5.49939275647871e-06
5.51275663091239e-06
5.51925486761421e-06
5.52227301537238e-06
5.52361448426734e-06
5.52418605632354e-06
5.52441985017764e-06
5.52451172297055e-06
5.5245463748046e-06
5.52455885308937e-06
5.5245630672257e-06
5.52456431473979e-06
5.52456452167402e-06
5.52456430715852e-06
5.52456367204328e-06
5.52456199870182e-06
5.5245573631899e-06
5.52454448300442e-06
5.52450951663858e-06
5.52441762155994e-06
5.52418464866584e-06
5.52361608699896e-06
5.52228282804796e-06
5.51928425143131e-06
5.51282843673708e-06
5.49954915305078e-06
5.47350326987177e-06
5.42488194132091e-06
5.3386465307588e-06
5.19354614661261e-06
4.96219566844753e-06
4.61293362648229e-06
4.11388850017468e-06
3.43903281610747e-06
2.5751646818017e-06
1.52804405109925e-06
4.54604753968876e-09
1.72683963432583e-11
1.72675841954269e-11
4.56323746505862e-09
1.53691502208496e-06
2.59119589525964e-06
3.4612640756913e-06
4.1413545813093e-06
4.64464932692101e-06
4.997192501881e-06
5.23093575034807e-06
5.37767769267865e-06
5.46497063561921e-06
5.51423149066293e-06
5.54064062983455e-06
5.55411392853699e-06
5.56066728951982e-06
5.56371205328541e-06
5.56506587133022e-06
5.56564296853348e-06
5.56587915898885e-06
5.56597204895344e-06
5.56600713023517e-06
5.56601979395526e-06
5.56602409279448e-06
5.56602538325e-06
5.56602561276727e-06
5.56602540745101e-06
5.56602477069654e-06
5.56602308223807e-06
5.56601840707804e-06
5.56600543097511e-06
5.56597022705039e-06
5.56587773270167e-06
5.56564325550715e-06
5.56507100364322e-06
5.5637289944768e-06
5.56071048972714e-06
5.55421125955722e-06
5.54084175409529e-06
5.51461742821648e-06
5.46566080208649e-06
5.37882764007035e-06
5.23271704651474e-06
4.99974841452932e-06
4.64802840735441e-06
4.14543810786072e-06
3.46571742696161e-06
2.59548012169222e-06
1.54037815699043e-06
4.58295086437405e-09
1.74040840920517e-11
1.73660471243747e-11
4.59002068512507e-09
1.54588647601312e-06
2.60599839632903e-06
3.48074859773339e-06
4.16444605552612e-06
4.67039992528697e-06
5.02481519815859e-06
5.25981521648096e-06
5.40736093479072e-06
5.49514350000459e-06
5.54468853609391e-06
5.57125497892013e-06
5.58481143298234e-06
5.59140684818146e-06
5.59447200205492e-06
5.59583532342385e-06
5.59641669398652e-06
5.59665474907575e-06
5.59674843645098e-06
5.59678385800131e-06
5.59679667099724e-06
5.59680103972177e-06
5.59680236662644e-06
5.59680261613137e-06
5.59680242001888e-06
5.5968017835649e-06
5.59680008487127e-06
5.59679538115448e-06
5.59678233551491e-06
5.59674695971116e-06
5.59665403208925e-06
5.59641846562009e-06
5.59584353425352e-06
5.59449515143823e-06
5.59146208669484e-06
5.58493104848558e-06
5.57149528387577e-06
5.54513964154359e-06
5.49593584743447e-06
5.40866142316341e-06
5.26180421720657e-06
5.02763849385575e-06
4.67409858228317e-06
4.16888136237911e-06
3.4855529391228e-06
2.61058814427477e-06
1.54955520828378e-06
4.61036216068495e-09
1.75045763459216e-11
1.74362090199546e-11
4.6091620616169e-09
1.55231625356016e-06
2.61661834103685e-06
3.4947402665848e-06
4.18104126591688e-06
4.68891935341034e-06
5.04469305568476e-06
5.28060775777759e-06
5.42874039639117e-06
5.51688176852076e-06
5.56663586485946e-06
5.59331850986159e-06
5.60693666416354e-06
5.61356343036154e-06
5.6166438614024e-06
5.61801434177334e-06
5.61859895094906e-06
5.6188384291745e-06
5.61893273065103e-06
5.61896841757071e-06
5.61898134916072e-06
5.618985774915e-06
5.61898713253602e-06
5.61898739977612e-06
5.6189872127607e-06
5.61898657820538e-06
5.61898487339983e-06
5.61898015046291e-06
5.6189670572783e-06
5.61893156388074e-06
5.61883833933261e-06
5.61860202304131e-06
5.6180252363104e-06
5.61667241320404e-06
5.61362914710673e-06
5.60707570988475e-06
5.59359308176098e-06
5.56714421671396e-06
5.51776440599856e-06
5.43017492009213e-06
5.28278346458419e-06
5.04775956898095e-06
4.69291295022892e-06
4.18580694521001e-06
3.49988108922819e-06
2.62150804782903e-06
1.55619259619032e-06
4.63016103939977e-09
1.75769818198912e-11
1.7483727037431e-11
4.62216253170112e-09
1.55669651468978e-06
2.62386418139659e-06
3.50429918940242e-06
4.19239213272043e-06
4.70159925407258e-06
5.05831479466669e-06
5.29486633206785e-06
5.44340948294711e-06
5.53180307567548e-06
5.5817049211124e-06
5.60847016379687e-06
5.62213244481232e-06
5.62878177853628e-06
5.63187328245755e-06
5.6332489900031e-06
5.63383598312322e-06
5.63407651886317e-06
5.63417128216452e-06
5.63420717198154e-06
5.6342201964332e-06
5.63422466833593e-06
5.63422605180533e-06
5.63422633477068e-06
5.63422615660841e-06
5.63422552520703e-06
5.63422381770386e-06
5.63421908337412e-06
5.6342059611199e-06
5.63417039561537e-06
5.63407698793024e-06
5.63384020391584e-06
5.63326224401169e-06
5.63190657521934e-06
5.62885669106302e-06
5.62228856758143e-06
5.60877493338175e-06
5.58226391742259e-06
5.53276600502961e-06
5.4449639914077e-06
5.29721054635957e-06
5.06160301660827e-06
4.70586492738626e-06
4.19746684949076e-06
3.50975982251941e-06
2.62904415237478e-06
1.56077802251173e-06
4.643831054908e-09
1.76268935235107e-11
1.75127511346523e-11
4.63012612131827e-09
1.55938975881225e-06
2.6283312186211e-06
3.51020593544499e-06
4.19942056887073e-06
4.70946466363482e-06
5.06677726629609e-06
5.30373545625718e-06
5.45254283797809e-06
5.54110019561084e-06
5.59109886561444e-06
5.61791877402364e-06
5.6316105650875e-06
5.63827515623463e-06
5.64137423191979e-06
5.64275355700082e-06
5.64334222156895e-06
5.64358350990376e-06
5.64367860801657e-06
5.64371464864283e-06
5.64372774451894e-06
5.64373225351368e-06
5.64373365877562e-06
5.64373395570851e-06
5.643733786067e-06
5.64373315876304e-06
5.64373145134553e-06
5.64372671222109e-06
5.64371357674287e-06
5.64367797838079e-06
5.64358448569378e-06
5.64334747636315e-06
5.64276892667729e-06
5.64141176905055e-06
5.63835830120394e-06
5.63178199360507e-06
5.61825066767007e-06
5.59170349507167e-06
5.54213577678882e-06
5.454206500638e-06
5.30623397074306e-06
5.07027010174613e-06
4.71398376089982e-06
4.20478620529894e-06
3.51597124525541e-06
2.6337914271187e-06
1.56367253831802e-06
4.65246969291441e-09
1.76584390437707e-11
1.752599253456e-11
4.63377578964088e-09
1.56063366367877e-06
2.63040972227797e-06
3.51297222801309e-06
4.20273108486923e-06
4.71318798004396e-06
5.07080033009979e-06
5.30796664955744e-06
5.45691211465009e-06
5.54555699609085e-06
5.59560862243779e-06
5.62245915835757e-06
5.63616789679831e-06
5.64284147310237e-06
5.64594512324711e-06
5.64732669227546e-06
5.64791642335523e-06
5.64815820766124e-06
5.64825353542663e-06
5.64828968505498e-06
5.64830283611159e-06
5.64830737595737e-06
5.64830880051586e-06
5.64830911035303e-06
5.6483089489251e-06
5.64830832606742e-06
5.6483066202708e-06
5.64830188091568e-06
5.64828874481053e-06
5.64825314717944e-06
5.64815965626994e-06
5.6479226384779e-06
5.64734402172795e-06
5.64598658752983e-06
5.64293223456035e-06
5.63635349598743e-06
5.62281619996387e-06
5.59625564890717e-06
5.54666026799429e-06
5.45867785950846e-06
5.31061009816008e-06
5.07448637101885e-06
4.71794785022178e-06
4.20837507048154e-06
3.5190313600825e-06
2.63614262522776e-06
1.56511462699892e-06
4.65680160283812e-09
1.76743400929026e-11
1.75247809940883e-11
4.63346689162215e-09
1.56054531980001e-06
2.63029209013443e-06
3.5128504716687e-06
4.20262203604736e-06
4.71310133905889e-06
5.07073991983364e-06
5.30793189342748e-06
5.45689964013325e-06
5.54556214194295e-06
5.59562661557923e-06
5.62248586816779e-06
5.63620014166747e-06
5.64287702736708e-06
5.64598255212927e-06
5.64736513477735e-06
5.64795539454862e-06
5.64819744917512e-06
5.64829291580235e-06
5.64832913952563e-06
5.64834233302746e-06
5.64834689936262e-06
5.64834834172006e-06
5.64834866384406e-06
5.64834851032105e-06
5.64834789182223e-06
5.6483461883527e-06
5.64834145211236e-06
5.64832832633648e-06
5.64829276073371e-06
5.64819935464253e-06
5.64796253748897e-06
5.64738435732782e-06
5.64602780960405e-06
5.64297514595148e-06
5.63639943235243e-06
5.6228672184974e-06
5.59631465228943e-06
5.54673094636647e-06
5.45876431438611e-06
5.31071604887003e-06
5.07461394716399e-06
4.71809610797871e-06
4.20853845727676e-06
3.51919831447645e-06
2.63629433097237e-06
1.56522369043551e-06
4.65718976522888e-09
1.7675961170019e-11
1.75091065737134e-11
4.62919756605437e-09
1.55912426562582e-06
2.62797740789859e-06
3.50983939227031e-06
4.19909202737614e-06
4.709203527612e-06
5.0665952804291e-06
5.30363106289315e-06
5.45250596451756e-06
5.54111679488015e-06
5.5911545123015e-06
5.61800093466512e-06
5.63170957436005e-06
5.63838424453139e-06
5.64148903112448e-06
5.64287144410215e-06
5.64346171860367e-06
5.64370382925828e-06
5.64379934899803e-06
5.64383561394403e-06
5.64384883785196e-06
5.643853426438e-06
5.64385488502666e-06
5.64385521872478e-06
5.64385507270628e-06
5.64385445844768e-06
5.64385275811901e-06
5.6438480287318e-06
5.64383492525529e-06
5.64379942537832e-06
5.64370619254244e-06
5.64346979675215e-06
5.64289258073121e-06
5.64153812913344e-06
5.63848981496673e-06
5.63192273007181e-06
5.61840688765535e-06
5.59188401997165e-06
5.54235179789892e-06
5.45447041627821e-06
5.30655695513078e-06
5.07065842915137e-06
4.7144343213607e-06
4.20528190999522e-06
3.516476893708e-06
2.63425007051563e-06
1.56400164734139e-06
4.65363972129936e-09
1.76633234305313e-11
1.74776350559458e-11
4.62061221752705e-09
1.5562531614698e-06
2.6232720877729e-06
3.50368450993054e-06
4.1918402178655e-06
4.70116015974636e-06
5.05800904555582e-06
5.29469193110559e-06
5.44334981565385e-06
5.53183455287171e-06
5.5818031206229e-06
5.6086137575005e-06
5.62230492897918e-06
5.62897156481725e-06
5.63207287954533e-06
5.63345389338655e-06
5.63404365233454e-06
5.63428559932746e-06
5.63438108465122e-06
5.63441735723575e-06
5.63443059908389e-06
5.63443520535113e-06
5.63443667835631e-06
5.63443702275272e-06
5.6344368837734e-06
5.63443627374494e-06
5.6344345777605e-06
5.63442985991444e-06
5.63441679290688e-06
5.63438139759822e-06
5.63428843850661e-06
5.63405271266702e-06
5.63347705113239e-06
5.63212604228597e-06
5.62908502563236e-06
5.62253275444153e-06
5.60904569842035e-06
5.58257633090531e-06
5.53313910729203e-06
5.44541873894449e-06
5.29776559332067e-06
5.06226841554181e-06
4.70663455410596e-06
4.19831079780544e-06
3.51061776175111e-06
2.62981965081265e-06
1.56133261817896e-06
4.64579944829812e-09
1.76351135495071e-11
1.74276726523317e-11
4.60699320982744e-09
1.55169565775055e-06
2.6157865910577e-06
3.49387375975598e-06