/*--------------------------------*- C++ -*----------------------------------*\
  =========                 |
  \\      /  F ield         | OpenFOAM: The Open Source CFD Toolbox
   \\    /   O peration     | Website:  https://openfoam.org
    \\  /    A nd           | Version:  10
     \\/     M anipulation  |
\*---------------------------------------------------------------------------*/
FoamFile
{
    format      ascii;
    class       volScalarField;
    location    "7.2";
    object      omega;
}
// * * * * * * * * * * * * * * * * * * * * * * * * * * * * * * * * * * * * * //

dimensions      [0 0 -1 0 0 0 0];

internalField   nonuniform List<scalar> 
2500
(
127938.231199466
127948.219612372
127945.138985059
127942.807727852
127941.336486304
127940.466572019
127939.96958187
127939.693479967
127939.545162741
127939.468993359
127939.430820316
127939.412626761
127939.404294666
127939.400346668
127939.398447202
127939.397355515
127939.396872648
127939.396466165
127939.396074129
127939.395818162
127939.395606409
127939.395428947
127939.395285351
127939.395200241
127939.395110536
127939.395039065
127939.395017968
127939.395017177
127939.395044546
127939.395103181
127939.395198888
127939.395378078
127939.395589686
127939.39589989
127939.396402932
127939.397337187
127939.39924752
127939.403241203
127939.41222553
127939.43106296
127939.46991127
127939.547318061
127939.695937612
127939.970949844
127940.465633971
127941.330226074
127942.799713151
127945.143516054
127948.244416631
127938.19781926
31886.5851972987
14170.6291577846
14169.1372071228
14168.0372053822
14167.3309520716
14166.9026478088
14166.6508383645
14166.5069791032
14166.4275462231
14166.3853903961
14166.3639146392
14166.353440296
14166.3485461101
14166.3463397547
14166.3453761546
14166.3449604393
14166.3447880145
14166.3447079645
14166.3446627621
14166.3446364659
14166.3446176056
14166.3446022424
14166.3445898445
14166.3445813808
14166.3445738542
14166.3445677456
14166.3445647548
14166.3445634085
14166.3445638118
14166.3445670384
14166.3445750422
14166.3445935741
14166.3446320745
14166.3447159206
14166.3449062066
14166.3453526759
14166.3463908474
14166.3487386049
14166.3538871051
14166.3647193814
14166.3866388053
14166.4292442469
14166.5088475607
14166.6522287173
14166.9026180806
14167.3289271852
14168.0353254824
14169.1426133219
14170.6470923735
31886.5427537685
31794.5527216764
3532.19928163561
50.8559402087364
50.8504412744528
50.8469476609982
50.8448389947218
50.8436020961899
50.8428958107177
50.8425054098004
50.8422976761974
50.8421915668587
50.8421396357087
50.8421152868336
50.8421043194706
50.8420995613502
50.8420975594817
50.8420967471701
50.8420964092385
50.8420962534577
50.84209617485
50.8420961248627
50.8420960854013
50.842096053278
50.8420960305501
50.8420960117936
50.8420959963364
50.8420959871436
50.842095981126
50.8420959777682
50.8420959819093
50.8420960024584
50.842096062864
50.8420962204566
50.8420965987565
50.8420975012954
50.8420996743382
50.8421047857921
50.8421163998829
50.8421418323751
50.8421953115277
50.8423033426093
50.8425129494933
50.8429040666948
50.8436083391679
50.844839440523
50.8469415303009
50.8504426148843
50.8559909225841
3532.20916984172
31794.5726942687
31711.2516089066
3522.82299189324
50.7204385425443
50.7148261430673
50.7113583106084
50.7093162115083
50.7081448003853
50.7074886999632
50.7071318515478
50.7069444878162
50.7068498612218
50.7068039907269
50.7067826622513
50.7067731367329
50.706769044007
50.7067673475008
50.7067666710687
50.7067664026347
50.7067662899876
50.7067662383089
50.7067662077632
50.7067661833502
50.706766162616
50.7067661476503
50.70676613602
50.7067661262502
50.7067661195369
50.7067661138934
50.7067661089232
50.7067661071743
50.7067661151231
50.706766153463
50.7067662754905
50.7067665818195
50.7067673255595
50.7067691486462
50.7067734974921
50.7067834956721
50.7068056196737
50.7068526618802
50.7069488051633
50.7071377505494
50.7074954701816
50.7081505734655
50.7093186031421
50.7113589451058
50.7148435599597
50.7205244062266
3522.83824761208
31711.387303303
31643.4925138622
3515.3003337654
50.6129826608826
50.608158574016
50.6052650563245
50.6036057765595
50.602676226449
50.6021658496096
50.6018926545068
50.6017509929094
50.6016801445186
50.6016460617056
50.6016303103506
50.601623314307
50.6016203265179
50.6016190996578
50.6016186174403
50.6016184328212
50.6016183611416
50.6016183317306
50.6016183160406
50.6016183031122
50.6016182912021
50.6016182824745
50.6016182761554
50.6016182707025
50.6016182663856
50.6016182619148
50.6016182569584
50.6016182535556
50.6016182532636
50.6016182710294
50.6016183526078
50.6016185661289
50.6016190886906
50.60162038752
50.6016235187391
50.6016307813999
50.6016469867323
50.6016817556821
50.601753527807
50.6018962162554
50.6021701131844
50.6026802210322
50.603608578594
50.605270051947
50.6081857318119
50.6130862914006
3515.31858859686
31643.726860321
31593.2936245855
3509.81904475256
50.5356283755404
50.5319781002285
50.5298524482839
50.5286654162517
50.5280158760928
50.5276660954959
50.5274816588416
50.5273870838043
50.5273401664542
50.5273177255241
50.527307396775
50.5273028242974
50.5273008787132
50.5273000850658
50.5272997770621
50.5272996629603
50.5272996219529
50.5272996074372
50.5272996011754
50.5272995957869
50.5272995898467
50.5272995854002
50.5272995825357
50.5272995799207
50.5272995774365
50.5272995743011
50.5272995702313
50.5272995664875
50.5272995634305
50.5272995685265
50.5272996161152
50.5272997497908
50.5273000783243
50.5273009050499
50.5273029145081
50.5273076056934
50.5273181392161
50.5273408967426
50.5273882565246
50.5274833496878
50.5276681792873
50.5280179371983
50.5286673863317
50.5298581721771
50.5320058495261
50.5357282677121
3509.83709897698
31593.5718308463
31559.0831617197
3506.15246097144
50.4845218773623
50.4820308974112
50.4806213213118
50.4798542577424
50.479444025507
50.4792272079511
50.4791144821834
50.4790572518057
50.4790290493063
50.4790156162566
50.4790094488909
50.4790067231606
50.4790055657697
50.4790050959347
50.4790049157076
50.4790048511815
50.4790048298384
50.479004823607
50.4790048222812
50.4790048211705
50.4790048188033
50.4790048169225
50.4790048160245
50.479004815024
50.4790048137364
50.4790048117454
50.4790048088183
50.4790048055951
50.4790048023348
50.4790048019615
50.4790048267373
50.4790049027429
50.4790050919854
50.4790055738733
50.4790067525778
50.4790095169198
50.4790157518504
50.4790292916926
50.4790576494712
50.4791150666718
50.4792279205149
50.4794446887842
50.4798550746138
50.4806255652981
50.4820531332277
50.4846033073405
3506.16781931349
31559.3492612379
31537.4634886081
3503.88128836175
50.4532601941955
50.4517028423317
50.4508454199787
50.4503903032137
50.450152237102
50.450028662263
50.4499652632499
50.4499333630753
50.4499177291645
50.4499103044239
50.4499068997757
50.4499053957188
50.449904757682
50.449904499642
50.4499044017427
50.4499043678541
50.4499043580564
50.4499043564532
50.4499043565777
50.4499043567858
50.4499043563271
50.4499043557607
50.4499043558475
50.4499043556489
50.4499043550618
50.4499043539004
50.4499043519953
50.4499043496199
50.4499043468678
50.4499043450043
50.4499043566684
50.4499043963881
50.4499044978104
50.4499047589169
50.4499054005887
50.4499069098596
50.4499103239062
50.4499177640947
50.4499334223228
50.4499653468509
50.4500287224089
50.4501521653409
50.4503902646048
50.4508476972761
50.4517177387502
50.4533182342401
3503.89283015808
31537.6818463809
31524.7078946047
3502.56916899644
50.4354256080135
50.4345233355848
50.4340393601523
50.4337885237219
50.4336600925775
50.4335945798918
50.4335613923444
50.433544829482
50.4335367491006
50.4335329189852
50.4335311630746
50.4335303870022
50.4335300578403
50.4335299251233
50.4335298753429
50.4335298588952
50.4335298551075
50.4335298551684
50.4335298556903
50.4335298562186
50.4335298563363
50.4335298563828
50.433529856634
50.4335298566427
50.4335298563955
50.4335298557767
50.4335298546319
50.4335298530746
50.4335298511357
50.4335298494307
50.4335298542859
50.4335298735399
50.4335299246592
50.4335300575349
50.4335303851626
50.4335311569289
50.4335329053124
50.4335367234694
50.4335447864954
50.4335613185313
50.4335944288411
50.4336597702704
50.4337880811997
50.434040148836
50.4345319175012
50.4354625697774
3502.57697848355
31524.8668424902
31517.6406996144
3501.85777812596
50.4258772214402
50.425388490858
50.4251327343562
50.4250031675363
50.424938185036
50.4249055948594
50.4248892854215
50.4248812072891
50.4248772812679
50.4248754223849
50.4248745697037
50.4248741923957
50.4248740323056
50.4248739679339
50.4248739440803
50.4248739367145
50.4248739354899
50.4248739358592
50.4248739363874
50.4248739368561
50.4248739371097
50.4248739373062
50.4248739375284
50.4248739376029
50.4248739375127
50.424873937178
50.4248739365338
50.4248739356034
50.424873934405
50.4248739332805
50.4248739350308
50.4248739437408
50.4248739681398
50.4248740321304
50.42487419027
50.4248745628955
50.424875407236
50.4248772525121
50.4248811575399
50.424889199754
50.4249054330828
50.4249378642256
50.4250026571378
50.4251327214615
50.4253927810235
50.425898570241
3501.86260382812
31517.7455049975
31513.9449514565
3501.49388133952
50.4210539222256
50.4208046409828
50.4206772028484
50.4206140317611
50.4205829756548
50.4205676560096
50.4205600798284
50.4205563539574
50.4205545489977
50.4205536947787
50.4205533024757
50.4205531285886
50.4205530547547
50.420553025146
50.4205530143125
50.4205530112496
50.4205530109722
50.420553011281
50.4205530116675
50.4205530119936
50.4205530122074
50.4205530123814
50.4205530125324
50.420553012603
50.4205530125707
50.4205530123933
50.4205530120516
50.4205530115367
50.420553010863
50.4205530102283
50.4205530107493
50.4205530144599
50.4205530255455
50.4205530548821
50.4205531274944
50.4205532984696
50.420553685523
50.4205545310194
50.4205563218931
50.4205600223031
50.4205675430677
50.4205827422188
50.4206136166144
50.4206769026822
50.4208064833559
50.4210652272464
3501.49663476211
31514.0084621508
31512.1125972424
3501.3174375551
50.4187443992987
50.4186239577438
50.4185637293691
50.4185344871051
50.4185203858687
50.4185135417101
50.4185101961246
50.4185085619703
50.4185077725179
50.4185073988759
50.4185072269888
50.4185071506413
50.4185071181916
50.4185071052148
50.4185071005508
50.4185070993426
50.4185070993259
50.4185070995415
50.4185070997813
50.4185070999783
50.4185071001177
50.4185071002321
50.4185071003207
50.4185071003673
50.4185071003544
50.4185071002638
50.4185071000916
50.4185070998244
50.4185070994724
50.418507099149
50.4185070992628
50.4185071007605
50.4185071055703
50.4185071184371
50.4185071503177
50.4185072252698
50.4185073946121
50.4185077639446
50.4185085460544
50.4185101657084
50.4185134771728
50.4185202421909
50.4185342057278
50.4185634131615
50.4186246059439
50.4187499305164
3501.31890101333
31512.1483502035
31511.2479079879
3501.23601659446
50.4176919857663
50.4176365860528
50.4176094534386
50.4175965376851
50.417590424469
50.4175875041569
50.4175860929176
50.417585408124
50.4175850781083
50.4175849218397
50.4175848498011
50.4175848177272
50.4175848040794
50.4175847986369
50.4175847967204
50.4175847962678
50.4175847963041
50.4175847964321
50.4175847965646
50.4175847966719
50.4175847967507
50.4175847968149
50.4175847968615
50.4175847968868
50.4175847968807
50.4175847968361
50.4175847967528
50.4175847966215
50.4175847964481
50.4175847962869
50.417584796295
50.4175847968785
50.4175847988763
50.4175848042978
50.4175848177399
50.4175848492742
50.4175849203159
50.4175850748542
50.4175854016856
50.417586079336
50.4175874718733
50.4175903455742
50.4175963690901
50.41760921748
50.4176367405144
50.417694499655
3501.23674639104
31511.2667622986
31510.8582578903
3501.20014088692
50.4172341340097
50.4172097702363
50.4171980693756
50.4171926032013
50.4171900620796
50.4171888669497
50.4171882959235
50.4171880206172
50.4171878882304
50.4171878254925
50.4171877965014
50.4171877835601
50.4171877780465
50.4171877758541
50.4171877750994
50.4171877749384
50.4171877749694
50.4171877750366
50.4171877751034
50.417187775157
50.4171877751969
50.4171877752292
50.4171877752512
50.417187775263
50.4171877752594
50.417187775238
50.4171877751989
50.4171877751372
50.4171877750559
50.4171877749787
50.4171877749676
50.4171877751863
50.4171877759856
50.4171877781878
50.4171877836505
50.4171877964322
50.4171878251229
50.4171878873169
50.4171880185521
50.4171882907206
50.4171888523716
50.4171900223507
50.4171925111862
50.4171979212856
50.4172097616415
50.4172351986417
3501.20048438762
31510.8676349591
31510.6901867552
3501.18501324855
50.4170435831785
50.4170333008433
50.4170284527247
50.4170262279214
50.417025211387
50.4170247405357
50.4170245180829
50.4170244115118
50.4170243603669
50.4170243361039
50.4170243248626
50.4170243198307
50.417024317684
50.4170243168327
50.4170243165462
50.4170243164914
50.4170243165095
50.4170243165415
50.4170243165723
50.4170243165968
50.4170243166152
50.4170243166296
50.4170243166389
50.4170243166433
50.4170243166408
50.4170243166304
50.4170243166123
50.4170243165841
50.4170243165473
50.4170243165118
50.4170243165019
50.4170243165806
50.4170243168893
50.4170243177537
50.4170243198996
50.4170243249067
50.4170243360989
50.4170243602586
50.4170244110785
50.4170245164031
50.4170247344827
50.4170251927152
50.4170261813317
50.4170283698472
50.4170332596697
50.4170440035821
3501.18516661767
31510.6946095486
31510.6207440048
3501.17890824151
50.4169677553986
50.416963577671
50.4169616415129
50.4169607678865
50.4169603752841
50.4169601961228
50.4169601124169
50.4169600725674
50.4169600534789
50.4169600444125
50.4169600402003
50.4169600383094
50.4169600375014
50.4169600371818
50.4169600370765
50.4169600370583
50.4169600370666
50.4169600370803
50.4169600370933
50.4169600371033
50.4169600371106
50.4169600371161
50.4169600371192
50.4169600371202
50.4169600371182
50.4169600371128
50.4169600371041
50.4169600370913
50.4169600370748
50.4169600370587
50.4169600370522
50.4169600370791
50.4169600371941
50.4169600375223
50.4169600383386
50.4169600402387
50.4169600444676
50.4169600535533
50.4169600725919
50.4169601119909
50.4169601937748
50.4169603669844
50.4169607457208
50.4169615989478
50.4169635436916
50.4169679097852
3501.17897347725
31510.6227316214
31510.5933517931
3501.17656288814
50.4169391072941
50.4169374685882
50.4169367212373
50.4169363893515
50.4169362425494
50.4169361765218
50.4169361460119
50.4169361315785
50.4169361246775
50.4169361213957
50.4169361198667
50.4169361191783
50.4169361188837
50.4169361187672
50.4169361187293
50.416936118723
50.4169361187261
50.4169361187311
50.4169361187357
50.416936118739
50.4169361187412
50.4169361187425
50.4169361187428
50.4169361187422
50.4169361187404
50.4169361187373
50.4169361187327
50.4169361187265
50.4169361187189
50.4169361187113
50.4169361187073
50.4169361187154
50.4169361187562
50.4169361188764
50.416936119177
50.4169361198762
50.4169361214266
50.4169361247418
50.4169361316595
50.4169361459447
50.4169361756506
50.4169362390169
50.4169363793426
50.4169367008249
50.4169374477527
50.4169391596025
3501.17658941921
31510.5942062931
31510.5831883149
3501.17572361819
50.4169291106929
50.4169284886325
50.4169282091381
50.4169280868671
50.4169280335944
50.4169280099692
50.4169279991718
50.4169279940967
50.4169279916752
50.4169279905225
50.4169279899841
50.416927989741
50.4169279896368
50.4169279895953
50.4169279895817
50.4169279895791
50.4169279895797
50.4169279895809
50.4169279895818
50.4169279895822
50.4169279895821
50.4169279895817
50.4169279895808
50.4169279895795
50.4169279895778
50.4169279895756
50.4169279895728
50.4169279895693
50.4169279895653
50.4169279895613
50.4169279895585
50.41692798956
50.4169279895733
50.416927989615
50.4169279897216
50.4169279899706
50.416927990522
50.4169279916968
50.4169279941387
50.4169279991692
50.4169280096434
50.4169280321325
50.4169280825373
50.4169281998854
50.4169284775979
50.4169291267398
3501.17573396699
31510.583540958
31510.5798277476
3501.17546603912
50.4169262223043
50.4169259932921
50.416925891809
50.4169258480347
50.4169258292355
50.4169258210129
50.4169258172966
50.416925815562
50.4169258147367
50.4169258143438
50.4169258141601
50.416925814077
50.4169258140412
50.4169258140268
50.4169258140217
50.4169258140201
50.4169258140197
50.4169258140193
50.4169258140187
50.4169258140179
50.4169258140168
50.4169258140157
50.4169258140143
50.4169258140128
50.4169258140111
50.4169258140092
50.4169258140071
50.4169258140048
50.4169258140023
50.4169258139996
50.4169258139974
50.4169258139966
50.4169258139998
50.4169258140128
50.4169258140483
50.4169258141332
50.4169258143225
50.4169258147261
50.4169258155632
50.4169258172851
50.4169258208753
50.4169258286322
50.4169258462192
50.4169258878023
50.4169259879701
50.4169262265557
3501.1754699205
31510.5799678636
31510.5790625745
3501.17542562532
50.4169259520365
50.4169258701191
50.4169258342803
50.416925819026
50.4169258125657
50.4169258097791
50.4169258085347
50.416925807959
50.4169258076865
50.4169258075572
50.4169258074969
50.4169258074696
50.4169258074577
50.4169258074527
50.4169258074506
50.4169258074494
50.4169258074485
50.4169258074474
50.4169258074463
50.416925807445
50.4169258074436
50.4169258074421
50.4169258074406
50.416925807439
50.4169258074374
50.4169258074357
50.4169258074338
50.4169258074319
50.4169258074299
50.4169258074278
50.4169258074258
50.4169258074242
50.4169258074238
50.4169258074266
50.4169258074368
50.4169258074635
50.416925807525
50.416925807658
50.4169258079353
50.4169258085069
50.4169258097028
50.4169258123047
50.4169258182736
50.4169258326017
50.4169258677134
50.4169259528637
3501.17542702754
31510.5791163124
31510.5792562909
3501.17546375974
50.4169266158431
50.4169265873303
50.4169265750039
50.4169265698243
50.4169265676613
50.4169265667425
50.4169265663385
50.4169265661541
50.416926566068
50.4169265660277
50.4169265660091
50.4169265660008
50.416926565997
50.4169265659953
50.4169265659941
50.4169265659931
50.416926565992
50.4169265659907
50.4169265659894
50.4169265659879
50.4169265659864
50.4169265659848
50.4169265659833
50.4169265659816
50.41692656598
50.4169265659783
50.4169265659766
50.4169265659749
50.416926565973
50.4169265659712
50.4169265659693
50.4169265659674
50.4169265659658
50.416926565965
50.4169265659664
50.416926565973
50.4169265659906
50.4169265660311
50.4169265661181
50.4169265663002
50.4169265666854
50.4169265675328
50.4169265695034
50.4169265743086
50.4169265862859
50.4169266158411
3501.17546424767
31510.5792762218
31510.5797937864
3501.1755294759
50.4169276031078
50.4169275934412
50.4169275893096
50.4169275875962
50.416927586892
50.4169275865989
50.4169275864732
50.4169275864176
50.4169275863927
50.4169275863815
50.4169275863767
50.4169275863746
50.4169275863735
50.4169275863727
50.4169275863719
50.4169275863709
50.4169275863698
50.4169275863685
50.416927586367
50.4169275863656
50.416927586364
50.4169275863624
50.4169275863608
50.4169275863592
50.4169275863576
50.416927586356
50.4169275863543
50.4169275863526
50.4169275863509
50.4169275863491
50.4169275863472
50.4169275863452
50.4169275863432
50.4169275863413
50.4169275863398
50.4169275863396
50.4169275863426
50.4169275863523
50.4169275863764
50.41692758643
50.4169275865478
50.4169275868135
50.4169275874445
50.4169275890123
50.4169275929907
50.4169276029778
3501.17552963872
31510.5798009437
31510.5804511044
3501.17560461203
50.4169286992904
50.4169286960988
50.4169286947508
50.4169286942003
50.4169286939791
50.4169286938904
50.4169286938545
50.41692869384
50.4169286938344
50.4169286938325
50.4169286938319
50.4169286938318
50.4169286938315
50.416928693831
50.4169286938303
50.4169286938293
50.4169286938281
50.4169286938268
50.4169286938254
50.4169286938239
50.4169286938223
50.4169286938207
50.4169286938191
50.4169286938175
50.4169286938159
50.4169286938143
50.4169286938127
50.416928693811
50.4169286938093
50.4169286938076
50.4169286938057
50.4169286938038
50.4169286938016
50.4169286937993
50.416928693797
50.4169286937947
50.416928693793
50.416928693793
50.4169286937969
50.4169286938094
50.4169286938413
50.4169286939193
50.416928694113
50.4169286946086
50.4169286958938
50.416928699179
3501.17560466306
31510.580453587
31510.5811490924
3501.17568288252
50.4169298311963
50.4169298301736
50.4169298297479
50.4169298295781
50.4169298295128
50.4169298294889
50.4169298294809
50.416929829479
50.4169298294792
50.4169298294799
50.4169298294805
50.4169298294808
50.4169298294808
50.4169298294804
50.4169298294796
50.4169298294787
50.4169298294774
50.4169298294761
50.4169298294747
50.4169298294732
50.4169298294717
50.4169298294701
50.4169298294685
50.4169298294669
50.4169298294653
50.4169298294637
50.4169298294621
50.4169298294605
50.4169298294588
50.4169298294571
50.4169298294553
50.4169298294533
50.4169298294512
50.4169298294489
50.4169298294463
50.4169298294435
50.4169298294405
50.4169298294376
50.4169298294354
50.4169298294354
50.4169298294408
50.4169298294599
50.4169298295148
50.4169298296643
50.4169298300656
50.4169298311141
3501.17568289638
31510.5811499164
31510.5818605436
3501.17576217062
50.416930974532
50.4169309742183
50.4169309740908
50.4169309740423
50.4169309740257
50.4169309740215
50.4169309740217
50.4169309740231
50.4169309740248
50.4169309740261
50.4169309740269
50.4169309740272
50.4169309740271
50.4169309740267
50.4169309740259
50.4169309740249
50.4169309740237
50.4169309740223
50.4169309740209
50.4169309740194
50.4169309740179
50.4169309740163
50.4169309740148
50.4169309740132
50.4169309740116
50.41693097401
50.4169309740084
50.4169309740068
50.4169309740052
50.4169309740035
50.4169309740017
50.4169309739999
50.4169309739978
50.4169309739956
50.416930973993
50.4169309739902
50.4169309739869
50.4169309739834
50.4169309739797
50.4169309739763
50.416930973974
50.4169309739757
50.4169309739879
50.4169309740289
50.4169309741473
50.4169309744679
3501.17576217251
31510.5818607967
31510.5825763475
3501.17584178154
50.4169321214404
50.4169321213526
50.416932121319
50.4169321213078
50.4169321213056
50.4169321213068
50.4169321213089
50.416932121311
50.4169321213127
50.4169321213139
50.4169321213146
50.4169321213148
50.4169321213146
50.416932121314
50.4169321213132
50.4169321213121
50.4169321213109
50.4169321213096
50.4169321213081
50.4169321213066
50.4169321213051
50.4169321213035
50.416932121302
50.4169321213005
50.4169321212989
50.4169321212973
50.4169321212958
50.4169321212942
50.4169321212926
50.416932121291
50.4169321212892
50.4169321212874
50.4169321212855
50.4169321212833
50.4169321212809
50.4169321212782
50.4169321212752
50.4169321212717
50.4169321212679
50.4169321212639
50.41693212126
50.416932121257
50.416932121257
50.4169321212652
50.4169321212956
50.4169321213851
3501.1758417797
31510.5825764064
31510.5832935276
3501.17592149265
50.4169332694411
50.4169332694234
50.4169332694181
50.4169332694177
50.4169332694192
50.4169332694214
50.4169332694235
50.4169332694253
50.4169332694267
50.4169332694276
50.416933269428
50.416933269428
50.4169332694277
50.416933269427
50.4169332694261
50.416933269425
50.4169332694238
50.4169332694224
50.4169332694209
50.4169332694195
50.4169332694179
50.4169332694163
50.4169332694148
50.4169332694133
50.4169332694118
50.4169332694102
50.4169332694087
50.4169332694072
50.4169332694056
50.416933269404
50.4169332694024
50.4169332694006
50.4169332693988
50.4169332693967
50.4169332693945
50.416933269392
50.4169332693892
50.4169332693861
50.4169332693827
50.416933269379
50.4169332693751
50.4169332693714
50.4169332693684
50.4169332693675
50.4169332693717
50.4169332693898
3501.17592148967
31510.5832935249
31510.5840111337
3501.17600123423
50.4169344177689
50.416934417772
50.4169344177747
50.4169344177768
50.4169344177787
50.4169344177805
50.4169344177822
50.4169344177834
50.4169344177844
50.4169344177849
50.416934417785
50.4169344177848
50.4169344177843
50.4169344177835
50.4169344177825
50.4169344177813
50.41693441778
50.4169344177786
50.4169344177772
50.4169344177757
50.4169344177742
50.4169344177726
50.4169344177711
50.4169344177695
50.416934417768
50.4169344177665
50.416934417765
50.4169344177635
50.416934417762
50.4169344177605
50.4169344177589
50.4169344177573
50.4169344177555
50.4169344177537
50.4169344177516
50.4169344177494
50.416934417747
50.4169344177442
50.4169344177413
50.4169344177381
50.4169344177348
50.4169344177315
50.4169344177284
50.4169344177255
50.4169344177225
50.4169344177196
3501.17600123098
31510.5840111112
31510.5847288691
3501.17608098489
50.4169355661927
50.4169355662015
50.4169355662059
50.416935566208
50.4169355662093
50.4169355662105
50.4169355662115
50.4169355662122
50.4169355662126
50.4169355662128
50.4169355662126
50.4169355662121
50.4169355662114
50.4169355662105
50.4169355662094
50.4169355662081
50.4169355662068
50.4169355662054
50.4169355662039
50.4169355662024
50.4169355662008
50.4169355661993
50.4169355661978
50.4169355661963
50.4169355661948
50.4169355661933
50.4169355661918
50.4169355661904
50.4169355661889
50.4169355661874
50.416935566186
50.4169355661844
50.4169355661828
50.4169355661811
50.4169355661793
50.4169355661773
50.4169355661752
50.4169355661729
50.4169355661705
50.4169355661679
50.4169355661653
50.4169355661627
50.4169355661603
50.4169355661576
50.4169355661531
50.4169355661445
3501.17608098158
31510.5847288418
31510.5854466431
3501.17616073821
50.4169367146444
50.4169367146542
50.4169367146583
50.4169367146597
50.4169367146604
50.4169367146607
50.416936714661
50.4169367146611
50.4169367146611
50.4169367146608
50.4169367146603
50.4169367146596
50.4169367146587
50.4169367146576
50.4169367146564
50.4169367146551
50.4169367146537
50.4169367146522
50.4169367146507
50.4169367146492
50.4169367146477
50.4169367146461
50.4169367146446
50.4169367146431
50.4169367146417
50.4169367146402
50.4169367146388
50.4169367146374
50.4169367146359
50.4169367146346
50.4169367146331
50.4169367146317
50.4169367146303
50.4169367146288
50.4169367146272
50.4169367146254
50.4169367146237
50.4169367146218
50.4169367146199
50.416936714618
50.4169367146161
50.4169367146143
50.4169367146127
50.4169367146107
50.4169367146065
50.416936714597
3501.17616073495
31510.5854466141
31510.5861644284
3501.17624049231
50.416937863104
50.4169378631134
50.4169378631168
50.4169378631174
50.4169378631172
50.4169378631167
50.4169378631163
50.4169378631159
50.4169378631153
50.4169378631146
50.4169378631138
50.4169378631129
50.4169378631118
50.4169378631106
50.4169378631093
50.4169378631078
50.4169378631064
50.4169378631049
50.4169378631033
50.4169378631018
50.4169378631003
50.4169378630987
50.4169378630973
50.4169378630958
50.4169378630943
50.4169378630929
50.4169378630915
50.4169378630901
50.4169378630888
50.4169378630875
50.4169378630862
50.4169378630849
50.4169378630835
50.4169378630822
50.4169378630808
50.4169378630794
50.416937863078
50.4169378630765
50.4169378630751
50.4169378630738
50.4169378630726
50.4169378630716
50.4169378630709
50.4169378630698
50.4169378630664
50.4169378630572
3501.17624048904
31510.5861643992
31510.5868822171
3501.17632024663
50.4169390115659
50.4169390115745
50.416939011577
50.4169390115767
50.4169390115756
50.4169390115744
50.4169390115734
50.4169390115724
50.4169390115713
50.4169390115703
50.4169390115691
50.4169390115679
50.4169390115666
50.4169390115653
50.4169390115638
50.4169390115623
50.4169390115608
50.4169390115592
50.4169390115577
50.4169390115561
50.4169390115546
50.4169390115531
50.4169390115516
50.4169390115501
50.4169390115487
50.4169390115473
50.416939011546
50.4169390115447
50.4169390115434
50.4169390115421
50.4169390115409
50.4169390115397
50.4169390115385
50.4169390115374
50.4169390115362
50.4169390115351
50.416939011534
50.416939011533
50.416939011532
50.4169390115313
50.4169390115308
50.4169390115306
50.4169390115307
50.4169390115306
50.4169390115281
50.4169390115197
3501.17632024336
31510.5868821858
31510.5876000069
3501.17640000104
50.4169401600287
50.4169401600362
50.4169401600378
50.4169401600366
50.4169401600347
50.4169401600328
50.416940160031
50.4169401600295
50.416940160028
50.4169401600265
50.4169401600251
50.4169401600236
50.4169401600221
50.4169401600206
50.4169401600191
50.4169401600175
50.4169401600159
50.4169401600143
50.4169401600127
50.4169401600112
50.4169401600096
50.416940160008
50.4169401600066
50.4169401600051
50.4169401600037
50.4169401600024
50.4169401600011
50.4169401599998
50.4169401599986
50.4169401599974
50.4169401599963
50.4169401599952
50.4169401599942
50.4169401599932
50.4169401599923
50.4169401599915
50.4169401599907
50.4169401599901
50.4169401599896
50.4169401599895
50.4169401599896
50.4169401599902
50.4169401599911
50.4169401599919
50.4169401599903
50.4169401599829
3501.17639999783
31510.5875999769
31510.5883177971
3501.17647975547
50.4169413084917
50.4169413084981
50.4169413084988
50.4169413084966
50.4169413084939
50.4169413084913
50.416941308489
50.4169413084868
50.4169413084849
50.4169413084831
50.4169413084813
50.4169413084796
50.416941308478
50.4169413084763
50.4169413084746
50.4169413084729
50.4169413084713
50.4169413084696
50.416941308468
50.4169413084665
50.4169413084649
50.4169413084634
50.4169413084619
50.4169413084604
50.4169413084591
50.4169413084577
50.4169413084565
50.4169413084553
50.4169413084541
50.416941308453
50.416941308452
50.416941308451
50.4169413084502
50.4169413084494
50.4169413084487
50.4169413084481
50.4169413084477
50.4169413084474
50.4169413084475
50.4169413084479
50.4169413084486
50.41694130845
50.4169413084517
50.4169413084534
50.4169413084528
50.4169413084465
3501.17647975234
31510.5883177685
31510.5890355877
3501.17655950993
50.4169424569549
50.4169424569602
50.4169424569598
50.4169424569567
50.4169424569532
50.4169424569499
50.416942456947
50.4169424569444
50.416942456942
50.4169424569399
50.4169424569378
50.4169424569359
50.416942456934
50.4169424569322
50.4169424569304
50.4169424569286
50.4169424569269
50.4169424569252
50.4169424569236
50.416942456922
50.4169424569204
50.4169424569189
50.4169424569174
50.416942456916
50.4169424569146
50.4169424569134
50.4169424569121
50.416942456911
50.4169424569099
50.4169424569089
50.4169424569079
50.4169424569071
50.4169424569064