/*--------------------------------*- C++ -*----------------------------------*\
  =========                 |
  \\      /  F ield         | OpenFOAM: The Open Source CFD Toolbox
   \\    /   O peration     | Website:  https://openfoam.org
    \\  /    A nd           | Version:  10
     \\/     M anipulation  |
\*---------------------------------------------------------------------------*/
FoamFile
{
    format      ascii;
    class       volScalarField;
    location    "7.2";
    object      p;
}
// * * * * * * * * * * * * * * * * * * * * * * * * * * * * * * * * * * * * * //

dimensions      [1 -1 -2 0 0 0 0];

internalField   nonuniform List<scalar> 
2500
(
100097.411477755
100097.411478593
100097.411479521
100097.411480353
100097.411480939
100097.411481344
100097.411481607
100097.411481779
100097.41148189
100097.411481962
100097.411482009
100097.41148204
100097.411482061
100097.411482077
100097.411482088
100097.411482097
100097.411482105
100097.411482111
100097.411482117
100097.411482122
100097.411482127
100097.411482132
100097.411482137
100097.411482141
100097.411482145
100097.41148215
100097.411482154
100097.411482158
100097.411482162
100097.411482165
100097.411482168
100097.411482171
100097.411482173
100097.411482174
100097.411482174
100097.411482172
100097.411482167
100097.411482158
100097.411482142
100097.411482116
100097.411482074
100097.411482007
100097.4114819
100097.411481731
100097.41148147
100097.411481066
100097.411480478
100097.411479638
100097.411478697
100097.41147786
100097.409228349
100097.409228985
100097.409229735
100097.40923045
100097.409230968
100097.409231336
100097.40923158
100097.409231741
100097.409231846
100097.409231915
100097.40923196
100097.409231991
100097.409232012
100097.409232027
100097.409232039
100097.409232048
100097.409232055
100097.409232062
100097.409232068
100097.409232073
100097.409232078
100097.409232083
100097.409232087
100097.409232092
100097.409232096
100097.409232101
100097.409232105
100097.409232109
100097.409232113
100097.409232116
100097.409232119
100097.409232122
100097.409232124
100097.409232125
100097.409232125
100097.409232122
100097.409232118
100097.409232109
100097.409232093
100097.409232068
100097.409232028
100097.409231963
100097.409231862
100097.409231704
100097.409231462
100097.409231094
100097.409230574
100097.409229853
100097.409229091
100097.409228456
100097.406971796
100097.406972256
100097.406972741
100097.406973257
100097.40697364
100097.406973926
100097.406974119
100097.406974252
100097.406974339
100097.406974399
100097.406974439
100097.406974466
100097.406974486
100097.406974501
100097.406974512
100097.406974521
100097.406974528
100097.406974535
100097.406974541
100097.406974546
100097.406974551
100097.406974556
100097.406974561
100097.406974565
100097.40697457
100097.406974574
100097.406974578
100097.406974582
100097.406974586
100097.406974589
100097.406974593
100097.406974595
100097.406974597
100097.406974598
100097.406974598
100097.406974596
100097.406974591
100097.406974583
100097.406974569
100097.406974547
100097.406974512
100097.406974457
100097.406974373
100097.406974244
100097.406974052
100097.406973766
100097.406973381
100097.40697286
100097.406972365
100097.406971902
100097.404708788
100097.404709044
100097.404709266
100097.404709557
100097.40470978
100097.404709961
100097.404710088
100097.40471018
100097.404710244
100097.40471029
100097.404710323
100097.404710346
100097.404710364
100097.404710377
100097.404710388
100097.404710396
100097.404710404
100097.40471041
100097.404710416
100097.404710421
100097.404710426
100097.404710431
100097.404710436
100097.40471044
100097.404710445
100097.404710449
100097.404710453
100097.404710457
100097.404710461
100097.404710464
100097.404710468
100097.40471047
100097.404710472
100097.404710473
100097.404710473
100097.404710472
100097.404710468
100097.404710461
100097.404710449
100097.404710431
100097.404710404
100097.404710363
100097.404710302
100097.404710213
100097.404710088
100097.404709908
100097.404709683
100097.404709388
100097.404709159
100097.404708897
100097.402440308
100097.402440374
100097.402440392
100097.40244049
100097.402440574
100097.402440658
100097.402440725
100097.402440779
100097.402440821
100097.402440853
100097.402440877
100097.402440896
100097.402440911
100097.402440923
100097.402440932
100097.402440941
100097.402440948
100097.402440954
100097.40244096
100097.402440965
100097.40244097
100097.402440975
100097.40244098
100097.402440984
100097.402440989
100097.402440993
100097.402440997
100097.402441001
100097.402441005
100097.402441008
100097.402441011
100097.402441014
100097.402441016
100097.402441018
100097.402441018
100097.402441017
100097.402441014
100097.402441008
100097.402440999
100097.402440986
100097.402440967
100097.402440939
100097.402440902
100097.402440851
100097.402440786
100097.402440703
100097.402440618
100097.402440518
100097.402440497
100097.402440424
100097.400167561
100097.400167483
100097.400167367
100097.400167323
100097.400167303
100097.400167313
100097.400167331
100097.400167354
100097.400167376
100097.400167396
100097.400167413
100097.400167427
100097.40016744
100097.40016745
100097.400167459
100097.400167466
100097.400167473
100097.400167479
100097.400167484
100097.40016749
100097.400167495
100097.400167499
100097.400167504
100097.400167509
100097.400167513
100097.400167517
100097.400167521
100097.400167525
100097.400167529
100097.400167533
100097.400167536
100097.400167539
100097.400167541
100097.400167542
100097.400167543
100097.400167543
100097.400167541
100097.400167537
100097.400167531
100097.400167522
100097.40016751
100097.400167495
100097.400167477
100097.400167457
100097.400167442
100097.400167433
100097.400167454
100097.400167499
100097.400167615
100097.400167687
100097.397891787
100097.397891625
100097.397891442
100097.39789131
100097.397891225
100097.397891184
100097.397891167
100097.397891166
100097.397891173
100097.397891183
100097.397891194
100097.397891204
100097.397891214
100097.397891222
100097.39789123
100097.397891237
100097.397891243
100097.397891248
100097.397891254
100097.397891259
100097.397891264
100097.397891269
100097.397891273
100097.397891278
100097.397891282
100097.397891286
100097.397891291
100097.397891295
100097.397891298
100097.397891302
100097.397891305
100097.397891308
100097.39789131
100097.397891312
100097.397891313
100097.397891314
100097.397891313
100097.397891311
100097.397891307
100097.397891302
100097.397891297
100097.397891292
100097.397891289
100097.397891293
100097.397891313
100097.397891356
100097.397891444
100097.397891578
100097.397891765
100097.397891925
100097.395614044
100097.395613851
100097.39561365
100097.395613477
100097.395613357
100097.395613286
100097.395613247
100097.39561323
100097.395613225
100097.395613227
100097.395613232
100097.395613239
100097.395613246
100097.395613253
100097.395613259
100097.395613265
100097.395613271
100097.395613276
100097.395613281
100097.395613286
100097.395613291
100097.395613296
100097.3956133
100097.395613305
100097.395613309
100097.395613313
100097.395613318
100097.395613322
100097.395613325
100097.395613329
100097.395613332
100097.395613335
100097.395613338
100097.39561334
100097.395613342
100097.395613343
100097.395613343
100097.395613343
100097.395613342
100097.395613341
100097.395613341
100097.395613343
100097.395613353
100097.395613374
100097.395613416
100097.39561349
100097.395613613
100097.39561379
100097.395613996
100097.39561419
100097.393335116
100097.393334931
100097.393334741
100097.39333456
100097.393334428
100097.393334342
100097.39333429
100097.393334262
100097.393334249
100097.393334244
100097.393334245
100097.393334249
100097.393334253
100097.393334258
100097.393334264
100097.393334269
100097.393334274
100097.393334279
100097.393334284
100097.393334289
100097.393334294
100097.393334298
100097.393334303
100097.393334307
100097.393334311
100097.393334316
100097.39333432
100097.393334324
100097.393334328
100097.393334331
100097.393334335
100097.393334338
100097.393334341
100097.393334343
100097.393334346
100097.393334347
100097.393334349
100097.39333435
100097.393334351
100097.393334353
100097.393334358
100097.393334367
100097.393334385
100097.393334417
100097.393334472
100097.393334561
100097.393334697
100097.393334883
100097.393335078
100097.393335267
100097.391055532
100097.391055372
100097.391055208
100097.391055037
100097.391054908
100097.391054818
100097.391054759
100097.391054725
100097.391054705
100097.391054696
100097.391054693
100097.391054694
100097.391054696
100097.3910547
100097.391054704
100097.391054709
100097.391054713
100097.391054718
100097.391054722
100097.391054727
100097.391054732
100097.391054736
100097.39105474
100097.391054745
100097.391054749
100097.391054753
100097.391054757
100097.391054761
100097.391054765
100097.391054769
100097.391054773
100097.391054776
100097.391054779
100097.391054782
100097.391054785
100097.391054787
100097.39105479
100097.391054793
100097.391054796
100097.391054801
100097.391054809
100097.391054823
100097.391054847
100097.391054886
100097.391054947
100097.391055041
100097.391055174
100097.39105535
100097.39105552
100097.391055684
100097.38877561
100097.388775483
100097.388775347
100097.388775195
100097.388775076
100097.388774988
100097.388774928
100097.38877489
100097.388774867
100097.388774854
100097.388774848
100097.388774846
100097.388774847
100097.388774849
100097.388774852
100097.388774856
100097.38877486
100097.388774864
100097.388774868
100097.388774873
100097.388774877
100097.388774881
100097.388774886
100097.38877489
100097.388774894
100097.388774898
100097.388774902
100097.388774907
100097.38877491
100097.388774914
100097.388774918
100097.388774922
100097.388774925
100097.388774928
100097.388774932
100097.388774935
100097.388774938
100097.388774942
100097.388774948
100097.388774955
100097.388774967
100097.388774984
100097.388775012
100097.388775054
100097.388775118
100097.38877521
100097.388775333
100097.388775489
100097.38877563
100097.388775761
100097.386495529
100097.386495433
100097.386495324
100097.386495195
100097.386495089
100097.386495006
100097.386494947
100097.386494907
100097.386494882
100097.386494866
100097.386494858
100097.386494854
100097.386494853
100097.386494854
100097.386494856
100097.386494859
100097.386494863
100097.386494867
100097.38649487
100097.386494875
100097.386494879
100097.386494883
100097.386494887
100097.386494891
100097.386494896
100097.3864949
100097.386494904
100097.386494908
100097.386494912
100097.386494916
100097.38649492
100097.386494923
100097.386494927
100097.386494931
100097.386494935
100097.386494939
100097.386494943
100097.386494948
100097.386494955
100097.386494965
100097.386494978
100097.386494999
100097.386495029
100097.386495072
100097.386495135
100097.386495221
100097.386495331
100097.386495465
100097.386495578
100097.386495678
100097.384215383
100097.384215312
100097.384215226
100097.384215118
100097.384215025
100097.384214949
100097.384214894
100097.384214854
100097.384214827
100097.38421481
100097.3842148
100097.384214794
100097.384214792
100097.384214792
100097.384214793
100097.384214795
100097.384214798
100097.384214802
100097.384214805
100097.384214809
100097.384214813
100097.384214817
100097.384214821
100097.384214825
100097.38421483
100097.384214834
100097.384214838
100097.384214842
100097.384214846
100097.38421485
100097.384214854
100097.384214858
100097.384214862
100097.384214866
100097.38421487
100097.384214875
100097.38421488
100097.384214886
100097.384214895
100097.384214906
100097.384214921
100097.384214943
100097.384214974
100097.384215018
100097.384215078
100097.384215157
100097.384215253
100097.384215365
100097.384215454
100097.384215528
100097.381935214
100097.381935162
100097.381935095
100097.381935005
100097.381934925
100097.381934857
100097.381934805
100097.381934766
100097.38193474
100097.381934721
100097.38193471
100097.381934703
100097.3819347
100097.381934699
100097.381934699
100097.381934701
100097.381934703
100097.381934706
100097.38193471
100097.381934713
100097.381934717
100097.381934721
100097.381934725
100097.381934729
100097.381934733
100097.381934737
100097.381934741
100097.381934745
100097.38193475
100097.381934754
100097.381934758
100097.381934762
100097.381934766
100097.38193477
100097.381934775
100097.38193478
100097.381934786
100097.381934794
100097.381934803
100097.381934815
100097.381934832
100097.381934855
100097.381934886
100097.381934929
100097.381934985
100097.381935056
100097.381935139
100097.381935232
100097.381935302
100097.381935355
100097.37965504
100097.379655003
100097.37965495
100097.379654876
100097.379654808
100097.379654747
100097.379654699
100097.379654663
100097.379654636
100097.379654617
100097.379654605
100097.379654597
100097.379654593
100097.379654591
100097.379654591
100097.379654592
100097.379654594
100097.379654597
100097.3796546
100097.379654603
100097.379654607
100097.379654611
100097.379654615
100097.379654619
100097.379654623
100097.379654627
100097.379654631
100097.379654635
100097.379654639
100097.379654643
100097.379654648
100097.379654652
100097.379654656
100097.379654661
100097.379654666
100097.379654672
100097.379654678
100097.379654686
100097.379654696
100097.37965471
100097.379654727
100097.37965475
100097.379654781
100097.379654822
100097.379654874
100097.379654938
100097.379655009
100097.379655085
100097.37965514
100097.379655178
100097.377374869
100097.377374842
100097.3773748
100097.377374739
100097.377374681
100097.377374628
100097.377374584
100097.37737455
100097.377374524
100097.377374506
100097.377374493
100097.377374485
100097.37737448
100097.377374477
100097.377374477
100097.377374477
100097.377374479
100097.377374481
100097.377374484
100097.377374487
100097.377374491
100097.377374494
100097.377374498
100097.377374502
100097.377374506
100097.37737451
100097.377374514
100097.377374518
100097.377374523
100097.377374527
100097.377374531
100097.377374535
100097.37737454
100097.377374545
100097.37737455
100097.377374556
100097.377374563
100097.377374572
100097.377374583
100097.377374596
100097.377374614
100097.377374638
100097.377374668
100097.377374706
100097.377374753
100097.37737481
100097.37737487
100097.377374933
100097.377374976
100097.377375004
100097.375094702
100097.375094682
100097.375094648
100097.375094599
100097.375094549
100097.375094503
100097.375094463
100097.375094431
100097.375094407
100097.375094389
100097.375094376
100097.375094368
100097.375094362
100097.375094359
100097.375094358
100097.375094359
100097.37509436
100097.375094362
100097.375094365
100097.375094368
100097.375094371
100097.375094374
100097.375094378
100097.375094382
100097.375094386
100097.37509439
100097.375094394
100097.375094398
100097.375094402
100097.375094407
100097.375094411
100097.375094415
100097.37509442
100097.375094425
100097.375094431
100097.375094437
100097.375094445
100097.375094454
100097.375094465
100097.375094479
100097.375094497
100097.375094519
100097.375094548
100097.375094584
100097.375094627
100097.375094676
100097.375094728
100097.37509478
100097.375094814
100097.375094834
100097.372814539
100097.372814524
100097.372814497
100097.372814456
100097.372814414
100097.372814374
100097.372814339
100097.372814309
100097.372814286
100097.372814269
100097.372814256
100097.372814248
100097.372814242
100097.372814239
100097.372814238
100097.372814238
100097.372814239
100097.37281424
100097.372814243
100097.372814246
100097.372814249
100097.372814252
100097.372814256
100097.37281426
100097.372814264
100097.372814268
100097.372814272
100097.372814276
100097.37281428
100097.372814284
100097.372814289
100097.372814293
100097.372814298
100097.372814303
100097.372814309
100097.372814316
100097.372814323
100097.372814333
100097.372814344
100097.372814358
100097.372814376
100097.372814398
100097.372814425
100097.372814458
100097.372814496
100097.37281454
100097.372814584
100097.372814626
100097.372814654
100097.372814669
100097.370534379
100097.370534368
100097.370534346
100097.370534312
100097.370534277
100097.370534242
100097.370534211
100097.370534184
100097.370534163
100097.370534146
100097.370534134
100097.370534126
100097.37053412
100097.370534117
100097.370534115
100097.370534115
100097.370534116
100097.370534117
100097.37053412
100097.370534122
100097.370534125
100097.370534129
100097.370534132
100097.370534136
100097.37053414
100097.370534144
100097.370534148
100097.370534152
100097.370534156
100097.37053416
100097.370534165
100097.370534169
100097.370534174
100097.37053418
100097.370534186
100097.370534192
100097.3705342
100097.37053421
100097.370534221
100097.370534235
100097.370534252
100097.370534273
100097.370534298
100097.370534329
100097.370534363
100097.370534401
100097.370534439
100097.370534474
100097.370534496
100097.370534507
100097.368254222
100097.368254213
100097.368254196
100097.368254168
100097.368254138
100097.368254108
100097.36825408
100097.368254056
100097.368254037
100097.368254022
100097.36825401
100097.368254002
100097.368253996
100097.368253993
100097.368253991
100097.368253991
100097.368253991
100097.368253993
100097.368253995
100097.368253998
100097.368254001
100097.368254004
100097.368254007
100097.368254011
100097.368254015
100097.368254019
100097.368254023
100097.368254027
100097.368254031
100097.368254035
100097.36825404
100097.368254044
100097.368254049
100097.368254055
100097.368254061
100097.368254067
100097.368254075
100097.368254085
100097.368254096
100097.368254109
100097.368254126
100097.368254146
100097.368254169
100097.368254197
100097.368254228
100097.368254261
100097.368254293
100097.368254322
100097.36825434
100097.368254348
100097.365974067
100097.365974061
100097.365974046
100097.365974024
100097.365973998
100097.365973972
100097.365973948
100097.365973927
100097.365973909
100097.365973895
100097.365973884
100097.365973876
100097.365973871
100097.365973868
100097.365973866
100097.365973865
100097.365973866
100097.365973867
100097.365973869
100097.365973872
100097.365973875
100097.365973878
100097.365973881
100097.365973885
100097.365973889
100097.365973893
100097.365973896
100097.365973901
100097.365973905
100097.365973909
100097.365973913
100097.365973918
100097.365973923
100097.365973928
100097.365973934
100097.365973941
100097.365973949
100097.365973958
100097.365973969
100097.365973982
100097.365973998
100097.365974017
100097.365974038
100097.365974063
100097.365974091
100097.365974119
100097.365974147
100097.36597417
100097.365974185
100097.365974191
100097.363693914
100097.363693909
100097.363693897
100097.363693879
100097.363693858
100097.363693835
100097.363693814
100097.363693796
100097.36369378
100097.363693767
100097.363693757
100097.36369375
100097.363693744
100097.363693741
100097.363693739
100097.363693739
100097.36369374
100097.363693741
100097.363693743
100097.363693745
100097.363693748
100097.363693751
100097.363693755
100097.363693758
100097.363693762
100097.363693766
100097.363693769
100097.363693773
100097.363693778
100097.363693782
100097.363693786
100097.363693791
100097.363693796
100097.363693801
100097.363693807
100097.363693814
100097.363693822
100097.363693831
100097.363693841
100097.363693854
100097.363693868
100097.363693886
100097.363693906
100097.363693928
100097.363693952
100097.363693977
100097.363694
100097.36369402
100097.363694031
100097.363694036
100097.361413762
100097.361413758
100097.361413749
100097.361413734
100097.361413716
100097.361413698
100097.361413679
100097.361413663
100097.361413649
100097.361413637
100097.361413628
100097.361413621
100097.361413617
100097.361413614
100097.361413612
100097.361413612
100097.361413612
100097.361413614
100097.361413616
100097.361413618
100097.361413621
100097.361413624
100097.361413627
100097.361413631
100097.361413634
100097.361413638
100097.361413642
100097.361413646
100097.36141365
100097.361413654
100097.361413658
100097.361413663
100097.361413668
100097.361413673
100097.361413679
100097.361413686
100097.361413693
100097.361413702
100097.361413712
100097.361413724
100097.361413738
100097.361413753
100097.361413771
100097.361413791
100097.361413813
100097.361413834
100097.361413854
100097.36141387
100097.361413879
100097.361413882
100097.359133611
100097.359133609
100097.359133601
100097.359133589
100097.359133575
100097.359133559
100097.359133543
100097.359133529
100097.359133517
100097.359133507
100097.359133498
100097.359133492
100097.359133488
100097.359133485
100097.359133484
100097.359133484
100097.359133484
100097.359133486
100097.359133487
100097.35913349
100097.359133493
100097.359133496
100097.359133499
100097.359133502
100097.359133506
100097.35913351
100097.359133513
100097.359133517
100097.359133521
100097.359133525
100097.35913353
100097.359133534
100097.359133539
100097.359133544
100097.35913355
100097.359133557
100097.359133564
100097.359133572
100097.359133582
100097.359133593
100097.359133606
100097.35913362
100097.359133636
100097.359133654
100097.359133672
100097.359133691
100097.359133707
100097.35913372
100097.359133728
100097.35913373
100097.356853461
100097.35685346
100097.356853454
100097.356853445
100097.356853433
100097.35685342
100097.356853407
100097.356853394
100097.356853384
100097.356853375
100097.356853368
100097.356853362
100097.356853359
100097.356853356
100097.356853355
100097.356853355
100097.356853356
100097.356853357
100097.356853359
100097.356853361
100097.356853364
100097.356853367
100097.35685337
100097.356853373
100097.356853377
100097.356853381
100097.356853384
100097.356853388
100097.356853392
100097.356853396
100097.3568534
100097.356853405
100097.35685341
100097.356853415
100097.35685342
100097.356853427
100097.356853434
100097.356853441
100097.356853451
100097.356853461
100097.356853472
100097.356853486
100097.3568535
100097.356853516
100097.356853531
100097.356853547
100097.356853561
100097.356853571
100097.356853577
100097.356853578
100097.354573312
100097.354573311
100097.354573307
100097.3545733
100097.354573291
100097.35457328
100097.354573269
100097.354573259
100097.35457325
100097.354573242
100097.354573236
100097.354573231
100097.354573228
100097.354573226
100097.354573225
100097.354573225
100097.354573226
100097.354573228
100097.35457323
100097.354573232
100097.354573235
100097.354573238
100097.354573241
100097.354573244
100097.354573248
100097.354573251
100097.354573255
100097.354573259
100097.354573263
100097.354573267
100097.354573271
100097.354573275
100097.35457328
100097.354573285
100097.35457329
100097.354573296
100097.354573303
100097.35457331
100097.354573318
100097.354573328
100097.354573338
100097.35457335
100097.354573363
100097.354573376
100097.35457339
100097.354573403
100097.354573414
100097.354573423
100097.354573427
100097.354573428
100097.352293163
100097.352293163
100097.352293161
100097.352293155
100097.352293148
100097.35229314
100097.352293131
100097.352293123
100097.352293115
100097.352293109
100097.352293104
100097.3522931
100097.352293097
100097.352293096
100097.352293095
100097.352293095
100097.352293096
100097.352293098
100097.3522931
100097.352293102
100097.352293105
100097.352293108
100097.352293111
100097.352293114
100097.352293118
100097.352293121
100097.352293125
100097.352293129
100097.352293132
100097.352293136
100097.35229314
100097.352293145
100097.352293149
100097.352293154
100097.352293159
100097.352293165
100097.352293171
100097.352293178
100097.352293186
100097.352293194
100097.352293204
100097.352293214
100097.352293225
100097.352293237
100097.352293248
100097.352293259
100097.352293268
100097.352293274
100097.352293277
100097.352293277
100097.350013015
100097.350013016
100097.350013014
100097.350013011
100097.350013006
100097.350012999
100097.350012993
100097.350012986
100097.35001298
100097.350012975
100097.350012971
100097.350012968
100097.350012966
100097.350012964
100097.350012964
100097.350012965
100097.350012966
100097.350012968
100097.35001297
100097.350012972
100097.350012975
100097.350012978
100097.350012981
100097.350012984
100097.350012988
100097.350012991
100097.350012995
100097.350012998
100097.350013002
100097.350013006
100097.35001301
100097.350013014
100097.350013018
100097.350013023
100097.350013028
100097.350013033
100097.350013039
100097.350013045
100097.350013052
100097.35001306
100097.350013068
100097.350013078
100097.350013087
100097.350013097
100097.350013106
100097.350013115
100097.350013122
100097.350013127
100097.350013128
100097.350013127
100097.347732867
100097.347732868
100097.347732868
100097.347732867
100097.347732863
100097.347732859
100097.347732854
100097.347732849
100097.347732844
100097.34773284
100097.347732837
100097.347732835
100097.347732833
100097.347732833
100097.347732833
100097.347732834
100097.347732835
100097.347732837
100097.347732839
100097.347732841
100097.347732844
100097.347732847
100097.34773285
100097.347732854
100097.347732857
100097.34773286
100097.347732864
100097.347732867
100097.347732871
100097.347732875
100097.347732879
100097.347732883
100097.347732887
100097.347732891
100097.347732896
100097.347732901
100097.347732906
100097.347732912
100097.347732918
100097.347732925
100097.347732933
100097.34773294
100097.347732948
100097.347732957
100097.347732964
100097.347732971
100097.347732976
100097.347732979
100097.347732979
100097.347732978
100097.345452719
100097.345452721
100097.345452722
100097.345452722
100097.345452721
100097.345452718
100097.345452715
100097.345452711
100097.345452708
100097.345452705
100097.345452703
100097.345452701
100097.345452701
100097.345452701
100097.345452701
100097.345452702
100097.345452704
100097.345452706
100097.345452708
100097.34545271
100097.345452713
100097.345452716
100097.345452719
100097.345452723
100097.345452726
100097.345452729
100097.345452733
100097.345452736
100097.34545274
100097.345452743
100097.345452747
100097.345452751
100097.345452755
100097.345452759
100097.345452763
100097.345452768
100097.345452773
100097.345452778
100097.345452784
100097.34545279
100097.345452796
100097.345452803
100097.345452809
100097.345452816
100097.345452822
100097.345452827
100097.34545283
100097.345452831
100097.345452831
100097.345452828
100097.343172571
100097.343172574
100097.343172576
100097.343172578
100097.343172578
100097.343172577
100097.343172575
100097.343172573
100097.343172571
100097.34317257
100097.343172568
100097.343172568
100097.343172567
100097.343172568
100097.343172569
100097.34317257
100097.343172572
100097.343172574
100097.343172576
100097.343172579
100097.343172582
100097.343172585
100097.343172588
100097.343172591
100097.343172594
100097.343172598
100097.343172601
100097.343172605
100097.343172608
100097.343172612
100097.343172615
100097.343172619
100097.343172623
100097.343172626
100097.34317263
100097.343172635
100097.343172639
100097.343172644
100097.343172649
100097.343172654
100097.343172659
100097.343172665
100097.34317267
100097.343172675
100097.343172679
100097.343172682
100097.343172684
100097.343172684
100097.343172682
100097.343172679
100097.340892423
100097.340892427
100097.340892431
100097.340892434
100097.340892435
100097.340892436
100097.340892436
100097.340892435
100097.340892434
100097.340892434
100097.340892433
100097.340892433
100097.340892434
100097.340892435
100097.340892436
100097.340892438
100097.34089244
100097.340892442
100097.340892444
100097.340892447
100097.34089245
100097.340892453
100097.340892456
100097.340892459
100097.340892463
100097.340892466
100097.340892469
100097.340892473
100097.340892476
100097.340892479
100097.340892483
100097.340892486
100097.34089249
100097.340892493
100097.340892497
100097.340892501
100097.340892505
100097.340892509
100097.340892513
100097.340892518
100097.340892522
100097.340892526
100097.34089253
100097.340892534
100097.340892537
100097.340892538
100097.340892538
100097.340892536
100097.340892534
100097.34089253
100097.338612275
100097.33861228
100097.338612285
100097.33861229
100097.338612292
100097.338612295
100097.338612296
100097.338612296
100097.338612297
100097.338612297
100097.338612298
100097.338612299
100097.3386123
100097.338612301
100097.338612303
100097.338612305
100097.338612307
100097.33861231
100097.338612312
100097.338612315
100097.338612318
100097.338612321
100097.338612324
100097.338612327
100097.338612331
100097.338612334
100097.338612337
100097.33861234
100097.338612344
100097.338612347
100097.33861235
100097.338612354
100097.338612357
100097.33861236
100097.338612364
100097.338612367
100097.33861237
100097.338612374
100097.338612378
100097.338612381
100097.338612385
100097.338612388
100097.338612391
100097.338612393
100097.338612394
100097.338612394
100097.338612393
100097.338612389
100097.338612385
100097.33861238
100097.336332127
100097.336332133
100097.336332139
100097.336332145
100097.33633215
100097.336332153
100097.336332156
100097.336332158
100097.336332159
100097.336332161
100097.336332162
100097.336332164
100097.336332165
100097.336332167
100097.336332169
100097.336332172
100097.336332174
100097.336332177
100097.33633218
100097.336332183
100097.336332186
100097.336332189
100097.336332192
100097.336332195
100097.336332198
100097.336332201
100097.336332205
100097.336332208
100097.336332211
100097.336332214
100097.336332217
100097.33633222
100097.336332223
100097.336332227
100097.33633223
100097.336332233
100097.336332236
100097.336332239
100097.336332241
100097.336332244
100097.336332247
100097.336332249
100097.336332251
100097.336332251
100097.336332251
100097.33633225
100097.336332247
100097.336332242
100097.336332237
100097.336332231
100097.334051978
100097.334051986
100097.334051993
100097.334052001
100097.334052007
100097.334052012
100097.334052016
100097.334052019
100097.334052021
100097.334052024
100097.334052026
100097.334052028
100097.334052031
100097.334052033
100097.334052035
100097.334052038
100097.334052041
100097.334052044
100097.334052047
100097.33405205
100097.334052053
100097.334052056
100097.334052059
100097.334052062
100097.334052066
100097.334052069
100097.334052072
100097.334052075
100097.334052078
100097.334052081
100097.334052084
100097.334052087
100097.33405209
100097.334052093
100097.334052095
100097.334052098