/*--------------------------------*- C++ -*----------------------------------*\
  =========                 |
  \\      /  F ield         | OpenFOAM: The Open Source CFD Toolbox
   \\    /   O peration     | Website:  https://openfoam.org
    \\  /    A nd           | Version:  10
     \\/     M anipulation  |
\*---------------------------------------------------------------------------*/
FoamFile
{
    format      ascii;
    class       volScalarField;
    location    "7.2";
    object      p_rgh;
}
// * * * * * * * * * * * * * * * * * * * * * * * * * * * * * * * * * * * * * //

dimensions      [1 -1 -2 0 0 0 0];

internalField   nonuniform List<scalar> 
2500
(
97.5249481242499
97.5249505774409
97.5249556045164
97.5249595381028
97.5249620807444
97.5249636429799
97.5249645667645
97.5249651057966
97.5249654131912
97.5249655861116
97.5249656833184
97.5249657384702
97.5249657708482
97.5249657911627
97.5249658049433
97.5249658151588
97.5249658231332
97.5249658299435
97.5249658360408
97.5249658415851
97.5249658467801
97.5249658517278
97.5249658564862
97.5249658610701
97.5249658655375
97.5249658698885
97.5249658740504
97.5249658780231
97.524965881792
97.5249658852554
97.5249658883404
97.5249658908724
97.5249658927059
97.5249658935209
97.5249658928078
97.52496588965
97.5249658824323
97.5249658681569
97.5249658408284
97.5249657900858
97.5249656966189
97.5249655264342
97.5249652221246
97.5249646873417
97.5249637691013
97.5249622142728
97.5249596710928
97.5249557133502
97.5249506458931
97.5249482671643
97.5252707104373
97.5252810630773
97.5252940332575
97.5253037593502
97.5253100629197
97.5253139410343
97.5253162477311
97.5253175881371
97.5253183438908
97.5253187580092
97.5253189792711
97.5253190956137
97.5253191568918
97.5253191902302
97.525319209657
97.5253192221717
97.5253192311357
97.5253192383097
97.5253192445234
97.5253192501259
97.5253192553355
97.5253192602977
97.5253192650707
97.5253192696837
97.5253192741511
97.525319278473
97.5253192826349
97.5253192866221
97.5253192903765
97.5253192938399
97.5253192968812
97.5253192993841
97.5253193010285
97.5253193013923
97.5253192995733
97.5253192937962
97.5253192804084
97.5253192521486
97.5253191946395
97.5253190807562
97.5253188607312
97.5253184472531
97.5253176938131
97.5253163603484
97.5253140673012
97.5253102060378
97.5253038986848
97.5252941061626
97.525281021648
97.5252709723864
97.5256098262034
97.5256280472386
97.5256465662096
97.5256599150598
97.5256684530468
97.5256736615847
97.5256767428218
97.5256785240781
97.5256795234745
97.5256800675998
97.5256803553784
97.5256805043318
97.5256805809331
97.5256806211255
97.5256806434481
97.5256806571124
97.525680666542
97.5256806738616
97.5256806801044
97.5256806856924
97.5256806909019
97.5256806958787
97.5256807006372
97.5256807052501
97.5256807097176
97.5256807140249
97.5256807182013
97.525680722174
97.5256807259138
97.5256807293772
97.5256807324331
97.5256807348924
97.5256807364931
97.5256807366532
97.5256807343394
97.5256807272963
97.5256807108235
97.5256806754333
97.5256806022226
97.5256804550881
97.5256801677751
97.525679623679
97.5256786263635
97.5256768528052
97.5256737869495
97.5256685940403
97.5256600361754
97.5256465664279
97.5256278238667
97.5256098579557
97.5259241720341
97.5259467730066
97.5259666258644
97.5259803358931
97.5259888521687
97.5259939162788
97.5259968455357
97.5259985070006
97.5259994248918
97.5259999186237
97.5260001774441
97.5260003107105
97.5260003792355
97.5260004153824
97.5260004357551
97.5260004484735
97.526000457452
97.5260004645534
97.5260004706652
97.5260004761803
97.5260004813463
97.5260004862794
97.5260004910378
97.5260004956217
97.5260005000746
97.5260005043965
97.5260005085438
97.526000512531
97.5260005162854
97.5260005197633
97.5260005228483
97.5260005253804
97.5260005270829
97.5260005275049
97.5260005257005
97.5260005197197
97.5260005054442
97.5260004745069
97.5260004100419
97.5260002794967
97.5260000221169
97.5259995290835
97.5259986129531
97.5259969568433
97.525994037569
97.5259889780427
97.5259804198577
97.5259665421181
97.5259463627444
97.5259237619612
97.5261858138401
97.5262085246359
97.5262264966877
97.526238394028
97.5262455566553
97.5262497007643
97.5262520416727
97.5262533446657
97.5262540545227
97.5262544330908
97.5262546309386
97.5262547332823
97.5262547866732
97.5262548156606
97.5262548326718
97.5262548438332
97.5262548520841
97.5262548588216
97.5262548647297
97.526254870143
97.5262548752507
97.5262548801402
97.526254884855
97.5262548894243
97.5262548938626
97.52625489817
97.5262549023028
97.52625490629
97.5262549100589
97.5262549135368
97.5262549166946
97.526254919343
97.5262549212348
97.5262549220352
97.5262549210456
97.5262549167528
97.5262549061154
97.5262548828614
97.5262548343453
97.5262547359162
97.5262545409059
97.5262541644042
97.5262534567446
97.5262521575496
97.5262498216907
97.5262456731289
97.5262384558009
97.526226369504
97.5262080050015
97.5261850134848
97.5263838540704
97.5264034438442
97.5264177309145
97.5264268066239
97.5264320981951
97.5264350745565
97.526436715707
97.5264376127016
97.5264380955341
97.5264383517788
97.5264384862094
97.5264385567716
97.5264385947521
97.5264386164054
97.5264386299677
97.5264386394847
97.5264386469498
97.5264386532654
97.5264386589406
97.5264386642375
97.5264386692434
97.5264386740746
97.5264386787458
97.526438683286
97.5264386876952
97.5264386920026
97.5264386961353
97.5264387001225
97.526438703906
97.5264387074276
97.5264387106436
97.5264387134084
97.526438715533
97.5264387167699
97.5264387166098
97.5264387140487
97.5264387070783
97.5264386915078
97.5264386590425
97.5264385932969
97.5264384629263
97.526438210014
97.5264377302374
97.5264368366479
97.5264351982041
97.5264322141447
97.5264268684841
97.5264176129567
97.526402926509
97.5263828694588
97.5265215333493
97.5265364984079
97.5265466956189
97.5265529126191
97.5265564194269
97.5265583337605
97.5265593626682
97.5265599145932
97.5265602084692
97.526560364262
97.5265604469168
97.5265604915476
97.5265605167951
97.5265605322929
97.5265605428431
97.5265605508903
97.5265605575551
97.5265605634777
97.5265605689056
97.5265605740278
97.5265605789464
97.5265605836903
97.5265605883033
97.5265605928143
97.526560597209
97.5265606014873
97.52656060562
97.5265606096218
97.5265606134199
97.5265606169996
97.5265606202738
97.5265606231696
97.5265606255562
97.5265606272296
97.5265606278554
97.5265606268513
97.5265606229659
97.5265606137691
97.5265605943714
97.5265605551103
97.5265604772285
97.5265603256703
97.526560035607
97.526559487349
97.5265584609442
97.526556540266
97.5265529898606
97.5265466244455
97.526536074598
97.5265205864853
97.5266101619054
97.5266204867075
97.5266271155269
97.5266309871949
97.5266330939048
97.5266342047835
97.5266347839352
97.52663508759
97.5266352472536
97.5266353319894
97.5266353779152
97.5266354038758
97.5266354197665
97.526635430535
97.526635438684
97.5266354454216
97.5266354513878
97.5266354568594
97.5266354620253
97.5266354669584
97.5266354717605
97.5266354764171
97.5266354809719
97.5266354854393
97.5266354898049
97.5266354940541
97.5266354982014
97.5266355022031
97.5266355060448
97.5266355096683
97.5266355130443
97.5266355161002
97.5266355187341
97.5266355208296
97.5266355221975
97.526635522474
97.5266355210624
97.5266355166677
97.526635506787
97.5266354864143
97.5266354456253
97.5266353655607
97.5266352101899
97.5266349106241
97.5266343346157
97.5266332206957
97.5266310844308
97.5266271046421
97.5266202001949
97.5266094010585
97.526663353754
97.5266698734777
97.5266738354549
97.5266760395461
97.5266771876632
97.5266777649958
97.5266780525999
97.5266781976388
97.5266782720282
97.5266783114348
97.5266783335537
97.5266783470724
97.5266783564584
97.5266783637489
97.5266783699481
97.5266783755796
97.5266783808765
97.526678385897
97.5266783907864
97.5266783955303
97.5266784001724
97.5266784047417
97.5266784092237
97.5266784136329
97.5266784179694
97.5266784222185
97.5266784263513
97.5266784303822
97.5266784342384
97.5266784379492
97.5266784414125
97.526678444643
97.5266784475389
97.5266784500564
97.5266784520791
97.5266784534615
97.5266784539708
97.5266784530832
97.5266784497508
97.5266784418782
97.5266784250271
97.5266783904954
97.5266783206171
97.5266781799146
97.5266778961086
97.5266773189214
97.5266761539388
97.5266738795181
97.5266697238549
97.5266628324753
97.5266932913801
97.526697094625
97.5266992832185
97.5267004267662
97.5267009858362
97.5267012440891
97.5267013608245
97.5267014136334
97.526701438328
97.5267014508427
97.5267014583806
97.5267014639248
97.5267014688434
97.5267014735291
97.5267014782148
97.5267014828714
97.5267014874989
97.5267014921119
97.5267014966812
97.5267015012214
97.5267015057179
97.5267015101708
97.5267015145801
97.5267015189311
97.5267015232093
97.5267015274294
97.5267015315621
97.5267015356221
97.526701539522
97.526701543291
97.5267015468853
97.5267015502905
97.5267015534628
97.5267015563586
97.5267015590071
97.5267015613499
97.5267015633872
97.5267015650606
97.5267015661957
97.5267015663121
97.5267015640566
97.5267015564605
97.5267015363352
97.5267014879209
97.5267013753619
97.5267011193937
97.5267005526839
97.5266993681435
97.5266970557568
97.5266929926438
97.5267091697024
97.5267112316069
97.5267123487283
97.5267128788691
97.5267131085275
97.5267131929868
97.5267132181907
97.5267132216541
97.5267132193112
97.5267132166628
97.5267132155423
97.5267132159788
97.5267132177833
97.5267132205336
97.5267132239096
97.5267132276931
97.526713231724
97.5267132359149
97.5267132401641
97.526713244486
97.5267132488079
97.5267132531444
97.5267132574518
97.5267132617446
97.5267132660083
97.5267132701993
97.526713274332
97.526713278392
97.5267132823355
97.5267132861773
97.526713289888
97.5267132934678
97.5267132969166
97.5267133002199
97.5267133034213
97.5267133066227
97.5267133099114
97.5267133135203
97.5267133177404
97.5267133229354
97.5267133293382
97.5267133368907
97.5267133437883
97.5267133446905
97.5267133237357
97.5267132426525
97.5267130110151
97.5267124596285
97.5267112699803
97.526709042766
97.5267171362357
97.5267181777308
97.5267186993151
97.5267189045262
97.5267189660663
97.5267189644655
97.5267189450533
97.5267189242149
97.5267189080769
97.526718897192
97.5267188909347
97.526718888068
97.526718887646
97.5267188888392
97.5267188911239
97.5267188941361
97.5267188975995
97.5267189013539
97.526718905312
97.5267189093865
97.5267189135484
97.5267189177393
97.5267189219594
97.526718926194
97.526718930385
97.5267189345614
97.5267189386941
97.5267189427541
97.5267189467559
97.5267189506703
97.526718954512
97.5267189582664
97.5267189619772
97.5267189656588
97.5267189693986
97.5267189733277
97.5267189776787
97.5267189828155
97.5267189892184
97.5267189977312
97.5267190092272
97.5267190250015
97.5267190456507
97.5267190707818
97.5267190943705
97.5267190996965
97.5267190391751
97.5267188245634
97.5267182637908
97.5267171253654
97.5267209263839
97.5267214151099
97.5267216304346
97.5267216784996
97.5267216627835
97.5267216234934
97.5267215849308
97.5267215534113
97.526721530754
97.5267215155327
97.5267215062195
97.5267215011409
97.5267214990599
97.5267214990163
97.5267215003551
97.5267215026543
97.5267215055937
97.5267215089552
97.5267215126078
97.5267215164495
97.5267215204367
97.5267215245112
97.5267215286294
97.5267215327767
97.5267215369386
97.5267215410713
97.5267215451895
97.5267215492786
97.526721553324
97.5267215573112
97.5267215612694
97.5267215651984
97.5267215691565
97.5267215732019
97.5267215774074
97.5267215820058
97.5267215872591
97.5267215935892
97.5267216016364
97.526721612332
97.5267216268549
97.526721646951
97.5267216740758
97.5267217098008
97.5267217523797
97.5267217954097
97.5267218134541
97.5267217623041
97.5267215274798
97.5267209857993
97.5267226362776
97.5267228464945
97.5267229162273
97.5267228965386
97.5267228505545
97.526722798124
97.5267227533041
97.5267227181175
97.5267226928263
97.5267226754368
97.5267226643191
97.5267226577271
97.5267226543947
97.5267226533615
97.5267226539145
97.5267226555879
97.5267226580472
97.5267226610304
97.5267226643919
97.5267226680153
97.5267226718279
97.5267226757569
97.5267226797732
97.5267226838478
97.5267226879514
97.5267226920696
97.5267226961732
97.5267227002623
97.5267227043369
97.5267227084114
97.5267227124714
97.526722716575
97.526722720766
97.526722725117
97.5267227297736
97.5267227349541
97.5267227409349
97.5267227482254
97.5267227574805
97.5267227696459
97.5267227859586
97.5267228081793
97.5267228379234
97.5267228772573
97.5267229259043
97.5267229819292
97.5267230306636
97.5267230503086
97.5267229716555
97.5267227342702
97.5267233640188
97.5267234435014
97.5267234501662
97.5267234064959
97.526723352581
97.5267232985498
97.5267232536135
97.5267232182086
97.5267231923062
97.5267231740436
97.5267231618927
97.5267231542821
97.5267231500184
97.5267231481848
97.5267231480684
97.5267231492035
97.5267231512262
97.5267231538601
97.5267231569596
97.5267231603648
97.5267231640028
97.5267231678154
97.5267231717298
97.5267231757316
97.526723179777
97.5267231838516
97.5267231879407
97.5267231920443
97.5267231961479
97.5267232002807
97.5267232044571
97.5267232087062
97.5267232131009
97.5267232177284
97.5267232227634
97.5267232284241
97.5267232350452
97.5267232430924
97.5267232532206
97.5267232663755
97.5267232836923
97.526723306757
97.5267233370687
97.5267233765335
97.5267234251951
97.5267234826169
97.5267235392967
97.5267235841457
97.5267235738138
97.5267234810308
97.5267236509535
97.5267236736836
97.5267236565996
97.5267236085492
97.5267235563369
97.5267235055944
97.5267234632047
97.5267234292551
97.5267234038474
97.5267233854393
97.5267233728082
97.5267233645573
97.5267233596387
97.5267233571794
97.5267233565392
97.5267233572085
97.5267233588384
97.5267233611667
97.5267233640043
97.5267233672203
97.5267233706982
97.5267233743798
97.526723378207
97.5267233821214
97.5267233861086
97.5267233901541
97.5267233942286
97.5267233983323
97.526723402465
97.5267234066414
97.5267234109051
97.5267234152707
97.5267234198545
97.526723424744
97.5267234300991
97.5267234361527
97.5267234432686
97.5267234518833
97.5267234626226
97.5267234763596
97.5267234941275
97.5267235173087
97.5267235470674
97.5267235850188
97.5267236310028
97.5267236849759
97.526723739822
97.5267237894295
97.5267238052038
97.5267237761582
97.5267237496737
97.5267237501248
97.5267237266089
97.5267236819782
97.5267236349755
97.526723589297
97.5267235504871
97.5267235187493
97.5267234944331
97.5267234763887
97.5267234636704
97.5267234550702
97.5267234497151
97.5267234468047
97.5267234457424
97.5267234460334
97.5267234473431
97.5267234493949
97.5267234520143
97.5267234550556
97.526723458388
97.5267234619532
97.5267234656785
97.5267234695202
97.5267234734492
97.526723477451
97.526723481511
97.5267234856001
97.5267234897619
97.526723493982
97.5267234983039
97.5267235027859
97.5267235075153
97.5267235126084
97.5267235182109
97.5267235245992
97.5267235320644
97.526723541072
97.5267235521897
97.5267235662322
97.5267235840583
97.5267236068175
97.5267236354412
97.5267236710934
97.5267237133958
97.5267237621738
97.5267238116212
97.5267238578381
97.5267238810047
97.5267238775123
97.5267237722001
97.5267237653607
97.526723742325
97.5267237035005
97.5267236625805
97.5267236222862
97.5267235873471
97.5267235581559
97.5267235352949
97.526723517949
97.5267235054052
97.5267234967178
97.5267234911298
97.5267234879138
97.5267234865169
97.5267234865169
97.5267234875646
97.5267234893981
97.5267234918283
97.526723494695
97.5267234978965
97.5267235013453
97.5267235049832
97.5267235087667
97.5267235126375
97.5267235165957
97.526723520612
97.5267235247011
97.5267235288629
97.5267235331121
97.5267235375068
97.5267235420761
97.5267235469219
97.5267235521605
97.5267235579668
97.5267235645733
97.5267235722858
97.5267235815409
97.5267235928623
97.526723606934
97.5267236244981
97.5267236465152
97.5267236736254
97.5267237066582
97.526723744988
97.5267237882508
97.5267238314991
97.5267238717934
97.5267238948436
97.5267239000968
97.5267237658263
97.5267237576627
97.5267237373919
97.526723704621
97.5267236695654
97.526723634408
97.526723603296
97.5267235767678
97.5267235555511
97.526723539122
97.5267235270148
97.5267235184292
97.5267235127685
97.5267235093779
97.5267235077772
97.5267235075589
97.5267235084029
97.5267235100473
97.5267235123174
97.5267235150386
97.5267235181236
97.5267235214851
97.5267235250358
97.526723528732
97.5267235325591
97.5267235364736
97.5267235404608
97.5267235445353
97.5267235486972
97.5267235529609
97.5267235573847
97.5267235620122
97.5267235669453
97.5267235722858
97.526723578223
97.5267235849751
97.5267235928332
97.52672360219
97.526723613526
97.5267236274231
97.5267236445216
97.5267236655345
97.5267236909567
97.5267237212538
97.5267237556836
97.5267237936641
97.5267238309461
97.5267238650995
97.5267238854722
97.5267238926899
97.5267237496155
97.5267237422086
97.5267237251828
97.5267236978834
97.5267236680811
97.5267236376822
97.5267236101936
97.5267235863139
97.5267235668434
97.5267235515057
97.5267235399806
97.526723531686
97.5267235260835
97.5267235226493
97.5267235209321
97.5267235205829
97.5267235212668
97.5267235227657
97.5267235249048
97.5267235275242
97.5267235305073
97.5267235337669
97.5267235372303
97.5267235408683
97.5267235446372
97.526723548508
97.5267235524661
97.5267235565261
97.5267235606589
97.5267235649371
97.5267235693755
97.5267235740466
97.5267235790234
97.5267235844367
97.5267235904466
97.5267235972569
97.5267236051586
97.526723614501
97.5267236256914
97.5267236392538
97.5267236556683
97.5267236755462
97.5267236991349
97.5267237267253
97.526723757459
97.5267237906228
97.5267238225206
97.5267238511151
97.5267238682718
97.5267238750093
97.5267237307417
97.5267237246735
97.5267237106746
97.5267236881191
97.5267236629588
97.5267236367945
97.526723612682
97.5267235913925
97.5267235737265
97.526723559582
97.5267235487991
97.5267235409119
97.5267235354986
97.5267235321226
97.5267235303763
97.5267235299543
97.526723530551
97.5267235319479
97.5267235339852
97.5267235365027
97.5267235393985
97.5267235425708
97.526723545976
97.5267235495558
97.5267235532665
97.5267235570936
97.5267235610081
97.526723565039
97.5267235691717
97.5267235734209
97.5267235778738
97.5267235825449
97.5267235875363
97.5267235929641
97.5267235989886
97.5267236057989
97.5267236136569
97.5267236228683
97.5267236337968
97.526723646879
97.5267236624932
97.5267236811051
97.5267237028311
97.5267237277585
97.5267237550288
97.5267237838416
97.5267238110537
97.5267238348315
97.5267238490051
97.5267238545348
97.5267237117805
97.5267237070511
97.5267236957152
97.5267236772052
97.5267236560758
97.526723633724
97.5267236127256
97.5267235938954
97.5267235780193
97.5267235651409
97.5267235552019
97.5267235478386
97.5267235427164
97.5267235394858
97.5267235377978
97.5267235373467
97.5267235378997
97.5267235392384
97.526723541203
97.5267235436477
97.5267235464707
97.5267235495849
97.5267235529318
97.5267235564534
97.5267235601059
97.5267235638894
97.5267235677748
97.526723571762
97.5267235758511
97.5267235801002
97.5267235845095
97.5267235891661
97.5267235941428
97.5267235995561
97.5267236055515
97.5267236122891
97.5267236200161
97.5267236290092
97.5267236395739
97.5267236520594
97.5267236667714
97.5267236840446
97.5267237038934
97.5267237262888
97.5267237503576
97.5267237752996
97.5267237984226
97.5267238181113
97.526723829651
97.5267238339584
97.5267236934451
97.5267236899381
97.5267236808868
97.5267236658256
97.5267236482032
97.5267236292566
97.526723611154
97.5267235946521
97.5267235805659
97.5267235689826
97.5267235599313
97.5267235531792
97.5267235484498
97.5267235454376
97.526723543866
97.5267235434731
97.526723544026
97.5267235453357
97.5267235472566
97.5267235496576
97.5267235524225
97.5267235554929
97.5267235587671
97.526723562245
97.5267235658539
97.5267235695792
97.5267235734209
97.5267235773645
97.5267235814244
97.52672358563
97.5267235900101
97.526723594623
97.5267235995561
97.5267236049112
97.5267236108048
97.5267236174259
97.5267236249492
97.5267236336367
97.5267236437503
97.5267236555519
97.5267236693035
97.5267236851942
97.5267237031949
97.5267237231601
97.5267237442895
97.5267237657536
97.5267237853113
97.5267238015367
97.5267238108354
97.5267238140223
97.5267236758955
97.5267236734653
97.5267236663785
97.5267236542713
97.5267236397194
97.5267236238433
97.5267236083746
97.5267235940992
97.5267235817446
97.5267235714855
97.5267235633801
97.5267235572974
97.5267235530046
97.5267235502979
97.5267235489009
97.5267235485953
97.5267235492065
97.5267235505162
97.5267235524225
97.5267235547944
97.5267235575302
97.5267235605425
97.5267235637875
97.5267235672072
97.5267235707724
97.5267235744541
97.5267235782376
97.5267235821375
97.5267235861538
97.5267235903011
97.526723594623
97.5267235991778
97.5267236040381
97.5267236092914
97.5267236150685
97.5267236215004
97.5267236287764
97.5267236371001
97.5267236466752
97.5267236577347
97.5267236704531
97.5267236849613
97.5267237011576
97.5267237188382
97.5267237372464
97.5267237555963
97.5267237720109
97.5267237852677
97.5267237926601
97.5267237948865
97.5267236590298
97.5267236575601
97.5267236521904
97.5267236426589
97.5267236308282
97.5267236176587
97.5267236046348
97.5267235924402
97.5267235817737
97.5267235728243
97.5267235657084
97.5267235603242
97.5267235565552
97.5267235541833
97.5267235530191
97.526723552859
97.526723553543
97.5267235549109
97.5267235568317
97.5267235591891
97.5267235618958
97.5267235648789
97.5267235680803
97.5267235714564
97.526723574978
97.5267235786159
97.5267235823558
97.5267235861829
97.526723590141
97.5267235942301
97.5267235984938
97.5267236029613
97.5267236077198
97.526723612842
97.5267236184445
97.5267236246582
97.5267236316286
97.5267236395157
97.5267236485233
97.526723658797
97.5267236704531
97.5267236835789
97.5267236980289
97.5267237135413
97.5267237294465
97.5267237450025
97.5267237586668
97.5267237693479
97.5267237750668
97.5267237764347
97.5267236427462
97.5267236421205
97.5267236382642
97.5267236310028
97.5267236215877
97.5267236109066
97.5267236001237
97.5267235898937
97.5267235808278
97.5267235731881
97.5267235670617
97.5267235624342
97.5267235592037
97.5267235572246
97.5267235563369
97.5267235563661
97.5267235571664
97.5267235585925
97.5267235605425
97.5267235629144
97.5267235656211
97.5267235685751
97.5267235717474
97.5267235750944
97.5267235785723
97.526723582152
97.5267235858337
97.5267235896172
97.5267235935171
97.5267235975334
97.5267236016953
97.5267236060754
97.5267236107029
97.5267236156651
97.5267236210784
97.5267236270156
97.5267236336367
97.5267236410582
97.5267236494255
97.5267236588697
97.5267236694781
97.5267236812215
97.5267236939835
97.5267237074731
97.5267237210646
97.5267237340886
97.5267237453081
97.5267237537046
97.5267237579683
97.5267237585504
97.5267236268555
97.5267236270447
97.5267236245709
97.5267236193322
97.5267236120853
97.5267236036598
97.5267235949432
97.5267235865758
97.526723579067
97.5267235726787
97.5267235675565
97.5267235637002
97.5267235610663
97.5267235595093
97.5267235589272
97.5267235591746
97.5267235601204
97.5267235616484
97.5267235636566
97.5267235660431
97.5267235687497
97.5267235717038
97.5267235748615
97.5267235781648
97.5267235815991
97.5267235851352
97.5267235887586
97.5267235924839
97.5267235963111
97.5267236002401
97.5267236043001
97.5267236085638
97.5267236130458
97.5267236178333
97.5267236229993
97.5267236286454
97.5267236348736
97.5267236417858
97.5267236494983
97.5267236580985
97.52672366763
97.5267236780492
97.5267236891814
97.5267237007502
97.5267237122316
97.5267237229418
97.5267237319349
97.5267237383086
97.5267237412336
97.5267237411026
97.5267236112559
97.5267236122309
97.526723611023
97.526723607647
97.5267236023792
97.5267235960346
97.5267235892388
97.5267235826032
97.5267235765787
97.5267235714418
97.5267235673091
97.5267235642386
97.5267235621868
97.5267235610954
97.526723560848
97.5267235613428
97.5267235624633
97.5267235641077
97.5267235661886
97.5267235686333
97.5267235713545
97.5267235743086
97.5267235774372
97.526723580726
97.5267235841166
97.526723587609
97.5267235911742
97.5267235948268
97.5267235985666
97.5267236024083
97.5267236063664
97.5267236104846
97.5267236148065
97.5267236193758
97.5267236242944
97.5267236296058
97.5267236354121
97.5267236418003
97.5267236488435
97.5267236565851
97.5267236650543
97.5267236741638
97.5267236837535
97.5267236935179
97.5267237030203
97.5267237116059
97.5267237185908
97.5267237231019
97.5267237248045
97.5267237239605
97.5267235958308
97.5267235975771
97.5267235975625
97.5267235959036
97.5267235924839
97.5267235880456
97.5267235830397
97.5267235780484
97.52672357345
97.5267235694919
97.5267235663487
97.526723564064
97.5267235626379
97.5267235620267
97.5267235621286
97.5267235628853
97.5267235642095
97.5267235659849
97.5267235681677
97.5267235706706
97.5267235734209
97.5267235763749
97.5267235795036
97.5267235827632
97.5267235861247
97.526723589559
97.5267235930805
97.5267235966603
97.5267236002983
97.5267236040381
97.5267236078798
97.5267236118525
97.5267236159852
97.5267236203508
97.5267236249783
97.5267236299405
97.5267236353102
97.5267236411455
97.5267236474901
97.5267236543732
97.5267236617947
97.5267236696382
97.5267236777436
97.5267236858199
97.5267236934596
97.5267237000953
97.5267237052321
97.5267237080116
97.5267237085645
97.5267237070075
97.526723580464
97.5267235830106
97.5267235841457
97.5267235841311
97.5267235823994
97.526723579751
97.5267235764331
97.5267235729843
97.5267235697393
97.5267235669453
97.5267235647625
97.5267235632782
97.5267235624633
97.5267235623469
97.5267235628271
97.5267235638748
97.5267235654028
97.5267235673382
97.5267235696228
97.5267235721985
97.5267235749925
97.5267235779756
97.5267235810898
97.5267235843348
97.5267235876527
97.5267235910433
97.5267235945066
97.5267235980136
97.5267236015643
97.5267236052023
97.5267236088985
97.5267236127111
97.5267236166546
97.5267236207728
97.5267236251093
97.5267236297077
97.5267236346117
97.5267236398795
97.5267236455256
97.5267236515647
97.5267236579384
97.5267236645595
97.526723671268
97.526723677729
97.5267236836517
97.5267236884683
97.5267236918735
97.5267236930231
97.526723692441
97.5267236901418
97.526723565039
97.5267235684296
97.5267235706997
97.5267235722713
97.5267235721549
97.5267235711799
97.5267235694337
97.5267235674546
97.5267235655047
97.5267235638312
97.5267235625943
97.5267235618667
97.5267235616921
97.5267235620704
97.5267235629581
97.5267235643114
97.5267235660576
97.5267235681677
97.5267235705687
97.5267235732172
97.5267235760548
97.526723579067
97.5267235821957
97.5267235854117
97.526723588715
97.5267235920619
97.5267235954525
97.5267235988722
97.5267236023501
97.5267236058571
97.5267236094223
97.5267236130603
97.5267236168002
97.5267236206564
97.5267236246873
97.5267236289073
97.5267236333457
97.5267236380314
97.5267236429791
97.5267236481741
97.5267236535437
97.5267236589862
97.5267236643413
97.5267236692889
97.5267236735963
97.5267236766958
97.5267236784712
97.5267236780346
97.5267236763757
97.5267236732761
97.5267235494975
97.5267235538049
97.5267235572246
97.5267235603533
97.5267235617794
97.5267235624051
97.5267235621286
97.5267235615465
97.5267235608189
97.5267235602223
97.5267235599022
97.5267235599458
97.5267235604115
97.5267235612846
97.5267235625652
97.5267235642241
97.5267235662177
97.5267235685023
97.5267235710344
97.5267235737847
97.5267235766805
97.5267235797219
97.5267235828505
97.5267235860665
97.5267235893261
97.5267235926294
97.5267235959618
97.5267235993088
97.5267236026702
97.5267236060754
97.5267236094951
97.5267236129584
97.52672361648
97.5267236200743
97.5267236237851
97.5267236276122
97.5267236315703
97.5267236356885
97.5267236399377
97.5267236442887
97.526723648698
97.5267236529908
97.5267236570653
97.5267236605723
97.5267236633663
97.526723664836
97.5267236650543
97.5267236630607
97.5267236602667
97.5267236563232
97.5267235337524
97.5267235390493
97.5267235436622
97.5267235483479
97.5267235512583
97.5267235533975
97.5267235545325
97.5267235552601
97.5267235557112
97.5267235561478
97.5267235567153
97.5267235575157
97.5267235585925
97.5267235599749
97.5267235616629
97.526723563642
97.526723565883
97.5267235683568
97.5267235710344
97.5267235738575
97.5267235768406
97.526723579911
97.5267235830543
97.5267235862557
97.5267235895008
97.5267235927458
97.52672359602
97.5267235992942
97.5267236025684
97.526723605828
97.5267236091022
97.5267236123764
97.5267236156797
97.526723619012
97.5267236223881
97.5267236258223
97.5267236293002
97.5267236328509
97.5267236364161
97.5267236399523
97.5267236434011
97.526723646617
97.5267236494547
97.5267236516083
97.5267236529617
97.5267236528889
97.5267236516083
97.5267236480577
97.5267236441141
97.5267236391956
97.5267235177162
97.5267235241627
97.5267235300125
97.5267235362844
97.5267235406354
97.5267235442298
97.5267235467036
97.5267235486681
97.5267235502397
97.5267235516658
97.5267235530919
97.5267235546198
97.5267235563078
97.526723558185
97.5267235602805
97.5267235625797
97.5267235650826
97.5267235677456
97.5267235705687
97.5267235735082
97.5267235765496
97.5267235796637
97.5267235828214
97.5267235860229
97.5267235892388
97.5267235924548
97.5267235956562
97.5267235988576
97.5267236020154
97.5267236051586
97.5267236082873
97.5267236113723
97.5267236144573
97.5267236175132
97.5267236205545
97.5267236235813
97.5267236265936
97.5267236295622
97.526723632458
97.5267236352083
97.5267236377404
97.5267236399086
97.5267236415821
97.5267236424406
97.5267236424261
97.526723640869
97.5267236381478
97.526723633011
97.5267236278742
97.5267236218497
97.5267235013453
97.5267235091305
97.5267235162755
97.5267235241627
97.5267235299398
97.5267235349311
97.5267235386564
97.5267235417996
97.5267235444335
97.5267235468054
97.526723549061
97.5267235512874
97.5267235535721
97.526723555944
97.526723558447
97.5267235610809
97.5267235638312
97.5267235666979
97.5267235696811
97.5267235727224
97.5267235758365
97.5267235789943
97.5267235821811
97.5267235853826
97.5267235885694
97.5267235917418
97.526723594885
97.5267235979991
97.526723601055
97.5267236040818
97.5267236070358
97.5267236099462
97.5267236127984
97.5267236155778
97.526723618299