/*--------------------------------*- C++ -*----------------------------------*\
  =========                 |
  \\      /  F ield         | OpenFOAM: The Open Source CFD Toolbox
   \\    /   O peration     | Website:  https://openfoam.org
    \\  /    A nd           | Version:  10
     \\/     M anipulation  |
\*---------------------------------------------------------------------------*/
FoamFile
{
    format      ascii;
    class       surfaceScalarField;
    location    "7.2";
    object      phi;
}
// * * * * * * * * * * * * * * * * * * * * * * * * * * * * * * * * * * * * * //

dimensions      [1 0 -1 0 0 0 0];

internalField   nonuniform List<scalar> 
4900
(
-5.58640818627251e-12
5.61323723800061e-12
-8.0022390390986e-12
2.4570072006524e-12
-7.46856612978043e-12
-4.89739599571115e-13
-5.71911742234997e-12
-1.70630154794573e-12
-3.99478815149136e-12
-1.68190959890505e-12
-2.6818596904655e-12
-1.27082673422943e-12
-1.77965235837225e-12
-8.60277616490171e-13
-1.1832606977341e-12
-5.54656127488656e-13
-7.93716461920853e-13
-3.48075806322747e-13
-5.38404029101449e-13
-2.14182047834241e-13
-3.68748739488343e-13
-1.28911868693837e-13
-2.53596765958765e-13
-7.48230459320776e-14
-1.73285824949154e-13
-4.04027748119567e-14
-1.15577124852784e-13
-1.82153689682297e-14
-7.28625102241931e-14
-3.61978554328913e-15
-4.03924522570177e-14
6.24642760331415e-15
-1.51453095747347e-14
1.3115317442144e-14
4.85829621419029e-15
1.80282860936394e-14
2.09652039479e-14
2.16192947875259e-14
3.4119066793544e-14
2.42901691675844e-14
4.50202002625903e-14
2.62840963421388e-14
5.42099965553007e-14
2.775895254884e-14
6.21164973002199e-14
2.88278509632704e-14
6.9119006496694e-14
2.95387165484921e-14
7.55356579954196e-14
2.99521192189796e-14
8.16831751149387e-14
3.00685762775648e-14
8.78724342072296e-14
2.98934942203651e-14
9.44256228405179e-14
2.94142924237365e-14
1.01707548909868e-13
2.85881249728102e-14
1.10148386698332e-13
2.73490730934918e-14
1.20277033169488e-13
2.55984738115403e-14
1.32780202135465e-13
2.31791293060335e-14
1.48588767631204e-13
1.98477514295697e-14
1.6903612754475e-13
1.52031099880544e-14
1.96106937233193e-13
8.59485244476142e-15
2.32842224974488e-13
-1.0325798599437e-15
2.84008776390593e-13
-1.5405751927928e-14
3.57232401666242e-13
-3.73856577489654e-14
4.64732081942828e-13
-7.15716802297941e-14
6.26190507965122e-13
-1.2543526988971e-13
8.72740948791127e-13
-2.10439247530586e-13
1.25300737040854e-12
-3.44085697885376e-13
1.84008849018243e-12
-5.50853473847786e-13
2.73488702636722e-12
-8.58523887027742e-13
4.04740472063102e-12
-1.2761090326996e-12
5.78733158819167e-12
-1.70311519255216e-12
7.57070075741124e-12
-1.74566401025931e-12
8.12082298008328e-12
-5.10922706438592e-13
5.64693917786438e-12
2.51335821061881e-12
5.67438403592641e-12
-8.60015160274097e-12
1.42507353785798e-11
-1.38663835672768e-11
7.7765663483425e-12
-1.35259165010101e-11
-7.74293254231174e-13
-1.07396101521195e-11
-4.43775440366364e-12
-7.73557293341187e-12
-4.63208755621463e-12
-5.3567832164826e-12
-3.59629777062575e-12
-3.66980179083289e-12
-2.49429565360655e-12
-2.52606418783852e-12
-1.64578131286603e-12
-1.75861095687724e-12
-1.06332381527204e-12
-1.24043027059595e-12
-6.80624450078577e-13
-8.84255908371467e-13
-4.33854902277375e-13
-6.33339336459571e-13
-2.75035149408911e-13
-4.51457274379627e-13
-1.72108105616708e-13
-3.15719636673996e-13
-1.0429209468385e-13
-2.11633132934632e-13
-5.85385528328438e-14
-1.29907164785319e-13
-2.67797791156617e-14
-6.4464575944741e-14
-4.06483274305984e-15
-1.11895805544226e-14
1.26075900023862e-14
3.28042150809997e-14
2.51018373874863e-14
6.96189981914412e-14
3.46031041444173e-14
1.00859732366858e-13
4.1851933140636e-14
1.27796051512521e-13
4.73390324397597e-14
1.51486994434667e-13
5.13896285942541e-14
1.72839509600321e-13
5.42012631444066e-14
1.9268023686184e-13
5.59145984036042e-14
2.11796718534038e-13
5.65676548779474e-14
2.30971826892082e-13
5.61708203032231e-14
2.51024071252142e-13
5.46735908991253e-14
2.72854301895543e-13
5.19511308622066e-14
2.9749916082092e-13
4.78002932975001e-14
3.26212304629308e-13
4.19069276584313e-14
3.60569081448824e-13
3.37916070607395e-14
4.02641328600785e-13
2.27159963592754e-14
4.55296533615487e-13
7.48510160357444e-15
5.22650073584807e-13
-1.37978848382255e-14
6.1081263614214e-13
-4.41836228893077e-14
7.29093587833469e-13
-8.85980943455597e-14
8.92019286584476e-13
-1.55122658955435e-13
1.12249970852609e-12
-2.56746030432986e-13
1.45679660616279e-12
-4.14303490724237e-13
1.95172034764746e-12
-6.59817930980062e-13
2.69480104568268e-12
-1.04152237936474e-12
3.81421778333335e-12
-1.62454472308735e-12
5.48080016084169e-12
-2.4792730144567e-12
7.8530229333464e-12
-3.60222997364073e-12
1.08809655549822e-11
-4.68426248613102e-12
1.37268603448595e-11
-4.54338394293819e-12
1.40995470810203e-11
-8.3367973079132e-13
8.73617002566308e-12
7.92520200884711e-12
1.44420725407846e-11
-6.99101568793411e-12
2.12815623070945e-11
-1.2858795594862e-11
1.36990437856851e-11
-1.3213707912815e-11
-3.63020610349275e-13
-1.09672183679277e-11
-6.62925339837288e-12
-8.23772467452009e-12
-7.30786833850131e-12
-5.95483216343817e-12
-5.82629680211606e-12
-4.26255595599182e-12
-4.13425636608206e-12
-3.06824312732547e-12
-2.78828453720492e-12
-2.23343034851095e-12
-1.84682911291589e-12
-1.64542653718363e-12
-1.21783763574763e-12
-1.22349646462696e-12
-8.05521653400475e-13
-9.13489723880587e-13
-5.35307600968058e-13
-6.79827563167581e-13
-3.56556014634882e-13
-4.99293043429227e-13
-2.36116187518017e-13
-3.56647697993073e-13
-1.52954265072644e-13
-2.41739981034151e-13
-9.39125104265629e-14
-1.47648281442703e-13
-5.08079199154915e-14
-6.95032155053479e-14
-1.85869122411604e-14
-3.7684030586593e-15
5.94960636525474e-15
5.22297016683372e-14
2.48471211819889e-14
1.00583247734319e-13
3.94290314509908e-14
1.42989183070083e-13
5.05790917624224e-14
1.80893492396187e-13
5.88737922527689e-14
2.15548000271901e-13
6.47035243245403e-14
2.48118799361304e-13
6.82943754074329e-14
2.79709852608408e-13
6.97447998611508e-14
3.11421465656561e-13
6.90685408144951e-14
3.44406832203297e-13
6.61609587131215e-14
3.79914393227747e-13
6.08014627007314e-14
4.19355496274722e-13
5.26237959180818e-14
4.64415854863841e-13
4.10391008369027e-14
5.1715715060118e-13
2.51928047220536e-14
5.80213459249339e-13
3.77592638413921e-15
6.57098206483688e-13
-2.528479043114e-14
7.52680899631433e-13
-6.52409404235753e-14
8.73894211211149e-13
-1.21205359915887e-13
1.030912506698e-12
-2.01346837569689e-13
1.23898806694848e-12
-3.1882614778971e-13
1.52138636815561e-12
-4.94651719256335e-13
1.91375917562041e-12
-7.62051297904012e-13
2.47042189143868e-12
-1.17172147553048e-12
3.27255680818371e-12
-1.79876785241314e-12
4.43427966672552e-12
-2.74124523266088e-12
6.09819188840698e-12
-4.09797352383911e-12
8.36728573135723e-12
-5.82571420460174e-12
1.11153729347831e-11
-7.38583956554343e-12
1.34220242207437e-11
-6.80184491996187e-12
1.31134590984815e-11
-4.75150576703796e-13
7.16196581970636e-12
1.39245628261647e-11
2.16344819258981e-11
-3.97767604116585e-12
2.52999091938388e-11
-8.68566106987282e-12
1.84616844567747e-11
-9.71413598011989e-12
7.21102749637601e-13
-8.66517098212962e-12
-7.62425051135492e-12
-6.96193210300553e-12
-8.95869732958753e-12
-5.36757019205857e-12
-7.36932538928871e-12
-4.08336586727312e-12
-5.36790326073161e-12
-3.1098647637436e-12
-3.71186328921628e-12
-2.38313721974302e-12
-2.52420810615225e-12
-1.83911927667062e-12
-1.71305362264238e-12
-1.42668991634253e-12
-1.16967917401087e-12
-1.10878042370743e-12
-8.05461539549963e-13
-8.59320410172722e-13
-5.58760575006438e-13
-6.60145979932418e-13
-3.88516649349067e-13
-4.98546558704916e-13
-2.68237956353783e-13
-3.65532180992821e-13
-1.81045071052018e-13
-2.54610517684032e-13
-1.16254994059562e-13
-1.6100349372335e-13
-6.70999796735737e-14
-8.10864066839775e-14
-2.9226548430625e-14
-1.2025162112585e-14
2.01064595367385e-16
4.84510398318874e-14
2.30690438412426e-14
1.02236225152752e-13
4.06370651361887e-14
1.50960143613839e-13
5.37465262944854e-14
1.96060814185094e-13
6.29773345795689e-14
2.38881622749517e-13
6.86503368297699e-14
2.80705418842842e-13
7.09232099524781e-14
3.22809667217619e-13
6.98144070449702e-14
3.66524636991927e-13
6.51654519303863e-14
4.13284456704503e-13
5.6651484565928e-14
4.64691245381339e-13
4.37374883498684e-14
5.22614387446187e-13
2.55679296101089e-14
5.89305612009844e-13
9.05959350631729e-16
6.67559884747928e-13
-3.20989752608394e-14
7.60976211001444e-13
-7.6322732101679e-14
8.74330642523261e-13
-1.36192993018161e-13
1.01408796538227e-12
-2.185099089055e-13
1.18924734545875e-12
-3.3397740297391e-13
1.41250815168874e-12
-4.99457591741217e-13
1.70207091400137e-12
-7.41464228918933e-13
2.08407394169552e-12
-1.10116788520685e-12
2.59577515044398e-12
-1.64038983886014e-12
3.2887548921271e-12
-2.44856159136224e-12
4.22829200308384e-12
-3.63742573262043e-12
5.48159291809679e-12
-5.30767518587983e-12
7.05645016714519e-12
-7.35649932832374e-12
8.76722495296799e-12
-9.05152184898797e-12
9.86308690278452e-12
-7.85074953847909e-12
8.88834008367685e-12
5.48405240658264e-13
4.13391610721959e-12
1.8725474067949e-11
2.57976823995999e-11
-1.18470948446699e-12
2.65246982851908e-11
-4.08876686753656e-12
2.14186632194287e-11
-5.54566481550639e-12
2.23109001502656e-12
-5.68243224522232e-12
-7.43629734696396e-12
-5.11128823361293e-12
-9.48040116387205e-12
-4.32876739104921e-12
-8.10366511868294e-12
-3.56121841356077e-12
-6.08818426176178e-12
-2.89375721234482e-12
-4.33277366415437e-12
-2.33990970209652e-12
-3.0321154181962e-12
-1.88893676379047e-12
-2.11863822464658e-12
-1.52350702375865e-12
-1.49023633100317e-12
-1.22675902992312e-12
-1.05782918236344e-12
-9.84363939236047e-13
-7.57246619719249e-13
-7.84783094688218e-13
-5.44641130092572e-13
-6.18973526730667e-13
-3.91021746824746e-13
-4.79922299930868e-13
-2.77480048047475e-13
-3.62175424335248e-13
-1.91770097016707e-13
-2.61473324651178e-13
-1.25931016926274e-13
-1.74437809081029e-13
-7.47258943619859e-14
-9.83379994192015e-14
-3.4672459382257e-14
-3.09183984121387e-14
-3.40847861849251e-15
2.97373214882715e-14
2.06639280524369e-14
8.52988938982913e-14
3.86328369317465e-14
1.37272096901633e-13
5.12410465672714e-14
1.87057243636983e-13
5.89143735911389e-14
2.35999445858995e-13
6.18641004541458e-14
2.85444141269891e-13
6.0108505108828e-14
3.36781312136889e-13
5.34429681759509e-14
3.91498615816979e-13
4.14445680182193e-14
4.51251249069443e-13
2.34104982880767e-14
5.17924652766847e-13
-1.74497728315743e-15
5.93757860308046e-13
-3.56119646302813e-14
6.81444942599581e-13
-8.0494588259576e-14
7.84337901274753e-13
-1.39926037897158e-13
9.06667345093854e-13
-2.19210746492682e-13
1.05384528815709e-12
-3.26329345736042e-13
1.23286204525135e-12
-4.73564477090288e-13
1.45272291163529e-12
-6.7979407588484e-13
1.72494757705521e-12
-9.74048333422451e-13
2.06387946570609e-12
-1.40032493311781e-12
2.48648584491402e-12
-2.02307318818919e-12
3.01033567832361e-12
-2.93232818641989e-12
3.6468422959241e-12
-4.23366624858362e-12
4.38439105978683e-12
-6.00470280627809e-12
5.14342764688374e-12
-8.07453096575681e-12
5.7097849858579e-12
-9.57583666641928e-12
5.60066241573689e-12
-7.69767061724822e-12
4.19486317342717e-12
1.99998527708031e-12
1.2862723098847e-12
2.16775468805612e-11
2.71108367114588e-11
7.25117699918244e-13
2.583828325254e-11
-5.24432333646015e-13
2.27184619927438e-11
-2.11995756960274e-12
3.87648631226367e-12
-3.08582171168422e-12
-6.42263624728695e-12
-3.39176928915054e-12
-9.12853606265105e-12
-3.27696798912718e-12
-8.17393458072349e-12
-2.95927964696747e-12
-6.36234586612104e-12
-2.57493930014225e-12
-4.67435490560671e-12
-2.19328901974164e-12
-3.37163283605768e-12
-1.84468566695502e-12
-2.42565303817775e-12
-1.53917706783021e-12
-1.75465129500062e-12
-1.27697074390402e-12
-1.27940559419874e-12
-1.05409051765971e-12
-9.39938874894822e-13
-8.65147011895415e-13
-6.93819872623163e-13
-7.04719411750547e-13
-5.12088638213318e-13
-5.67887090269953e-13
-3.75336525130544e-13
-4.50426916365302e-13
-2.70617171519497e-13
-3.48793685619336e-13
-1.89292204612437e-13
-2.60022462131522e-13
-1.25541987065741e-13
-1.81625985609137e-13
-7.54080679863882e-14
-1.11491398065104e-13
-3.61518167748761e-14
-4.77841644286663e-14
-5.89896213485066e-15
1.11123847440894e-14
1.66578905833275e-14
6.66800258966397e-14
3.23939301161867e-14
1.20300138227633e-13
4.18368512222881e-14
1.73307457326114e-13
4.52421495026552e-14
2.27036336611874e-13
4.26277547122804e-14
2.82856845771611e-13
3.37529763956133e-14
3.42228244421497e-13
1.81051351179903e-14
4.06760340554917e-13
-5.17003151658832e-15
4.78248964522162e-13
-3.7344279259224e-14
5.58787224618094e-13
-8.03040449115992e-14
6.50828011337207e-13
-1.36712583582204e-13
7.57301802891092e-13
-2.10579815373743e-13
8.81707951404312e-13
-3.07777062504843e-13
1.02822129703871e-12
-4.369606440374e-13
1.20169224912198e-12
-6.11087882637824e-13
1.40747789107607e-12
-8.49543923126122e-13
1.65089541602019e-12
-1.18132085688609e-12
1.93584518543734e-12
-1.64900188571463e-12
2.26207030804813e-12
-2.31288122704528e-12
2.61945069773771e-12
-3.25313398249399e-12
2.97765109245852e-12
-4.55511280700863e-12
3.26787278440059e-12
-6.25792537114136e-12
3.35688668918789e-12
-8.12608762289045e-12
3.03557732474951e-12
-9.21607149655601e-12
2.07837625563912e-12
-6.7001412605489e-12
5.23824962181664e-13
3.59666727681836e-12
-6.94371918527611e-13
2.29356184175344e-11
2.64409039477586e-11
1.71329491929574e-12
2.41609788133101e-11
1.60396282620239e-12
2.28735679049952e-11
9.80744730652399e-14
5.42706956443712e-12
-1.27058316505998e-12
-5.01139058612612e-12
-2.0913650467851e-12
-8.2670503801854e-12
-2.40968300180651e-12
-7.81633082088129e-12
-2.40948514558979e-12
-6.32428766495378e-12
-2.24113156874372e-12
-4.80522367260578e-12
-2.00157775017057e-12
-3.57431400244635e-12
-1.74483351570563e-12
-2.64604171415043e-12
-1.49838519223932e-12
-1.96520585363833e-12
-1.27418318573872e-12
-1.46814361430782e-12
-1.07588381023761e-12
-1.10318241645035e-12
-9.02949973476804e-13
-8.32090355094203e-13
-7.53005525530772e-13
-6.27745578420531e-13
-6.23047399702893e-13
-4.7136664437517e-13
-5.10048152069586e-13
-3.50028904140922e-13
-4.11212234056868e-13
-2.54861774138076e-13
-3.24059775752155e-13
-1.79727486940648e-13
-2.46417074919816e-13
-1.20361543547764e-13
-1.7637763418244e-13
-7.37574463158947e-14
-1.12251288600416e-13
-3.78245646891316e-14
-5.25187751780039e-14
-1.10845625822986e-14
4.22521525627302e-15
7.44997798680775e-15
5.92981642050443e-14
1.83953535456804e-14
1.1397870816663e-13
2.20447505698657e-14
1.69544970138652e-13
1.84152501623067e-14
2.27305559432243e-13
7.23466171582432e-15
2.88643143225496e-13
-1.20834440800049e-14
3.55060192881681e-13
-4.05138983102477e-14
4.28217602033259e-13
-7.94871519805653e-14
5.09988661084014e-13
-1.31101566048701e-13
6.02517966852426e-13
-1.98291301227732e-13
7.08243156638482e-13
-2.85358200851164e-13
8.29898838940569e-13
-3.98469626584178e-13
9.70444504640359e-13
-5.46505883073936e-13
1.13280176532941e-12
-7.42386154918013e-13
1.31925233383019e-12
-1.00485681498431e-12
1.53021002695608e-12
-1.36104164665998e-12
1.76186150695742e-12
-1.84930001661044e-12
2.00204467886649e-12
-2.52158004812699e-12
2.22292366517958e-12
-3.44238613134264e-12
2.36995708178888e-12
-4.67036278724587e-12
2.34572369400514e-12
-6.20170000114054e-12
2.0010418011681e-12
-7.74901825908893e-12
1.15801137306517e-12
-8.33975042600744e-12
-2.16125556879231e-13
-5.29096276240416e-12
-1.69289667384476e-12
5.11012085391603e-12
-1.74555798092638e-12
2.30228997914896e-11
2.47160343016931e-11
2.02383923854672e-12
2.21697042497303e-11
2.51164273336339e-12
2.24262514108484e-11
1.22656448092719e-12
6.75120428181242e-12
-2.08055658275363e-13
-3.53978886675239e-12
-1.23117041461762e-12
-7.20878457703932e-12
-1.76824611501145e-12
-7.24549640154879e-12
-1.95644341848293e-12
-6.10334392299768e-12
-1.93290003111126e-12
-4.79676880312715e-12
-1.79885413448329e-12
-3.67694326492453e-12
-1.61673963297342e-12
-2.79722310014271e-12
-1.4223898330498e-12
-2.12904965663777e-12
-1.23441180704592e-12
-1.62601163290102e-12
-1.06135506785062e-12
-1.24650537432442e-12
-9.06137961384032e-13
-9.57936775707502e-13
-7.68736541541256e-13
-7.36126276661505e-13
-6.47748384351522e-13
-5.63670833833401e-13
-5.41215132092903e-13
-4.28198089741263e-13
-4.47067874298292e-13
-3.20947362966067e-13
-3.63310228470317e-13
-2.35706296622657e-13
-2.88101889598743e-13
-1.68054019303745e-13
-2.19768206979266e-13
-1.14816786511685e-13
-1.56790588162856e-13
-7.374895566611e-14
-9.7772211711702e-14
-4.32494059234168e-14
-4.14135006646385e-14
-2.22347805254812e-14
1.35249829948593e-14
-1.00287572685207e-14
6.82429162192813e-14
-6.29941796572772e-15
1.23939254931708e-13
-1.10294665615581e-14
1.8183805647934e-13
-2.45177524399137e-14
2.43224305872451e-13
-4.74111365537421e-14
3.09469689160248e-13
-8.07725229953025e-14
3.82070763523565e-13
-1.26157015224261e-13
4.62656080981198e-13
-1.8579529701446e-13
5.5304099273187e-13
-2.62806950040235e-13
6.55164747491492e-13
-3.61617747977147e-13
7.710395750025e-13
-4.88466694591673e-13
9.02542265670143e-13
-6.52098625762213e-13
1.05098384914126e-12
-8.64866699097577e-13
1.21626396985597e-12
-1.14410578248905e-12
1.39531993142546e-12
-1.51397941585387e-12
1.57938160931616e-12
-2.00714052257327e-12
1.74951939623767e-12
-2.66538231608147e-12
1.86936327087536e-12
-3.53577383484561e-12
1.87562454246016e-12
-4.65004086308077e-12
1.66605742735325e-12
-5.9653867009066e-12
1.10371754334679e-12
-7.15960948942584e-12
5.57586009946739e-14
-7.26393636752783e-12
-1.39175057284304e-12
-3.81401697691825e-12
-2.65660729653354e-12
6.40594066586648e-12
-2.09793320899252e-12
2.24932739286603e-11
2.26352302302541e-11
1.93754386120903e-12
2.02600082327383e-11
2.62535936782167e-12
2.1772020279617e-11
1.60656327283955e-12
7.8017473324747e-12
3.06154306495708e-13
-2.20951315709487e-12
-7.13651264095292e-13
-6.16075588197276e-12
-1.31882756670698e-12
-6.61337273869671e-12
-1.59848427595233e-12
-5.79767276704246e-12
-1.66250092622177e-12
-4.70742303002942e-12
-1.60195474122053e-12
-3.71268748748662e-12
-1.47749008083037e-12
-2.89732130318287e-12
-1.32675685709997e-12
-2.25580091601095e-12
-1.17115217345506e-12
-1.75799250396672e-12
-1.02192783093676e-12
-1.37244905220077e-12
-8.84244548104092e-13
-1.07267309080362e-12
-7.59801488959313e-13
-8.3794650215162e-13
-6.48468881565195e-13
-6.52693592753222e-13
-5.49201672477398e-13
-5.05454542136583e-13
-4.60578831402822e-13
-3.87843819791499e-13
-3.81063192834422e-13
-2.93761382428112e-13
-3.09146797649595e-13
-2.18757393600311e-13
-2.43388736849597e-13
-1.59589720904284e-13
-1.82450070241532e-13
-1.13910670439214e-13
-1.25064077972988e-13
-8.00465741308269e-14
-7.00422433047589e-14
-5.68369911104716e-14
-1.62397811576176e-14
-4.35616052696656e-14
3.74567592716018e-14
-3.98589386687807e-14
9.21587076593095e-14
-4.57090482899904e-14
1.48999038039154e-13
-6.14341669771325e-14
2.09151205627183e-13
-8.77223548045704e-14
2.73850685424953e-13
-1.25698394828986e-13
3.44417783389065e-13
-1.77002766867327e-13
4.22242809569499e-13
-2.43936330549814e-13
5.08808120533603e-13
-3.29710059829807e-13
6.05591137470855e-13
-4.38744591703643e-13
7.13951844596934e-13
-5.77161125040999e-13
8.34848897023126e-13
-7.53302438675001e-13
9.68315896471648e-13
-9.78597348688401e-13
1.11252022921849e-12
-1.26851435315364e-12
1.26214121397501e-12
-1.64373087700267e-12
1.40567231526672e-12
-2.13071721877236e-12
1.52134837592296e-12
-2.76101196624593e-12
1.57091082506514e-12
-3.5651998967189e-12
1.49277145945382e-12
-4.55167991013611e-12
1.19471628283199e-12
-5.64700679584775e-12
5.66758986714927e-13
-6.51109690318701e-12
-4.76800834739285e-13
-6.19918040909055e-12
-1.79139003460248e-12
-2.47686165936931e-12
-2.79415614220826e-12
7.43254859036239e-12
-2.03058721221142e-12
2.1751938450453e-11
2.06171894418995e-11
1.66839053404732e-12
1.86143640639439e-11
2.335720728573e-12
2.11311423005069e-11
1.5721123767672e-12
8.58993944061754e-12
4.89468235339277e-13
-1.10392974092572e-12
-4.21464907787029e-13
-5.22830898194082e-12
-1.00780452584749e-12
-6.00664371273662e-12
-1.31713339769962e-12
-5.46878409879999e-12
-1.42887932304677e-12
-4.57672601896062e-12
-1.41755706010596e-12
-3.70552649669577e-12
-1.3366208346675e-12
-2.96016065379058e-12
-1.22160237015882e-12
-2.35306615837713e-12
-1.09414777113126e-12
-1.86801730050881e-12
-9.6664718735129e-13
-1.48283285021753e-12
-8.45567229470479e-13
-1.17694378590713e-12
-7.33806429795976e-13
-9.33198185687819e-13
-6.32200204295764e-13
-7.38083244126422e-13
-5.40460574233295e-13
-5.81258293627483e-13
-4.57730771383759e-13
-4.54904447991917e-13
-3.82889598553009e-13
-3.5318395977338e-13
-3.14736532834793e-13
-2.71725210266711e-13
-2.52060466299888e-13
-2.07295433114174e-13
-1.93694584738699e-13
-1.57502876199996e-13
-1.38516149569144e-13
-1.20628813419974e-13
-8.54429095208702e-14
-9.5473379093801e-14
-3.34302837951204e-14
-8.12790193948292e-14
1.85458262941374e-14
-7.7663993065199e-14
7.15053822096348e-14
-8.46057210833805e-14
1.26485699293725e-13
-1.02444048995026e-13
1.84547749673035e-13
-1.31891384165459e-13
2.4679045282595e-13
-1.74111858159185e-13
3.14355109663633e-13
-2.30787126223061e-13
3.88408451321246e-13
-3.0424492098234e-13
4.70117208158033e-13
-3.9769507972109e-13
5.60544655332622e-13
-5.15455497100479e-13
6.60481841184482e-13
-6.63374215157759e-13
7.70133894581492e-13
-8.49208493396476e-13
8.88565402643309e-13
-1.0832471303012e-12
1.01275121183088e-12
-1.37886942233265e-12
1.13605290058685e-12
-1.75314188020422e-12
1.24582968861547e-12
-2.22653604196472e-12
1.32006402833137e-12
-2.82121975464897e-12
1.32264267267389e-12
-3.55369189887543e-12
1.19924970847251e-12
-4.41415605495678e-12
8.74387811543467e-13
-5.30796783134163e-12
2.68632780395766e-13
-5.8910206054607e-12
-6.62544909463042e-13
-5.2531839521211e-12
-1.75659746971113e-12
-1.36685384960149e-12
-2.50443529954723e-12
8.19745189821294e-12
-1.76306635003387e-12
2.10262562286471e-11
1.88626559667071e-11
1.34839507065931e-12
1.72828291435117e-11
1.9073147033599e-12
2.05906977452897e-11
1.35928027308745e-12
9.1545449894916e-12
5.03704991074376e-13
-2.33060399266147e-13
-2.61634230958977e-13
-4.44878825935085e-12
-7.88437161479713e-13
-5.46657132403896e-12
-1.09276053409591e-12
-5.15187724067638e-12
-1.22679443664243e-12
-4.43061698408852e-12
-1.24748144713501e-12
-3.67315775193686e-12
-1.19909670002767e-12
-2.99719445749422e-12
-1.11308969117665e-12
-2.42802237328166e-12
-1.00986425790877e-12
-1.96047928153638e-12
-9.01900325034131e-13
-1.58031606446283e-12
-7.96294464348596e-13
-1.27235005216832e-12
-6.96711344511049e-13
-1.02285873492725e-12
-6.04693762950561e-13
-8.20449593981351e-13
-5.20558686863283e-13
-6.56003358191782e-13
-4.4391862993088e-13
-5.22404116608792e-13
-3.7402394723899e-13
-4.14172694889866e-13
-3.09953318721664e-13
-3.27109084843682e-13
-2.50715510980521e-13
-2.58047715321015e-13
-1.95309050381944e-13
-2.04608286599349e-13
-1.42747498557279e-13
-1.65055716040043e-13
-9.20602642161773e-14
-1.38175326822255e-13
-4.23044436099415e-14
-1.23181783330944e-13
7.45557646229848e-15
-1.19687174815212e-13
5.81475805064658e-14
-1.27661569092821e-13
1.10706594498941e-13
-1.4745278780297e-13
1.66085428158288e-13
-1.79792050868641e-13
2.25248140779e-13
-2.25855391252614e-13
2.89163347937577e-13
-2.87329174011985e-13
3.58785635116509e-13
-3.6652695522282e-13
4.34994963314503e-13
-4.66584477665676e-13
5.18492527638358e-13
-5.91640862684553e-13
6.09593200957012e-13
-7.47157595995132e-13
7.07903245857773e-13
-9.40184242812195e-13
8.11779749108415e-13
-1.17976082373127e-12
9.17440597977955e-13
-1.47712885783202e-12
1.01762208212553e-12
-1.84587625279462e-12
1.0996140402394e-12
-2.30103269894691e-12
1.14267794468375e-12
-2.85674566041817e-12
1.11486263402156e-12
-3.51831306741941e-12
9.7121090118897e-13
-4.26294140838579e-12
6.54086098926384e-13
-4.98329552372438e-12
1.11584047172051e-13
-5.34091959685453e-12
-6.69393429073229e-13
-4.46426678847463e-12
-1.53173125827254e-12
-4.95693995663474e-13
-2.06211006855156e-12
8.73746587321053e-12
-1.43467021837377e-12
2.04074385729906e-11
1.74319598199092e-11
1.04611212612126e-12
1.62479442203768e-11
1.48284652647544e-12
2.01650983902664e-11
1.10248420309599e-12
9.54440787696038e-12
4.47124257864261e-13
4.30876894937481e-13
-1.73753059677201e-13
-3.82014966038881e-12
-6.2788713397258e-13
-5.00537743067782e-12
-9.10010659726632e-13
-4.86323793549694e-12
-1.05085928819795e-12
-4.28366332572436e-12
-1.0916276758128e-12
-3.62660949762701e-12
-1.06741153800222e-12
-3.01591108491439e-12
-1.0048862660282e-12
-2.48530861268449e-12
-9.22428146659338e-13
-2.03795497409902e-12
-8.3194292930688e-13
-1.66607532199148e-12
-7.40672123521965e-13
-1.35915322713614e-12
-6.52702605701146e-13
-1.10661720870517e-12
-5.70070466578047e-13
-8.99123081274075e-13
-4.93547238228838e-13
-7.288119253871e-13
-4.23132404801392e-13
-5.89338094708647e-13
-3.58398278154877e-13
-4.75646247147539e-13
-2.98671890843793e-13
-3.8378007419416e-13
-2.43161244063948e-13
-3.10691852873665e-13
-1.9102646052884e-13
-2.54049588894482e-13
-1.41410343644756e-13
-2.12134017130488e-13
-9.34551395206964e-14
-1.83732940328691e-13
-4.63142535417131e-14
-1.68048808878912e-13
8.49897067394136e-16
-1.64685825745819e-13
4.88764018448712e-14
-1.73616171201419e-13
9.86001658589304e-14
-1.95185065007232e-13
1.50863500817422e-13
-2.30130904582185e-13
2.06499184225118e-13
-2.79620958385227e-13
2.66316761116869e-13
-3.45319368941796e-13
3.31074560562261e-13
-4.29488069045655e-13
4.01396187177994e-13
-5.35128827276229e-13
4.77670014231254e-13
-6.66145063042349e-13
5.59821213244787e-13
-8.27536586593913e-13
6.47009012399538e-13
-1.02558636945389e-12
7.37100473274752e-13
-1.26804432980958e-12
8.25905414507988e-13
-1.56409647119645e-12
9.0602709603755e-13
-1.92412797992941e-12
9.65356068548972e-13
-2.35846099726629e-12
9.85241798164409e-13
-2.87471096789938e-12
9.38611336789057e-13
-3.46976617982603e-12
7.89898015358606e-13
-4.11235049425799e-12
4.97526692290019e-13
-4.6891124585397e-12
3.13390785403799e-14
-4.8729467618178e-12
-6.00475587768359e-13
-3.83047057944411e-12
-1.25773962627038e-12
1.64173159614811e-13
-1.61808341466001e-12
9.10103289231663e-12
-1.11998348955118e-12
1.99117978461358e-11
1.63123076745627e-11
7.90097147804566e-13
1.546337660412e-11
1.1215725516167e-12
1.98374939276902e-11
8.64194705062087e-13
9.80426082101791e-12
3.70866382880546e-13
9.2617854376752e-13
-1.22985527902719e-13
-3.32480269580369e-12
-5.05298654431788e-13
-4.62203826752567e-12
-7.58085871532468e-13
-4.60981337184893e-12
-8.96622558139785e-13
-4.14479584674373e-12
-9.49221642258971e-13
-3.57393222476684e-12
-9.42756008185187e-13
-3.02252697626354e-12
-8.9915171720502e-13
-2.52928579422739e-12
-8.34424836661741e-13
-2.10328058155779e-12
-7.59519831690514e-13
-1.74181048829589e-12
-6.81477291526116e-13
-1.43826129469474e-12
-6.04538861906216e-13
-1.18485748769429e-12
-5.31049147073428e-13
-9.74148194041007e-13
-4.6210435271862e-13
-7.99518579478115e-13
-3.98017219033941e-13
-6.55404623884275e-13
-3.38618044148609e-13
-5.37229357608707e-13
-2.83454061940288e-13
-4.41319404221261e-13
-2.31918167046645e-13
-3.64779095905563e-13
-1.83319480191809e-13
-3.05360593962967e-13
-1.36921902343477e-13
-2.61388505482069e-13
-9.19844244766329e-14
-2.31656959417555e-13
-4.77543858749532e-14
-2.153799820173e-13
-3.48749110893208e-15
-2.12154017104896e-13
4.15621190046438e-14
-2.21953490915544e-13
8.81323672818498e-14
-2.45116930902675e-13
1.36955530753836e-13
-2.82377170199388e-13
1.88739721037155e-13
-3.34878038986071e-13
2.44145240660693e-13
-4.04236589714048e-13
3.03746857421726e-13
-4.92629728494318e-13
3.6795569941379e-13
-6.02895610953368e-13
4.36895210165518e-13
-7.38650195488746e-13
5.10185705299343e-13
-9.04391016179435e-13
5.86663165938692e-13
-1.1056182100994e-12
6.63895541292991e-13
-1.34881415962449e-12
7.37547819387375e-13
-1.64126535842936e-12
8.00446910430708e-13
-1.99052247789453e-12
8.41478475013099e-13
-2.40297360603938e-12
8.44413666077055e-13
-2.88112980514527e-12
7.87045927977272e-13
-3.41591455541154e-12
6.42216295333265e-13
-3.97111233145298e-12
3.8151523663524e-13
-4.43211751354823e-12
-9.54229040867941e-15
-4.48569941055262e-12
-5.10119295572389e-13
-3.33365646584824e-12
-1.00118524343393e-12
6.51831911226439e-13
-1.23671518044206e-12
9.3334580061016e-12
-8.51213433446118e-13
1.95227661474019e-11
1.54576783865985e-11
5.86733964927273e-13
1.48773206754246e-11
8.36882251017687e-13
1.95852708716874e-11
6.66118247469229e-13
9.9719750614478e-12
2.98022970596966e-13
1.2910740538331e-12
-9.05386345843149e-14
-2.93964099799694e-12
-4.07812563606425e-13
-4.30843410174591e-12
-6.29500946834029e-13
-4.39205003757465e-12
-7.60502158903874e-13
-4.0179377533768e-12
-8.19190457054941e-13
-3.5195802951928e-12
-8.2553046578203e-13
-3.02070967509954e-12
-7.97080549651126e-13
-2.56244933654512e-12
-7.47436759744592e-13
-2.15783859943259e-12
-6.86371045562613e-13
-1.80799993508693e-12
-6.20485234214728e-13
-1.50948722978758e-12
-5.53980767018045e-13
-1.25692017058916e-12
-4.89352515253868e-13
-1.04455150031612e-12
-4.27910363960111e-13
-8.66946485063617e-13
-3.7020131540941e-13
-7.19301885441658e-13
-3.16268481857985e-13
-5.97541433421836e-13
-2.65848225915307e-13
-4.9829698466936e-13
-2.18494704884117e-13
-4.18853804165548e-13
-1.73653159166628e-13
-3.57073018119228e-13
-1.30709864485995e-13
-3.11337039697472e-13
-8.90280394825445e-14
-2.80464165261499e-13
-4.79512612968306e-14
-2.63688033384663e-13
-6.82807450416651e-15
-2.60601213083632e-13
3.49941012361934e-14
-2.71179546542845e-13
7.81595973214712e-14
-2.95753530398386e-13
1.23291715021275e-13
-3.35036734589806e-13
1.70982049068235e-13
-3.90141451929188e-13
2.21755488765451e-13
-4.62618305223964e-13
2.76022688775746e-13
-5.54530691196114e-13
3.34012016499227e-13
-6.68534584458833e-13
3.95629080065565e-13
-8.07924578250756e-13
4.60275226966493e-13
-9.76693624289098e-13
5.26565752380914e-13
-1.17955763720594e-12
5.91935304814248e-13
-1.42182021000286e-12
6.52097541649097e-13
-1.70904946992804e-12