/*--------------------------------*- C++ -*----------------------------------*\
  =========                 |
  \\      /  F ield         | OpenFOAM: The Open Source CFD Toolbox
   \\    /   O peration     | Website:  https://openfoam.org
    \\  /    A nd           | Version:  10
     \\/     M anipulation  |
\*---------------------------------------------------------------------------*/
FoamFile
{
    format      ascii;
    class       volScalarField;
    location    "7.2";
    object      rho;
}
// * * * * * * * * * * * * * * * * * * * * * * * * * * * * * * * * * * * * * //

dimensions      [1 -3 0 0 0 0 0];

internalField   nonuniform List<scalar> 
2500
(
1.1452283379566
1.14524463935812
1.14528600970804
1.1453173142735
1.14533706738396
1.14534874413205
1.14535541506005
1.14535911711576
1.14536110235952
1.1453621225809
1.14536263015267
1.14536287122966
1.14536298117703
1.1453630315467
1.14536305471941
1.14536306668325
1.14536307197832
1.14536307583274
1.14536307926698
1.14536308154467
1.14536308339934
1.14536308495595
1.14536308621404
1.14536308699474
1.14536308778001
1.14536308840948
1.14536308862516
1.14536308865637
1.14536308845754
1.14536308798993
1.14536308718001
1.1453630856602
1.14536308368456
1.14536308056973
1.14536307506502
1.14536306398907
1.14536304005094
1.14536298770709
1.14536287005539
1.14536261972162
1.14536210101185
1.14536106495792
1.14535907316498
1.14535538238651
1.14534874529205
1.14533713528734
1.1453174027623
1.14528593108419
1.14524428639671
1.14522872445471
1.14844533440672
1.14854149200668
1.14866242860388
1.14875161037641
1.14880887660608
1.14884360824437
1.14886402871455
1.14887569529761
1.14888213718318
1.14888555598589
1.14888729765982
1.14888814712613
1.14888854404368
1.14888872297873
1.14888880112661
1.14888883484105
1.14888884882469
1.14888885531675
1.14888885898264
1.14888886111527
1.14888886264484
1.1488888638908
1.14888886489624
1.14888886558267
1.14888886619307
1.14888886668845
1.14888886693104
1.14888886704024
1.14888886700748
1.14888886674585
1.14888886609673
1.14888886459379
1.14888886147142
1.14888885467152
1.14888883923935
1.14888880303071
1.14888871883516
1.14888852843239
1.14888811089004
1.14888723239555
1.14888545474067
1.14888199947529
1.14887554376944
1.148863915962
1.14884361065515
1.14880904080127
1.14875176279967
1.14866199033477
1.14854003839495
1.14844686307902
1.15176962294657
1.15194205209304
1.15211713242369
1.15224172163549
1.15232089034407
1.15236868005585
1.15239671432309
1.15241272287344
1.1524215718273
1.15242628043993
1.15242868559177
1.15242986270484
1.15243041461678
1.15243066321237
1.15243077106401
1.15243081644009
1.15243083485264
1.15243084251249
1.15243084604355
1.15243084782534
1.1524308489584
1.15243084985286
1.152430850581
1.15243085109617
1.15243085152132
1.15243085187169
1.15243085208006
1.15243085221646
1.15243085229257
1.1524308521987
1.15243085173292
1.15243085036371
1.15243084679159
1.15243083821671
1.15243081775899
1.15243076850293
1.15243065264233
1.15243038938747
1.15242981291339
1.1524286007122
1.15242615200118
1.15242140092888
1.15241253574226
1.15239657282277
1.15236866995203
1.15232102928125
1.15224169126209
1.15211598352674
1.15193882730088
1.15176889943237
1.15479516392581
1.15500804276918
1.15519505910528
1.15532289975147
1.15540190505493
1.15544843388566
1.15547512595166
1.15549007655831
1.15549820825079
1.15550247785248
1.15550463419358
1.1555056794886
1.15550616552169
1.15550638258925
1.15550647585433
1.15550651451434
1.15550652992888
1.15550653604596
1.15550653861296
1.15550653979062
1.15550654048669
1.15550654104302
1.15550654151551
1.15550654185655
1.15550654212158
1.15550654234421
1.1555065424972
1.1555065426258
1.15550654273906
1.15550654277891
1.15550654259778
1.15550654172409
1.15550653894332
1.15550653196269
1.15550651501433
1.15550647346981
1.15550637436827
1.1555061465297
1.15550564236819
1.15550457037235
1.15550237946941
1.15549807382621
1.15548992228289
1.15547499440179
1.15544837939056
1.15540189059861
1.15532250298135
1.15519310350047
1.15500304098462
1.15479022250739
1.15726795909009
1.15747973218849
1.15764764136859
1.15775799102248
1.15782418953415
1.15786215430405
1.15788342375013
1.15789510224002
1.15790135361235
1.15790459520285
1.15790621640746
1.15790699631689
1.157907356752
1.15790751684114
1.15790758521017
1.15790761328418
1.15790762431868
1.15790762854328
1.15790763018351
1.15790763085652
1.15790763121555
1.15790763151139
1.15790763178393
1.15790763198364
1.15790763212824
1.15790763225302
1.1579076323518
1.1579076324541
1.15790763256752
1.15790763264538
1.15790763265207
1.15790763224553
1.15790763037879
1.15790762549283
1.15790761353514
1.15790758381427
1.15790751216316
1.15790734597307
1.1579069751497
1.15790617953959
1.15790453719755
1.15790127211039
1.15789500467953
1.15788333234664
1.15786209019064
1.15782407523672
1.15775736973652
1.15764527107992
1.15747372146801
1.15725938861896
1.15910675332384
1.15928736980677
1.15941963884551
1.15950339176877
1.15955216888804
1.15957940937729
1.15959431582831
1.15960234318488
1.15960657599382
1.15960874649662
1.15960982325565
1.1596103382785
1.15961057532505
1.15961068026423
1.15961072491573
1.15961074313008
1.15961075019883
1.15961075281748
1.15961075375861
1.15961075409175
1.15961075423546
1.15961075435913
1.15961075449545
1.1596107545975
1.15961075466324
1.15961075472326
1.15961075478027
1.15961075485223
1.15961075494563
1.15961075503155
1.15961075510171
1.15961075498476
1.15961075389259
1.15961075082471
1.1596107432848
1.1596107243113
1.15961067819387
1.15961057053034
1.15961032878419
1.15960980649542
1.15960871958257
1.15960653718888
1.15960229536218
1.15959426852691
1.15957936416604
1.15955203753693
1.15950275503559
1.15941734706206
1.15928140655726
1.15909654647675
1.16036324034974
1.16049970278861
1.16059334269486
1.16065061088905
1.16068301986735
1.16070065695591
1.16071008964349
1.1607150751066
1.16071766711914
1.16071898307697
1.16071963156758
1.16071994044849
1.16072008226158
1.16072014493734
1.16072017155052
1.16072018235396
1.16072018649813
1.16072018798185
1.16072018847261
1.1607201886159
1.16072018864638
1.16072018867192
1.16072018872636
1.1607201887696
1.16072018879025
1.16072018881326
1.16072018884286
1.16072018888865
1.16072018895595
1.16072018903007
1.16072018910503
1.16072018911362
1.16072018854392
1.16072018679624
1.16072018244477
1.16072017136419
1.16072014426092
1.16072008069732
1.16071993733064
1.16071962599413
1.16071897393302
1.1607176536794
1.16071505872197
1.16071007439229
1.1607006381733
1.16068292228688
1.16065009965758
1.16059147069659
1.16049461936069
1.16035345649465
1.16115869664749
1.16125192437422
1.16131246572527
1.16134831331874
1.16136805066893
1.16137852745745
1.16138400781495
1.16138685256739
1.16138831204867
1.1613890464102
1.16138940631272
1.16138957723503
1.16138965561224
1.16138969023661
1.16138970492463
1.16138971086488
1.16138971311859
1.16138971389872
1.16138971412427
1.16138971416118
1.16138971415831
1.16138971415352
1.16138971416408
1.16138971417712
1.16138971417512
1.1613897141797
1.16138971419321
1.16138971421994
1.1613897142638
1.16138971431849
1.16138971438184
1.16138971442474
1.16138971415622
1.16138971324185
1.16138971090704
1.1613897048962
1.1613896901245
1.1613896553801
1.16138957678653
1.16138940550861
1.16138904504628
1.16138831012413
1.16138685118279
1.16138400946692
1.16137852834624
1.16136799824601
1.16134797041801
1.16131112978485
1.16124809921921
1.16115065712107
1.16162852713593
1.16168694822798
1.1617231200819
1.16174390328102
1.16175505161487
1.16176082969537
1.16176378816146
1.16176529727986
1.16176606177358
1.16176644330875
1.16176662944514
1.16176671767414
1.16176675812259
1.16176677599989
1.16176678358233
1.16176678663955
1.16176678778627
1.16176678816515
1.1617667882524
1.161766788251
1.16176678823898
1.16176678822681
1.1617667882241
1.16176678822303
1.16176678821724
1.16176678821704
1.16176678822273
1.16176678823699
1.16176678826336
1.16176678829923
1.1617667883439
1.16176678838317
1.16176678827133
1.1617667878278
1.16176678665024
1.16176678358937
1.16176677604227
1.16176675826416
1.1617667179891
1.16176663003557
1.16176644429898
1.16176606347391
1.1617653007594
1.16176379558595
1.16176083988903
1.16175503344743
1.16174370559922
1.16172226871
1.16168435808383
1.16162267022304
1.16188899889477
1.16192294110424
1.16194309803871
1.16195435976904
1.16196025320682
1.16196323885849
1.1619647362778
1.16196548726852
1.16196586309491
1.16196604924337
1.16196613971267
1.16196618254786
1.16196620219663
1.16196621089113
1.16196621458017
1.16196621606352
1.16196621661319
1.16196621678292
1.16196621681114
1.16196621680263
1.16196621679046
1.16196621677966
1.16196621677382
1.16196621676929
1.16196621676417
1.16196621676245
1.16196621676453
1.16196621677224
1.16196621678709
1.16196621680853
1.16196621683614
1.16196621686205
1.16196621682172
1.16196621662101
1.16196621605877
1.16196621458421
1.16196621094011
1.16196620235351
1.16196618289694
1.1619661403753
1.16196605038977
1.16196586506899
1.16196549099642
1.16196474367038
1.1619632506198
1.16196025350395
1.16195426091058
1.16194260610714
1.16192133992947
1.16188513528649
1.16202525759338
1.1620436952848
1.16205425000394
1.16205999521824
1.16206293232194
1.16206438824985
1.16206510401299
1.16206545709162
1.1620656317033
1.16206571757515
1.16206575917489
1.16206577886247
1.16206578790406
1.16206579191171
1.1620657936134
1.1620657942958
1.16206579454549
1.16206579461608
1.16206579462247
1.16206579461536
1.16206579460645
1.16206579459893
1.16206579459401
1.16206579458999
1.16206579458652
1.16206579458489
1.16206579458563
1.16206579458972
1.1620657945976
1.16206579460946
1.16206579462499
1.16206579463962
1.16206579462761
1.16206579454209
1.1620657942866
1.16206579361046
1.16206579193693
1.16206578799639
1.16206577907579
1.16206575958925
1.16206571831415
1.16206563302911
1.16206545969465
1.16206510939309
1.1620643978179
1.16206293923998
1.16205995275664
1.16205398945713
1.16204278150487
1.16202291574494
1.16209282659153
1.16210225478159
1.16210748002711
1.16211025610509
1.16211164432417
1.16211231833772
1.16211264336155
1.16211280111478
1.16211287822827
1.16211291589444
1.16211293409079
1.16211294270299
1.16211294666487
1.16211294842463
1.16211294917257
1.16211294947168
1.16211294957918
1.16211294960703
1.16211294960741
1.16211294960244
1.16211294959692
1.16211294959238
1.16211294958916
1.16211294958653
1.16211294958449
1.16211294958341
1.16211294958371
1.1621129495858
1.16211294958977
1.16211294959592
1.16211294960404
1.16211294961149
1.16211294960887
1.16211294957435
1.16211294946349
1.16211294916692
1.16211294843209
1.16211294670449
1.16211294280126
1.1621129342884
1.16211291626129
1.16211287892935
1.16211280260232
1.16211264667323
1.16211232482327
1.16211165161253
1.16211024116458
1.16210735253745
1.16210176905374
1.16209150810763
1.16212471517883
1.16212927937562
1.16213173773487
1.162133014704
1.16213364011458
1.16213393782476
1.16213407873542
1.16213414604912
1.16213417857843
1.16213419436304
1.16213420196996
1.16213420557198
1.16213420723248
1.16213420797179
1.16213420828638
1.16213420841183
1.162134208456
1.16213420846643
1.1621342084656
1.16213420846265
1.16213420845959
1.16213420845712
1.1621342084553
1.16213420845382
1.16213420845275
1.16213420845216
1.16213420845231
1.16213420845334
1.16213420845525
1.16213420845828
1.16213420846228
1.16213420846599
1.16213420846581
1.16213420845236
1.16213420840631
1.16213420828134
1.1621342079715
1.16213420724463
1.1621342056071
1.16213420204497
1.16213419451145
1.16213417889149
1.16213414679326
1.16213408055396
1.1621339417109
1.16213364555346
1.16213301114364
1.16213167978954
1.16212903714179
1.16212401983829
1.16213908552714
1.16214118735245
1.16214229134946
1.1621428529468
1.16214312265778
1.16214324865601
1.16214330723022
1.16214333477861
1.16214334794107
1.16214335428703
1.16214335733862
1.16214335878476
1.16214335945302
1.16214335975133
1.16214335987842
1.16214335992895
1.16214335994635
1.16214335995006
1.16214335994935
1.1621433599478
1.16214335994626
1.16214335994502
1.1621433599441
1.16214335994336
1.16214335994285
1.16214335994258
1.16214335994266
1.16214335994315
1.16214335994406
1.16214335994548
1.16214335994735
1.16214335994913
1.16214335994939
1.16214335994435
1.16214335992592
1.16214335987516
1.16214335974924
1.16214335945462
1.16214335879328
1.16214335735967
1.16214335433463
1.162143348061
1.16214333511464
1.162143308146
1.162143250777
1.16214312607133
1.16214285314492
1.16214226680916
1.16214107333547
1.16213873969538
1.16214528412305
1.16214620863854
1.16214668365737
1.16214692067215
1.16214703242459
1.16214708370783
1.16214710713965
1.16214711799309
1.16214712312078
1.16214712557732
1.16214712675625
1.16214712731552
1.16214712757464
1.16214712769063
1.16214712774012
1.16214712775974
1.16214712776634
1.16214712776761
1.16214712776719
1.16214712776645
1.16214712776574
1.16214712776518
1.16214712776475
1.16214712776442
1.16214712776421
1.1621471277641
1.16214712776416
1.1621471277644
1.16214712776482
1.16214712776547
1.16214712776632
1.16214712776713
1.16214712776736
1.16214712776555
1.16214712775843
1.16214712773851
1.16214712768904
1.16214712757363
1.16214712731564
1.16214712675874
1.16214712558731
1.1621471231595
1.16214711813262
1.16214710757004
1.16214708478175
1.16214703433497
1.16214692162122
1.16214667396679
1.16214615773083
1.16214512100607
1.16214784524571
1.16214823507334
1.16214843154121
1.16214852784093
1.16214857247081
1.16214859260855
1.16214860165833
1.16214860578813
1.16214860771762
1.16214860863618
1.16214860907618
1.16214860928517
1.16214860938227
1.16214860942585
1.16214860944448
1.16214860945184
1.16214860945427
1.16214860945469
1.1621486094545
1.16214860945418
1.16214860945388
1.16214860945365
1.16214860945348
1.16214860945336
1.16214860945329
1.16214860945326
1.16214860945331
1.16214860945343
1.16214860945363
1.16214860945393
1.16214860945431
1.16214860945468
1.16214860945483
1.16214860945421
1.16214860945156
1.162148609444
1.16214860942518
1.16214860938138
1.1621486092839
1.16214860907447
1.16214860863561
1.16214860772744
1.16214860584226
1.16214860184965
1.16214859311949
1.16214857345197
1.16214852862418
1.16214842798248
1.1621482134196
1.16214777194007
1.16214885550278
1.16214901356829
1.1621490919016
1.16214912967503
1.16214914690204
1.16214915455226
1.16214915793616
1.16214915945815
1.16214916016143
1.16214916049413
1.1621491606532
1.16214916072885
1.16214916076409
1.16214916077996
1.16214916078675
1.16214916078944
1.16214916079031
1.16214916079046
1.16214916079039
1.16214916079027
1.16214916079016
1.16214916079009
1.16214916079004
1.16214916079001
1.16214916079
1.16214916079001
1.16214916079006
1.16214916079013
1.16214916079023
1.16214916079038
1.16214916079055
1.16214916079073
1.16214916079082
1.16214916079063
1.16214916078969
1.16214916078692
1.16214916077999
1.16214916076387
1.16214916072814
1.16214916065172
1.16214916049226
1.16214916016298
1.16214915947823
1.16214915801759
1.16214915478297
1.16214914737256
1.1621491301553
1.16214909069585
1.16214900476181
1.16214882398772
1.16214923034429
1.16214929214807
1.16214932233096
1.16214933666994
1.1621493431125
1.16214934593094
1.16214934715892
1.1621493477035
1.16214934795239
1.16214934806937
1.16214934812519
1.16214934815176
1.16214934816417
1.16214934816977
1.16214934817218
1.16214934817313
1.16214934817345
1.16214934817351
1.16214934817349
1.16214934817347
1.16214934817344
1.16214934817344
1.16214934817344
1.16214934817345
1.16214934817347
1.1621493481735
1.16214934817354
1.16214934817359
1.16214934817365
1.16214934817373
1.16214934817382
1.16214934817392
1.16214934817398
1.16214934817395
1.16214934817364
1.16214934817268
1.16214934817022
1.16214934816448
1.16214934815177
1.16214934812469
1.16214934806841
1.16214934795245
1.16214934771101
1.16214934719262
1.16214934603075
1.16214934332578
1.16214933692429
1.16214932196107
1.16214928871298
1.1621492173384
1.16214935428618
1.1621493776466
1.16214938891057
1.16214939418947
1.16214939652874
1.16214939753777
1.16214939797111
1.16214939816064
1.16214939824631
1.16214939828629
1.16214939830532
1.16214939831437
1.16214939831861
1.16214939832052
1.16214939832135
1.16214939832168
1.1621493983218
1.16214939832183
1.16214939832184
1.16214939832185
1.16214939832187
1.16214939832189
1.16214939832191
1.16214939832194
1.16214939832197
1.162149398322
1.16214939832204
1.16214939832208
1.16214939832213
1.16214939832219
1.16214939832225
1.16214939832231
1.16214939832236
1.16214939832238
1.1621493983223
1.162149398322
1.16214939832118
1.16214939831923
1.16214939831486
1.16214939830556
1.16214939828626
1.16214939824657
1.16214939816382
1.16214939798502
1.16214939757962
1.1621493966211
1.16214939431215
1.16214938881257
1.16214937635823
1.16214934911846
1.16214938250671
1.1621493910612
1.16214939514045
1.16214939702871
1.16214939785482
1.16214939820644
1.16214939835536
1.16214939841959
1.16214939844828
1.16214939846155
1.16214939846783
1.16214939847081
1.1621493984722
1.16214939847283
1.1621493984731
1.16214939847322
1.16214939847327
1.16214939847329
1.16214939847332
1.16214939847334
1.16214939847337
1.16214939847339
1.16214939847343
1.16214939847346
1.1621493984735
1.16214939847353
1.16214939847357
1.16214939847361
1.16214939847365
1.1621493984737
1.16214939847374
1.16214939847379
1.16214939847384
1.16214939847387
1.16214939847388
1.16214939847382
1.16214939847358
1.16214939847297
1.16214939847155
1.16214939846849
1.16214939846209
1.16214939844892
1.16214939842135
1.16214939836137
1.16214939822379
1.16214939789351
1.16214939708416
1.16214939512138
1.16214939059577
1.16214938052477
1.16214937536221
1.16214937840319
1.16214937983919
1.16214938049643
1.16214938078057
1.16214938089996
1.16214938094982
1.162149380971
1.16214938098031
1.16214938098456
1.16214938098654
1.16214938098747
1.1621493809879
1.16214938098809
1.16214938098818
1.16214938098822
1.16214938098825
1.16214938098827
1.1621493809883
1.16214938098833
1.16214938098836
1.16214938098839
1.16214938098843
1.16214938098846
1.1621493809885
1.16214938098854
1.16214938098857
1.16214938098861
1.16214938098865
1.16214938098869
1.16214938098873
1.16214938098878
1.16214938098882
1.16214938098886
1.1621493809889
1.16214938098892
1.16214938098889
1.16214938098874
1.16214938098833
1.1621493809874
1.16214938098539
1.16214938098119
1.16214938097231
1.16214938095278
1.16214938090736
1.16214938079659
1.16214938052051
1.16214937983924
1.16214937824123
1.16214937462707
1.16214935553871
1.16214935658995
1.16214935708197
1.16214935730479
1.16214935740003
1.16214935743953
1.16214935745576
1.16214935746251
1.16214935746541
1.16214935746669
1.16214935746727
1.16214935746752
1.16214935746764
1.16214935746768
1.16214935746771
1.16214935746773
1.16214935746775
1.16214935746777
1.1621493574678
1.16214935746783
1.16214935746786
1.16214935746789
1.16214935746793
1.16214935746797
1.162149357468
1.16214935746804
1.16214935746808
1.16214935746811
1.16214935746815
1.16214935746819
1.16214935746823
1.16214935746827
1.16214935746832
1.16214935746836
1.16214935746841
1.16214935746845
1.16214935746849
1.16214935746849
1.16214935746842
1.1621493574682
1.16214935746764
1.16214935746641
1.16214935746369
1.16214935745757
1.16214935744302
1.16214935740688
1.16214935731518
1.16214935708497
1.16214935653592
1.16214935527475
1.16214933129601
1.16214933164992
1.16214933181411
1.16214933188768
1.16214933191875
1.16214933193144
1.16214933193654
1.16214933193858
1.16214933193941
1.16214933193975
1.16214933193988
1.16214933193992
1.16214933193993
1.16214933193994
1.16214933193994
1.16214933193995
1.16214933193997
1.16214933193999
1.16214933194002
1.16214933194005
1.16214933194008
1.16214933194012
1.16214933194015
1.16214933194019
1.16214933194023
1.16214933194026
1.1621493319403
1.16214933194034
1.16214933194038
1.16214933194041
1.16214933194045
1.16214933194049
1.16214933194054
1.16214933194058
1.16214933194063
1.16214933194068
1.16214933194074
1.16214933194079
1.16214933194083
1.16214933194083
1.16214933194074
1.16214933194045
1.16214933193972
1.16214933193792
1.16214933193345
1.16214933192203
1.1621493318924
1.16214933181668
1.16214933163298
1.16214933120442
1.16214930555334
1.16214930566951
1.1621493057228
1.16214930574638
1.16214930575619
1.1621493057601
1.16214930576161
1.16214930576216
1.16214930576234
1.16214930576239
1.16214930576238
1.16214930576237
1.16214930576235
1.16214930576234
1.16214930576235
1.16214930576236
1.16214930576237
1.1621493057624
1.16214930576242
1.16214930576245
1.16214930576249
1.16214930576252
1.16214930576256
1.16214930576259
1.16214930576263
1.16214930576267
1.1621493057627
1.16214930576274
1.16214930576278
1.16214930576281
1.16214930576285
1.16214930576289
1.16214930576293
1.16214930576298
1.16214930576303
1.16214930576308
1.16214930576314
1.16214930576321
1.16214930576328
1.16214930576334
1.16214930576339
1.16214930576339
1.16214930576327
1.16214930576283
1.16214930576156
1.16214930575811
1.16214930574887
1.1621493057247
1.16214930566491
1.16214930552293
1.16214927931414
1.16214927935132
1.16214927936803
1.16214927937526
1.1621492793782
1.16214927937932
1.1621492793797
1.1621492793798
1.16214927937979
1.16214927937976
1.16214927937972
1.16214927937969
1.16214927937967
1.16214927937966
1.16214927937967
1.16214927937968
1.16214927937969
1.16214927937972
1.16214927937975
1.16214927937978
1.16214927937981
1.16214927937984
1.16214927937988
1.16214927937992
1.16214927937995
1.16214927937999
1.16214927938002
1.16214927938006
1.1621492793801
1.16214927938013
1.16214927938017
1.16214927938021
1.16214927938025
1.16214927938029
1.16214927938034
1.16214927938039
1.16214927938045
1.16214927938052
1.16214927938059
1.16214927938067
1.16214927938076
1.16214927938084
1.16214927938089
1.16214927938085
1.16214927938057
1.16214927937962
1.1621492793769
1.16214927936951
1.16214927935069
1.16214927930482
1.16214925291441
1.16214925292597
1.1621492529309
1.16214925293293
1.1621492529337
1.16214925293396
1.16214925293401
1.16214925293398
1.16214925293393
1.16214925293389
1.16214925293385
1.16214925293382
1.1621492529338
1.1621492529338
1.1621492529338
1.16214925293382
1.16214925293383
1.16214925293386
1.16214925293389
1.16214925293392
1.16214925293395
1.16214925293399
1.16214925293402
1.16214925293406
1.16214925293409
1.16214925293413
1.16214925293417
1.1621492529342
1.16214925293424
1.16214925293427
1.16214925293431
1.16214925293435
1.16214925293439
1.16214925293443
1.16214925293447
1.16214925293452
1.16214925293458
1.16214925293464
1.16214925293471
1.16214925293479
1.16214925293488
1.16214925293497
1.16214925293506
1.16214925293513
1.16214925293513
1.16214925293494
1.16214925293424
1.16214925293218
1.16214925292659
1.16214925291217
1.16214922646392
1.16214922646738
1.1621492264686
1.16214922646901
1.16214922646913
1.16214922646914
1.1621492264691
1.16214922646905
1.16214922646901
1.16214922646896
1.16214922646893
1.16214922646891
1.1621492264689
1.1621492264689
1.16214922646891
1.16214922646892
1.16214922646895
1.16214922646897
1.162149226469
1.16214922646903
1.16214922646906
1.1621492264691
1.16214922646913
1.16214922646917
1.16214922646921
1.16214922646924
1.16214922646928
1.16214922646931
1.16214922646935
1.16214922646938
1.16214922646942
1.16214922646946
1.16214922646949
1.16214922646953
1.16214922646958
1.16214922646962
1.16214922646967
1.16214922646973
1.1621492264698
1.16214922646987
1.16214922646995
1.16214922647003
1.16214922647012
1.16214922647021
1.16214922647028
1.1621492264703
1.1621492264702
1.16214922646978
1.16214922646835
1.16214922646399
1.16214919999772
1.16214919999867
1.16214919999876
1.16214919999869
1.16214919999863
1.16214919999858
1.16214919999853
1.16214919999849
1.16214919999845
1.16214919999842
1.1621491999984
1.16214919999839
1.16214919999839
1.16214919999839
1.1621491999984
1.16214919999842
1.16214919999845
1.16214919999847
1.1621491999985
1.16214919999853
1.16214919999857
1.1621491999986
1.16214919999864
1.16214919999867
1.16214919999871
1.16214919999874
1.16214919999878
1.16214919999881
1.16214919999885
1.16214919999888
1.16214919999892
1.16214919999895
1.16214919999899
1.16214919999903
1.16214919999907
1.16214919999911
1.16214919999916
1.16214919999921
1.16214919999927
1.16214919999933
1.1621491999994
1.16214919999947
1.16214919999955
1.16214919999962
1.16214919999969
1.16214919999976
1.16214919999983
1.1621491999999
1.16214919999975
1.16214919999852
1.16214917352675
1.16214917352694
1.1621491735267
1.1621491735265
1.1621491735264
1.16214917352635
1.16214917352632
1.16214917352629
1.16214917352627
1.16214917352626
1.16214917352625
1.16214917352624
1.16214917352625
1.16214917352626
1.16214917352627
1.1621491735263
1.16214917352632
1.16214917352635
1.16214917352638
1.16214917352641
1.16214917352645
1.16214917352648
1.16214917352652
1.16214917352655
1.16214917352659
1.16214917352662
1.16214917352666
1.16214917352669
1.16214917352673
1.16214917352676
1.16214917352679
1.16214917352683
1.16214917352686
1.1621491735269
1.16214917352693
1.16214917352697
1.16214917352701
1.16214917352706
1.16214917352711
1.16214917352716
1.16214917352722
1.16214917352728
1.16214917352734
1.1621491735274
1.16214917352745
1.16214917352751
1.16214917352762
1.16214917352782
1.16214917352804
1.16214917352778
1.16214914705437
1.16214914705434
1.16214914705401
1.16214914705379
1.16214914705369
1.16214914705366
1.16214914705364
1.16214914705363
1.16214914705363
1.16214914705363
1.16214914705363
1.16214914705363
1.16214914705364
1.16214914705366
1.16214914705368
1.16214914705371
1.16214914705373
1.16214914705376
1.1621491470538
1.16214914705383
1.16214914705386
1.1621491470539
1.16214914705393
1.16214914705397
1.16214914705401
1.16214914705404
1.16214914705407
1.16214914705411
1.16214914705414
1.16214914705417
1.1621491470542
1.16214914705424
1.16214914705427
1.1621491470543
1.16214914705434
1.16214914705437
1.16214914705441
1.16214914705445
1.16214914705449
1.16214914705453
1.16214914705458
1.16214914705462
1.16214914705466
1.1621491470547
1.16214914705474
1.16214914705479
1.16214914705488
1.1621491470551
1.16214914705543
1.16214914705545
1.16214912058156
1.16214912058147
1.16214912058113
1.16214912058092
1.16214912058084
1.16214912058083
1.16214912058083
1.16214912058084
1.16214912058085
1.16214912058086
1.16214912058087
1.16214912058089
1.16214912058091
1.16214912058093
1.16214912058096
1.16214912058098
1.16214912058101
1.16214912058105
1.16214912058108
1.16214912058111
1.16214912058115
1.16214912058118
1.16214912058122
1.16214912058126
1.16214912058129
1.16214912058132
1.16214912058136
1.16214912058139
1.16214912058142
1.16214912058145
1.16214912058148
1.16214912058152
1.16214912058155
1.16214912058158
1.16214912058161
1.16214912058164
1.16214912058167
1.1621491205817
1.16214912058173
1.16214912058177
1.1621491205818
1.16214912058183
1.16214912058186
1.16214912058188
1.1621491205819
1.16214912058192
1.162149120582
1.16214912058221
1.16214912058256
1.16214912058265
1.16214909410863
1.16214909410854
1.16214909410821
1.16214909410801
1.16214909410795
1.16214909410796
1.16214909410798
1.16214909410801
1.16214909410803
1.16214909410806
1.16214909410808
1.16214909410811
1.16214909410813
1.16214909410816
1.16214909410819
1.16214909410822
1.16214909410825
1.16214909410829
1.16214909410832
1.16214909410836
1.1621490941084
1.16214909410843
1.16214909410847
1.1621490941085
1.16214909410854
1.16214909410857
1.1621490941086
1.16214909410863
1.16214909410867
1.1621490941087
1.16214909410873
1.16214909410875
1.16214909410878
1.16214909410881
1.16214909410884
1.16214909410886
1.16214909410889
1.16214909410892
1.16214909410894
1.16214909410897
1.16214909410899
1.162149094109
1.16214909410902
1.16214909410902
1.16214909410902
1.16214909410902
1.16214909410908
1.16214909410927
1.16214909410961
1.16214909410972
1.16214906763567
1.16214906763558
1.16214906763526
1.16214906763509
1.16214906763505
1.16214906763508
1.16214906763512
1.16214906763517
1.16214906763521
1.16214906763524
1.16214906763528
1.16214906763531
1.16214906763534
1.16214906763538
1.16214906763541
1.16214906763545
1.16214906763548
1.16214906763552
1.16214906763555
1.16214906763559
1.16214906763563
1.16214906763566
1.1621490676357
1.16214906763573
1.16214906763577
1.1621490676358
1.16214906763584
1.16214906763587
1.1621490676359
1.16214906763593
1.16214906763595
1.16214906763598
1.16214906763601
1.16214906763603
1.16214906763605
1.16214906763608
1.1621490676361
1.16214906763612
1.16214906763614
1.16214906763615
1.16214906763616
1.16214906763616
1.16214906763616
1.16214906763615
1.16214906763613
1.16214906763611
1.16214906763614
1.16214906763631
1.16214906763664
1.16214906763675
1.16214904116268
1.16214904116261
1.16214904116231
1.16214904116216
1.16214904116215
1.1621490411622
1.16214904116226
1.16214904116232
1.16214904116237
1.16214904116242
1.16214904116246
1.16214904116251
1.16214904116255
1.16214904116259
1.16214904116262
1.16214904116266
1.1621490411627
1.16214904116274
1.16214904116278
1.16214904116282
1.16214904116285
1.16214904116289
1.16214904116293
1.16214904116296
1.162149041163
1.16214904116303
1.16214904116306
1.16214904116309
1.16214904116312
1.16214904116315
1.16214904116317
1.1621490411632
1.16214904116322
1.16214904116325
1.16214904116327
1.16214904116328
1.1621490411633
1.16214904116331
1.16214904116332
1.16214904116333
1.16214904116333
1.16214904116332
1.1621490411633
1.16214904116327
1.16214904116323
1.16214904116319
1.16214904116321
1.16214904116335
1.16214904116366
1.16214904116375
1.16214901468969
1.16214901468963
1.16214901468935
1.16214901468923
1.16214901468924
1.16214901468931
1.16214901468939
1.16214901468947
1.16214901468954
1.1621490146896
1.16214901468965
1.1621490146897
1.16214901468975
1.16214901468979
1.16214901468984
1.16214901468988
1.16214901468992
1.16214901468996
1.16214901469
1.16214901469004
1.16214901469008
1.16214901469011
1.16214901469015
1.16214901469018
1.16214901469022
1.16214901469025
1.16214901469028
1.16214901469031
1.16214901469034
1.16214901469037
1.16214901469039
1.16214901469042
1.16214901469044
1.16214901469046
1.16214901469047
1.16214901469049
1.1621490146905