/*--------------------------------*- C++ -*----------------------------------*\
  =========                 |
  \\      /  F ield         | OpenFOAM: The Open Source CFD Toolbox
   \\    /   O peration     | Website:  https://openfoam.org
    \\  /    A nd           | Version:  10
     \\/     M anipulation  |
\*---------------------------------------------------------------------------*/
FoamFile
{
    format      ascii;
    class       volScalarField;
    location    "7.2";
    object      T;
}
// * * * * * * * * * * * * * * * * * * * * * * * * * * * * * * * * * * * * * //

dimensions      [0 0 0 1 0 0 0];

internalField   nonuniform List<scalar> 
2500
(
304.43271663228
304.428383342458
304.417386695875
304.409066162349
304.403816158604
304.400712784798
304.398939855347
304.397955970699
304.397428360875
304.397157221714
304.397022327102
304.39695825744
304.39692903738
304.39691565095
304.396909492497
304.396906312956
304.396904905735
304.396903881385
304.3969029687
304.396902363384
304.396901870493
304.396901456812
304.396901122467
304.396900914996
304.396900706309
304.396900539029
304.396900481719
304.396900473435
304.396900526286
304.396900650568
304.396900865824
304.396901269742
304.396901794799
304.396902622611
304.396904085566
304.396907029155
304.396913391045
304.396927302157
304.396958569771
304.397025099573
304.397162954292
304.397438301218
304.397967651639
304.39894853924
304.400712476813
304.403798111785
304.409042643584
304.417407594395
304.428477166752
304.432613890876
303.57994047166
303.554524310042
303.522564660544
303.499001100252
303.483872176653
303.474697306602
303.469303199881
303.466221535518
303.464519973402
303.463616937335
303.463156896981
303.462932522112
303.46282768192
303.462780418783
303.462759777156
303.462750871986
303.462747178427
303.462745463659
303.46274449538
303.46274393209
303.462743528089
303.462743198999
303.462742933438
303.462742752138
303.462742590919
303.462742460081
303.462742396016
303.462742367182
303.462742375842
303.462742444957
303.462742616421
303.462743013405
303.462743838141
303.462745634239
303.462749710425
303.462759274417
303.462781513469
303.46283180566
303.462942093627
303.463174135929
303.463643680262
303.464556347713
303.466261560762
303.469332983469
303.47469667009
303.483828801093
303.498960830487
303.522680469096
303.554908494028
303.579536383335
302.70372776668
302.658417376563
302.612424193557
302.579703418978
302.558915074988
302.546367699633
302.539007677719
302.53480500762
302.532481972109
302.531245877363
302.530614486061
302.530305475804
302.53016059068
302.530095330689
302.530067018072
302.530055106209
302.530050272662
302.530048261856
302.530047334916
302.530046867184
302.530046569753
302.530046334955
302.53004614382
302.530046008591
302.530045896994
302.530045805027
302.530045750337
302.530045714539
302.530045694568
302.530045719217
302.530045841499
302.530046200941
302.530047138681
302.530049389713
302.530054760164
302.530067690598
302.530098105702
302.530167213988
302.530318547067
302.530636768549
302.531279594975
302.532526836475
302.534854134162
302.539044826149
302.546370352633
302.558878595289
302.579711395363
302.612725960757
302.659264653134
302.7039179183
301.910643032494
301.854998062745
301.806130285315
301.772734349213
301.752099412052
301.739948136978
301.732977790319
301.729073740557
301.72695035533
301.725835469146
301.725272404584
301.724999457552
301.724872544964
301.724815864502
301.724791511237
301.724781416396
301.724777391385
301.724775794116
301.724775123838
301.724774816343
301.724774634597
301.724774489343
301.724774365978
301.724774276938
301.724774207743
301.724774149619
301.724774109682
301.724774076111
301.724774046545
301.724774036147
301.724774083452
301.724774311595
301.724775037709
301.724776860486
301.724781286024
301.724792134085
301.724818011378
301.724877504375
301.725009150665
301.725289069846
301.725861159303
301.726985456951
301.729114026264
301.733012142677
301.739962368433
301.752103187868
301.772837986733
301.806641207565
301.856305257559
301.911934926969
301.265527893676
301.210408194984
301.166719605419
301.138014432814
301.120796889528
301.110923536774
301.10539235617
301.102355417767
301.100729801915
301.099886860999
301.099465285886
301.09926248009
301.099168753511
301.099127124393
301.099109345925
301.099102045658
301.099099176297
301.099098077759
301.099097651253
301.09909747626
301.099097382911
301.099097305994
301.099097235136
301.099097183215
301.099097145624
301.099097113187
301.09909708751
301.099097060917
301.099097031433
301.099097011193
301.099097009462
301.099097115182
301.099097600609
301.099098871143
301.099101980585
301.099109709115
301.099128341063
301.099171556672
301.099267984607
301.099474873196
301.099901944895
301.100750995981
301.10238078798
301.105416125787
301.110940210272
301.120826615722
301.138176032464
301.167336247183
301.211972370383
301.267759016503
300.787596736136
300.740734155247
300.706425017355
300.68470447518
300.672056028496
300.664992731385
300.661127717669
300.659046388653
300.657948919686
300.657386161897
300.657106985669
300.656973453545
300.65691199355
300.656884785579
300.656873208629
300.656868486142
300.65686665342
300.656865974486
300.65686573049
300.65686564413
300.656865606882
300.65686557483
300.656865539495
300.656865513048
300.656865496014
300.656865480464
300.656865465692
300.656865447044
300.656865422836
300.656865400567
300.656865382384
300.656865412713
300.656865695889
300.656866491313
300.656868446214
300.656873365546
300.656885322588
300.656913236932
300.656975915424
300.657111331432
300.657393140314
300.657958981163
300.659058788316
300.661139982351
300.665004454437
300.672090088185
300.6848695945
300.707019414526
300.742281141521
300.790245431267
300.461885246027
300.426554119143
300.402314866687
300.387492577861
300.379105057861
300.374540734581
300.372099695004
300.370809547181
300.370138785541
300.369798242818
300.369630427135
300.369550495354
300.369513797183
300.369497578064
300.369490691164
300.369487895484
300.36948682308
300.369486439139
300.369486312154
300.369486275088
300.369486267211
300.369486260614
300.369486246539
300.369486235358
300.369486230026
300.369486224082
300.369486216431
300.369486204593
300.369486187184
300.369486168014
300.369486148621
300.369486146406
300.369486293836
300.369486746103
300.36948787217
300.369490739587
300.369497753328
300.369514202218
300.36955130244
300.369631869692
300.36980060936
300.370142263764
300.370813787512
300.37210364207
300.374545595601
300.379130311539
300.387624889854
300.402799406711
300.427870107282
300.464418677499
300.256045825915
300.231940643657
300.216289000736
300.207022158076
300.201920165174
300.199212045289
300.197795460308
300.197060142469
300.196682893959
300.196493075664
300.1964000479
300.196355867859
300.196335608914
300.196326659216
300.19632286267
300.196321327248
300.196320744725
300.196320543089
300.196320484802
300.196320475275
300.196320476028
300.196320477278
300.196320474559
300.1963204712
300.196320471727
300.196320470555
300.196320467072
300.196320460171
300.196320448843
300.196320434717
300.196320418349
300.196320407267
300.196320476679
300.196320713031
300.196321316536
300.196322870221
300.196326688414
300.196335669153
300.196355984038
300.196400256014
300.196493428489
300.196683391708
300.197060500663
300.197795033615
300.199211815873
300.201933716301
300.207110797835
300.216634361667
300.232929609025
300.258124726573
300.134597893764
300.119504161619
300.110159525758
300.104790657609
300.101910817448
300.100418244058
300.09965402925
300.099264203516
300.099066724818
300.09896816941
300.098920088037
300.098897297388
300.098886849058
300.098882231143
300.098880272518
300.098879482815
300.098879186616
300.098879088759
300.098879066233
300.098879066607
300.098879069724
300.098879072879
300.09887907359
300.098879073878
300.098879075383
300.098879075445
300.098879073984
300.098879070311
300.098879063508
300.09887905425
300.098879042721
300.098879032583
300.09887906148
300.098879176055
300.098879480239
300.098880270904
300.098882220416
300.098886812725
300.09889721628
300.098919935787
300.098967913901
300.099066285893
300.099263305009
300.099652111712
300.100415611205
300.101915510753
300.104841723656
300.11037946282
300.120173322072
300.136111175752
300.067307019401
300.058541422657
300.053336123931
300.050427988752
300.048906138956
300.048135166347
300.04774849534
300.047554571168
300.047457523691
300.047409455673
300.04738609433
300.047375033262
300.047369959488
300.047367714371
300.047366761784
300.04736637876
300.047366236833
300.047366193016
300.04736618574
300.047366187949
300.047366191103
300.047366193903
300.047366195423
300.047366196603
300.047366197936
300.047366198389
300.047366197862
300.04736619588
300.047366192056
300.047366186529
300.047366179406
300.047366172723
300.047366183145
300.04736623498
300.04736638017
300.047366760944
300.047367701941
300.047369919212
300.047374943371
300.047385923486
300.047409159925
300.047457014227
300.047553608838
300.047746586708
300.048132129603
300.048906062563
300.050453517234
300.053463157862
300.058954915896
300.068304831464
300.032114392031
300.027353899804
300.024628807648
300.023145488096
300.022387181917
300.022011289432
300.021826493499
300.021735335614
300.021690254359
300.021668083958
300.021657343736
300.021652260798
300.021649926445
300.021648891756
300.021648452424
300.021648276251
300.021648211797
300.021648193582
300.021648191943
300.02164819379
300.021648196101
300.021648198052
300.021648199335
300.021648200381
300.021648201289
300.021648201719
300.021648201537
300.021648200491
300.021648198467
300.021648195413
300.021648191413
300.021648187645
300.021648190753
300.02164821284
300.021648278812
300.021648453384
300.021648885464
300.021649902842
300.021652205973
300.021657237022
300.02166789344
300.021689912351
300.021734663868
300.021825104778
300.022008819473
300.022385396147
300.023156451272
300.024696077226
300.027589828657
300.03271905326
300.014662420424
300.012228387121
300.010879425901
300.010162752041
300.009804369784
300.009630366845
300.009546458903
300.009505733414
300.009485825821
300.009476101929
300.009471404359
300.009469181033
300.009468158235
300.009467703939
300.009467510857
300.009467433647
300.009467405903
300.009467398723
300.009467398634
300.009467399927
300.009467401364
300.009467402547
300.009467403386
300.009467404077
300.009467404614
300.009467404902
300.009467404835
300.009467404305
300.009467403291
300.00946740171
300.009467399625
300.009467397709
300.009467398395
300.009467407316
300.009467435946
300.009467512518
300.009467702232
300.00946814824
300.009469155911
300.009471353607
300.0094760075
300.009485645122
300.009505349693
300.009545604276
300.009628692864
300.009802488561
300.010166609426
300.010912339129
300.012353784685
300.015002810961
300.006423213849
300.00524495544
300.004610327767
300.004280677897
300.004119228161
300.004042374248
300.004005998102
300.003988621007
300.003980223513
300.003976148676
300.003974184926
300.00397325505
300.003972826385
300.003972635531
300.003972554324
300.003972521945
300.003972510548
300.003972507863
300.003972508088
300.003972508859
300.003972509657
300.003972510306
300.003972510784
300.003972511177
300.003972511464
300.003972511625
300.003972511598
300.003972511342
300.003972510857
300.003972510085
300.003972509063
300.003972508113
300.003972508171
300.003972511654
300.003972523552
300.003972555824
300.003972635824
300.003972823482
300.00397324623
300.003974165825
300.003976110641
300.003980142985
300.003988429207
300.004005528958
300.004041371365
300.004117824448
300.004281597345
300.004625286722
300.005307488807
300.00660271884
300.002706671862
300.002164092816
300.001879100416
300.001734126357
300.001664501514
300.00163197548
300.001616854677
300.001609743082
300.001606345177
300.001604706944
300.001603919158
300.001603545822
300.001603373303
300.001603296293
300.001603263485
300.001603250443
300.001603245958
300.001603245007
300.0016032452
300.001603245608
300.001603246015
300.001603246343
300.001603246591
300.001603246792
300.001603246934
300.001603247014
300.001603247002
300.001603246885
300.001603246662
300.001603246305
300.001603245831
300.001603245382
300.001603245326
300.001603246639
300.001603251407
300.001603264524
300.001603297046
300.001603373122
300.001603543869
300.001603913983
300.00160469493
300.001606314504
300.001609656635
300.001616618585
300.001631428274
300.001663620652
300.001734075553
300.001885435732
300.002193526207
300.002795947676
300.001099697672
300.000861039413
300.000738416134
300.000677232081
300.000648383717
300.000635145106
300.000629096195
300.00062629434
300.000624970582
300.000624336388
300.000624032019
300.000623887621
300.000623820717
300.000623790769
300.000623777994
300.000623772931
300.00062377123
300.00062377091
300.000623771025
300.000623771224
300.000623771416
300.000623771571
300.00062377169
300.000623771785
300.00062377185
300.000623771886
300.000623771882
300.00062377183
300.000623771732
300.000623771574
300.000623771366
300.000623771165
300.000623771117
300.000623771597
300.000623773448
300.000623778606
300.000623791393
300.00062382121
300.000623887837
300.000624031634
300.000624334082
300.000624960872
300.000626258619
300.000628985398
300.000634868197
300.000647890891
300.000676987417
300.000740918037
300.00087418127
300.001141805732
300.000431726261
300.000331094907
300.000280378007
300.00025551875
300.000243997697
300.000238799128
300.000236462864
300.000235396684
300.000234898525
300.000234661351
300.000234547729
300.000234493754
300.000234468674
300.000234457415
300.000234452604
300.000234450703
300.000234450079
300.000234449976
300.000234450033
300.000234450122
300.000234450207
300.000234450276
300.000234450329
300.000234450371
300.000234450399
300.000234450414
300.000234450412
300.000234450391
300.000234450349
300.000234450283
300.000234450196
300.000234450111
300.000234450084
300.000234450256
300.000234450955
300.000234452924
300.000234457801
300.000234469132
300.000234494326
300.000234548429
300.000234661767
300.000234896274
300.000235383007
300.000236413784
300.000238667548
300.000243744742
300.000255316889
300.000281297001
300.000336685005
300.000450649942
300.000164101789
300.00012329829
300.000103077034
300.000093325961
300.000088878792
300.000086903807
300.000086030163
300.000085637179
300.000085455561
300.000085369622
300.00008532852
300.000085308966
300.000085299851
300.000085295746
300.000085293988
300.000085293295
300.000085293071
300.000085293039
300.000085293063
300.0000852931
300.000085293136
300.000085293164
300.000085293186
300.000085293203
300.000085293214
300.000085293221
300.00008529322
300.000085293211
300.000085293194
300.000085293168
300.000085293133
300.0000852931
300.000085293088
300.000085293149
300.000085293407
300.000085294139
300.000085295949
300.000085300135
300.000085309392
300.000085329159
300.000085370374
300.000085455442
300.000085632287
300.000086009446
300.000086844563
300.000088757652
300.000093202308
300.000103388619
300.000125571948
300.000172237498
300.000060505436
300.000044551215
300.000036759652
300.000033058035
300.000031394814
300.000030667135
300.000030350038
300.000030209372
300.000030145056
300.000030114805
300.000030100358
300.000030093473
300.000030090252
300.000030088795
300.00003008817
300.000030087922
300.000030087842
300.000030087831
300.00003008784
300.000030087854
300.000030087867
300.000030087878
300.000030087886
300.000030087892
300.000030087897
300.000030087899
300.000030087898
300.000030087895
300.000030087889
300.000030087879
300.000030087866
300.000030087854
300.00003008785
300.000030087873
300.000030087967
300.000030088233
300.000030088889
300.000030090397
300.00003009371
300.000030100741
300.000030115322
300.00003014532
300.000030207724
300.00003034164
300.00003064168
300.000031340074
300.000032992698
300.000036855462
300.000045438281
300.000063863132
300.000021676971
300.000015646625
300.000012738854
300.000011376046
300.000010772079
300.000010511501
300.000010399547
300.00001035054
300.000010328364
300.000010317993
300.000010313046
300.000010310683
300.000010309572
300.000010309066
300.000010308847
300.00001030876
300.00001030873
300.000010308725
300.000010308727
300.000010308731
300.000010308735
300.000010308738
300.000010308741
300.000010308743
300.000010308744
300.000010308745
300.000010308744
300.000010308743
300.000010308741
300.000010308738
300.000010308734
300.00001030873
300.00001030873
300.000010308739
300.000010308774
300.00001030887
300.000010309103
300.000010309635
300.000010310794
300.000010313235
300.000010318265
300.000010328573
300.00001035001
300.000010396254
300.000010501005
300.000010748552
300.000011344697
300.000012764473
300.000015979525
300.000023011294
300.000007558253
300.000005349954
300.000004296876
300.000003809355
300.000003596013
300.000003505154
300.000003466632
300.000003449979
300.000003442517
300.000003439046
300.00000343739
300.000003436595
300.000003436219
300.000003436046
300.000003435969
300.000003435937
300.000003435925
300.000003435921
300.00000343592
300.00000343592
300.000003435921
300.000003435921
300.000003435921
300.000003435921
300.000003435921
300.000003435921
300.000003435921
300.000003435921
300.00000343592
300.00000343592
300.000003435919
300.000003435919
300.00000343592
300.000003435925
300.000003435939
300.000003435974
300.000003436056
300.000003436241
300.000003436639
300.00000343747
300.000003439167
300.000003442626
300.000003449811
300.000003465374
300.00000350098
300.000003586335
300.000003795355
300.000004302115
300.000005470416
300.000008070189
300.000002568752
300.000001783728
300.000001412995
300.000001243267
300.000001169846
300.000001138948
300.000001126007
300.000001120477
300.00000111802
300.000001116881
300.000001116336
300.000001116072
300.000001115945
300.000001115885
300.000001115856
300.000001115843
300.000001115837
300.000001115833
300.000001115831
300.00000111583
300.000001115829
300.000001115828
300.000001115827
300.000001115826
300.000001115826
300.000001115826
300.000001115826
300.000001115826
300.000001115826
300.000001115826
300.000001115827
300.000001115828
300.00000111583
300.000001115833
300.000001115839
300.000001115854
300.000001115884
300.000001115949
300.000001116085
300.000001116363
300.000001116926
300.000001118064
300.000001120419
300.000001125534
300.000001137339
300.000001166016
300.000001237364
300.000001413297
300.000001825847
300.000002758832
300.00000085224
300.000000580857
300.000000453813
300.000000396238
300.000000371592
300.000000361331
300.000000357079
300.000000355279
300.000000354484
300.000000354115
300.000000353936
300.000000353848
300.000000353803
300.00000035378
300.000000353768
300.000000353761
300.000000353756
300.000000353753
300.000000353751
300.000000353749
300.000000353747
300.000000353746
300.000000353744
300.000000353744
300.000000353743
300.000000353743
300.000000353743
300.000000353743
300.000000353743
300.000000353744
300.000000353745
300.000000353747
300.000000353749
300.000000353751
300.000000353755
300.000000353762
300.000000353775
300.000000353799
300.000000353847
300.000000353941
300.000000354126
300.000000354496
300.000000355254
300.0000003569
300.000000360724
300.000000370126
300.000000393866
300.000000453348
300.000000595113
300.000000920684
300.000000276513
300.000000185142
300.000000142732
300.000000123697
300.000000115624
300.000000112293
300.000000110923
300.000000110347
300.000000110091
300.000000109971
300.00000010991
300.000000109878
300.00000010986
300.000000109849
300.000000109842
300.000000109837
300.000000109833
300.00000010983
300.000000109828
300.000000109825
300.000000109824
300.000000109822
300.000000109821
300.00000010982
300.000000109819
300.000000109819
300.000000109819
300.000000109819
300.00000010982
300.000000109821
300.000000109822
300.000000109823
300.000000109825
300.000000109828
300.000000109831
300.000000109836
300.000000109843
300.000000109853
300.000000109872
300.000000109906
300.000000109968
300.000000110089
300.000000110331
300.000000110852
300.000000112066
300.000000115078
300.000000122781
300.000000142375
300.00000018982
300.000000300459
300.00000008799
300.000000057996
300.000000044218
300.000000038098
300.000000035522
300.000000034465
300.000000034031
300.000000033846
300.000000033762
300.00000003372
300.000000033697
300.000000033683
300.000000033674
300.000000033667
300.000000033661
300.000000033657
300.000000033653
300.00000003365
300.000000033647
300.000000033645
300.000000033643
300.000000033642
300.00000003364
300.000000033639
300.000000033639
300.000000033638
300.000000033638
300.000000033639
300.000000033639
300.00000003364
300.000000033641
300.000000033643
300.000000033645
300.000000033648
300.000000033651
300.000000033654
300.000000033659
300.000000033666
300.000000033675
300.000000033689
300.000000033713
300.000000033754
300.000000033833
300.000000033998
300.000000034378
300.000000035321
300.000000037755
300.000000044032
300.000000059485
300.000000096142
300.000000027645
300.000000018045
300.000000013716
300.000000011821
300.000000011028
300.000000010701
300.000000010564
300.000000010503
300.000000010472
300.000000010455
300.000000010443
300.000000010434
300.000000010428
300.000000010422
300.000000010417
300.000000010413
300.000000010409
300.000000010406
300.000000010403
300.000000010401
300.000000010399
300.000000010398
300.000000010396
300.000000010395
300.000000010395
300.000000010394
300.000000010394
300.000000010395
300.000000010395
300.000000010396
300.000000010397
300.000000010399
300.000000010401
300.000000010404
300.000000010407
300.00000001041
300.000000010414
300.000000010419
300.000000010426
300.000000010434
300.000000010445
300.000000010462
300.000000010491
300.000000010545
300.000000010664
300.000000010952
300.000000011696
300.000000013633
300.000000018505
300.000000030349
300.000000008742
300.000000005755
300.000000004472
300.000000003929
300.000000003701
300.000000003603
300.000000003559
300.000000003535
300.000000003521
300.000000003511
300.000000003503
300.000000003496
300.00000000349
300.000000003485
300.00000000348
300.000000003476
300.000000003472
300.000000003469
300.000000003467
300.000000003464
300.000000003462
300.000000003461
300.000000003459
300.000000003458
300.000000003458
300.000000003458
300.000000003458
300.000000003458
300.000000003458
300.000000003459
300.000000003461
300.000000003462
300.000000003464
300.000000003467
300.00000000347
300.000000003473
300.000000003477
300.000000003482
300.000000003487
300.000000003493
300.000000003501
300.000000003511
300.000000003524
300.000000003545
300.000000003583
300.00000000367
300.000000003882
300.000000004438
300.000000005892
300.000000009615
300.000000002941
300.00000000205
300.000000001727
300.000000001607
300.000000001554
300.000000001527
300.000000001511
300.000000001499
300.00000000149
300.000000001482
300.000000001475
300.000000001468
300.000000001463
300.000000001457
300.000000001453
300.000000001449
300.000000001445
300.000000001442
300.000000001439
300.000000001437
300.000000001435
300.000000001434
300.000000001432
300.000000001431
300.000000001431
300.00000000143
300.00000000143
300.000000001431
300.000000001431
300.000000001432
300.000000001434
300.000000001435
300.000000001437
300.00000000144
300.000000001443
300.000000001446
300.00000000145
300.000000001454
300.00000000146
300.000000001465
300.000000001472
300.000000001479
300.000000001488
300.000000001499
300.000000001514
300.000000001539
300.000000001588
300.000000001714
300.000000002089
300.000000003215
300.000000001196
300.000000000955
300.000000000928
300.000000000937
300.000000000938
300.000000000932
300.000000000924
300.000000000916
300.000000000908
300.0000000009
300.000000000893
300.000000000887
300.000000000882
300.000000000876
300.000000000872
300.000000000868
300.000000000864
300.000000000861
300.000000000859
300.000000000856
300.000000000854
300.000000000853
300.000000000852
300.000000000851
300.00000000085
300.00000000085
300.00000000085
300.00000000085
300.000000000851
300.000000000852
300.000000000853
300.000000000855
300.000000000857
300.000000000859
300.000000000862
300.000000000865
300.000000000869
300.000000000874
300.000000000879
300.000000000884
300.00000000089
300.000000000897
300.000000000904
300.000000000913
300.000000000921
300.000000000928
300.000000000929
300.000000000923
300.000000000965
300.000000001278
300.000000000682
300.000000000638
300.000000000701
300.000000000749
300.000000000765
300.000000000765
300.000000000759
300.000000000751
300.000000000744
300.000000000736
300.00000000073
300.000000000723
300.000000000718
300.000000000713
300.000000000708
300.000000000704
300.000000000701
300.000000000698
300.000000000695
300.000000000693
300.000000000691
300.00000000069
300.000000000688
300.000000000687
300.000000000687
300.000000000686
300.000000000686
300.000000000687
300.000000000687
300.000000000688
300.00000000069
300.000000000691
300.000000000693
300.000000000696
300.000000000698
300.000000000702
300.000000000706
300.00000000071
300.000000000715
300.00000000072
300.000000000727
300.000000000733
300.00000000074
300.000000000748
300.000000000754
300.000000000756
300.000000000744
300.000000000699
300.000000000641
300.000000000704
300.000000000535
300.00000000055
300.000000000638
300.000000000697
300.000000000718
300.000000000719
300.000000000713
300.000000000706
300.000000000698
300.00000000069
300.000000000684
300.000000000677
300.000000000672
300.000000000667
300.000000000663
300.000000000659
300.000000000655
300.000000000652
300.00000000065
300.000000000647
300.000000000646
300.000000000644
300.000000000643
300.000000000642
300.000000000641
300.000000000641
300.000000000641
300.000000000641
300.000000000642
300.000000000643
300.000000000644
300.000000000646
300.000000000648
300.00000000065
300.000000000653
300.000000000656
300.00000000066
300.000000000664
300.000000000669
300.000000000675
300.000000000681
300.000000000688
300.000000000695
300.000000000702
300.000000000709
300.00000000071
300.000000000693
300.000000000638
300.00000000055
300.000000000539
300.000000000495
300.000000000528
300.000000000623
300.000000000684
300.000000000705
300.000000000706
300.0000000007
300.000000000693
300.000000000685
300.000000000677
300.00000000067
300.000000000664
300.000000000659
300.000000000654
300.000000000649
300.000000000645
300.000000000642
300.000000000639
300.000000000637
300.000000000634
300.000000000633
300.000000000631
300.00000000063
300.000000000629
300.000000000629
300.000000000628
300.000000000628
300.000000000629
300.000000000629
300.00000000063
300.000000000631
300.000000000633
300.000000000635
300.000000000637
300.00000000064
300.000000000643
300.000000000647
300.000000000651
300.000000000656
300.000000000662
300.000000000668
300.000000000675
300.000000000682
300.00000000069
300.000000000697
300.000000000698
300.000000000681
300.000000000624
300.000000000527
300.000000000494
300.000000000487
300.000000000524
300.000000000621
300.000000000682
300.000000000702
300.000000000703
300.000000000697
300.000000000688
300.00000000068
300.000000000673
300.000000000666
300.000000000659
300.000000000654
300.000000000649
300.000000000645
300.000000000641
300.000000000638
300.000000000635
300.000000000632
300.00000000063
300.000000000629
300.000000000627
300.000000000626
300.000000000625
300.000000000625
300.000000000624
300.000000000624
300.000000000625
300.000000000625
300.000000000626
300.000000000627
300.000000000629
300.000000000631
300.000000000633
300.000000000636
300.000000000639
300.000000000643
300.000000000647
300.000000000652
300.000000000657
300.000000000664
300.000000000671
300.000000000678
300.000000000686
300.000000000694
300.000000000695
300.000000000679
300.000000000622
300.000000000524
300.000000000484
300.000000000488
300.000000000527
300.000000000623
300.000000000683
300.000000000702
300.000000000702
300.000000000695
300.000000000686
300.000000000678
300.00000000067
300.000000000663
300.000000000657
300.000000000652
300.000000000647
300.000000000643
300.000000000639
300.000000000636
300.000000000633
300.00000000063
300.000000000628
300.000000000627
300.000000000625
300.000000000624
300.000000000623
300.000000000623
300.000000000623
300.000000000623
300.000000000623
300.000000000623
300.000000000624
300.000000000625
300.000000000627
300.000000000629
300.000000000631
300.000000000634
300.000000000637
300.000000000641
300.000000000645
300.00000000065
300.000000000655
300.000000000662
300.000000000669
300.000000000677
300.000000000685
300.000000000693
300.000000000696
300.000000000681
300.000000000625
300.000000000527
300.000000000485
300.000000000492
300.000000000532
300.000000000627
300.000000000685
300.000000000703
300.000000000702
300.000000000694
300.000000000685
300.000000000676
300.000000000668
300.000000000661
300.000000000655
300.00000000065
300.000000000645
300.000000000641
300.000000000637
300.000000000634
300.000000000631
300.000000000629
300.000000000627
300.000000000625
300.000000000624
300.000000000623
300.000000000622
300.000000000622
300.000000000621
300.000000000621
300.000000000622
300.000000000622
300.000000000623
300.000000000624
300.000000000626
300.000000000627
300.00000000063
300.000000000632
300.000000000635
300.000000000639
300.000000000643
300.000000000648
300.000000000653
300.00000000066
300.000000000667
300.000000000675
300.000000000684
300.000000000693
300.000000000697
300.000000000683
300.000000000629
300.000000000532
300.00000000049
300.000000000499
300.000000000538
300.000000000632
300.000000000688
300.000000000704
300.000000000701
300.000000000693
300.000000000683
300.000000000674
300.000000000666
300.000000000659
300.000000000653
300.000000000647
300.000000000643
300.000000000639
300.000000000635
300.000000000632
300.00000000063
300.000000000627
300.000000000626
300.000000000624
300.000000000623
300.000000000622
300.000000000621
300.000000000621
300.00000000062
300.00000000062
300.000000000621
300.000000000621
300.000000000622
300.000000000623
300.000000000624
300.000000000626
300.000000000628
300.000000000631
300.000000000634